                         Program Version 5.0.0 -  RELEASE  -
|  1> !B3LYP D3BJ RIJCOSX def2-TZVPD def2/J TightSCF xyzfile
|  2>
|  3> *xyzfile 0 1 D1.xyz
|  4>
|  5> %MaxCore 64000
|  6>
|  7> %pal nprocs 4
|  8> end
|  9>
| 10> %scf
| 11>   MaxIter 150
| 12> end
| 13>
| 14>
| 15>                          ****END OF INPUT****

CARTESIAN COORDINATES (ANGSTROEM)
---------------------------------
  C      5.558206   -1.992914   -6.215054
  C      4.930199   -7.375319   -2.649623
  C      3.841892   -6.951611   -3.632829
  H      3.458144   -5.954425   -3.407121
  H      2.988484   -7.643606   -3.567078
  S      4.318115   -6.915930   -5.368692
  C      4.181880   -2.589671   -6.298911
  C      3.145873   -1.768431   -6.486753
  N      4.019102   -3.864307   -6.227427
  H      4.768490   -4.591153   -5.990773
  H      3.122405   -4.333392   -6.314620
  H      3.281635   -0.777786   -6.566549
  H      2.212549   -2.134193   -6.562246
  F      5.406154   -5.899480   -5.512972
  O      3.111910   -6.445079   -6.043792
  C      6.419260   -2.542944   -5.077630
  C      5.872267   -5.002756   -2.427819
  C      6.173994   -6.485522   -2.606315
  H      6.734852   -6.613767   -3.534015
  H      6.821463   -6.831018   -1.793617
  H      4.469612   -7.406168   -1.655876
  H      5.230134   -8.398678   -2.885906
  C      5.896512   -2.169314   -3.694552
  H      7.428880   -2.143665   -5.208078
  H      6.505894   -3.627541   -5.175502
  C      6.807804   -2.623428   -2.551019
  H      4.894708   -2.589732   -3.557501
  H      5.778823   -1.081255   -3.635790
  C      7.111544   -4.122463   -2.520363
  H      7.751615   -2.071393   -2.614406
  H      6.345837   -2.326401   -1.604086
  H      5.362882   -4.828697   -1.471335
  H      5.174429   -4.702577   -3.211298
  H      7.778329   -4.329347   -1.677651
  H      7.673189   -4.402845   -3.417586
  O      4.763396   -8.239424   -5.698629
  H      6.036826   -2.198189   -7.176852
  H      5.467610   -0.907371   -6.127968

 Total Charge           Charge          ....    0
 Multiplicity           Mult            ....    1
 Number of Electrons    NEL             ....  136
 Basis Dimension        Dim             ....  808

ORBITAL ENERGIES
----------------

  NO   OCC          E(Eh)            E(eV)
   0   2.0000     -89.115244     -2424.9491
   1   2.0000     -24.808863      -675.0835
   2   2.0000     -19.159923      -521.3680
   3   2.0000     -19.152244      -521.1591
   4   2.0000     -14.298359      -389.0781
   5   2.0000     -10.241304      -278.6800
   6   2.0000     -10.204412      -277.6762
   7   2.0000     -10.188111      -277.2326
   8   2.0000     -10.179105      -276.9875
   9   2.0000     -10.178147      -276.9615
  10   2.0000     -10.172112      -276.7972
  11   2.0000     -10.166836      -276.6537
  12   2.0000     -10.165624      -276.6207
  13   2.0000     -10.161683      -276.5135
  14   2.0000     -10.160519      -276.4818
  15   2.0000     -10.086227      -274.4602
  16   2.0000      -8.159723      -222.0373
  17   2.0000      -6.126932      -166.7223
  18   2.0000      -6.119857      -166.5298
  19   2.0000      -6.119588      -166.5225
  20   2.0000      -1.379268       -37.5318
  21   2.0000      -1.133079       -30.8326
  22   2.0000      -1.041415       -28.3384
  23   2.0000      -0.919709       -25.0266
  24   2.0000      -0.851593       -23.1730
  25   2.0000      -0.819008       -22.2863
  26   2.0000      -0.791690       -21.5430
  27   2.0000      -0.760361       -20.6905
  28   2.0000      -0.742422       -20.2023
  29   2.0000      -0.712875       -19.3983
  30   2.0000      -0.697894       -18.9907
  31   2.0000      -0.659665       -17.9504
  32   2.0000      -0.624748       -17.0003
  33   2.0000      -0.617091       -16.7919
  34   2.0000      -0.609335       -16.5809
  35   2.0000      -0.587643       -15.9906
  36   2.0000      -0.572432       -15.5767
  37   2.0000      -0.561036       -15.2666
  38   2.0000      -0.557602       -15.1731
  39   2.0000      -0.509306       -13.8589
  40   2.0000      -0.503646       -13.7049
  41   2.0000      -0.491455       -13.3732
  42   2.0000      -0.485775       -13.2186
  43   2.0000      -0.476302       -12.9608
  44   2.0000      -0.465748       -12.6736
  45   2.0000      -0.462623       -12.5886
  46   2.0000      -0.452580       -12.3153
  47   2.0000      -0.435115       -11.8401
  48   2.0000      -0.432226       -11.7615
  49   2.0000      -0.422236       -11.4896
  50   2.0000      -0.411009       -11.1841
  51   2.0000      -0.409246       -11.1361
  52   2.0000      -0.395332       -10.7575
  53   2.0000      -0.380064       -10.3421
  54   2.0000      -0.376183       -10.2365
  55   2.0000      -0.370711       -10.0875
  56   2.0000      -0.368862       -10.0373
  57   2.0000      -0.358147        -9.7457
  58   2.0000      -0.355860        -9.6834
  59   2.0000      -0.346141        -9.4190
  60   2.0000      -0.342558        -9.3215
  61   2.0000      -0.338173        -9.2021
  62   2.0000      -0.336474        -9.1559
  63   2.0000      -0.330659        -8.9977
  64   2.0000      -0.320724        -8.7273
  65   2.0000      -0.313890        -8.5414
  66   2.0000      -0.309334        -8.4174
  67   2.0000      -0.174182        -4.7397
  68   0.0000      -0.022249        -0.6054
  69   0.0000      -0.001074        -0.0292
  70   0.0000       0.003247         0.0884
  71   0.0000       0.007608         0.2070
  72   0.0000       0.017386         0.4731

MULLIKEN ATOMIC CHARGES
-----------------------
   0 C :   -0.490961
   1 C :   -0.574792
   2 C :   -0.575650
   3 H :    0.343498
   4 H :    0.393685
   5 S :    1.223142
   6 C :    0.874019
   7 C :   -1.427903
   8 N :   -0.272388
   9 H :    0.264386
  10 H :    0.108808
  11 H :    0.302658
  12 H :    0.316653
  13 F :   -0.307429
  14 O :   -0.675671
  15 C :   -0.288339
  16 C :    0.005291
  17 C :   -0.532127
  18 H :    0.166976
  19 H :    0.303680
  20 H :    0.263182
  21 H :    0.216804
  22 C :   -0.232294
  23 H :    0.237507
  24 H :    0.033827
  25 C :   -0.705002
  26 H :    0.186922
  27 H :    0.246308
  28 C :   -0.534965
  29 H :    0.263724
  30 H :    0.246659
  31 H :    0.283123
  32 H :   -0.045620
  33 H :    0.267609
  34 H :    0.245730
  35 O :   -0.561885
  36 H :    0.228869
  37 H :    0.201967
Sum of atomic charges:    0.0000000

LOEWDIN ATOMIC CHARGES
----------------------
   0 C :   -0.141596
   1 C :   -0.215298
   2 C :   -0.215239
   3 H :    0.102916
   4 H :    0.122111
   5 S :    0.640950
   6 C :   -0.487632
   7 C :    0.030966
   8 N :    0.110564
   9 H :    0.067763
  10 H :    0.095222
  11 H :    0.005038
  12 H :    0.011566
  13 F :   -0.117655
  14 O :   -0.276519
  15 C :   -0.203378
  16 C :   -0.217389
  17 C :   -0.208847
  18 H :    0.104005
  19 H :    0.120049
  20 H :    0.119440
  21 H :    0.112293
  22 C :   -0.205680
  23 H :    0.116884
  24 H :    0.084659
  25 C :   -0.205518
  26 H :    0.106797
  27 H :    0.116912
  28 C :   -0.210106
  29 H :    0.108435
  30 H :    0.108022
  31 H :    0.129486
  32 H :    0.079143
  33 H :    0.113111
  34 H :    0.106701
  35 O :   -0.240266
  36 H :    0.118420
  37 H :    0.113669

  Mayer bond orders larger than 0.100000
B(  0-C ,  6-C ) :   0.6564 B(  0-C , 15-C ) :   0.7907 B(  0-C , 36-H ) :   0.9310
B(  0-C , 37-H ) :   0.9663 B(  1-C ,  2-C ) :   0.9571 B(  1-C ,  5-S ) :   0.1612
B(  1-C , 17-C ) :   0.8980 B(  1-C , 20-H ) :   0.9356 B(  1-C , 21-H ) :   0.9910
B(  2-C ,  3-H ) :   0.9130 B(  2-C ,  4-H ) :   0.7997 B(  2-C ,  5-S ) :   0.8195
B(  2-C , 14-O ) :   0.1184 B(  5-S , 13-F ) :   1.1194 B(  5-S , 14-O ) :   1.5225
B(  5-S , 35-O ) :   1.4538 B(  6-C ,  7-C ) :   1.1153 B(  6-C ,  8-N ) :   0.8715
B(  6-C ,  9-H ) :  -0.1152 B(  6-C , 10-H ) :  -0.1049 B(  6-C , 22-C ) :   0.1329
B(  7-C ,  8-N ) :   0.1053 B(  7-C , 11-H ) :   1.0022 B(  7-C , 12-H ) :   0.9839
B(  8-N ,  9-H ) :   0.9818 B(  8-N , 10-H ) :   1.0247 B(  8-N , 15-C ) :   0.1141
B( 15-C , 22-C ) :   0.4857 B( 15-C , 23-H ) :   0.8921 B( 15-C , 24-H ) :   1.2189
B( 15-C , 25-C ) :   0.1705 B( 15-C , 28-C ) :   0.1379 B( 16-C , 17-C ) :   0.3168
B( 16-C , 18-H ) :  -0.1207 B( 16-C , 25-C ) :   0.1946 B( 16-C , 28-C ) :   0.3638
B( 16-C , 31-H ) :   0.8076 B( 16-C , 32-H ) :   1.4597 B( 17-C , 18-H ) :   1.0151
B( 17-C , 19-H ) :   0.8925 B( 17-C , 28-C ) :   0.4371 B( 17-C , 31-H ) :  -0.1032
B( 22-C , 24-H ) :  -0.1251 B( 22-C , 25-C ) :   0.8907 B( 22-C , 26-H ) :   1.0265
B( 22-C , 27-H ) :   0.8929 B( 25-C , 28-C ) :   0.8899 B( 25-C , 29-H ) :   0.9625
B( 25-C , 30-H ) :   0.9587 B( 28-C , 31-H ) :  -0.1107 B( 28-C , 33-H ) :   0.9442
B( 28-C , 34-H ) :   0.9447 B( 31-H , 32-H ) :   0.1489

Dispersion correction           -0.074995879
FINAL SINGLE POINT ENERGY     -1135.480710559123

DIPOLE MOMENT
-------------
                                X             Y             Z
Electronic contribution:     -7.00736     -18.78348     -13.21414
Nuclear contribution   :      7.78491      18.17172      15.09294
                        -----------------------------------------
Total Dipole Moment    :      0.77755      -0.61176       1.87880
                        -----------------------------------------
Magnitude (a.u.)       :      2.12337
Magnitude (Debye)      :      5.39718

Rotational constants in cm-1:     0.018190     0.012573     0.008405
Rotational constants in MHz :   545.327178   376.916509   251.974803

                             ****ORCA TERMINATED NORMALLY****
TOTAL RUN TIME: 0 days 0 hours 9 minutes 12 seconds 124 msec
