                         Program Version 5.0.0 -  RELEASE  -
|  1> !B3LYP D3BJ RIJCOSX def2-TZVPD def2/J TightSCF xyzfile
|  2>
|  3> *xyzfile 0 1 D2.xyz
|  4>
|  5> %MaxCore 64000
|  6>
|  7> %pal nprocs 4
|  8> end
|  9>
| 10> %scf
| 11>   MaxIter 150
| 12> end
| 13>
| 14>
| 15>                          ****END OF INPUT****

CARTESIAN COORDINATES (ANGSTROEM)
---------------------------------
  C      5.558206   -1.992914   -6.215054
  C      4.930199   -7.375319   -2.649623
  C      3.841892   -6.951611   -3.632829
  H      3.458144   -5.954425   -3.407121
  H      2.988484   -7.643606   -3.567078
  S      4.318115   -6.915930   -5.368692
  C      4.181880   -2.589671   -6.298911
  N      3.145873   -1.768431   -6.486753
  C      4.019102   -3.864307   -6.227427
  H      4.768490   -4.591153   -5.990773
  H      3.122405   -4.333392   -6.314620
  H      3.281635   -0.777786   -6.566549
  H      2.212549   -2.134193   -6.562246
  F      5.406154   -5.899480   -5.512972
  O      3.111910   -6.445079   -6.043792
  C      6.419260   -2.542944   -5.077630
  C      5.872267   -5.002756   -2.427819
  C      6.173994   -6.485522   -2.606315
  H      6.734852   -6.613767   -3.534015
  H      6.821463   -6.831018   -1.793617
  H      4.469612   -7.406168   -1.655876
  H      5.230134   -8.398678   -2.885906
  C      5.896512   -2.169314   -3.694552
  H      7.428880   -2.143665   -5.208078
  H      6.505894   -3.627541   -5.175502
  C      6.807804   -2.623428   -2.551019
  H      4.894708   -2.589732   -3.557501
  H      5.778823   -1.081255   -3.635790
  C      7.111544   -4.122463   -2.520363
  H      7.751615   -2.071393   -2.614406
  H      6.345837   -2.326401   -1.604086
  H      5.362882   -4.828697   -1.471335
  H      5.174429   -4.702577   -3.211298
  H      7.778329   -4.329347   -1.677651
  H      7.673189   -4.402845   -3.417586
  O      4.763396   -8.239424   -5.698629
  H      6.036826   -2.198189   -7.176852
  H      5.467610   -0.907371   -6.127968

 Total Charge           Charge          ....    0
 Multiplicity           Mult            ....    1
 Number of Electrons    NEL             ....  136
 Basis Dimension        Dim             ....  808

ORBITAL ENERGIES
----------------

  NO   OCC          E(Eh)            E(eV)
   0   2.0000     -89.094048     -2424.3723
   1   2.0000     -24.778257      -674.2507
   2   2.0000     -19.140168      -520.8305
   3   2.0000     -19.127779      -520.4933
   4   2.0000     -14.306410      -389.2972
   5   2.0000     -10.225816      -278.2586
   6   2.0000     -10.192914      -277.3633
   7   2.0000     -10.178143      -276.9614
   8   2.0000     -10.177625      -276.9473
   9   2.0000     -10.170216      -276.7456
  10   2.0000     -10.166070      -276.6328
  11   2.0000     -10.163843      -276.5722
  12   2.0000     -10.163279      -276.5569
  13   2.0000     -10.162336      -276.5312
  14   2.0000     -10.158921      -276.4383
  15   2.0000     -10.080721      -274.3104
  16   2.0000      -8.138232      -221.4526
  17   2.0000      -6.105251      -166.1323
  18   2.0000      -6.098667      -165.9532
  19   2.0000      -6.098127      -165.9385
  20   2.0000      -1.350280       -36.7430
  21   2.0000      -1.111457       -30.2443
  22   2.0000      -1.019072       -27.7304
  23   2.0000      -0.916818       -24.9479
  24   2.0000      -0.839221       -22.8364
  25   2.0000      -0.813975       -22.1494
  26   2.0000      -0.785579       -21.3767
  27   2.0000      -0.757744       -20.6193
  28   2.0000      -0.721981       -19.6461
  29   2.0000      -0.711461       -19.3598
  30   2.0000      -0.684200       -18.6180
  31   2.0000      -0.658495       -17.9186
  32   2.0000      -0.622119       -16.9287
  33   2.0000      -0.604093       -16.4382
  34   2.0000      -0.590122       -16.0580
  35   2.0000      -0.565528       -15.3888
  36   2.0000      -0.562677       -15.3112
  37   2.0000      -0.545593       -14.8463
  38   2.0000      -0.539332       -14.6760
  39   2.0000      -0.513954       -13.9854
  40   2.0000      -0.493942       -13.4408
  41   2.0000      -0.489994       -13.3334
  42   2.0000      -0.484170       -13.1749
  43   2.0000      -0.469705       -12.7813
  44   2.0000      -0.456202       -12.4139
  45   2.0000      -0.455265       -12.3884
  46   2.0000      -0.448555       -12.2058
  47   2.0000      -0.433732       -11.8024
  48   2.0000      -0.418518       -11.3885
  49   2.0000      -0.413246       -11.2450
  50   2.0000      -0.407279       -11.0826
  51   2.0000      -0.401127       -10.9152
  52   2.0000      -0.378554       -10.3010
  53   2.0000      -0.374038       -10.1781
  54   2.0000      -0.367631       -10.0037
  55   2.0000      -0.362328        -9.8594
  56   2.0000      -0.352109        -9.5814
  57   2.0000      -0.348914        -9.4944
  58   2.0000      -0.342742        -9.3265
  59   2.0000      -0.338114        -9.2006
  60   2.0000      -0.331092        -9.0095
  61   2.0000      -0.329354        -8.9622
  62   2.0000      -0.322887        -8.7862
  63   2.0000      -0.318045        -8.6544
  64   2.0000      -0.314308        -8.5528
  65   2.0000      -0.308381        -8.3915
  66   2.0000      -0.304589        -8.2883
  67   2.0000      -0.184140        -5.0107
  68   0.0000      -0.008477        -0.2307
  69   0.0000       0.005844         0.1590
  70   0.0000       0.006537         0.1779
  71   0.0000       0.009804         0.2668
  72   0.0000       0.020415         0.5555

MULLIKEN ATOMIC CHARGES
-----------------------
   0 C :   -0.550055
   1 C :   -0.579793
   2 C :   -0.580779
   3 H :    0.339924
   4 H :    0.390537
   5 S :    1.180772
   6 C :    0.957301
   7 N :   -0.354542
   8 C :   -1.588355
   9 H :    0.477066
  10 H :    0.378223
  11 H :    0.137647
  12 H :    0.138817
  13 F :   -0.232422
  14 O :   -0.642582
  15 C :   -0.212261
  16 C :    0.114186
  17 C :   -0.554552
  18 H :    0.176475
  19 H :    0.297638
  20 H :    0.259925
  21 H :    0.212583
  22 C :   -0.302920
  23 H :    0.242803
  24 H :    0.046739
  25 C :   -0.721350
  26 H :    0.191250
  27 H :    0.267636
  28 C :   -0.529125
  29 H :    0.259891
  30 H :    0.237188
  31 H :    0.269683
  32 H :   -0.112674
  33 H :    0.264256
  34 H :    0.254495
  35 O :   -0.579597
  36 H :    0.209981
  37 H :    0.235993
Sum of atomic charges:    0.0000000

LOEWDIN ATOMIC CHARGES
----------------------
   0 C :   -0.139866
   1 C :   -0.217180
   2 C :   -0.216327
   3 H :    0.101967
   4 H :    0.119930
   5 S :    0.634080
   6 C :   -0.458951
   7 N :    0.110612
   8 C :    0.005631
   9 H :    0.007383
  10 H :    0.021635
  11 H :    0.089286
  12 H :    0.104032
  13 F :   -0.130429
  14 O :   -0.282909
  15 C :   -0.199147
  16 C :   -0.216487
  17 C :   -0.209239
  18 H :    0.104397
  19 H :    0.118569
  20 H :    0.117395
  21 H :    0.111254
  22 C :   -0.207280
  23 H :    0.116736
  24 H :    0.090497
  25 C :   -0.206098
  26 H :    0.106237
  27 H :    0.113285
  28 C :   -0.209876
  29 H :    0.107486
  30 H :    0.107286
  31 H :    0.128293
  32 H :    0.081168
  33 H :    0.112429
  34 H :    0.107315
  35 O :   -0.249880
  36 H :    0.120225
  37 H :    0.106540

  Mayer bond orders larger than 0.100000
B(  0-C ,  6-C ) :   0.4166 B(  0-C ,  8-C ) :  -0.1237 B(  0-C , 15-C ) :   0.7833
B(  0-C , 22-C ) :   0.1067 B(  0-C , 36-H ) :   0.9078 B(  0-C , 37-H ) :   1.0470
B(  1-C ,  2-C ) :   0.9536 B(  1-C ,  5-S ) :   0.1663 B(  1-C , 17-C ) :   0.8947
B(  1-C , 20-H ) :   0.9354 B(  1-C , 21-H ) :   0.9926 B(  2-C ,  3-H ) :   0.9238
B(  2-C ,  4-H ) :   0.8044 B(  2-C ,  5-S ) :   0.8208 B(  2-C , 14-O ) :   0.1220
B(  2-C , 32-H ) :   0.1086 B(  2-C , 35-O ) :   0.1109 B(  5-S ,  8-C ) :   0.1236
B(  5-S , 13-F ) :   1.1541 B(  5-S , 14-O ) :   1.5236 B(  5-S , 35-O ) :   1.4129
B(  6-C ,  7-N ) :   0.9321 B(  6-C ,  8-C ) :   0.7203 B(  6-C ,  9-H ) :   0.2022
B(  6-C , 10-H ) :  -0.2732 B(  6-C , 37-H ) :  -0.1917 B(  7-N , 11-H ) :   1.0584
B(  7-N , 12-H ) :   1.0359 B(  8-C ,  9-H ) :   0.8439 B(  8-C , 10-H ) :   1.0717
B(  8-C , 13-F ) :   0.1591 B(  9-H , 13-F ) :  -0.3100 B( 15-C , 22-C ) :   0.4299
B( 15-C , 23-H ) :   0.8718 B( 15-C , 24-H ) :   1.2504 B( 15-C , 25-C ) :   0.1565
B( 15-C , 26-H ) :  -0.1097 B( 15-C , 28-C ) :   0.1482 B( 16-C , 17-C ) :   0.3353
B( 16-C , 22-C ) :   0.1039 B( 16-C , 25-C ) :   0.1805 B( 16-C , 28-C ) :   0.3652
B( 16-C , 31-H ) :   0.8272 B( 16-C , 32-H ) :   1.4676 B( 17-C , 18-H ) :   0.9907
B( 17-C , 19-H ) :   0.9046 B( 17-C , 28-C ) :   0.4454 B( 17-C , 31-H ) :  -0.1087
B( 22-C , 24-H ) :  -0.1074 B( 22-C , 25-C ) :   0.8715 B( 22-C , 26-H ) :   1.0686
B( 22-C , 27-H ) :   0.8633 B( 25-C , 28-C ) :   0.8952 B( 25-C , 29-H ) :   0.9638
B( 25-C , 30-H ) :   0.9654 B( 28-C , 31-H ) :  -0.1077 B( 28-C , 32-H ) :  -0.1083
B( 28-C , 33-H ) :   0.9495 B( 28-C , 34-H ) :   0.9407 B( 31-H , 32-H ) :   0.1392

Dispersion correction           -0.075539486
FINAL SINGLE POINT ENERGY     -1135.474496380598

DIPOLE MOMENT
-------------
                                X             Y             Z
Electronic contribution:     -7.73349     -16.95663     -13.62628
Nuclear contribution   :      7.91684      17.85507      15.13212
                        -----------------------------------------
Total Dipole Moment    :      0.18335       0.89844       1.50583
                        -----------------------------------------
Magnitude (a.u.)       :      1.76305
Magnitude (Debye)      :      4.48132

Rotational constants in cm-1:     0.018015     0.012410     0.008313
Rotational constants in MHz :   540.084467   372.038374   249.228144

                             ****ORCA TERMINATED NORMALLY****
TOTAL RUN TIME: 0 days 0 hours 9 minutes 14 seconds 700 msec
