                         Program Version 5.0.0 -  RELEASE  -
|  1> !B3LYP D3BJ RIJCOSX def2-TZVPD def2/J TightSCF xyzfile
|  2>
|  3> *xyzfile 0 1 D3.xyz
|  4>
|  5> %MaxCore 64000
|  6>
|  7> %pal nprocs 4
|  8> end
|  9>
| 10> %scf
| 11>   MaxIter 150
| 12> end
| 13>
| 14>
| 15>                          ****END OF INPUT****

CARTESIAN COORDINATES (ANGSTROEM)
---------------------------------
  C      5.558206   -1.992914   -6.215054
  C      4.930199   -7.375319   -2.649623
  C      3.841892   -6.951611   -3.632829
  H      3.458144   -5.954425   -3.407121
  H      2.988484   -7.643606   -3.567078
  S      4.318115   -6.915930   -5.368692
  C      4.181880   -2.589671   -6.298911
  C      3.145873   -1.768431   -6.486753
  N      4.019102   -3.864307   -6.227427
  H      4.768490   -4.591153   -5.990773
  H      3.122405   -4.333392   -6.314620
  H      3.281635   -0.777786   -6.566549
  H      2.212549   -2.134193   -6.562246
  O      5.406154   -5.899480   -5.512972
  F      3.111910   -6.445079   -6.043792
  C      6.419260   -2.542944   -5.077630
  C      5.872267   -5.002756   -2.427819
  C      6.173994   -6.485522   -2.606315
  H      6.734852   -6.613767   -3.534015
  H      6.821463   -6.831018   -1.793617
  H      4.469612   -7.406168   -1.655876
  H      5.230134   -8.398678   -2.885906
  C      5.896512   -2.169314   -3.694552
  H      7.428880   -2.143665   -5.208078
  H      6.505894   -3.627541   -5.175502
  C      6.807804   -2.623428   -2.551019
  H      4.894708   -2.589732   -3.557501
  H      5.778823   -1.081255   -3.635790
  C      7.111544   -4.122463   -2.520363
  H      7.751615   -2.071393   -2.614406
  H      6.345837   -2.326401   -1.604086
  H      5.362882   -4.828697   -1.471335
  H      5.174429   -4.702577   -3.211298
  H      7.778329   -4.329347   -1.677651
  H      7.673189   -4.402845   -3.417586
  O      4.763396   -8.239424   -5.698629
  H      6.036826   -2.198189   -7.176852
  H      5.467610   -0.907371   -6.127968

 Total Charge           Charge          ....    0
 Multiplicity           Mult            ....    1
 Number of Electrons    NEL             ....  136
 Basis Dimension        Dim             ....  808

ORBITAL ENERGIES
----------------

  NO   OCC          E(Eh)            E(eV)
   0   2.0000     -89.125092     -2425.2170
   1   2.0000     -24.818263      -675.3393
   2   2.0000     -19.165405      -521.5172
   3   2.0000     -19.157337      -521.2976
   4   2.0000     -14.286818      -388.7641
   5   2.0000     -10.246263      -278.8150
   6   2.0000     -10.206556      -277.7345
   7   2.0000     -10.176521      -276.9172
   8   2.0000     -10.172131      -276.7977
   9   2.0000     -10.167039      -276.6592
  10   2.0000     -10.161189      -276.5000
  11   2.0000     -10.157690      -276.4048
  12   2.0000     -10.152393      -276.2606
  13   2.0000     -10.152136      -276.2537
  14   2.0000     -10.152020      -276.2505
  15   2.0000     -10.080635      -274.3080
  16   2.0000      -8.169268      -222.2971
  17   2.0000      -6.136038      -166.9701
  18   2.0000      -6.129779      -166.7998
  19   2.0000      -6.129271      -166.7859
  20   2.0000      -1.395839       -37.9827
  21   2.0000      -1.134475       -30.8706
  22   2.0000      -1.040572       -28.3154
  23   2.0000      -0.911565       -24.8049
  24   2.0000      -0.849863       -23.1259
  25   2.0000      -0.811400       -22.0793
  26   2.0000      -0.786971       -21.4146
  27   2.0000      -0.759264       -20.6606
  28   2.0000      -0.737461       -20.0673
  29   2.0000      -0.709430       -19.3046
  30   2.0000      -0.688819       -18.7437
  31   2.0000      -0.653851       -17.7922
  32   2.0000      -0.621105       -16.9011
  33   2.0000      -0.610467       -16.6117
  34   2.0000      -0.601284       -16.3618
  35   2.0000      -0.591716       -16.1014
  36   2.0000      -0.578262       -15.7353
  37   2.0000      -0.560120       -15.2416
  38   2.0000      -0.551067       -14.9953
  39   2.0000      -0.519776       -14.1438
  40   2.0000      -0.505724       -13.7614
  41   2.0000      -0.496483       -13.5100
  42   2.0000      -0.481373       -13.0988
  43   2.0000      -0.466827       -12.7030
  44   2.0000      -0.459796       -12.5117
  45   2.0000      -0.455885       -12.4053
  46   2.0000      -0.446247       -12.1430
  47   2.0000      -0.431557       -11.7433
  48   2.0000      -0.422712       -11.5026
  49   2.0000      -0.417607       -11.3637
  50   2.0000      -0.412285       -11.2189
  51   2.0000      -0.403424       -10.9777
  52   2.0000      -0.391543       -10.6544
  53   2.0000      -0.384326       -10.4580
  54   2.0000      -0.373362       -10.1597
  55   2.0000      -0.364146        -9.9089
  56   2.0000      -0.360796        -9.8178
  57   2.0000      -0.358078        -9.7438
  58   2.0000      -0.350895        -9.5483
  59   2.0000      -0.339268        -9.2320
  60   2.0000      -0.333667        -9.0795
  61   2.0000      -0.330271        -8.9871
  62   2.0000      -0.326470        -8.8837
  63   2.0000      -0.317590        -8.6421
  64   2.0000      -0.310379        -8.4458
  65   2.0000      -0.303645        -8.2626
  66   2.0000      -0.299978        -8.1628
  67   2.0000      -0.168171        -4.5762
  68   0.0000      -0.021421        -0.5829
  69   0.0000      -0.008037        -0.2187
  70   0.0000       0.005950         0.1619
  71   0.0000       0.011859         0.3227
  72   0.0000       0.021240         0.5780

MULLIKEN ATOMIC CHARGES
-----------------------
   0 C :   -0.460749
   1 C :   -0.648925
   2 C :   -0.569693
   3 H :    0.395001
   4 H :    0.366605
   5 S :    1.176252
   6 C :    0.807485
   7 C :   -1.434822
   8 N :   -0.232531
   9 H :    0.320009
  10 H :    0.067118
  11 H :    0.302910
  12 H :    0.307904
  13 O :   -0.736217
  14 F :   -0.211387
  15 C :   -0.329649
  16 C :   -0.023376
  17 C :   -0.505025
  18 H :    0.213586
  19 H :    0.312649
  20 H :    0.250113
  21 H :    0.221500
  22 C :   -0.248908
  23 H :    0.227958
  24 H :    0.099304
  25 C :   -0.692702
  26 H :    0.182226
  27 H :    0.245283
  28 C :   -0.571936
  29 H :    0.261591
  30 H :    0.243925
  31 H :    0.280785
  32 H :   -0.010340
  33 H :    0.270059
  34 H :    0.258193
  35 O :   -0.559145
  36 H :    0.229565
  37 H :    0.195385
Sum of atomic charges:    0.0000000

LOEWDIN ATOMIC CHARGES
----------------------
   0 C :   -0.139729
   1 C :   -0.204791
   2 C :   -0.220076
   3 H :    0.102241
   4 H :    0.112001
   5 S :    0.666036
   6 C :   -0.490317
   7 C :    0.022980
   8 N :    0.100407
   9 H :    0.037964
  10 H :    0.094219
  11 H :    0.002638
  12 H :    0.006755
  13 O :   -0.301079
  14 F :   -0.062667
  15 C :   -0.200114
  16 C :   -0.217495
  17 C :   -0.207455
  18 H :    0.105367
  19 H :    0.118819
  20 H :    0.121371
  21 H :    0.113645
  22 C :   -0.206374
  23 H :    0.115957
  24 H :    0.088104
  25 C :   -0.206527
  26 H :    0.106039
  27 H :    0.115103
  28 C :   -0.208167
  29 H :    0.107505
  30 H :    0.106505
  31 H :    0.126549
  32 H :    0.079776
  33 H :    0.111696
  34 H :    0.109300
  35 O :   -0.237198
  36 H :    0.118610
  37 H :    0.112401

  Mayer bond orders larger than 0.100000
B(  0-C ,  6-C ) :   0.6532 B(  0-C , 15-C ) :   0.7748 B(  0-C , 36-H ) :   0.9178
B(  0-C , 37-H ) :   0.9780 B(  1-C ,  2-C ) :   1.0161 B(  1-C ,  5-S ) :   0.1852
B(  1-C , 16-C ) :   0.1083 B(  1-C , 17-C ) :   0.8964 B(  1-C , 20-H ) :   0.9337
B(  1-C , 21-H ) :   0.9614 B(  2-C ,  3-H ) :   0.8373 B(  2-C ,  4-H ) :   0.8161
B(  2-C ,  5-S ) :   0.7945 B(  2-C , 35-O ) :   0.1120 B(  5-S , 13-O ) :   1.7098
B(  5-S , 14-F ) :   0.9406 B(  5-S , 35-O ) :   1.5143 B(  6-C ,  7-C ) :   1.1134
B(  6-C ,  8-N ) :   1.0014 B(  6-C ,  9-H ) :  -0.1123 B(  6-C , 12-H ) :  -0.1005
B(  6-C , 22-C ) :   0.1291 B(  7-C ,  8-N ) :   0.1023 B(  7-C , 11-H ) :   0.9978
B(  7-C , 12-H ) :   1.0002 B(  8-N ,  9-H ) :   0.8566 B(  8-N , 10-H ) :   1.0003
B(  8-N , 15-C ) :   0.1420 B( 15-C , 22-C ) :   0.4738 B( 15-C , 23-H ) :   0.9039
B( 15-C , 24-H ) :   1.1656 B( 15-C , 25-C ) :   0.1636 B( 15-C , 28-C ) :   0.1472
B( 16-C , 17-C ) :   0.3883 B( 16-C , 22-C ) :   0.1154 B( 16-C , 25-C ) :   0.1811
B( 16-C , 28-C ) :   0.3534 B( 16-C , 31-H ) :   0.8088 B( 16-C , 32-H ) :   1.4575
B( 17-C , 18-H ) :   0.9616 B( 17-C , 19-H ) :   0.8994 B( 17-C , 28-C ) :   0.4639
B( 17-C , 31-H ) :  -0.1105 B( 22-C , 24-H ) :  -0.1059 B( 22-C , 25-C ) :   0.8835
B( 22-C , 26-H ) :   1.0292 B( 22-C , 27-H ) :   0.8968 B( 25-C , 28-C ) :   0.8751
B( 25-C , 29-H ) :   0.9621 B( 25-C , 30-H ) :   0.9583 B( 28-C , 31-H ) :  -0.1044
B( 28-C , 32-H ) :  -0.1016 B( 28-C , 33-H ) :   0.9452 B( 28-C , 34-H ) :   0.9395
B( 31-H , 32-H ) :   0.1351

Dispersion correction           -0.075534218
FINAL SINGLE POINT ENERGY     -1135.479318012515

DIPOLE MOMENT
-------------
                                X             Y             Z
Electronic contribution:    -10.95104     -20.03862     -14.22120
Nuclear contribution   :     10.48431      18.81367      15.71750
                        -----------------------------------------
Total Dipole Moment    :     -0.46673      -1.22495       1.49630
                        -----------------------------------------
Magnitude (a.u.)       :      1.98928
Magnitude (Debye)      :      5.05636

Rotational constants in cm-1:     0.017977     0.012528     0.008321
Rotational constants in MHz :   538.924099   375.570730   249.458530

                             ****ORCA TERMINATED NORMALLY****
TOTAL RUN TIME: 0 days 0 hours 9 minutes 11 seconds 307 msec
