                         Program Version 5.0.0 -  RELEASE  -
|  1> !B3LYP D3BJ RIJCOSX def2-TZVPD def2/J TightSCF xyzfile
|  2>
|  3> *xyzfile 0 1 D4.xyz
|  4>
|  5> %MaxCore 64000
|  6>
|  7> %pal nprocs 4
|  8> end
|  9>
| 10> %scf
| 11>   MaxIter 150
| 12> end
| 13>
| 14>
| 15>                          ****END OF INPUT****

CARTESIAN COORDINATES (ANGSTROEM)
---------------------------------
  C      5.558206   -1.992914   -6.215054
  C      4.930199   -7.375319   -2.649623
  C      3.841892   -6.951611   -3.632829
  H      3.458144   -5.954425   -3.407121
  H      2.988484   -7.643606   -3.567078
  S      4.318115   -6.915930   -5.368692
  C      4.181880   -2.589671   -6.298911
  N      3.145873   -1.768431   -6.486753
  C      4.019102   -3.864307   -6.227427
  H      4.768490   -4.591153   -5.990773
  H      3.122405   -4.333392   -6.314620
  H      3.281635   -0.777786   -6.566549
  H      2.212549   -2.134193   -6.562246
  O      5.406154   -5.899480   -5.512972
  F      3.111910   -6.445079   -6.043792
  C      6.419260   -2.542944   -5.077630
  C      5.872267   -5.002756   -2.427819
  C      6.173994   -6.485522   -2.606315
  H      6.734852   -6.613767   -3.534015
  H      6.821463   -6.831018   -1.793617
  H      4.469612   -7.406168   -1.655876
  H      5.230134   -8.398678   -2.885906
  C      5.896512   -2.169314   -3.694552
  H      7.428880   -2.143665   -5.208078
  H      6.505894   -3.627541   -5.175502
  C      6.807804   -2.623428   -2.551019
  H      4.894708   -2.589732   -3.557501
  H      5.778823   -1.081255   -3.635790
  C      7.111544   -4.122463   -2.520363
  H      7.751615   -2.071393   -2.614406
  H      6.345837   -2.326401   -1.604086
  H      5.362882   -4.828697   -1.471335
  H      5.174429   -4.702577   -3.211298
  H      7.778329   -4.329347   -1.677651
  H      7.673189   -4.402845   -3.417586
  O      4.763396   -8.239424   -5.698629
  H      6.036826   -2.198189   -7.176852
  H      5.467610   -0.907371   -6.127968

 Total Charge           Charge          ....    0
 Multiplicity           Mult            ....    1
 Number of Electrons    NEL             ....  136
 Basis Dimension        Dim             ....  808

ORBITAL ENERGIES
----------------

  NO   OCC          E(Eh)            E(eV)
   0   2.0000     -89.101975     -2424.5880
   1   2.0000     -24.793029      -674.6526
   2   2.0000     -19.144315      -520.9433
   3   2.0000     -19.127358      -520.4819
   4   2.0000     -14.302158      -389.1815
   5   2.0000     -10.230090      -278.3749
   6   2.0000     -10.194441      -277.4048
   7   2.0000     -10.171823      -276.7894
   8   2.0000     -10.166095      -276.6335
   9   2.0000     -10.158099      -276.4159
  10   2.0000     -10.155912      -276.3564
  11   2.0000     -10.155205      -276.3372
  12   2.0000     -10.154336      -276.3135
  13   2.0000     -10.149952      -276.1942
  14   2.0000     -10.149713      -276.1877
  15   2.0000     -10.070808      -274.0406
  16   2.0000      -8.145971      -221.6631
  17   2.0000      -6.112587      -166.3320
  18   2.0000      -6.106426      -166.1643
  19   2.0000      -6.106266      -166.1599
  20   2.0000      -1.370752       -37.3001
  21   2.0000      -1.111275       -30.2393
  22   2.0000      -1.014308       -27.6007
  23   2.0000      -0.912291       -24.8247
  24   2.0000      -0.835642       -22.7390
  25   2.0000      -0.806150       -21.9365
  26   2.0000      -0.779422       -21.2091
  27   2.0000      -0.755307       -20.5529
  28   2.0000      -0.723205       -19.6794
  29   2.0000      -0.704979       -19.1834
  30   2.0000      -0.679756       -18.4971
  31   2.0000      -0.650654       -17.7052
  32   2.0000      -0.616874       -16.7860
  33   2.0000      -0.597952       -16.2711
  34   2.0000      -0.583681       -15.8828
  35   2.0000      -0.568134       -15.4597
  36   2.0000      -0.564668       -15.3654
  37   2.0000      -0.551112       -14.9965
  38   2.0000      -0.537946       -14.6382
  39   2.0000      -0.513187       -13.9645
  40   2.0000      -0.494680       -13.4609
  41   2.0000      -0.491761       -13.3815
  42   2.0000      -0.477573       -12.9954
  43   2.0000      -0.466116       -12.6837
  44   2.0000      -0.456772       -12.4294
  45   2.0000      -0.447939       -12.1890
  46   2.0000      -0.442741       -12.0476
  47   2.0000      -0.425210       -11.5705
  48   2.0000      -0.414855       -11.2888
  49   2.0000      -0.408665       -11.1203
  50   2.0000      -0.406403       -11.0588
  51   2.0000      -0.393142       -10.6979
  52   2.0000      -0.387087       -10.5332
  53   2.0000      -0.369155       -10.0452
  54   2.0000      -0.364509        -9.9188
  55   2.0000      -0.357687        -9.7332
  56   2.0000      -0.351305        -9.5595
  57   2.0000      -0.342306        -9.3146
  58   2.0000      -0.338901        -9.2220
  59   2.0000      -0.335576        -9.1315
  60   2.0000      -0.324596        -8.8327
  61   2.0000      -0.322179        -8.7669
  62   2.0000      -0.321046        -8.7361
  63   2.0000      -0.307943        -8.3795
  64   2.0000      -0.303877        -8.2689
  65   2.0000      -0.299675        -8.1546
  66   2.0000      -0.270760        -7.3678
  67   2.0000      -0.178473        -4.8565
  68   0.0000      -0.008499        -0.2313
  69   0.0000       0.004955         0.1348
  70   0.0000       0.009422         0.2564
  71   0.0000       0.013456         0.3662
  72   0.0000       0.019601         0.5334

MULLIKEN ATOMIC CHARGES
-----------------------
   0 C :   -0.529435
   1 C :   -0.658334
   2 C :   -0.570783
   3 H :    0.385881
   4 H :    0.368444
   5 S :    1.133668
   6 C :    0.697744
   7 N :   -0.355342
   8 C :   -1.311361
   9 H :    0.538558
  10 H :    0.302804
  11 H :    0.137388
  12 H :    0.130305
  13 O :   -0.675856
  14 F :   -0.173733
  15 C :   -0.243313
  16 C :    0.068693
  17 C :   -0.521056
  18 H :    0.223094
  19 H :    0.310824
  20 H :    0.244602
  21 H :    0.217200
  22 C :   -0.314285
  23 H :    0.235584
  24 H :    0.088313
  25 C :   -0.708558
  26 H :    0.180788
  27 H :    0.268178
  28 C :   -0.563820
  29 H :    0.258171
  30 H :    0.235084
  31 H :    0.270261
  32 H :   -0.074653
  33 H :    0.266526
  34 H :    0.266214
  35 O :   -0.576186
  36 H :    0.211790
  37 H :    0.236602
Sum of atomic charges:   -0.0000000

LOEWDIN ATOMIC CHARGES
----------------------
   0 C :   -0.138456
   1 C :   -0.206734
   2 C :   -0.221625
   3 H :    0.100981
   4 H :    0.109657
   5 S :    0.655230
   6 C :   -0.461944
   7 N :    0.105299
   8 C :   -0.003716
   9 H :   -0.019591
  10 H :    0.019714
  11 H :    0.087602
  12 H :    0.100194
  13 O :   -0.313843
  14 F :   -0.069721
  15 C :   -0.195251
  16 C :   -0.216704
  17 C :   -0.208171
  18 H :    0.105563
  19 H :    0.117241
  20 H :    0.119172
  21 H :    0.112604
  22 C :   -0.207831
  23 H :    0.116066
  24 H :    0.094265
  25 C :   -0.207082
  26 H :    0.105515
  27 H :    0.111523
  28 C :   -0.207964
  29 H :    0.106570
  30 H :    0.105812
  31 H :    0.125319
  32 H :    0.081769
  33 H :    0.111053
  34 H :    0.109889
  35 O :   -0.248084
  36 H :    0.120471
  37 H :    0.105206

  Mayer bond orders larger than 0.100000
B(  0-C ,  6-C ) :   0.4198 B(  0-C ,  8-C ) :  -0.1400 B(  0-C , 15-C ) :   0.7700
B(  0-C , 22-C ) :   0.1117 B(  0-C , 36-H ) :   0.8954 B(  0-C , 37-H ) :   1.0549
B(  1-C ,  2-C ) :   1.0149 B(  1-C ,  5-S ) :   0.1934 B(  1-C , 17-C ) :   0.8908
B(  1-C , 20-H ) :   0.9353 B(  1-C , 21-H ) :   0.9605 B(  2-C ,  3-H ) :   0.8482
B(  2-C ,  4-H ) :   0.8208 B(  2-C ,  5-S ) :   0.7874 B(  2-C , 35-O ) :   0.1276
B(  5-S , 13-O ) :   1.7599 B(  5-S , 14-F ) :   0.9380 B(  5-S , 35-O ) :   1.4922
B(  6-C ,  7-N ) :   0.9197 B(  6-C ,  8-C ) :   1.1890 B(  6-C ,  9-H ) :   0.2480
B(  6-C , 10-H ) :  -0.1973 B(  6-C , 37-H ) :  -0.1990 B(  7-N , 11-H ) :   1.0604
B(  7-N , 12-H ) :   1.0432 B(  8-C ,  9-H ) :   0.7523 B(  8-C , 10-H ) :   1.0746
B(  8-C , 13-O ) :   0.1522 B(  9-H , 13-O ) :  -0.4107 B( 15-C , 22-C ) :   0.4153
B( 15-C , 23-H ) :   0.8835 B( 15-C , 24-H ) :   1.2066 B( 15-C , 25-C ) :   0.1533
B( 15-C , 26-H ) :  -0.1075 B( 15-C , 28-C ) :   0.1563 B( 16-C , 17-C ) :   0.4094
B( 16-C , 22-C ) :   0.1229 B( 16-C , 25-C ) :   0.1647 B( 16-C , 28-C ) :   0.3537
B( 16-C , 31-H ) :   0.8269 B( 16-C , 32-H ) :   1.4617 B( 17-C , 18-H ) :   0.9466
B( 17-C , 19-H ) :   0.9053 B( 17-C , 28-C ) :   0.4748 B( 17-C , 31-H ) :  -0.1131
B( 22-C , 25-C ) :   0.8642 B( 22-C , 26-H ) :   1.0704 B( 22-C , 27-H ) :   0.8686
B( 25-C , 28-C ) :   0.8824 B( 25-C , 29-H ) :   0.9633 B( 25-C , 30-H ) :   0.9647
B( 28-C , 31-H ) :  -0.1025 B( 28-C , 32-H ) :  -0.1154 B( 28-C , 33-H ) :   0.9492
B( 28-C , 34-H ) :   0.9341 B( 31-H , 32-H ) :   0.1253

Dispersion correction           -0.076078789
FINAL SINGLE POINT ENERGY     -1135.466738959866

DIPOLE MOMENT
-------------
                                X             Y             Z
Electronic contribution:    -11.68029     -18.15867     -14.64564
Nuclear contribution   :     10.61624      18.49702      15.75668
                        -----------------------------------------
Total Dipole Moment    :     -1.06404       0.33836       1.11104
                        -----------------------------------------
Magnitude (a.u.)       :      1.57514
Magnitude (Debye)      :      4.00370

Rotational constants in cm-1:     0.017796     0.012372     0.008231
Rotational constants in MHz :   533.524905   370.895973   246.762347

                             ****ORCA TERMINATED NORMALLY****
TOTAL RUN TIME: 0 days 0 hours 10 minutes 27 seconds 590 msec
