                         Program Version 5.0.0 -  RELEASE  -
|  1> !B3LYP D3BJ RIJCOSX def2-TZVPD def2/J TightSCF xyzfile
|  2>
|  3> *xyzfile 0 1 D5.xyz
|  4>
|  5> %MaxCore 64000
|  6>
|  7> %pal nprocs 4
|  8> end
|  9>
| 10> %scf
| 11>   MaxIter 150
| 12> end
| 13>
| 14>
| 15>                          ****END OF INPUT****

CARTESIAN COORDINATES (ANGSTROEM)
---------------------------------
  C      5.558206   -1.992914   -6.215054
  C      4.930199   -7.375319   -2.649623
  C      3.841892   -6.951611   -3.632829
  H      3.458144   -5.954425   -3.407121
  H      2.988484   -7.643606   -3.567078
  S      4.318115   -6.915930   -5.368692
  C      4.181880   -2.589671   -6.298911
  C      3.145873   -1.768431   -6.486753
  N      4.019102   -3.864307   -6.227427
  H      4.768490   -4.591153   -5.990773
  H      3.122405   -4.333392   -6.314620
  H      3.281635   -0.777786   -6.566549
  H      2.212549   -2.134193   -6.562246
  O      5.406154   -5.899480   -5.512972
  O      3.111910   -6.445079   -6.043792
  C      6.419260   -2.542944   -5.077630
  C      5.872267   -5.002756   -2.427819
  C      6.173994   -6.485522   -2.606315
  H      6.734852   -6.613767   -3.534015
  H      6.821463   -6.831018   -1.793617
  H      4.469612   -7.406168   -1.655876
  H      5.230134   -8.398678   -2.885906
  C      5.896512   -2.169314   -3.694552
  H      7.428880   -2.143665   -5.208078
  H      6.505894   -3.627541   -5.175502
  C      6.807804   -2.623428   -2.551019
  H      4.894708   -2.589732   -3.557501
  H      5.778823   -1.081255   -3.635790
  C      7.111544   -4.122463   -2.520363
  H      7.751615   -2.071393   -2.614406
  H      6.345837   -2.326401   -1.604086
  H      5.362882   -4.828697   -1.471335
  H      5.174429   -4.702577   -3.211298
  H      7.778329   -4.329347   -1.677651
  H      7.673189   -4.402845   -3.417586
  F      4.763396   -8.239424   -5.698629
  H      6.036826   -2.198189   -7.176852
  H      5.467610   -0.907371   -6.127968

 Total Charge           Charge          ....    0
 Multiplicity           Mult            ....    1
 Number of Electrons    NEL             ....  136
 Basis Dimension        Dim             ....  808

ORBITAL ENERGIES
----------------

  NO   OCC          E(Eh)            E(eV)
   0   2.0000     -89.129066     -2425.3252
   1   2.0000     -24.830880      -675.6826
   2   2.0000     -19.159866      -521.3665
   3   2.0000     -19.159437      -521.3548
   4   2.0000     -14.269827      -388.3017
   5   2.0000     -10.247775      -278.8561
   6   2.0000     -10.209016      -277.8014
   7   2.0000     -10.180355      -277.0215
   8   2.0000     -10.168131      -276.6889
   9   2.0000     -10.161300      -276.5030
  10   2.0000     -10.160222      -276.4737
  11   2.0000     -10.156072      -276.3608
  12   2.0000     -10.148497      -276.1546
  13   2.0000     -10.147879      -276.1378
  14   2.0000     -10.144560      -276.0475
  15   2.0000     -10.068799      -273.9859
  16   2.0000      -8.173076      -222.4007
  17   2.0000      -6.139835      -167.0734
  18   2.0000      -6.133721      -166.9070
  19   2.0000      -6.132948      -166.8860
  20   2.0000      -1.415324       -38.5129
  21   2.0000      -1.129172       -30.7263
  22   2.0000      -1.033012       -28.1097
  23   2.0000      -0.896283       -24.3891
  24   2.0000      -0.853717       -23.2308
  25   2.0000      -0.810648       -22.0589
  26   2.0000      -0.785456       -21.3733
  27   2.0000      -0.758009       -20.6265
  28   2.0000      -0.738924       -20.1071
  29   2.0000      -0.707937       -19.2640
  30   2.0000      -0.685334       -18.6489
  31   2.0000      -0.651643       -17.7321
  32   2.0000      -0.627557       -17.0767
  33   2.0000      -0.618809       -16.8387
  34   2.0000      -0.606556       -16.5052
  35   2.0000      -0.592614       -16.1258
  36   2.0000      -0.572976       -15.5915
  37   2.0000      -0.555574       -15.1179
  38   2.0000      -0.545498       -14.8438
  39   2.0000      -0.511267       -13.9123
  40   2.0000      -0.508445       -13.8355
  41   2.0000      -0.502187       -13.6652
  42   2.0000      -0.481040       -13.0898
  43   2.0000      -0.464732       -12.6460
  44   2.0000      -0.460157       -12.5215
  45   2.0000      -0.451247       -12.2791
  46   2.0000      -0.440563       -11.9883
  47   2.0000      -0.431630       -11.7453
  48   2.0000      -0.421287       -11.4638
  49   2.0000      -0.418346       -11.3838
  50   2.0000      -0.404125       -10.9968
  51   2.0000      -0.399202       -10.8628
  52   2.0000      -0.391998       -10.6668
  53   2.0000      -0.377179       -10.2636
  54   2.0000      -0.368462       -10.0264
  55   2.0000      -0.360323        -9.8049
  56   2.0000      -0.357927        -9.7397
  57   2.0000      -0.350064        -9.5257
  58   2.0000      -0.348349        -9.4791
  59   2.0000      -0.340409        -9.2630
  60   2.0000      -0.330123        -8.9831
  61   2.0000      -0.327225        -8.9043
  62   2.0000      -0.322105        -8.7649
  63   2.0000      -0.314739        -8.5645
  64   2.0000      -0.307783        -8.3752
  65   2.0000      -0.297404        -8.0928
  66   2.0000      -0.292417        -7.9571
  67   2.0000      -0.155076        -4.2198
  68   0.0000      -0.028702        -0.7810
  69   0.0000      -0.002829        -0.0770
  70   0.0000       0.003589         0.0977
  71   0.0000       0.011036         0.3003
  72   0.0000       0.014695         0.3999

MULLIKEN ATOMIC CHARGES
-----------------------
   0 C :   -0.457705
   1 C :   -0.597066
   2 C :   -0.571858
   3 H :    0.334475
   4 H :    0.370430
   5 S :    1.163122
   6 C :    0.830440
   7 C :   -1.428103
   8 N :   -0.221563
   9 H :    0.248447
  10 H :    0.111117
  11 H :    0.301681
  12 H :    0.312807
  13 O :   -0.727645
  14 O :   -0.684079
  15 C :   -0.335718
  16 C :   -0.016363
  17 C :   -0.450088
  18 H :    0.166610
  19 H :    0.314336
  20 H :    0.251076
  21 H :    0.234732
  22 C :   -0.245994
  23 H :    0.227376
  24 H :    0.104823
  25 C :   -0.689707
  26 H :    0.182660
  27 H :    0.245808
  28 C :   -0.586073
  29 H :    0.261353
  30 H :    0.243007
  31 H :    0.280218
  32 H :   -0.027673
  33 H :    0.268457
  34 H :    0.265449
  35 F :   -0.096115
  36 H :    0.226113
  37 H :    0.191212
Sum of atomic charges:   -0.0000000

LOEWDIN ATOMIC CHARGES
----------------------
   0 C :   -0.141769
   1 C :   -0.216014
   2 C :   -0.211573
   3 H :    0.113458
   4 H :    0.112967
   5 S :    0.674570
   6 C :   -0.491675
   7 C :    0.019356
   8 N :    0.110054
   9 H :    0.041210
  10 H :    0.092670
  11 H :   -0.000411
  12 H :    0.006554
  13 O :   -0.304583
  14 O :   -0.272063
  15 C :   -0.201438
  16 C :   -0.215836
  17 C :   -0.212952
  18 H :    0.101013
  19 H :    0.118058
  20 H :    0.119591
  21 H :    0.108304
  22 C :   -0.205984
  23 H :    0.114906
  24 H :    0.087052
  25 C :   -0.206793
  26 H :    0.106700
  27 H :    0.115231
  28 C :   -0.208669
  29 H :    0.107313
  30 H :    0.106361
  31 H :    0.127227
  32 H :    0.081593
  33 H :    0.111217
  34 H :    0.108810
  35 F :   -0.023222
  36 H :    0.117400
  37 H :    0.111366

  Mayer bond orders larger than 0.100000
B(  0-C ,  6-C ) :   0.6560 B(  0-C , 15-C ) :   0.7768 B(  0-C , 36-H ) :   0.9177
B(  0-C , 37-H ) :   0.9793 B(  1-C ,  2-C ) :   0.8916 B(  1-C ,  5-S ) :   0.1364
B(  1-C , 16-C ) :   0.1186 B(  1-C , 17-C ) :   0.8680 B(  1-C , 20-H ) :   0.9485
B(  1-C , 21-H ) :   0.9611 B(  2-C ,  3-H ) :   0.9162 B(  2-C ,  4-H ) :   0.8324
B(  2-C ,  5-S ) :   0.8310 B(  2-C , 14-O ) :   0.1239 B(  2-C , 32-H ) :   0.1098
B(  5-S , 13-O ) :   1.7401 B(  5-S , 14-O ) :   1.5913 B(  5-S , 35-F ) :   0.9072
B(  6-C ,  7-C ) :   1.1425 B(  6-C ,  8-N ) :   0.9344 B(  6-C ,  9-H ) :  -0.1461
B(  6-C , 22-C ) :   0.1262 B(  7-C ,  8-N ) :   0.1056 B(  7-C , 11-H ) :   1.0059
B(  7-C , 12-H ) :   0.9858 B(  8-N ,  9-H ) :   0.9154 B(  8-N , 10-H ) :   1.0212
B(  8-N , 15-C ) :   0.1451 B( 13-O , 14-O ) :   0.1175 B( 15-C , 22-C ) :   0.4717
B( 15-C , 23-H ) :   0.9021 B( 15-C , 24-H ) :   1.1649 B( 15-C , 25-C ) :   0.1665
B( 15-C , 28-C ) :   0.1488 B( 16-C , 17-C ) :   0.4092 B( 16-C , 22-C ) :   0.1104
B( 16-C , 25-C ) :   0.1818 B( 16-C , 28-C ) :   0.3505 B( 16-C , 31-H ) :   0.8044
B( 16-C , 32-H ) :   1.4484 B( 17-C , 18-H ) :   0.9699 B( 17-C , 19-H ) :   0.9046
B( 17-C , 28-C ) :   0.4733 B( 17-C , 31-H ) :  -0.1145 B( 22-C , 24-H ) :  -0.1081
B( 22-C , 25-C ) :   0.8761 B( 22-C , 26-H ) :   1.0286 B( 22-C , 27-H ) :   0.8954
B( 25-C , 28-C ) :   0.8805 B( 25-C , 29-H ) :   0.9630 B( 25-C , 30-H ) :   0.9578
B( 28-C , 31-H ) :  -0.1048 B( 28-C , 32-H ) :  -0.1015 B( 28-C , 33-H ) :   0.9449
B( 28-C , 34-H ) :   0.9335 B( 31-H , 32-H ) :   0.1424

Dispersion correction           -0.075678570
FINAL SINGLE POINT ENERGY     -1135.470522907116

DIPOLE MOMENT
-------------
                                X             Y             Z
Electronic contribution:     -8.08160     -23.36772     -13.61379
Nuclear contribution   :      8.54118      20.92489      15.31138
                        -----------------------------------------
Total Dipole Moment    :      0.45958      -2.44283       1.69759
                        -----------------------------------------
Magnitude (a.u.)       :      3.01005
Magnitude (Debye)      :      7.65094

Rotational constants in cm-1:     0.018156     0.012306     0.008278
Rotational constants in MHz :   544.309022   368.914527   248.178402

                             ****ORCA TERMINATED NORMALLY****
TOTAL RUN TIME: 0 days 0 hours 10 minutes 22 seconds 406 msec
