                         Program Version 5.0.0 -  RELEASE  -
|  1> !B3LYP D3BJ RIJCOSX def2-TZVPD def2/J TightSCF xyzfile
|  2>
|  3> *xyzfile 0 1 D6.xyz
|  4>
|  5> %MaxCore 64000
|  6>
|  7> %pal nprocs 4
|  8> end
|  9>
| 10> %scf
| 11>   MaxIter 150
| 12> end
| 13>
| 14>
| 15>                          ****END OF INPUT****

CARTESIAN COORDINATES (ANGSTROEM)
---------------------------------
  C      5.558206   -1.992914   -6.215054
  C      4.930199   -7.375319   -2.649623
  C      3.841892   -6.951611   -3.632829
  H      3.458144   -5.954425   -3.407121
  H      2.988484   -7.643606   -3.567078
  S      4.318115   -6.915930   -5.368692
  C      4.181880   -2.589671   -6.298911
  N      3.145873   -1.768431   -6.486753
  C      4.019102   -3.864307   -6.227427
  H      4.768490   -4.591153   -5.990773
  H      3.122405   -4.333392   -6.314620
  H      3.281635   -0.777786   -6.566549
  H      2.212549   -2.134193   -6.562246
  O      5.406154   -5.899480   -5.512972
  O      3.111910   -6.445079   -6.043792
  C      6.419260   -2.542944   -5.077630
  C      5.872267   -5.002756   -2.427819
  C      6.173994   -6.485522   -2.606315
  H      6.734852   -6.613767   -3.534015
  H      6.821463   -6.831018   -1.793617
  H      4.469612   -7.406168   -1.655876
  H      5.230134   -8.398678   -2.885906
  C      5.896512   -2.169314   -3.694552
  H      7.428880   -2.143665   -5.208078
  H      6.505894   -3.627541   -5.175502
  C      6.807804   -2.623428   -2.551019
  H      4.894708   -2.589732   -3.557501
  H      5.778823   -1.081255   -3.635790
  C      7.111544   -4.122463   -2.520363
  H      7.751615   -2.071393   -2.614406
  H      6.345837   -2.326401   -1.604086
  H      5.362882   -4.828697   -1.471335
  H      5.174429   -4.702577   -3.211298
  H      7.778329   -4.329347   -1.677651
  H      7.673189   -4.402845   -3.417586
  F      4.763396   -8.239424   -5.698629
  H      6.036826   -2.198189   -7.176852
  H      5.467610   -0.907371   -6.127968

 Total Charge           Charge          ....    0
 Multiplicity           Mult            ....    1
 Number of Electrons    NEL             ....  136
 Basis Dimension        Dim             ....  808

ORBITAL ENERGIES
----------------

  NO   OCC          E(Eh)            E(eV)
   0   2.0000     -89.104214     -2424.6489
   1   2.0000     -24.809213      -675.0930
   2   2.0000     -19.135713      -520.7092
   3   2.0000     -19.131355      -520.5906
   4   2.0000     -14.290360      -388.8605
   5   2.0000     -10.230822      -278.3948
   6   2.0000     -10.196601      -277.4636
   7   2.0000     -10.169668      -276.7307
   8   2.0000     -10.158984      -276.4400
   9   2.0000     -10.157589      -276.4020
  10   2.0000     -10.155102      -276.3344
  11   2.0000     -10.152496      -276.2635
  12   2.0000     -10.147899      -276.1384
  13   2.0000     -10.145874      -276.0833
  14   2.0000     -10.144943      -276.0579
  15   2.0000     -10.055825      -273.6329
  16   2.0000      -8.148214      -221.7242
  17   2.0000      -6.115091      -166.4001
  18   2.0000      -6.108599      -166.2234
  19   2.0000      -6.108258      -166.2141
  20   2.0000      -1.394002       -37.9327
  21   2.0000      -1.103487       -30.0274
  22   2.0000      -1.006789       -27.3961
  23   2.0000      -0.900324       -24.4991
  24   2.0000      -0.839058       -22.8319
  25   2.0000      -0.804366       -21.8879
  26   2.0000      -0.776710       -21.1354
  27   2.0000      -0.753743       -20.5104
  28   2.0000      -0.725830       -19.7508
  29   2.0000      -0.703044       -19.1308
  30   2.0000      -0.678043       -18.4505
  31   2.0000      -0.647428       -17.6174
  32   2.0000      -0.616156       -16.7665
  33   2.0000      -0.603333       -16.4175
  34   2.0000      -0.597216       -16.2511
  35   2.0000      -0.582780       -15.8582
  36   2.0000      -0.557513       -15.1707
  37   2.0000      -0.547534       -14.8992
  38   2.0000      -0.529529       -14.4092
  39   2.0000      -0.503352       -13.6969
  40   2.0000      -0.495459       -13.4821
  41   2.0000      -0.488730       -13.2990
  42   2.0000      -0.472356       -12.8535
  43   2.0000      -0.464686       -12.6447
  44   2.0000      -0.459856       -12.5133
  45   2.0000      -0.447640       -12.1809
  46   2.0000      -0.442562       -12.0427
  47   2.0000      -0.420054       -11.4303
  48   2.0000      -0.416285       -11.3277
  49   2.0000      -0.410664       -11.1747
  50   2.0000      -0.409260       -11.1365
  51   2.0000      -0.391406       -10.6507
  52   2.0000      -0.374307       -10.1854
  53   2.0000      -0.366935        -9.9848
  54   2.0000      -0.356153        -9.6914
  55   2.0000      -0.348333        -9.4786
  56   2.0000      -0.346679        -9.4336
  57   2.0000      -0.340074        -9.2539
  58   2.0000      -0.331830        -9.0296
  59   2.0000      -0.327009        -8.8984
  60   2.0000      -0.320761        -8.7284
  61   2.0000      -0.318612        -8.6699
  62   2.0000      -0.316705        -8.6180
  63   2.0000      -0.305789        -8.3209
  64   2.0000      -0.301059        -8.1922
  65   2.0000      -0.293855        -7.9962
  66   2.0000      -0.268765        -7.3135
  67   2.0000      -0.164824        -4.4851
  68   0.0000      -0.015162        -0.4126
  69   0.0000       0.008513         0.2316
  70   0.0000       0.011067         0.3011
  71   0.0000       0.014597         0.3972
  72   0.0000       0.022334         0.6078

MULLIKEN ATOMIC CHARGES
-----------------------
   0 C :   -0.525446
   1 C :   -0.602547
   2 C :   -0.569529
   3 H :    0.328965
   4 H :    0.367061
   5 S :    1.100948
   6 C :    0.884188
   7 N :   -0.356156
   8 C :   -1.405969
   9 H :    0.458230
  10 H :    0.322775
  11 H :    0.132157
  12 H :    0.133271
  13 O :   -0.669991
  14 O :   -0.647298
  15 C :   -0.242582
  16 C :    0.089726
  17 C :   -0.473718
  18 H :    0.177823
  19 H :    0.312388
  20 H :    0.246708
  21 H :    0.227987
  22 C :   -0.315589
  23 H :    0.234510
  24 H :    0.090853
  25 C :   -0.707064
  26 H :    0.183896
  27 H :    0.270125
  28 C :   -0.577073
  29 H :    0.258037
  30 H :    0.233624
  31 H :    0.268649
  32 H :   -0.107472
  33 H :    0.265075
  34 H :    0.273229
  35 F :   -0.100879
  36 H :    0.206109
  37 H :    0.234977
Sum of atomic charges:    0.0000000

LOEWDIN ATOMIC CHARGES
----------------------
   0 C :   -0.141290
   1 C :   -0.217940
   2 C :   -0.214157
   3 H :    0.111769
   4 H :    0.110345
   5 S :    0.661296
   6 C :   -0.463495
   7 N :    0.101661
   8 C :    0.005136
   9 H :   -0.014921
  10 H :    0.020780
  11 H :    0.084878
  12 H :    0.100024
  13 O :   -0.314880
  14 O :   -0.278844
  15 C :   -0.197042
  16 C :   -0.215132
  17 C :   -0.213832
  18 H :    0.101017
  19 H :    0.116438
  20 H :    0.117371
  21 H :    0.107219
  22 C :   -0.207567
  23 H :    0.114871
  24 H :    0.092939
  25 C :   -0.207431
  26 H :    0.106048
  27 H :    0.111625
  28 C :   -0.208508
  29 H :    0.106338
  30 H :    0.105615
  31 H :    0.125983
  32 H :    0.083386
  33 H :    0.110547
  34 H :    0.109370
  35 F :   -0.032351
  36 H :    0.118726
  37 H :    0.104008

  Mayer bond orders larger than 0.100000
B(  0-C ,  6-C ) :   0.4040 B(  0-C ,  8-C ) :  -0.1175 B(  0-C , 15-C ) :   0.7683
B(  0-C , 22-C ) :   0.1126 B(  0-C , 36-H ) :   0.8943 B(  0-C , 37-H ) :   1.0558
B(  1-C ,  2-C ) :   0.8920 B(  1-C ,  5-S ) :   0.1420 B(  1-C , 16-C ) :   0.1068
B(  1-C , 17-C ) :   0.8619 B(  1-C , 20-H ) :   0.9496 B(  1-C , 21-H ) :   0.9631
B(  2-C ,  3-H ) :   0.9254 B(  2-C ,  4-H ) :   0.8362 B(  2-C ,  5-S ) :   0.8240
B(  2-C , 14-O ) :   0.1243 B(  2-C , 32-H ) :   0.1194 B(  5-S , 13-O ) :   1.7977
B(  5-S , 14-O ) :   1.5844 B(  5-S , 35-F ) :   0.8939 B(  6-C ,  7-N ) :   0.9305
B(  6-C ,  8-C ) :   0.8434 B(  6-C ,  9-H ) :   0.2222 B(  6-C , 10-H ) :  -0.2875
B(  6-C , 37-H ) :  -0.2002 B(  7-N , 11-H ) :   1.0657 B(  7-N , 12-H ) :   1.0402
B(  8-C ,  9-H ) :   0.9323 B(  8-C , 10-H ) :   1.1382 B(  8-C , 13-O ) :   0.1362
B(  8-C , 22-C ) :   0.1019 B(  9-H , 13-O ) :  -0.4043 B( 13-O , 14-O ) :   0.1227
B( 15-C , 22-C ) :   0.4171 B( 15-C , 23-H ) :   0.8837 B( 15-C , 24-H ) :   1.2078
B( 15-C , 25-C ) :   0.1537 B( 15-C , 26-H ) :  -0.1054 B( 15-C , 28-C ) :   0.1587
B( 16-C , 17-C ) :   0.4289 B( 16-C , 22-C ) :   0.1183 B( 16-C , 25-C ) :   0.1649
B( 16-C , 28-C ) :   0.3505 B( 16-C , 31-H ) :   0.8243 B( 16-C , 32-H ) :   1.4545
B( 17-C , 18-H ) :   0.9556 B( 17-C , 19-H ) :   0.9099 B( 17-C , 28-C ) :   0.4852
B( 17-C , 31-H ) :  -0.1191 B( 22-C , 24-H ) :  -0.1011 B( 22-C , 25-C ) :   0.8566
B( 22-C , 26-H ) :   1.0704 B( 22-C , 27-H ) :   0.8656 B( 25-C , 28-C ) :   0.8875
B( 25-C , 29-H ) :   0.9646 B( 25-C , 30-H ) :   0.9653 B( 28-C , 31-H ) :  -0.1027
B( 28-C , 32-H ) :  -0.1174 B( 28-C , 33-H ) :   0.9500 B( 28-C , 34-H ) :   0.9289
B( 31-H , 32-H ) :   0.1332

Dispersion correction           -0.076239328
FINAL SINGLE POINT ENERGY     -1135.454011035542

DIPOLE MOMENT
-------------
                                X             Y             Z
Electronic contribution:     -8.82743     -21.48894     -14.05667
Nuclear contribution   :      8.67311      20.60825      15.35056
                        -----------------------------------------
Total Dipole Moment    :     -0.15433      -0.88070       1.29389
                        -----------------------------------------
Magnitude (a.u.)       :      1.57277
Magnitude (Debye)      :      3.99766

Rotational constants in cm-1:     0.017976     0.012151     0.008188
Rotational constants in MHz :   538.898457   364.286417   245.482451

                             ****ORCA TERMINATED NORMALLY****
TOTAL RUN TIME: 0 days 0 hours 9 minutes 48 seconds 226 msec
