                         Program Version 5.0.0 -  RELEASE  -
|  1> !wB97X-D3 RIJCOSX def2-SVPD def2/J TightSCF
|  2> *xyz -1 1
|  3> C          2.09343        1.86104       -4.65684
|  4> S          1.87964        0.07859       -4.46297
|  5> O          3.20757       -0.46611       -4.42026
|  6> O          1.07506       -0.05616       -3.26876
|  7> O          1.13166       -0.31996       -5.67903
|  8> H          2.68437        2.05681       -5.52711
|  9> H          2.58708        2.25699       -3.79404
| 10> H          1.13553        2.32556       -4.76426
| 11> *
| 12>
| 13> %MaxCore 64000
| 14>
| 15> %pal nprocs 8
| 16> end
| 17>
| 18> %scf
| 19>   MaxIter 150
| 20> end
| 21>
| 22>
| 23>                          ****END OF INPUT****

CARTESIAN COORDINATES (ANGSTROEM)
---------------------------------
  C      2.093430    1.861040   -4.656840
  S      1.879640    0.078590   -4.462970
  O      3.207570   -0.466110   -4.420260
  O      1.075060   -0.056160   -3.268760
  O      1.131660   -0.319960   -5.679030
  H      2.684370    2.056810   -5.527110
  H      2.587080    2.256990   -3.794040
  H      1.135530    2.325560   -4.764260

 Total Charge           Charge          ....   -1
 Multiplicity           Mult            ....    1
 Number of Electrons    NEL             ....   50
 Basis Dimension        Dim             ....  140

ORBITAL ENERGIES
----------------

  NO   OCC          E(Eh)            E(eV)
   0   2.0000     -88.977401     -2421.1982
   1   2.0000     -19.028334      -517.7873
   2   2.0000     -19.024081      -517.6716
   3   2.0000     -19.012704      -517.3620
   4   2.0000     -10.139359      -275.9060
   5   2.0000      -8.050821      -219.0740
   6   2.0000      -6.010292      -163.5483
   7   2.0000      -6.010219      -163.5464
   8   2.0000      -6.010080      -163.5426
   9   2.0000      -1.049424       -28.5563
  10   2.0000      -0.909047       -24.7364
  11   2.0000      -0.882968       -24.0268
  12   2.0000      -0.690548       -18.7908
  13   2.0000      -0.492212       -13.3938
  14   2.0000      -0.408849       -11.1253
  15   2.0000      -0.390810       -10.6345
  16   2.0000      -0.389940       -10.6108
  17   2.0000      -0.349422        -9.5083
  18   2.0000      -0.347329        -9.4513
  19   2.0000      -0.252347        -6.8667
  20   2.0000      -0.250982        -6.8296
  21   2.0000      -0.214134        -5.8269
  22   2.0000      -0.204035        -5.5521
  23   2.0000      -0.195850        -5.3294
  24   2.0000      -0.160489        -4.3671
  25   0.0000       0.215172         5.8551
  26   0.0000       0.237322         6.4579
  27   0.0000       0.237817         6.4713
  28   0.0000       0.240657         6.5486
  29   0.0000       0.275849         7.5062

MULLIKEN ATOMIC CHARGES
-----------------------
   0 C :    0.405292
   1 S :    1.118500
   2 O :   -0.760519
   3 O :   -0.773836
   4 O :   -0.811458
   5 H :   -0.061352
   6 H :   -0.061787
   7 H :   -0.054841
Sum of atomic charges:   -1.0000000

LOEWDIN ATOMIC CHARGES
----------------------
   0 C :    0.050887
   1 S :    0.839843
   2 O :   -0.581443
   3 O :   -0.588707
   4 O :   -0.607759
   5 H :   -0.037528
   6 H :   -0.038881
   7 H :   -0.036413

  Mayer bond orders larger than 0.100000
B(  0-C ,  1-S ) :   0.9426 B(  0-C ,  5-H ) :   0.9325 B(  0-C ,  6-H ) :   0.9294
B(  0-C ,  7-H ) :   0.9319 B(  1-S ,  2-O ) :   1.3598 B(  1-S ,  3-O ) :   1.3508
B(  1-S ,  4-O ) :   1.3200 B(  1-S ,  5-H ) :   0.1120 B(  1-S ,  6-H ) :   0.1051
B(  1-S ,  7-H ) :   0.1139

Dispersion correction           -0.001526375
FINAL SINGLE POINT ENERGY      -663.413669881639

DIPOLE MOMENT
-------------
                                X             Y             Z
Electronic contribution:     -0.41729      -4.24997       0.56405
Nuclear contribution   :      0.72475       5.67579      -0.57287
                        -----------------------------------------
Total Dipole Moment    :      0.30745       1.42583      -0.00883
                        -----------------------------------------
Magnitude (a.u.)       :      1.45863
Magnitude (Debye)      :      3.70753

Rotational constants in cm-1:     0.171646     0.157781     0.155534
Rotational constants in MHz :  5145.813281  4730.160232  4662.792719

                             ****ORCA TERMINATED NORMALLY****
TOTAL RUN TIME: 0 days 0 hours 0 minutes 10 seconds 562 msec
