                         Program Version 5.0.0 -  RELEASE  -
|  1> !wB97X-D3 RIJCOSX def2-SVPD def2/J TightSCF
|  2> *xyz 1 1
|  3> C         -0.46129        2.23469       -4.98962
|  4> C         -0.42384        2.39877       -6.47432
|  5> N         -0.95947        3.49265       -7.00740
|  6> N          0.14558        1.48689       -7.20399
|  7> H          0.56537        0.69681       -6.72386
|  8> H          0.22068        1.58177       -8.20752
|  9> H         -1.40624        4.18151       -6.40326
| 10> H         -0.93421        3.68160       -7.99947
| 11> H          0.00645        1.31059       -4.72100
| 12> H         -1.47822        2.22967       -4.65687
| 13> H          0.06109        3.04632       -4.52779
| 14> *
| 15>
| 16> %MaxCore 64000
| 17>
| 18> %pal nprocs 8
| 19> end
| 20>
| 21> %scf
| 22>   MaxIter 150
| 23> end
| 24>
| 25>
| 26>                          ****END OF INPUT****

CARTESIAN COORDINATES (ANGSTROEM)
---------------------------------
  C     -0.461290    2.234690   -4.989620
  C     -0.423840    2.398770   -6.474320
  N     -0.959470    3.492650   -7.007400
  N      0.145580    1.486890   -7.203990
  H      0.565370    0.696810   -6.723860
  H      0.220680    1.581770   -8.207520
  H     -1.406240    4.181510   -6.403260
  H     -0.934210    3.681600   -7.999470
  H      0.006450    1.310590   -4.721000
  H     -1.478220    2.229670   -4.656870
  H      0.061090    3.046320   -4.527790

 Total Charge           Charge          ....    1
 Multiplicity           Mult            ....    1
 Number of Electrons    NEL             ....   32
 Basis Dimension        Dim             ....  136

ORBITAL ENERGIES
----------------

  NO   OCC          E(Eh)            E(eV)
   0   2.0000     -14.693761      -399.8376
   1   2.0000     -14.686530      -399.6408
   2   2.0000     -10.626290      -289.1561
   3   2.0000     -10.489403      -285.4312
   4   2.0000      -1.322501       -35.9871
   5   2.0000      -1.223615       -33.2963
   6   2.0000      -1.067190       -29.0397
   7   2.0000      -0.950219       -25.8568
   8   2.0000      -0.890547       -24.2330
   9   2.0000      -0.875025       -23.8107
  10   2.0000      -0.807655       -21.9774
  11   2.0000      -0.767978       -20.8978
  12   2.0000      -0.717710       -19.5299
  13   2.0000      -0.702263       -19.1096
  14   2.0000      -0.676504       -18.4086
  15   2.0000      -0.594257       -16.1705
  16   0.0000      -0.132825        -3.6144
  17   0.0000      -0.085671        -2.3312
  18   0.0000      -0.039248        -1.0680
  19   0.0000      -0.036726        -0.9994
  20   0.0000      -0.016652        -0.4531

MULLIKEN ATOMIC CHARGES
-----------------------
   0 C :    0.452447
   1 C :    0.407575
   2 N :    0.025304
   3 N :   -0.028716
   4 H :    0.120283
   5 H :   -0.100632
   6 H :    0.060452
   7 H :   -0.124121
   8 H :    0.063960
   9 H :    0.066395
  10 H :    0.057053
Sum of atomic charges:    1.0000000

LOEWDIN ATOMIC CHARGES
----------------------
   0 C :    0.228800
   1 C :   -0.055674
   2 N :    0.266472
   3 N :    0.274813
   4 H :    0.059046
   5 H :    0.057541
   6 H :    0.061698
   7 H :    0.046646
   8 H :    0.008336
   9 H :    0.025876
  10 H :    0.026446

  Mayer bond orders larger than 0.100000
B(  0-C ,  1-C ) :   1.2591 B(  0-C ,  8-H ) :   0.8114 B(  0-C ,  9-H ) :   0.7822
B(  0-C , 10-H ) :   0.8006 B(  1-C ,  2-N ) :   1.1118 B(  1-C ,  3-N ) :   1.0570
B(  1-C ,  5-H ) :  -0.2198 B(  1-C ,  7-H ) :  -0.1618 B(  1-C ,  8-H ) :   0.2077
B(  1-C ,  9-H ) :   0.1593 B(  1-C , 10-H ) :   0.1487 B(  2-N ,  3-N ) :   0.1473
B(  2-N ,  6-H ) :   1.0931 B(  2-N ,  7-H ) :   1.2649 B(  3-N ,  4-H ) :   1.0195
B(  3-N ,  5-H ) :   1.3501 B(  4-H ,  5-H ) :  -0.1672 B(  6-H ,  7-H ) :  -0.1552
B(  8-H ,  9-H ) :   0.1002 B(  9-H , 10-H ) :   0.1024

Dispersion correction           -0.001673264
FINAL SINGLE POINT ENERGY      -189.541724763156

DIPOLE MOMENT
-------------
                                X             Y             Z
Electronic contribution:      0.06414       0.17293      -2.17237
Nuclear contribution   :     -0.00094      -0.11553       1.69525
                        -----------------------------------------
Total Dipole Moment    :      0.06320       0.05739      -0.47711
                        -----------------------------------------
Magnitude (a.u.)       :      0.48469
Magnitude (Debye)      :      1.23199

Rotational constants in cm-1:     0.329971     0.303414     0.162776
Rotational constants in MHz :  9892.292308  9096.128349  4879.901854

                             ****ORCA TERMINATED NORMALLY****
TOTAL RUN TIME: 0 days 0 hours 0 minutes 9 seconds 514 msec
