                         Program Version 5.0.0 -  RELEASE  -
|  1> !wB97X-D3 RIJCOSX def2-SVPD def2/J TightSCF
|  2> *xyz 0 1
|  3> C          2.09343        1.86104       -4.65684
|  4> S          1.87964        0.07859       -4.46297
|  5> F          3.20757       -0.46611       -4.42026
|  6> O          1.07506       -0.05616       -3.26876
|  7> O          1.13166       -0.31996       -5.67903
|  8> H          2.68437        2.05681       -5.52711
|  9> H          2.58708        2.25699       -3.79404
| 10> H          1.13553        2.32556       -4.76426
| 11> *
| 12>
| 13> %MaxCore 64000
| 14>
| 15> %pal nprocs 8
| 16> end
| 17>
| 18> %scf
| 19>   MaxIter 150
| 20> end
| 21>
| 22>
| 23>                          ****END OF INPUT****

CARTESIAN COORDINATES (ANGSTROEM)
---------------------------------
  C      2.093430    1.861040   -4.656840
  S      1.879640    0.078590   -4.462970
  F      3.207570   -0.466110   -4.420260
  O      1.075060   -0.056160   -3.268760
  O      1.131660   -0.319960   -5.679030
  H      2.684370    2.056810   -5.527110
  H      2.587080    2.256990   -3.794040
  H      1.135530    2.325560   -4.764260

 Total Charge           Charge          ....    0
 Multiplicity           Mult            ....    1
 Number of Electrons    NEL             ....   50
 Basis Dimension        Dim             ....  140

ORBITAL ENERGIES
----------------

  NO   OCC          E(Eh)            E(eV)
   0   2.0000     -89.244687     -2428.4714
   1   2.0000     -24.932081      -678.4364
   2   2.0000     -19.264043      -524.2012
   3   2.0000     -19.252331      -523.8826
   4   2.0000     -10.349996      -281.6377
   5   2.0000      -8.318737      -226.3643
   6   2.0000      -6.282527      -170.9563
   7   2.0000      -6.275795      -170.7731
   8   2.0000      -6.274884      -170.7483
   9   2.0000      -1.507463       -41.0201
  10   2.0000      -1.229494       -33.4562
  11   2.0000      -1.122747       -30.5515
  12   2.0000      -0.915206       -24.9040
  13   2.0000      -0.837185       -22.7810
  14   2.0000      -0.721044       -19.6206
  15   2.0000      -0.707182       -19.2434
  16   2.0000      -0.666159       -18.1271
  17   2.0000      -0.583623       -15.8812
  18   2.0000      -0.581303       -15.8181
  19   2.0000      -0.568500       -15.4697
  20   2.0000      -0.541393       -14.7320
  21   2.0000      -0.491809       -13.3828
  22   2.0000      -0.437511       -11.9053
  23   2.0000      -0.426135       -11.5957
  24   2.0000      -0.408152       -11.1064
  25   0.0000       0.059229         1.6117
  26   0.0000       0.092240         2.5100
  27   0.0000       0.099570         2.7094
  28   0.0000       0.100789         2.7426
  29   0.0000       0.115255         3.1362

MULLIKEN ATOMIC CHARGES
-----------------------
   0 C :    0.324424
   1 S :    1.290207
   2 F :   -0.370362
   3 O :   -0.634745
   4 O :   -0.670019
   5 H :    0.019050
   6 H :    0.021556
   7 H :    0.019889
Sum of atomic charges:   -0.0000000

LOEWDIN ATOMIC CHARGES
----------------------
   0 C :    0.119936
   1 S :    1.115051
   2 F :   -0.253209
   3 O :   -0.470972
   4 O :   -0.488701
   5 H :   -0.012001
   6 H :   -0.012538
   7 H :    0.002434

  Mayer bond orders larger than 0.100000
B(  0-C ,  1-S ) :   1.0002 B(  0-C ,  5-H ) :   0.9318 B(  0-C ,  6-H ) :   0.9293
B(  0-C ,  7-H ) :   0.9339 B(  1-S ,  2-F ) :   0.7127 B(  1-S ,  3-O ) :   1.5542
B(  1-S ,  4-O ) :   1.5240 B(  1-S ,  7-H ) :   0.1094

Dispersion correction           -0.001536585
FINAL SINGLE POINT ENERGY      -687.891657400805

DIPOLE MOMENT
-------------
                                X             Y             Z
Electronic contribution:      1.82617      -5.15100       0.65813
Nuclear contribution   :     -0.60459       6.33153      -0.64388
                        -----------------------------------------
Total Dipole Moment    :      1.22159       1.18053       0.01425
                        -----------------------------------------
Magnitude (a.u.)       :      1.69886
Magnitude (Debye)      :      4.31816

Rotational constants in cm-1:     0.163601     0.155191     0.147098
Rotational constants in MHz :  4904.622287  4652.507792  4409.891356

                             ****ORCA TERMINATED NORMALLY****
TOTAL RUN TIME: 0 days 0 hours 0 minutes 9 seconds 854 msec
