                         Program Version 5.0.0 -  RELEASE  -
|  1> !wB97X-D3 RIJCOSX def2-SVPD def2/J TightSCF
|  2> *xyz 0 1
|  3> C         -0.46129        2.23469       -4.98962
|  4> C         -0.42384        2.39877       -6.47432
|  5> C         -0.95947        3.49265       -7.00740
|  6> N          0.14558        1.48689       -7.20399
|  7> H          0.56537        0.69681       -6.72386
|  8> H          0.22068        1.58177       -8.20752
|  9> H         -1.40624        4.18151       -6.40326
| 10> H         -0.93421        3.68160       -7.99947
| 11> H          0.00645        1.31059       -4.72100
| 12> H         -1.47822        2.22967       -4.65687
| 13> H          0.06109        3.04632       -4.52779
| 14> *
| 15>
| 16> %MaxCore 64000
| 17>
| 18> %pal nprocs 8
| 19> end
| 20>
| 21> %scf
| 22>   MaxIter 150
| 23> end
| 24>
| 25>
| 26>                          ****END OF INPUT****

CARTESIAN COORDINATES (ANGSTROEM)
---------------------------------
  C     -0.461290    2.234690   -4.989620
  C     -0.423840    2.398770   -6.474320
  C     -0.959470    3.492650   -7.007400
  N      0.145580    1.486890   -7.203990
  H      0.565370    0.696810   -6.723860
  H      0.220680    1.581770   -8.207520
  H     -1.406240    4.181510   -6.403260
  H     -0.934210    3.681600   -7.999470
  H      0.006450    1.310590   -4.721000
  H     -1.478220    2.229670   -4.656870
  H      0.061090    3.046320   -4.527790

 Total Charge           Charge          ....    0
 Multiplicity           Mult            ....    1
 Number of Electrons    NEL             ....   32
 Basis Dimension        Dim             ....  136

ORBITAL ENERGIES
----------------

  NO   OCC          E(Eh)            E(eV)
   0   2.0000     -14.441560      -392.9748
   1   2.0000     -10.312591      -280.6199
   2   2.0000     -10.280590      -279.7491
   3   2.0000     -10.216027      -277.9922
   4   2.0000      -1.046085       -28.4654
   5   2.0000      -0.866031       -23.5659
   6   2.0000      -0.794564       -21.6212
   7   2.0000      -0.679642       -18.4940
   8   2.0000      -0.634568       -17.2675
   9   2.0000      -0.575314       -15.6551
  10   2.0000      -0.533919       -14.5287
  11   2.0000      -0.495401       -13.4805
  12   2.0000      -0.486431       -13.2365
  13   2.0000      -0.449034       -12.2188
  14   2.0000      -0.439092       -11.9483
  15   2.0000      -0.272809        -7.4235
  16   0.0000       0.090651         2.4667
  17   0.0000       0.124787         3.3956
  18   0.0000       0.126203         3.4342
  19   0.0000       0.131404         3.5757
  20   0.0000       0.162103         4.4111

MULLIKEN ATOMIC CHARGES
-----------------------
   0 C :    0.712485
   1 C :   -0.363810
   2 C :    0.385161
   3 N :    0.164660
   4 H :   -0.050404
   5 H :   -0.165688
   6 H :   -0.193851
   7 H :   -0.437973
   8 H :   -0.101060
   9 H :    0.033936
  10 H :    0.016544
Sum of atomic charges:   -0.0000000

LOEWDIN ATOMIC CHARGES
----------------------
   0 C :    0.161971
   1 C :   -0.290685
   2 C :    0.153917
   3 N :    0.156180
   4 H :    0.003613
   5 H :    0.016294
   6 H :   -0.077867
   7 H :   -0.092091
   8 H :   -0.025738
   9 H :   -0.002917
  10 H :   -0.002678

  Mayer bond orders larger than 0.100000
B(  0-C ,  1-C ) :   1.0870 B(  0-C ,  2-C ) :   0.1003 B(  0-C ,  8-H ) :   0.7504
B(  0-C ,  9-H ) :   0.7452 B(  0-C , 10-H ) :   0.7689 B(  1-C ,  2-C ) :   1.8167
B(  1-C ,  3-N ) :   1.0964 B(  1-C ,  5-H ) :  -0.1286 B(  1-C ,  7-H ) :   0.1500
B(  1-C ,  8-H ) :   0.2591 B(  1-C ,  9-H ) :   0.1830 B(  1-C , 10-H ) :   0.1701
B(  2-C ,  3-N ) :   0.2239 B(  2-C ,  6-H ) :   0.8653 B(  2-C ,  7-H ) :   0.8399
B(  3-N ,  4-H ) :   1.0658 B(  3-N ,  5-H ) :   1.2939 B(  4-H ,  5-H ) :  -0.1451

Dispersion correction           -0.001670730
FINAL SINGLE POINT ENERGY      -173.083739179987

DIPOLE MOMENT
-------------
                                X             Y             Z
Electronic contribution:      0.54321      -0.82223      -1.52624
Nuclear contribution   :     -0.12116       0.12783       1.56719
                        -----------------------------------------
Total Dipole Moment    :      0.42205      -0.69439       0.04095
                        -----------------------------------------
Magnitude (a.u.)       :      0.81362
Magnitude (Debye)      :      2.06807

Rotational constants in cm-1:     0.350065     0.307664     0.168807
Rotational constants in MHz : 10494.676477  9223.531181  5060.697310

                             ****ORCA TERMINATED NORMALLY****
TOTAL RUN TIME: 0 days 0 hours 0 minutes 9 seconds 794 msec
