                         Program Version 5.0.0 -  RELEASE  -
|  1> !wB97X-D3 RIJCOSX def2-SVPD def2/J TightSCF
|  2> *xyz 0 1
|  3> C          2.09343        1.86104       -4.65684
|  4> S          1.87964        0.07859       -4.46297
|  5> O          3.20757       -0.46611       -4.42026
|  6> F          1.07506       -0.05616       -3.26876
|  7> O          1.13166       -0.31996       -5.67903
|  8> H          2.68437        2.05681       -5.52711
|  9> H          2.58708        2.25699       -3.79404
| 10> H          1.13553        2.32556       -4.76426
| 11> *
| 12>
| 13> %MaxCore 64000
| 14>
| 15> %pal nprocs 8
| 16> end
| 17>
| 18> %scf
| 19>   MaxIter 150
| 20> end
| 21>
| 22>
| 23>                          ****END OF INPUT****

CARTESIAN COORDINATES (ANGSTROEM)
---------------------------------
  C      2.093430    1.861040   -4.656840
  S      1.879640    0.078590   -4.462970
  O      3.207570   -0.466110   -4.420260
  F      1.075060   -0.056160   -3.268760
  O      1.131660   -0.319960   -5.679030
  H      2.684370    2.056810   -5.527110
  H      2.587080    2.256990   -3.794040
  H      1.135530    2.325560   -4.764260

 Total Charge           Charge          ....    0
 Multiplicity           Mult            ....    1
 Number of Electrons    NEL             ....   50
 Basis Dimension        Dim             ....  140

ORBITAL ENERGIES
----------------

  NO   OCC          E(Eh)            E(eV)
   0   2.0000     -89.244155     -2428.4569
   1   2.0000     -24.926251      -678.2778
   2   2.0000     -19.268218      -524.3149
   3   2.0000     -19.252130      -523.8771
   4   2.0000     -10.349796      -281.6323
   5   2.0000      -8.318185      -226.3493
   6   2.0000      -6.281924      -170.9398
   7   2.0000      -6.275321      -170.7602
   8   2.0000      -6.274369      -170.7343
   9   2.0000      -1.498014       -40.7630
  10   2.0000      -1.234153       -33.5830
  11   2.0000      -1.126233       -30.6464
  12   2.0000      -0.915051       -24.8998
  13   2.0000      -0.832280       -22.6475
  14   2.0000      -0.715923       -19.4812
  15   2.0000      -0.700560       -19.0632
  16   2.0000      -0.665779       -18.1168
  17   2.0000      -0.585238       -15.9251
  18   2.0000      -0.581617       -15.8266
  19   2.0000      -0.567616       -15.4456
  20   2.0000      -0.543480       -14.7888
  21   2.0000      -0.494530       -13.4568
  22   2.0000      -0.442062       -12.0291
  23   2.0000      -0.426594       -11.6082
  24   2.0000      -0.410919       -11.1817
  25   0.0000       0.060017         1.6331
  26   0.0000       0.092623         2.5204
  27   0.0000       0.099944         2.7196
  28   0.0000       0.100865         2.7447
  29   0.0000       0.116376         3.1668

MULLIKEN ATOMIC CHARGES
-----------------------
   0 C :    0.322987
   1 S :    1.291352
   2 O :   -0.625244
   3 F :   -0.375959
   4 O :   -0.673065
   5 H :    0.014433
   6 H :    0.020169
   7 H :    0.025327
Sum of atomic charges:    0.0000000

LOEWDIN ATOMIC CHARGES
----------------------
   0 C :    0.120028
   1 S :    1.114148
   2 O :   -0.464257
   3 F :   -0.259012
   4 O :   -0.488861
   5 H :    0.001646
   6 H :   -0.013030
   7 H :   -0.010661

  Mayer bond orders larger than 0.100000
B(  0-C ,  1-S ) :   0.9995 B(  0-C ,  5-H ) :   0.9351 B(  0-C ,  6-H ) :   0.9288
B(  0-C ,  7-H ) :   0.9322 B(  1-S ,  2-O ) :   1.5625 B(  1-S ,  3-F ) :   0.7031
B(  1-S ,  4-O ) :   1.5239 B(  1-S ,  5-H ) :   0.1085

Dispersion correction           -0.001537547
FINAL SINGLE POINT ENERGY      -687.896915439840

DIPOLE MOMENT
-------------
                                X             Y             Z
Electronic contribution:     -1.74011      -4.46741       2.58860
Nuclear contribution   :      1.52593       5.92196      -1.79430
                        -----------------------------------------
Total Dipole Moment    :     -0.21418       1.45455       0.79430
                        -----------------------------------------
Magnitude (a.u.)       :      1.67108
Magnitude (Debye)      :      4.24755

Rotational constants in cm-1:     0.162837     0.155564     0.147443
Rotational constants in MHz :  4881.731197  4663.686927  4420.233103

                             ****ORCA TERMINATED NORMALLY****
TOTAL RUN TIME: 0 days 0 hours 0 minutes 10 seconds 147 msec
