                         Program Version 5.0.0 -  RELEASE  -
|  1> !wB97X-D3 RIJCOSX def2-SVPD def2/J TightSCF
|  2> *xyz 0 1
|  3> C         -0.46129        2.23469       -4.98962
|  4> C         -0.42384        2.39877       -6.47432
|  5> N         -0.95947        3.49265       -7.00740
|  6> C          0.14558        1.48689       -7.20399
|  7> H          0.56537        0.69681       -6.72386
|  8> H          0.22068        1.58177       -8.20752
|  9> H         -1.40624        4.18151       -6.40326
| 10> H         -0.93421        3.68160       -7.99947
| 11> H          0.00645        1.31059       -4.72100
| 12> H         -1.47822        2.22967       -4.65687
| 13> H          0.06109        3.04632       -4.52779
| 14> *
| 15>
| 16> %MaxCore 64000
| 17>
| 18> %pal nprocs 8
| 19> end
| 20>
| 21> %scf
| 22>   MaxIter 150
| 23> end
| 24>
| 25>
| 26>                          ****END OF INPUT****

CARTESIAN COORDINATES (ANGSTROEM)
---------------------------------
  C     -0.461290    2.234690   -4.989620
  C     -0.423840    2.398770   -6.474320
  N     -0.959470    3.492650   -7.007400
  C      0.145580    1.486890   -7.203990
  H      0.565370    0.696810   -6.723860
  H      0.220680    1.581770   -8.207520
  H     -1.406240    4.181510   -6.403260
  H     -0.934210    3.681600   -7.999470
  H      0.006450    1.310590   -4.721000
  H     -1.478220    2.229670   -4.656870
  H      0.061090    3.046320   -4.527790

 Total Charge           Charge          ....    0
 Multiplicity           Mult            ....    1
 Number of Electrons    NEL             ....   32
 Basis Dimension        Dim             ....  136

ORBITAL ENERGIES
----------------

  NO   OCC          E(Eh)            E(eV)
   0   2.0000     -14.436884      -392.8476
   1   2.0000     -10.310908      -280.5741
   2   2.0000     -10.279043      -279.7070
   3   2.0000     -10.220436      -278.1122
   4   2.0000      -1.033098       -28.1120
   5   2.0000      -0.870053       -23.6753
   6   2.0000      -0.798456       -21.7271
   7   2.0000      -0.675474       -18.3806
   8   2.0000      -0.624525       -16.9942
   9   2.0000      -0.578053       -15.7296
  10   2.0000      -0.533802       -14.5255
  11   2.0000      -0.493156       -13.4195
  12   2.0000      -0.492465       -13.4007
  13   2.0000      -0.449432       -12.2297
  14   2.0000      -0.431094       -11.7307
  15   2.0000      -0.283027        -7.7016
  16   0.0000       0.091368         2.4863
  17   0.0000       0.127289         3.4637
  18   0.0000       0.130692         3.5563
  19   0.0000       0.131943         3.5904
  20   0.0000       0.167107         4.5472

MULLIKEN ATOMIC CHARGES
-----------------------
   0 C :    0.745858
   1 C :   -0.423139
   2 N :    0.185539
   3 C :    0.368276
   4 H :   -0.099336
   5 H :   -0.424777
   6 H :   -0.129745
   7 H :   -0.193448
   8 H :    0.039125
   9 H :   -0.029435
  10 H :   -0.038918
Sum of atomic charges:    0.0000000

LOEWDIN ATOMIC CHARGES
----------------------
   0 C :    0.158921
   1 C :   -0.294220
   2 N :    0.153968
   3 C :    0.159316
   4 H :   -0.077811
   5 H :   -0.078106
   6 H :    0.004891
   7 H :    0.004463
   8 H :   -0.012805
   9 H :   -0.009738
  10 H :   -0.008879

  Mayer bond orders larger than 0.100000
B(  0-C ,  1-C ) :   1.2672 B(  0-C ,  8-H ) :   0.8073 B(  0-C ,  9-H ) :   0.6976
B(  0-C , 10-H ) :   0.6967 B(  1-C ,  2-N ) :   1.1385 B(  1-C ,  3-C ) :   1.7942
B(  1-C ,  5-H ) :   0.1546 B(  1-C ,  8-H ) :   0.2055 B(  1-C ,  9-H ) :   0.2551
B(  1-C , 10-H ) :   0.2605 B(  2-N ,  3-C ) :   0.2355 B(  2-N ,  6-H ) :   1.1539
B(  2-N ,  7-H ) :   1.2221 B(  3-C ,  4-H ) :   0.9380 B(  3-C ,  5-H ) :   0.7958
B(  6-H ,  7-H ) :  -0.1331

Dispersion correction           -0.001683463
FINAL SINGLE POINT ENERGY      -173.087693125067

DIPOLE MOMENT
-------------
                                X             Y             Z
Electronic contribution:     -0.44111       0.94836      -1.38900
Nuclear contribution   :      0.12666      -0.32199       1.52310
                        -----------------------------------------
Total Dipole Moment    :     -0.31445       0.62636       0.13410
                        -----------------------------------------
Magnitude (a.u.)       :      0.71358
Magnitude (Debye)      :      1.81377

Rotational constants in cm-1:     0.352483     0.305471     0.168700
Rotational constants in MHz : 10567.165953  9157.779739  5057.501411

                             ****ORCA TERMINATED NORMALLY****
TOTAL RUN TIME: 0 days 0 hours 0 minutes 10 seconds 210 msec
