                         Program Version 5.0.0 -  RELEASE  -
|  1> !wB97X-D3 RIJCOSX def2-SVPD def2/J TightSCF
|  2> *xyz 0 1
|  3> C          2.09343        1.86104       -4.65684
|  4> S          1.87964        0.07859       -4.46297
|  5> O          3.20757       -0.46611       -4.42026
|  6> O          1.07506       -0.05616       -3.26876
|  7> F          1.13166       -0.31996       -5.67903
|  8> H          2.68437        2.05681       -5.52711
|  9> H          2.58708        2.25699       -3.79404
| 10> H          1.13553        2.32556       -4.76426
| 11> *
| 12>
| 13> %MaxCore 64000
| 14>
| 15> %pal nprocs 8
| 16> end
| 17>
| 18> %scf
| 19>   MaxIter 150
| 20> end
| 21>
| 22>
| 23>                          ****END OF INPUT****

CARTESIAN COORDINATES (ANGSTROEM)
---------------------------------
  C      2.093430    1.861040   -4.656840
  S      1.879640    0.078590   -4.462970
  O      3.207570   -0.466110   -4.420260
  O      1.075060   -0.056160   -3.268760
  F      1.131660   -0.319960   -5.679030
  H      2.684370    2.056810   -5.527110
  H      2.587080    2.256990   -3.794040
  H      1.135530    2.325560   -4.764260

 Total Charge           Charge          ....    0
 Multiplicity           Mult            ....    1
 Number of Electrons    NEL             ....   50
 Basis Dimension        Dim             ....  140

ORBITAL ENERGIES
----------------

  NO   OCC          E(Eh)            E(eV)
   0   2.0000     -89.242305     -2428.4066
   1   2.0000     -24.908580      -677.7969
   2   2.0000     -19.267863      -524.3052
   3   2.0000     -19.263449      -524.1851
   4   2.0000     -10.348902      -281.6079
   5   2.0000      -8.316256      -226.2968
   6   2.0000      -6.279798      -170.8820
   7   2.0000      -6.273555      -170.7121
   8   2.0000      -6.272654      -170.6876
   9   2.0000      -1.467831       -39.9417
  10   2.0000      -1.241884       -33.7934
  11   2.0000      -1.145033       -31.1579
  12   2.0000      -0.912568       -24.8322
  13   2.0000      -0.817352       -22.2413
  14   2.0000      -0.701632       -19.0924
  15   2.0000      -0.679621       -18.4934
  16   2.0000      -0.663091       -18.0436
  17   2.0000      -0.586863       -15.9694
  18   2.0000      -0.581870       -15.8335
  19   2.0000      -0.566294       -15.4097
  20   2.0000      -0.548595       -14.9280
  21   2.0000      -0.499171       -13.5831
  22   2.0000      -0.446703       -12.1554
  23   2.0000      -0.436793       -11.8857
  24   2.0000      -0.424191       -11.5428
  25   0.0000       0.062135         1.6908
  26   0.0000       0.093886         2.5548
  27   0.0000       0.100831         2.7438
  28   0.0000       0.100981         2.7478
  29   0.0000       0.114880         3.1260

MULLIKEN ATOMIC CHARGES
-----------------------
   0 C :    0.321730
   1 S :    1.298519
   2 O :   -0.635828
   3 O :   -0.648177
   4 F :   -0.394273
   5 H :    0.019199
   6 H :    0.014951
   7 H :    0.023879
Sum of atomic charges:    0.0000000

LOEWDIN ATOMIC CHARGES
----------------------
   0 C :    0.120247
   1 S :    1.112077
   2 O :   -0.464589
   3 O :   -0.471675
   4 F :   -0.273842
   5 H :   -0.011735
   6 H :    0.000641
   7 H :   -0.011123

  Mayer bond orders larger than 0.100000
B(  0-C ,  1-S ) :   0.9997 B(  0-C ,  5-H ) :   0.9342 B(  0-C ,  6-H ) :   0.9309
B(  0-C ,  7-H ) :   0.9318 B(  1-S ,  2-O ) :   1.5592 B(  1-S ,  3-O ) :   1.5516
B(  1-S ,  4-F ) :   0.6643 B(  1-S ,  6-H ) :   0.1036

Dispersion correction           -0.001535974
FINAL SINGLE POINT ENERGY      -687.912103136078

DIPOLE MOMENT
-------------
                                X             Y             Z
Electronic contribution:     -1.65708      -4.91349      -1.47180
Nuclear contribution   :      1.46938       6.18552       0.61372
                        -----------------------------------------
Total Dipole Moment    :     -0.18770       1.27202      -0.85808
                        -----------------------------------------
Magnitude (a.u.)       :      1.54583
Magnitude (Debye)      :      3.92918

Rotational constants in cm-1:     0.163578     0.153284     0.148718
Rotational constants in MHz :  4903.939615  4595.352658  4458.447794

                             ****ORCA TERMINATED NORMALLY****
TOTAL RUN TIME: 0 days 0 hours 0 minutes 9 seconds 869 msec
