                         Program Version 5.0.0 -  RELEASE  -
|  1> !wB97X-D3 RIJCOSX def2-SVPD def2/J TightSCF xyzfile
|  2>
|  3> *xyzfile 0 1 D3.xyz
|  4>
|  5> %MaxCore 64000
|  6>
|  7> %pal nprocs 18
|  8> end
|  9>
| 10> %scf
| 11>   MaxIter 150
| 12> end
| 13>
| 14>
| 15>                          ****END OF INPUT****

CARTESIAN COORDINATES (ANGSTROEM)
---------------------------------
  C     -0.461293    2.234686   -4.989619
  C      0.848883    2.667967   -4.302351
  C      2.093434    1.861037   -4.656845
  H      2.444814    2.041567   -5.674990
  H      2.901748    2.137864   -3.980338
  S      1.879644    0.078594   -4.462965
  C     -0.423841    2.398772   -6.474317
  C     -0.959467    3.492647   -7.007401
  N      0.145585    1.486891   -7.203987
  H      0.565371    0.696807   -6.723858
  H      0.220682    1.581768   -8.207520
  H     -1.406243    4.181507   -6.403261
  H     -0.934215    3.681601   -7.999468
  O      3.207574   -0.466111   -4.420259
  F      1.075064   -0.056160   -3.268758
  O      1.131661   -0.319960   -5.679031
  H      0.668432    2.559427   -3.232850
  H      1.034074    3.729426   -4.497081
  H     -1.288884    2.826737   -4.594997
  H     -0.651696    1.186343   -4.756552

 Total Charge           Charge          ....    0
 Multiplicity           Mult            ....    1
 Number of Electrons    NEL             ....   88
 Basis Dimension        Dim             ....  296

ORBITAL ENERGIES
----------------

  NO   OCC          E(Eh)            E(eV)
   0   2.0000     -89.257089     -2428.8089
   1   2.0000     -24.938348      -678.6069
   2   2.0000     -19.281107      -524.6656
   3   2.0000     -19.272348      -524.4272
   4   2.0000     -14.413799      -392.2194
   5   2.0000     -10.359865      -281.9063
   6   2.0000     -10.326821      -281.0071
   7   2.0000     -10.309667      -280.5403
   8   2.0000     -10.303190      -280.3640
   9   2.0000     -10.217711      -278.0381
  10   2.0000      -8.330831      -226.6934
  11   2.0000      -6.294650      -171.2861
  12   2.0000      -6.288339      -171.1144
  13   2.0000      -6.286523      -171.0650
  14   2.0000      -1.509633       -41.0792
  15   2.0000      -1.250416       -34.0255
  16   2.0000      -1.149406       -31.2769
  17   2.0000      -1.034391       -28.1472
  18   2.0000      -0.956873       -26.0378
  19   2.0000      -0.882373       -24.0106
  20   2.0000      -0.850252       -23.1365
  21   2.0000      -0.809856       -22.0373
  22   2.0000      -0.759288       -20.6613
  23   2.0000      -0.718820       -19.5601
  24   2.0000      -0.716212       -19.4891
  25   2.0000      -0.683049       -18.5867
  26   2.0000      -0.668404       -18.1882
  27   2.0000      -0.625418       -17.0185
  28   2.0000      -0.607478       -16.5303
  29   2.0000      -0.600011       -16.3271
  30   2.0000      -0.581395       -15.8206
  31   2.0000      -0.563802       -15.3418
  32   2.0000      -0.555935       -15.1278
  33   2.0000      -0.523880       -14.2555
  34   2.0000      -0.506445       -13.7811
  35   2.0000      -0.499914       -13.6033
  36   2.0000      -0.482552       -13.1309
  37   2.0000      -0.477409       -12.9910
  38   2.0000      -0.447030       -12.1643
  39   2.0000      -0.443019       -12.0551
  40   2.0000      -0.436916       -11.8891
  41   2.0000      -0.426851       -11.6152
  42   2.0000      -0.417691       -11.3660
  43   2.0000      -0.269726        -7.3396
  44   0.0000       0.056360         1.5336
  45   0.0000       0.082817         2.2536
  46   0.0000       0.087269         2.3747
  47   0.0000       0.095189         2.5902
  48   0.0000       0.109138         2.9698

MULLIKEN ATOMIC CHARGES
-----------------------
   0 C :    0.411753
   1 C :    0.114468
   2 C :    0.032182
   3 H :    0.180997
   4 H :   -0.086412
   5 S :    1.578956
   6 C :   -0.070720
   7 C :    0.321391
   8 N :    0.603709
   9 H :   -0.396098
  10 H :   -0.199672
  11 H :   -0.127319
  12 H :   -0.417573
  13 O :   -0.671611
  14 F :   -0.424387
  15 O :   -0.806094
  16 H :    0.144064
  17 H :   -0.163233
  18 H :    0.025996
  19 H :   -0.050399
Sum of atomic charges:   -0.0000000

LOEWDIN ATOMIC CHARGES
----------------------
   0 C :    0.022223
   1 C :   -0.019632
   2 C :   -0.026709
   3 H :    0.038320
   4 H :    0.022842
   5 S :    1.175535
   6 C :   -0.244598
   7 C :    0.165265
   8 N :    0.195926
   9 H :   -0.135354
  10 H :    0.022143
  11 H :   -0.085404
  12 H :   -0.088433
  13 O :   -0.444054
  14 F :   -0.242397
  15 O :   -0.457407
  16 H :    0.022070
  17 H :    0.038962
  18 H :    0.031964
  19 H :    0.008741

  Mayer bond orders larger than 0.100000
B(  0-C ,  1-C ) :   1.1561 B(  0-C ,  6-C ) :   1.1515 B(  0-C ,  8-N ) :   0.1138
B(  0-C , 16-H ) :   0.1289 B(  0-C , 17-H ) :   0.1065 B(  0-C , 18-H ) :   0.7526
B(  0-C , 19-H ) :   0.7284 B(  1-C ,  2-C ) :   1.3107 B(  1-C ,  3-H ) :   0.1189
B(  1-C ,  4-H ) :   0.1800 B(  1-C , 16-H ) :   0.7879 B(  1-C , 17-H ) :   0.9291
B(  1-C , 18-H ) :   0.1436 B(  1-C , 19-H ) :   0.1387 B(  2-C ,  3-H ) :   0.8724
B(  2-C ,  4-H ) :   0.8845 B(  2-C ,  5-S ) :   0.9863 B(  2-C , 16-H ) :   0.1170
B(  5-S , 13-O ) :   1.5837 B(  5-S , 14-F ) :   0.6525 B(  5-S , 15-O ) :   1.4082
B(  6-C ,  7-C ) :   1.7171 B(  6-C ,  8-N ) :   1.1254 B(  6-C , 10-H ) :  -0.1155
B(  6-C , 12-H ) :   0.1524 B(  6-C , 18-H ) :   0.1514 B(  6-C , 19-H ) :   0.1945
B(  7-C ,  8-N ) :   0.1734 B(  7-C , 11-H ) :   0.9348 B(  7-C , 12-H ) :   0.7133
B(  8-N ,  9-H ) :   0.9470 B(  8-N , 10-H ) :   1.2188 B(  9-H , 10-H ) :  -0.2082
B(  9-H , 15-O ) :   0.1578

Dispersion correction           -0.008640544
FINAL SINGLE POINT ENERGY      -899.069023526666

DIPOLE MOMENT
-------------
                                X             Y             Z
Electronic contribution:      6.45988     -13.10472       7.39412
Nuclear contribution   :     -6.19944      13.70770      -6.43483
                        -----------------------------------------
Total Dipole Moment    :      0.26044       0.60298       0.95929
                        -----------------------------------------
Magnitude (a.u.)       :      1.16261
Magnitude (Debye)      :      2.95511

Rotational constants in cm-1:     0.079903     0.025241     0.022805
Rotational constants in MHz :  2395.439281   756.708181   683.680583

                             ****ORCA TERMINATED NORMALLY****
TOTAL RUN TIME: 0 days 0 hours 0 minutes 32 seconds 562 msec
