                         Program Version 5.0.0 -  RELEASE  -
|  1> !wB97X-D3 RIJCOSX def2-TZVP def2/J TightSCF
|  2> *xyz -1 1
|  3> C         -0.47749        0.60819       -4.10105
|  4> C          0.18467       -0.50664       -4.91676
|  5> O         -0.15869       -1.70109       -4.65798
|  6> O          1.05594       -0.17441       -5.74037
|  7> H         -0.09903        1.55672       -4.42038
|  8> H         -0.25931        0.46828       -3.06292
|  9> H         -1.53664        0.57826       -4.25010
| 10> *
| 11>
| 12> %MaxCore 64000
| 13>
| 14> %pal nprocs 18
| 15> end
| 16>
| 17> %scf
| 18>   MaxIter 150
| 19> end
| 20>
| 21>
| 22>                          ****END OF INPUT****

CARTESIAN COORDINATES (ANGSTROEM)
---------------------------------
  C     -0.477490    0.608190   -4.101050
  C      0.184670   -0.506640   -4.916760
  O     -0.158690   -1.701090   -4.657980
  O      1.055940   -0.174410   -5.740370
  H     -0.099030    1.556720   -4.420380
  H     -0.259310    0.468280   -3.062920
  H     -1.536640    0.578260   -4.250100

 Total Charge           Charge          ....   -1
 Multiplicity           Mult            ....    1
 Number of Electrons    NEL             ....   32
 Basis Dimension        Dim             ....  142

ORBITAL ENERGIES
----------------

  NO   OCC          E(Eh)            E(eV)
   0   2.0000     -18.949691      -515.6473
   1   2.0000     -18.943620      -515.4821
   2   2.0000     -10.147467      -276.1266
   3   2.0000     -10.079511      -274.2774
   4   2.0000      -0.921861       -25.0851
   5   2.0000      -0.825049       -22.4507
   6   2.0000      -0.652955       -17.7678
   7   2.0000      -0.402163       -10.9434
   8   2.0000      -0.354231        -9.6391
   9   2.0000      -0.340169        -9.2565
  10   2.0000      -0.316312        -8.6073
  11   2.0000      -0.271849        -7.3974
  12   2.0000      -0.253208        -6.8901
  13   2.0000      -0.126687        -3.4473
  14   2.0000      -0.123899        -3.3715
  15   2.0000      -0.108636        -2.9561
  16   0.0000       0.286044         7.7836
  17   0.0000       0.330819         9.0020
  18   0.0000       0.356965         9.7135
  19   0.0000       0.385686        10.4950
  20   0.0000       0.392947        10.6926

MULLIKEN ATOMIC CHARGES
-----------------------
   0 C :   -0.304567
   1 C :    0.274215
   2 O :   -0.596030
   3 O :   -0.557501
   4 H :    0.059829
   5 H :    0.063531
   6 H :    0.060522
Sum of atomic charges:   -1.0000000

LOEWDIN ATOMIC CHARGES
----------------------
   0 C :   -0.324633
   1 C :   -0.713051
   2 O :   -0.155537
   3 O :   -0.110527
   4 H :    0.098454
   5 H :    0.103315
   6 H :    0.101979

  Mayer bond orders larger than 0.100000
B(  0-C ,  1-C ) :   0.9262 B(  0-C ,  4-H ) :   0.9738 B(  0-C ,  5-H ) :   0.9719
B(  0-C ,  6-H ) :   0.9717 B(  1-C ,  2-O ) :   1.8166 B(  1-C ,  3-O ) :   1.8594

Dispersion correction           -0.000907159
FINAL SINGLE POINT ENERGY      -228.547183248079

DIPOLE MOMENT
-------------
                                X             Y             Z
Electronic contribution:      1.60753      -2.61076      -1.94640
Nuclear contribution   :     -2.19461       3.67480       2.63888
                        -----------------------------------------
Total Dipole Moment    :     -0.58708       1.06404       0.69248
                        -----------------------------------------
Magnitude (a.u.)       :      1.39870
Magnitude (Debye)      :      3.55522

Rotational constants in cm-1:     0.393152     0.332423     0.186264
Rotational constants in MHz : 11786.395082  9965.786704  5584.045355

                             ****ORCA TERMINATED NORMALLY****
TOTAL RUN TIME: 0 days 0 hours 0 minutes 7 seconds 668 msec
