                         Program Version 5.0.0 -  RELEASE  -
|  1> !wB97X-D3 RIJCOSX def2-TZVP def2/J TightSCF
|  2> *xyz 1 1
|  3> C          2.48645       -2.67712       -2.56345
|  4> C          3.03764       -2.36672       -3.92351
|  5> N          2.28036       -2.45441       -4.96769
|  6> N          4.32174       -2.01793       -4.01664
|  7> H          4.87994       -1.91167       -3.17382
|  8> H          4.71015       -1.67088       -4.88356
|  9> H          1.27042       -2.41265       -4.86614
| 10> H          2.58183       -2.05528       -5.84688
| 11> H          1.45238       -2.93848       -2.64882
| 12> H          2.58636       -1.81799       -1.93352
| 13> H          3.02742       -3.49632       -2.13781
| 14> *
| 15>
| 16> %MaxCore 64000
| 17>
| 18> %pal nprocs 18
| 19> end
| 20>
| 21> %scf
| 22>   MaxIter 150
| 23> end
| 24>
| 25>
| 26>                          ****END OF INPUT****

CARTESIAN COORDINATES (ANGSTROEM)
---------------------------------
  C      2.486450   -2.677120   -2.563450
  C      3.037640   -2.366720   -3.923510
  N      2.280360   -2.454410   -4.967690
  N      4.321740   -2.017930   -4.016640
  H      4.879940   -1.911670   -3.173820
  H      4.710150   -1.670880   -4.883560
  H      1.270420   -2.412650   -4.866140
  H      2.581830   -2.055280   -5.846880
  H      1.452380   -2.938480   -2.648820
  H      2.586360   -1.817990   -1.933520
  H      3.027420   -3.496320   -2.137810

 Total Charge           Charge          ....    1
 Multiplicity           Mult            ....    1
 Number of Electrons    NEL             ....   32
 Basis Dimension        Dim             ....  166

ORBITAL ENERGIES
----------------

  NO   OCC          E(Eh)            E(eV)
   0   2.0000     -14.675825      -399.3495
   1   2.0000     -14.670522      -399.2052
   2   2.0000     -10.612511      -288.7811
   3   2.0000     -10.472417      -284.9690
   4   2.0000      -1.332048       -36.2469
   5   2.0000      -1.232465       -33.5371
   6   2.0000      -1.071587       -29.1594
   7   2.0000      -0.955237       -25.9933
   8   2.0000      -0.883737       -24.0477
   9   2.0000      -0.871704       -23.7203
  10   2.0000      -0.804898       -21.9024
  11   2.0000      -0.765334       -20.8258
  12   2.0000      -0.712471       -19.3873
  13   2.0000      -0.700557       -19.0631
  14   2.0000      -0.676708       -18.4142
  15   2.0000      -0.595598       -16.2071
  16   0.0000      -0.134790        -3.6678
  17   0.0000      -0.077140        -2.0991
  18   0.0000      -0.032674        -0.8891
  19   0.0000      -0.028190        -0.7671
  20   0.0000      -0.004206        -0.1144

MULLIKEN ATOMIC CHARGES
-----------------------
   0 C :   -0.347628
   1 C :    0.340139
   2 N :   -0.363925
   3 N :   -0.399483
   4 H :    0.320349
   5 H :    0.298519
   6 H :    0.316161
   7 H :    0.293442
   8 H :    0.151537
   9 H :    0.193589
  10 H :    0.197299
Sum of atomic charges:    1.0000000

LOEWDIN ATOMIC CHARGES
----------------------
   0 C :   -0.199830
   1 C :   -0.301021
   2 N :    0.120206
   3 N :    0.095071
   4 H :    0.211575
   5 H :    0.198803
   6 H :    0.215464
   7 H :    0.203875
   8 H :    0.144744
   9 H :    0.154291
  10 H :    0.156822

  Mayer bond orders larger than 0.100000
B(  0-C ,  1-C ) :   0.9847 B(  0-C ,  8-H ) :   0.9689 B(  0-C ,  9-H ) :   0.9364
B(  0-C , 10-H ) :   0.9396 B(  1-C ,  2-N ) :   1.4774 B(  1-C ,  3-N ) :   1.4328
B(  2-N ,  6-H ) :   0.8753 B(  2-N ,  7-H ) :   0.8889 B(  3-N ,  4-H ) :   0.8818
B(  3-N ,  5-H ) :   0.8871

Dispersion correction           -0.001683817
FINAL SINGLE POINT ENERGY      -189.734995447625

DIPOLE MOMENT
-------------
                                X             Y             Z
Electronic contribution:      0.78909       0.26792      -1.96923
Nuclear contribution   :     -0.70516       0.22720       1.57908
                        -----------------------------------------
Total Dipole Moment    :      0.08393       0.49513      -0.39015
                        -----------------------------------------
Magnitude (a.u.)       :      0.63594
Magnitude (Debye)      :      1.61642

Rotational constants in cm-1:     0.330529     0.301293     0.162717
Rotational constants in MHz :  9909.000224  9032.538169  4878.126278

                             ****ORCA TERMINATED NORMALLY****
TOTAL RUN TIME: 0 days 0 hours 0 minutes 9 seconds 727 msec
