                         Program Version 5.0.0 -  RELEASE  -
|  1> !wB97X-D3 RIJCOSX def2-TZVP def2/J TightSCF xyzfile
|  2>
|  3> *xyzfile 0 1 B.xyz
|  4>
|  5> %MaxCore 64000
|  6>
|  7> %pal nprocs 18
|  8> end
|  9>
| 10> %scf
| 11>   MaxIter 150
| 12> end
| 13>
| 14>
| 15>                          ****END OF INPUT****

CARTESIAN COORDINATES (ANGSTROEM)
---------------------------------
  C      2.486452   -2.677121   -2.563447
  C     -0.870963    0.248043   -2.662804
  C     -0.477492    0.608191   -4.101052
  H      0.206773    1.458299   -4.118748
  H     -1.368442    0.929419   -4.647855
  C      0.184673   -0.506640   -4.916760
  C      3.037640   -2.366715   -3.923509
  N      2.280360   -2.454408   -4.967692
  N      4.321736   -2.017932   -4.016641
  H      4.879940   -1.911668   -3.173823
  H      4.710148   -1.670882   -4.883561
  H      1.270423   -2.412650   -4.866143
  H      2.581829   -2.055282   -5.846878
  O     -0.158685   -1.701088   -4.657981
  O      1.055938   -0.174410   -5.740373
  C      2.497991   -1.469464   -1.610303
  C      1.582841   -0.321986   -2.042619
  H      2.193083   -1.833912   -0.625420
  H      3.523356   -1.103982   -1.490392
  C      0.100160   -0.673551   -1.915815
  H      1.822311   -0.040361   -3.072834
  H      1.813180    0.557019   -1.433266
  H     -0.063284   -1.679120   -2.301112
  H     -0.168820   -0.691680   -0.853831
  H     -1.001048    1.181040   -2.104071
  H     -1.844645   -0.246592   -2.663281
  H      1.472592   -3.051527   -2.694366
  H      3.083201   -3.490638   -2.141472

 Total Charge           Charge          ....    0
 Multiplicity           Mult            ....    1
 Number of Electrons    NEL             ....   94
 Basis Dimension        Dim             ....  468

ORBITAL ENERGIES
----------------

  NO   OCC          E(Eh)            E(eV)
   0   2.0000     -19.136670      -520.7353
   1   2.0000     -19.129256      -520.5335
   2   2.0000     -14.504394      -394.6846
   3   2.0000     -14.467254      -393.6740
   4   2.0000     -10.427945      -283.7588
   5   2.0000     -10.322767      -280.8968
   6   2.0000     -10.320776      -280.8426
   7   2.0000     -10.302567      -280.3471
   8   2.0000     -10.271390      -279.4987
   9   2.0000     -10.252754      -278.9916
  10   2.0000     -10.247960      -278.8612
  11   2.0000     -10.234991      -278.5083
  12   2.0000      -1.151176       -31.3251
  13   2.0000      -1.111891       -30.2561
  14   2.0000      -1.049864       -28.5683
  15   2.0000      -1.014734       -27.6123
  16   2.0000      -0.949449       -25.8358
  17   2.0000      -0.894259       -24.3340
  18   2.0000      -0.848345       -23.0846
  19   2.0000      -0.790941       -21.5226
  20   2.0000      -0.769713       -20.9450
  21   2.0000      -0.725507       -19.7421
  22   2.0000      -0.711151       -19.3514
  23   2.0000      -0.684776       -18.6337
  24   2.0000      -0.663458       -18.0536
  25   2.0000      -0.625486       -17.0203
  26   2.0000      -0.602947       -16.4070
  27   2.0000      -0.581497       -15.8233
  28   2.0000      -0.559665       -15.2293
  29   2.0000      -0.553169       -15.0525
  30   2.0000      -0.546197       -14.8628
  31   2.0000      -0.521973       -14.2036
  32   2.0000      -0.510006       -13.8780
  33   2.0000      -0.506092       -13.7715
  34   2.0000      -0.488718       -13.2987
  35   2.0000      -0.476536       -12.9672
  36   2.0000      -0.464387       -12.6366
  37   2.0000      -0.451882       -12.2963
  38   2.0000      -0.445453       -12.1214
  39   2.0000      -0.428856       -11.6698
  40   2.0000      -0.415547       -11.3076
  41   2.0000      -0.406414       -11.0591
  42   2.0000      -0.396925       -10.8009
  43   2.0000      -0.387482       -10.5439
  44   2.0000      -0.315652        -8.5893
  45   2.0000      -0.303528        -8.2594
  46   2.0000      -0.292856        -7.9690
  47   0.0000       0.039124         1.0646
  48   0.0000       0.068042         1.8515
  49   0.0000       0.109485         2.9792
  50   0.0000       0.128144         3.4870
  51   0.0000       0.135142         3.6774

MULLIKEN ATOMIC CHARGES
-----------------------
   0 C :   -0.260333
   1 C :   -0.169941
   2 C :   -0.211780
   3 H :    0.108969
   4 H :    0.108123
   5 C :    0.293446
   6 C :    0.302056
   7 N :   -0.303234
   8 N :   -0.442894
   9 H :    0.277398
  10 H :    0.275820
  11 H :    0.289761
  12 H :    0.263024
  13 O :   -0.577020
  14 O :   -0.528384
  15 C :   -0.193301
  16 C :   -0.237815
  17 H :    0.121087
  18 H :    0.101532
  19 C :   -0.182371
  20 H :    0.143773
  21 H :    0.101566
  22 H :    0.114136
  23 H :    0.092601
  24 H :    0.088267
  25 H :    0.096572
  26 H :    0.174672
  27 H :    0.154271
Sum of atomic charges:   -0.0000000

LOEWDIN ATOMIC CHARGES
----------------------
   0 C :   -0.205287
   1 C :   -0.264368
   2 C :   -0.250383
   3 H :    0.137948
   4 H :    0.144362
   5 C :   -0.650554
   6 C :   -0.311304
   7 N :    0.147531
   8 N :    0.051002
   9 H :    0.190381
  10 H :    0.186383
  11 H :    0.163044
  12 H :    0.188587
  13 O :   -0.089390
  14 O :   -0.066903
  15 C :   -0.255075
  16 C :   -0.257125
  17 H :    0.145038
  18 H :    0.128458
  19 C :   -0.270903
  20 H :    0.148130
  21 H :    0.136056
  22 H :    0.138374
  23 H :    0.129838
  24 H :    0.130196
  25 H :    0.138661
  26 H :    0.161987
  27 H :    0.155316

  Mayer bond orders larger than 0.100000
B(  0-C ,  6-C ) :   0.9572 B(  0-C , 15-C ) :   0.9482 B(  0-C , 26-H ) :   0.9772
B(  0-C , 27-H ) :   0.9613 B(  1-C ,  2-C ) :   0.9631 B(  1-C , 19-C ) :   0.9882
B(  1-C , 24-H ) :   0.9762 B(  1-C , 25-H ) :   0.9702 B(  2-C ,  3-H ) :   0.9782
B(  2-C ,  4-H ) :   0.9544 B(  2-C ,  5-C ) :   0.9547 B(  5-C , 13-O ) :   1.5995
B(  5-C , 14-O ) :   1.8115 B(  6-C ,  7-N ) :   1.6205 B(  6-C ,  8-N ) :   1.3049
B(  7-N , 11-H ) :   0.7415 B(  7-N , 12-H ) :   0.8921 B(  8-N ,  9-H ) :   0.9010
B(  8-N , 10-H ) :   0.9005 B( 11-H , 13-O ) :   0.2365 B( 15-C , 16-C ) :   0.9508
B( 15-C , 17-H ) :   0.9671 B( 15-C , 18-H ) :   0.9855 B( 16-C , 19-C ) :   0.9318
B( 16-C , 20-H ) :   0.9771 B( 16-C , 21-H ) :   0.9630 B( 19-C , 22-H ) :   0.9820
B( 19-C , 23-H ) :   0.9619

Dispersion correction           -0.013688326
FINAL SINGLE POINT ENERGY      -574.531303936595

DIPOLE MOMENT
-------------
                                X             Y             Z
Electronic contribution:      1.77367      -2.93299      -8.81612
Nuclear contribution   :      1.39386       1.90489      10.36520
                        -----------------------------------------
Total Dipole Moment    :      3.16753      -1.02809       1.54908
                        -----------------------------------------
Magnitude (a.u.)       :      3.67286
Magnitude (Debye)      :      9.33566

Rotational constants in cm-1:     0.041165     0.025922     0.019001
Rotational constants in MHz :  1234.086888   777.109255   569.639629

                             ****ORCA TERMINATED NORMALLY****
TOTAL RUN TIME: 0 days 0 hours 1 minutes 3 seconds 151 msec
