                         Program Version 5.0.0 -  RELEASE  -
|  1> !wB97X-D3 RIJCOSX def2-TZVP def2/J TightSCF
|  2> *xyz 0 1
|  3> C         -0.47749        0.60819       -4.10105
|  4> C          0.18467       -0.50664       -4.91676
|  5> F         -0.15869       -1.70109       -4.65798
|  6> O          1.05594       -0.17441       -5.74037
|  7> H         -0.09903        1.55672       -4.42038
|  8> H         -0.25931        0.46828       -3.06292
|  9> H         -1.53664        0.57826       -4.25010
| 10> *
| 11>
| 12> %MaxCore 64000
| 13>
| 14> %pal nprocs 18
| 15> end
| 16>
| 17> %scf
| 18>   MaxIter 150
| 19> end
| 20>
| 21>
| 22>                          ****END OF INPUT****

CARTESIAN COORDINATES (ANGSTROEM)
---------------------------------
  C     -0.477490    0.608190   -4.101050
  C      0.184670   -0.506640   -4.916760
  F     -0.158690   -1.701090   -4.657980
  O      1.055940   -0.174410   -5.740370
  H     -0.099030    1.556720   -4.420380
  H     -0.259310    0.468280   -3.062920
  H     -1.536640    0.578260   -4.250100

 Total Charge           Charge          ....    0
 Multiplicity           Mult            ....    1
 Number of Electrons    NEL             ....   32
 Basis Dimension        Dim             ....  142

ORBITAL ENERGIES
----------------

  NO   OCC          E(Eh)            E(eV)
   0   2.0000     -24.851674      -676.2484
   1   2.0000     -19.237642      -523.4829
   2   2.0000     -10.458313      -284.5852
   3   2.0000     -10.299950      -280.2759
   4   2.0000      -1.427044       -38.8318
   5   2.0000      -1.156351       -31.4659
   6   2.0000      -0.887554       -24.1516
   7   2.0000      -0.762466       -20.7478
   8   2.0000      -0.648318       -17.6416
   9   2.0000      -0.645243       -17.5579
  10   2.0000      -0.608120       -16.5478
  11   2.0000      -0.544068       -14.8048
  12   2.0000      -0.533203       -14.5092
  13   2.0000      -0.501403       -13.6439
  14   2.0000      -0.455061       -12.3829
  15   2.0000      -0.392143       -10.6707
  16   0.0000       0.062240         1.6936
  17   0.0000       0.117243         3.1904
  18   0.0000       0.188511         5.1296
  19   0.0000       0.189239         5.1495
  20   0.0000       0.207123         5.6361

MULLIKEN ATOMIC CHARGES
-----------------------
   0 C :   -0.347729
   1 C :    0.383868
   2 F :   -0.115738
   3 O :   -0.347462
   4 H :    0.152143
   5 H :    0.138622
   6 H :    0.136297
Sum of atomic charges:   -0.0000000

LOEWDIN ATOMIC CHARGES
----------------------
   0 C :   -0.260019
   1 C :   -0.505671
   2 F :    0.298806
   3 O :    0.070037
   4 H :    0.135324
   5 H :    0.131481
   6 H :    0.130042

  Mayer bond orders larger than 0.100000
B(  0-C ,  1-C ) :   1.0013 B(  0-C ,  4-H ) :   0.9706 B(  0-C ,  5-H ) :   0.9498
B(  0-C ,  6-H ) :   0.9513 B(  1-C ,  2-F ) :   1.1424 B(  1-C ,  3-O ) :   2.0526

Dispersion correction           -0.000898239
FINAL SINGLE POINT ENERGY      -253.123681495217

DIPOLE MOMENT
-------------
                                X             Y             Z
Electronic contribution:      1.08743      -4.68187      -1.62116
Nuclear contribution   :     -1.87439       4.97468       2.43802
                        -----------------------------------------
Total Dipole Moment    :     -0.78696       0.29281       0.81686
                        -----------------------------------------
Magnitude (a.u.)       :      1.17146
Magnitude (Debye)      :      2.97760

Rotational constants in cm-1:     0.370842     0.317886     0.176700
Rotational constants in MHz : 11117.569466  9529.969862  5297.328364

                             ****ORCA TERMINATED NORMALLY****
TOTAL RUN TIME: 0 days 0 hours 0 minutes 7 seconds 904 msec
