                         Program Version 5.0.0 -  RELEASE  -
|  1> !wB97X-D3 RIJCOSX def2-TZVP def2/J TightSCF
|  2> *xyz 0 1
|  3> C          2.48645       -2.67712       -2.56345
|  4> C          3.03764       -2.36672       -3.92351
|  5> C          2.28036       -2.45441       -4.96769
|  6> N          4.32174       -2.01793       -4.01664
|  7> H          4.87994       -1.91167       -3.17382
|  8> H          4.71015       -1.67088       -4.88356
|  9> H          1.27042       -2.41265       -4.86614
| 10> H          2.58183       -2.05528       -5.84688
| 11> H          1.45238       -2.93848       -2.64882
| 12> H          2.58636       -1.81799       -1.93352
| 13> H          3.02742       -3.49632       -2.13781
| 14> *
| 15>
| 16> %MaxCore 64000
| 17>
| 18> %pal nprocs 18
| 19> end
| 20>
| 21> %scf
| 22>   MaxIter 150
| 23> end
| 24>
| 25>
| 26>                          ****END OF INPUT****

CARTESIAN COORDINATES (ANGSTROEM)
---------------------------------
  C      2.486450   -2.677120   -2.563450
  C      3.037640   -2.366720   -3.923510
  C      2.280360   -2.454410   -4.967690
  N      4.321740   -2.017930   -4.016640
  H      4.879940   -1.911670   -3.173820
  H      4.710150   -1.670880   -4.883560
  H      1.270420   -2.412650   -4.866140
  H      2.581830   -2.055280   -5.846880
  H      1.452380   -2.938480   -2.648820
  H      2.586360   -1.817990   -1.933520
  H      3.027420   -3.496320   -2.137810

 Total Charge           Charge          ....    0
 Multiplicity           Mult            ....    1
 Number of Electrons    NEL             ....   32
 Basis Dimension        Dim             ....  166

ORBITAL ENERGIES
----------------

  NO   OCC          E(Eh)            E(eV)
   0   2.0000     -14.419981      -392.3876
   1   2.0000     -10.298576      -280.2385
   2   2.0000     -10.263084      -279.2727
   3   2.0000     -10.199977      -277.5555
   4   2.0000      -1.041007       -28.3272
   5   2.0000      -0.875903       -23.8345
   6   2.0000      -0.806292       -21.9403
   7   2.0000      -0.676205       -18.4005
   8   2.0000      -0.624222       -16.9859
   9   2.0000      -0.576861       -15.6972
  10   2.0000      -0.533858       -14.5270
  11   2.0000      -0.492347       -13.3974
  12   2.0000      -0.490457       -13.3460
  13   2.0000      -0.441205       -12.0058
  14   2.0000      -0.429513       -11.6877
  15   2.0000      -0.284503        -7.7417
  16   0.0000       0.110355         3.0029
  17   0.0000       0.129789         3.5317
  18   0.0000       0.155491         4.2311
  19   0.0000       0.168305         4.5798
  20   0.0000       0.187802         5.1104

MULLIKEN ATOMIC CHARGES
-----------------------
   0 C :   -0.335724
   1 C :    0.227174
   2 C :   -0.402681
   3 N :   -0.512840
   4 H :    0.243065
   5 H :    0.244036
   6 H :    0.098731
   7 H :    0.076672
   8 H :    0.121432
   9 H :    0.118118
  10 H :    0.122016
Sum of atomic charges:   -0.0000000

LOEWDIN ATOMIC CHARGES
----------------------
   0 C :   -0.242270
   1 C :   -0.379330
   2 C :   -0.284174
   3 N :   -0.019261
   4 H :    0.169897
   5 H :    0.171376
   6 H :    0.108528
   7 H :    0.100049
   8 H :    0.130791
   9 H :    0.120847
  10 H :    0.123548

  Mayer bond orders larger than 0.100000
B(  0-C ,  1-C ) :   0.9471 B(  0-C ,  8-H ) :   0.9882 B(  0-C ,  9-H ) :   0.9694
B(  0-C , 10-H ) :   0.9704 B(  1-C ,  2-C ) :   1.7948 B(  1-C ,  3-N ) :   1.1398
B(  2-C ,  6-H ) :   0.9867 B(  2-C ,  7-H ) :   1.0005 B(  3-N ,  4-H ) :   0.9251
B(  3-N ,  5-H ) :   0.9201

Dispersion correction           -0.001693990
FINAL SINGLE POINT ENERGY      -173.263958866236

DIPOLE MOMENT
-------------
                                X             Y             Z
Electronic contribution:      1.47025       0.20202      -0.87846
Nuclear contribution   :     -0.87498       0.20680       1.33581
                        -----------------------------------------
Total Dipole Moment    :      0.59526       0.40882       0.45735
                        -----------------------------------------
Magnitude (a.u.)       :      0.85477
Magnitude (Debye)      :      2.17266

Rotational constants in cm-1:     0.351941     0.304186     0.168624
Rotational constants in MHz : 10550.928440  9119.266441  5055.221775

                             ****ORCA TERMINATED NORMALLY****
TOTAL RUN TIME: 0 days 0 hours 0 minutes 11 seconds 70 msec
