                         Program Version 5.0.0 -  RELEASE  -
|  1> !wB97X-D3 RIJCOSX def2-TZVP def2/J TightSCF
|  2> *xyz 0 1
|  3> C         -0.47749        0.60819       -4.10105
|  4> C          0.18467       -0.50664       -4.91676
|  5> O         -0.15869       -1.70109       -4.65798
|  6> F          1.05594       -0.17441       -5.74037
|  7> H         -0.09903        1.55672       -4.42038
|  8> H         -0.25931        0.46828       -3.06292
|  9> H         -1.53664        0.57826       -4.25010
| 10> *
| 11>
| 12> %MaxCore 64000
| 13>
| 14> %pal nprocs 18
| 15> end
| 16>
| 17> %scf
| 18>   MaxIter 150
| 19> end
| 20>
| 21>
| 22>                          ****END OF INPUT****

CARTESIAN COORDINATES (ANGSTROEM)
---------------------------------
  C     -0.477490    0.608190   -4.101050
  C      0.184670   -0.506640   -4.916760
  O     -0.158690   -1.701090   -4.657980
  F      1.055940   -0.174410   -5.740370
  H     -0.099030    1.556720   -4.420380
  H     -0.259310    0.468280   -3.062920
  H     -1.536640    0.578260   -4.250100

 Total Charge           Charge          ....    0
 Multiplicity           Mult            ....    1
 Number of Electrons    NEL             ....   32
 Basis Dimension        Dim             ....  142

ORBITAL ENERGIES
----------------

  NO   OCC          E(Eh)            E(eV)
   0   2.0000     -24.861013      -676.5026
   1   2.0000     -19.233402      -523.3675
   2   2.0000     -10.460764      -284.6519
   3   2.0000     -10.300268      -280.2845
   4   2.0000      -1.445906       -39.3451
   5   2.0000      -1.140092       -31.0235
   6   2.0000      -0.888694       -24.1826
   7   2.0000      -0.772654       -21.0250
   8   2.0000      -0.658435       -17.9169
   9   2.0000      -0.654358       -17.8060
  10   2.0000      -0.608154       -16.5487
  11   2.0000      -0.545502       -14.8439
  12   2.0000      -0.532074       -14.4785
  13   2.0000      -0.497299       -13.5322
  14   2.0000      -0.443311       -12.0631
  15   2.0000      -0.388542       -10.5728
  16   0.0000       0.055803         1.5185
  17   0.0000       0.117693         3.2026
  18   0.0000       0.181907         4.9500
  19   0.0000       0.199228         5.4213
  20   0.0000       0.207396         5.6435

MULLIKEN ATOMIC CHARGES
-----------------------
   0 C :   -0.350351
   1 C :    0.390922
   2 O :   -0.372864
   3 F :   -0.095081
   4 H :    0.125184
   5 H :    0.151760
   6 H :    0.150429
Sum of atomic charges:   -0.0000000

LOEWDIN ATOMIC CHARGES
----------------------
   0 C :   -0.261326
   1 C :   -0.510120
   2 O :    0.033715
   3 F :    0.339891
   4 H :    0.122079
   5 H :    0.138216
   6 H :    0.137545

  Mayer bond orders larger than 0.100000
B(  0-C ,  1-C ) :   0.9903 B(  0-C ,  4-H ) :   0.9666 B(  0-C ,  5-H ) :   0.9526
B(  0-C ,  6-H ) :   0.9541 B(  1-C ,  2-O ) :   2.0235 B(  1-C ,  3-F ) :   1.1700

Dispersion correction           -0.000911729
FINAL SINGLE POINT ENERGY      -253.116085535870

DIPOLE MOMENT
-------------
                                X             Y             Z
Electronic contribution:      3.07280      -2.18646      -3.39029
Nuclear contribution   :     -3.12947       3.39716       3.55645
                        -----------------------------------------
Total Dipole Moment    :     -0.05666       1.21071       0.16616
                        -----------------------------------------
Magnitude (a.u.)       :      1.22337
Magnitude (Debye)      :      3.10956

Rotational constants in cm-1:     0.366922     0.321471     0.176896
Rotational constants in MHz : 11000.056350  9637.461211  5303.212706

                             ****ORCA TERMINATED NORMALLY****
TOTAL RUN TIME: 0 days 0 hours 0 minutes 8 seconds 32 msec
