                         Program Version 5.0.0 -  RELEASE  -
|  1> !wB97X-D3 RIJCOSX def2-TZVP def2/J TightSCF
|  2> *xyz 0 1
|  3> C          2.48645       -2.67712       -2.56345
|  4> C          3.03764       -2.36672       -3.92351
|  5> N          2.28036       -2.45441       -4.96769
|  6> C          4.32174       -2.01793       -4.01664
|  7> H          4.87994       -1.91167       -3.17382
|  8> H          4.71015       -1.67088       -4.88356
|  9> H          1.27042       -2.41265       -4.86614
| 10> H          2.58183       -2.05528       -5.84688
| 11> H          1.45238       -2.93848       -2.64882
| 12> H          2.58636       -1.81799       -1.93352
| 13> H          3.02742       -3.49632       -2.13781
| 14> *
| 15>
| 16> %MaxCore 64000
| 17>
| 18> %pal nprocs 18
| 19> end
| 20>
| 21> %scf
| 22>   MaxIter 150
| 23> end
| 24>
| 25>
| 26>                          ****END OF INPUT****

CARTESIAN COORDINATES (ANGSTROEM)
---------------------------------
  C      2.486450   -2.677120   -2.563450
  C      3.037640   -2.366720   -3.923510
  N      2.280360   -2.454410   -4.967690
  C      4.321740   -2.017930   -4.016640
  H      4.879940   -1.911670   -3.173820
  H      4.710150   -1.670880   -4.883560
  H      1.270420   -2.412650   -4.866140
  H      2.581830   -2.055280   -5.846880
  H      1.452380   -2.938480   -2.648820
  H      2.586360   -1.817990   -1.933520
  H      3.027420   -3.496320   -2.137810

 Total Charge           Charge          ....    0
 Multiplicity           Mult            ....    1
 Number of Electrons    NEL             ....   32
 Basis Dimension        Dim             ....  166

ORBITAL ENERGIES
----------------

  NO   OCC          E(Eh)            E(eV)
   0   2.0000     -14.423657      -392.4877
   1   2.0000     -10.298678      -280.2413
   2   2.0000     -10.263334      -279.2795
   3   2.0000     -10.200246      -277.5628
   4   2.0000      -1.056897       -28.7596
   5   2.0000      -0.872537       -23.7429
   6   2.0000      -0.798820       -21.7370
   7   2.0000      -0.685215       -18.6457
   8   2.0000      -0.624784       -17.0012
   9   2.0000      -0.574450       -15.6316
  10   2.0000      -0.532852       -14.4996
  11   2.0000      -0.493405       -13.4262
  12   2.0000      -0.486086       -13.2271
  13   2.0000      -0.446204       -12.1418
  14   2.0000      -0.438794       -11.9402
  15   2.0000      -0.274121        -7.4592
  16   0.0000       0.108690         2.9576
  17   0.0000       0.125927         3.4266
  18   0.0000       0.153908         4.1881
  19   0.0000       0.160022         4.3544
  20   0.0000       0.199292         5.4230

MULLIKEN ATOMIC CHARGES
-----------------------
   0 C :   -0.329280
   1 C :    0.203183
   2 N :   -0.474618
   3 C :   -0.441451
   4 H :    0.105651
   5 H :    0.093470
   6 H :    0.235655
   7 H :    0.242345
   8 H :    0.091395
   9 H :    0.135263
  10 H :    0.138387
Sum of atomic charges:   -0.0000000

LOEWDIN ATOMIC CHARGES
----------------------
   0 C :   -0.242250
   1 C :   -0.394048
   2 N :    0.004244
   3 C :   -0.290616
   4 H :    0.103651
   5 H :    0.094451
   6 H :    0.170440
   7 H :    0.175900
   8 H :    0.115608
   9 H :    0.130080
  10 H :    0.132539

  Mayer bond orders larger than 0.100000
B(  0-C ,  1-C ) :   0.9223 B(  0-C ,  8-H ) :   0.9893 B(  0-C ,  9-H ) :   0.9754
B(  0-C , 10-H ) :   0.9769 B(  1-C ,  2-N ) :   1.1807 B(  1-C ,  3-C ) :   1.7547
B(  2-N ,  6-H ) :   0.9202 B(  2-N ,  7-H ) :   0.9212 B(  3-C ,  4-H ) :   1.0014
B(  3-C ,  5-H ) :   0.9935

Dispersion correction           -0.001681278
FINAL SINGLE POINT ENERGY      -173.263968999676

DIPOLE MOMENT
-------------
                                X             Y             Z
Electronic contribution:     -0.42595      -0.12621      -1.73277
Nuclear contribution   :     -0.41717       0.30469       1.54910
                        -----------------------------------------
Total Dipole Moment    :     -0.84312       0.17847      -0.18367
                        -----------------------------------------
Magnitude (a.u.)       :      0.88116
Magnitude (Debye)      :      2.23972

Rotational constants in cm-1:     0.351587     0.304754     0.168726
Rotational constants in MHz : 10540.302868  9136.286689  5058.281984

                             ****ORCA TERMINATED NORMALLY****
TOTAL RUN TIME: 0 days 0 hours 0 minutes 8 seconds 70 msec
