                         Program Version 5.0.0 -  RELEASE  -
|  1> !wB97X-D3 RIJCOSX def2-TZVP def2/J TightSCF xyzfile
|  2>
|  3> *xyzfile 0 1 D2.xyz
|  4>
|  5> %MaxCore 64000
|  6>
|  7> %pal nprocs 18
|  8> end
|  9>
| 10> %scf
| 11>   MaxIter 150
| 12> end
| 13>
| 14>
| 15>                          ****END OF INPUT****

CARTESIAN COORDINATES (ANGSTROEM)
---------------------------------
  C      2.486452   -2.677121   -2.563447
  C     -0.870963    0.248043   -2.662804
  C     -0.477492    0.608191   -4.101052
  H      0.206773    1.458299   -4.118748
  H     -1.368442    0.929419   -4.647855
  C      0.184673   -0.506640   -4.916760
  C      3.037640   -2.366715   -3.923509
  N      2.280360   -2.454408   -4.967692
  C      4.321736   -2.017932   -4.016641
  H      4.879940   -1.911668   -3.173823
  H      4.710148   -1.670882   -4.883561
  H      1.270423   -2.412650   -4.866143
  H      2.581829   -2.055282   -5.846878
  F     -0.158685   -1.701088   -4.657981
  O      1.055938   -0.174410   -5.740373
  C      2.497991   -1.469464   -1.610303
  C      1.582841   -0.321986   -2.042619
  H      2.193083   -1.833912   -0.625420
  H      3.523356   -1.103982   -1.490392
  C      0.100160   -0.673551   -1.915815
  H      1.822311   -0.040361   -3.072834
  H      1.813180    0.557019   -1.433266
  H     -0.063284   -1.679120   -2.301112
  H     -0.168820   -0.691680   -0.853831
  H     -1.001048    1.181040   -2.104071
  H     -1.844645   -0.246592   -2.663281
  H      1.472592   -3.051527   -2.694366
  H      3.083201   -3.490638   -2.141472

 Total Charge           Charge          ....    0
 Multiplicity           Mult            ....    1
 Number of Electrons    NEL             ....   94
 Basis Dimension        Dim             ....  468

ORBITAL ENERGIES
----------------

  NO   OCC          E(Eh)            E(eV)
   0   2.0000     -24.880848      -677.0423
   1   2.0000     -19.253635      -523.9181
   2   2.0000     -14.396776      -391.7562
   3   2.0000     -10.472399      -284.9685
   4   2.0000     -10.315556      -280.7005
   5   2.0000     -10.296527      -280.1828
   6   2.0000     -10.284242      -279.8484
   7   2.0000     -10.282179      -279.7923
   8   2.0000     -10.274956      -279.5958
   9   2.0000     -10.271819      -279.5104
  10   2.0000     -10.269028      -279.4345
  11   2.0000     -10.188643      -277.2471
  12   2.0000      -1.461069       -39.7577
  13   2.0000      -1.174282       -31.9538
  14   2.0000      -1.040152       -28.3040
  15   2.0000      -0.952934       -25.9307
  16   2.0000      -0.911861       -24.8130
  17   2.0000      -0.869224       -23.6528
  18   2.0000      -0.822411       -22.3789
  19   2.0000      -0.801518       -21.8104
  20   2.0000      -0.778018       -21.1709
  21   2.0000      -0.737059       -20.0564
  22   2.0000      -0.700488       -19.0612
  23   2.0000      -0.692427       -18.8419
  24   2.0000      -0.673436       -18.3251
  25   2.0000      -0.644497       -17.5376
  26   2.0000      -0.615285       -16.7428
  27   2.0000      -0.599919       -16.3246
  28   2.0000      -0.585072       -15.9206
  29   2.0000      -0.579348       -15.7649
  30   2.0000      -0.571896       -15.5621
  31   2.0000      -0.544901       -14.8275
  32   2.0000      -0.527110       -14.3434
  33   2.0000      -0.518925       -14.1207
  34   2.0000      -0.506544       -13.7838
  35   2.0000      -0.490285       -13.3413
  36   2.0000      -0.483287       -13.1509
  37   2.0000      -0.473171       -12.8756
  38   2.0000      -0.461991       -12.5714
  39   2.0000      -0.451139       -12.2761
  40   2.0000      -0.439600       -11.9621
  41   2.0000      -0.432879       -11.7792
  42   2.0000      -0.418431       -11.3861
  43   2.0000      -0.415383       -11.3031
  44   2.0000      -0.407029       -11.0758
  45   2.0000      -0.396270       -10.7831
  46   2.0000      -0.258999        -7.0477
  47   0.0000       0.041064         1.1174
  48   0.0000       0.098524         2.6810
  49   0.0000       0.120247         3.2721
  50   0.0000       0.131392         3.5754
  51   0.0000       0.138106         3.7581

MULLIKEN ATOMIC CHARGES
-----------------------
   0 C :   -0.252632
   1 C :   -0.195848
   2 C :   -0.243852
   3 H :    0.165440
   4 H :    0.147977
   5 C :    0.352874
   6 C :    0.183988
   7 N :   -0.431530
   8 C :   -0.447316
   9 H :    0.091001
  10 H :    0.095160
  11 H :    0.222179
  12 H :    0.245983
  13 F :   -0.134853
  14 O :   -0.333947
  15 C :   -0.159307
  16 C :   -0.239901
  17 H :    0.092624
  18 H :    0.120102
  19 C :   -0.239613
  20 H :    0.151682
  21 H :    0.105434
  22 H :    0.110201
  23 H :    0.116772
  24 H :    0.117365
  25 H :    0.117819
  26 H :    0.106351
  27 H :    0.135847
Sum of atomic charges:    0.0000000

LOEWDIN ATOMIC CHARGES
----------------------
   0 C :   -0.212870
   1 C :   -0.264487
   2 C :   -0.232884
   3 H :    0.160582
   4 H :    0.157103
   5 C :   -0.494254
   6 C :   -0.384607
   7 N :    0.027241
   8 C :   -0.289709
   9 H :    0.100843
  10 H :    0.094993
  11 H :    0.146039
  12 H :    0.174282
  13 F :    0.315854
  14 O :    0.089521
  15 C :   -0.251522
  16 C :   -0.259852
  17 H :    0.134844
  18 H :    0.139772
  19 C :   -0.270827
  20 H :    0.145614
  21 H :    0.136579
  22 H :    0.132648
  23 H :    0.139404
  24 H :    0.141908
  25 H :    0.139530
  26 H :    0.131562
  27 H :    0.152695

  Mayer bond orders larger than 0.100000
B(  0-C ,  6-C ) :   0.9034 B(  0-C , 15-C ) :   0.9534 B(  0-C , 26-H ) :   1.0149
B(  0-C , 27-H ) :   0.9737 B(  1-C ,  2-C ) :   0.9540 B(  1-C , 19-C ) :   0.9632
B(  1-C , 24-H ) :   0.9702 B(  1-C , 25-H ) :   0.9818 B(  2-C ,  3-H ) :   0.9645
B(  2-C ,  4-H ) :   0.9463 B(  2-C ,  5-C ) :   0.9894 B(  5-C , 13-F ) :   1.0745
B(  5-C , 14-O ) :   2.0375 B(  6-C ,  7-N ) :   1.2251 B(  6-C ,  8-C ) :   1.7376
B(  7-N , 11-H ) :   0.9157 B(  7-N , 12-H ) :   0.9196 B(  8-C ,  9-H ) :   1.0002
B(  8-C , 10-H ) :   0.9944 B( 15-C , 16-C ) :   0.9762 B( 15-C , 17-H ) :   0.9733
B( 15-C , 18-H ) :   0.9699 B( 16-C , 19-C ) :   0.9295 B( 16-C , 20-H ) :   0.9671
B( 16-C , 21-H ) :   0.9635 B( 19-C , 22-H ) :   0.9972 B( 19-C , 23-H ) :   0.9677

Dispersion correction           -0.013541331
FINAL SINGLE POINT ENERGY      -582.438382986648

DIPOLE MOMENT
-------------
                                X             Y             Z
Electronic contribution:     -5.36392      -1.79399     -10.87835
Nuclear contribution   :      3.65024       2.44123      11.52670
                        -----------------------------------------
Total Dipole Moment    :     -1.71368       0.64725       0.64835
                        -----------------------------------------
Magnitude (a.u.)       :      1.94319
Magnitude (Debye)      :      4.93920

Rotational constants in cm-1:     0.040600     0.026409     0.019262
Rotational constants in MHz :  1217.142957   791.712481   577.449390

                             ****ORCA TERMINATED NORMALLY****
TOTAL RUN TIME: 0 days 0 hours 1 minutes 0 seconds 991 msec
