                         Program Version 5.0.0 -  RELEASE  -
|  1> !B3LYP D3BJ RIJCOSX def2-TZVP def2/J TightSCF
|  2> *xyz -1 1
|  3> C          3.80351        1.37472       -3.26081
|  4> C          3.93993        0.32036       -4.36773
|  5> H          4.10504       -0.65508       -3.90773
|  6> H          3.02280        0.28052       -4.95712
|  7> C          5.10585        0.66802       -5.30546
|  8> O          4.80913        1.15019       -6.41436
|  9> O          6.26737        0.56500       -4.81948
| 10> H          3.64113        2.33595       -3.70189
| 11> H          4.69995        1.39701       -2.67703
| 12> H          2.97435        1.12625       -2.63180
| 13> *
| 14>
| 15> %MaxCore 64000
| 16>
| 17> %pal nprocs 4
| 18> end
| 19>
| 20> %scf
| 21>   MaxIter 150
| 22> end
| 23>
| 24>
| 25>                          ****END OF INPUT****

CARTESIAN COORDINATES (ANGSTROEM)
---------------------------------
  C      3.803510    1.374720   -3.260810
  C      3.939930    0.320360   -4.367730
  H      4.105040   -0.655080   -3.907730
  H      3.022800    0.280520   -4.957120
  C      5.105850    0.668020   -5.305460
  O      4.809130    1.150190   -6.414360
  O      6.267370    0.565000   -4.819480
  H      3.641130    2.335950   -3.701890
  H      4.699950    1.397010   -2.677030
  H      2.974350    1.126250   -2.631800

 Total Charge           Charge          ....   -1
 Multiplicity           Mult            ....    1
 Number of Electrons    NEL             ....   40
 Basis Dimension        Dim             ....  185

ORBITAL ENERGIES
----------------

  NO   OCC          E(Eh)            E(eV)
   0   2.0000     -18.850163      -512.9390
   1   2.0000     -18.846450      -512.8380
   2   2.0000     -10.040793      -273.2239
   3   2.0000     -10.000811      -272.1359
   4   2.0000      -9.986683      -271.7515
   5   2.0000      -0.810773       -22.0622
   6   2.0000      -0.719831       -19.5876
   7   2.0000      -0.598929       -16.2977
   8   2.0000      -0.466226       -12.6867
   9   2.0000      -0.313996        -8.5443
  10   2.0000      -0.286388        -7.7930
  11   2.0000      -0.253592        -6.9006
  12   2.0000      -0.222063        -6.0426
  13   2.0000      -0.207125        -5.6362
  14   2.0000      -0.202128        -5.5002
  15   2.0000      -0.171147        -4.6571
  16   2.0000      -0.155916        -4.2427
  17   2.0000      -0.040145        -1.0924
  18   2.0000      -0.030956        -0.8423
  19   2.0000      -0.019859        -0.5404
  20   0.0000       0.185366         5.0441
  21   0.0000       0.225254         6.1295
  22   0.0000       0.243288         6.6202
  23   0.0000       0.249291         6.7836
  24   0.0000       0.264429         7.1955

MULLIKEN ATOMIC CHARGES
-----------------------
   0 C :   -0.318149
   1 C :   -0.099069
   2 H :    0.016167
   3 H :    0.020466
   4 C :    0.218003
   5 O :   -0.512009
   6 O :   -0.544205
   7 H :    0.084334
   8 H :    0.086687
   9 H :    0.047774
Sum of atomic charges:   -1.0000000

LOEWDIN ATOMIC CHARGES
----------------------
   0 C :   -0.318458
   1 C :   -0.287015
   2 H :    0.112314
   3 H :    0.112695
   4 C :   -0.702721
   5 O :   -0.096214
   6 O :   -0.127091
   7 H :    0.107273
   8 H :    0.108549
   9 H :    0.090670

  Mayer bond orders larger than 0.100000
B(  0-C ,  1-C ) :   0.9537 B(  0-C ,  7-H ) :   0.9861 B(  0-C ,  8-H ) :   0.9736
B(  0-C ,  9-H ) :   0.9704 B(  1-C ,  2-H ) :   0.9475 B(  1-C ,  3-H ) :   0.9486
B(  1-C ,  4-C ) :   0.9225 B(  4-C ,  5-O ) :   1.8898 B(  4-C ,  6-O ) :   1.8375

Dispersion correction           -0.011022954
FINAL SINGLE POINT ENERGY      -267.810571533929

DIPOLE MOMENT
-------------
                                X             Y             Z
Electronic contribution:      3.79508      -0.47079      -4.55657
Nuclear contribution   :     -5.15232       0.33441       5.87398
                        -----------------------------------------
Total Dipole Moment    :     -1.35724      -0.13638       1.31741
                        -----------------------------------------
Magnitude (a.u.)       :      1.89638
Magnitude (Debye)      :      4.82022

Rotational constants in cm-1:     0.295355     0.137164     0.110193
Rotational constants in MHz :  8854.523706  4112.077980  3303.490503

                             ****ORCA TERMINATED NORMALLY****
TOTAL RUN TIME: 0 days 0 hours 0 minutes 23 seconds 837 msec
