                         Program Version 5.0.0 -  RELEASE  -
|  1> !B3LYP D3BJ RIJCOSX def2-TZVP def2/J TightSCF
|  2> *xyz 1 1
|  3> C          3.90595        2.81985       -3.75292
|  4> N          5.29562        3.13151       -4.10533
|  5> C          3.80351        1.37472       -3.26081
|  6> C          5.70862        3.46889       -5.32419
|  7> N          6.90470        3.03895       -5.71708
|  8> N          4.98188        4.29357       -6.09746
|  9> H          5.00055        4.10131       -7.08776
| 10> H          4.08469        4.59690       -5.73965
| 11> H          5.96336        2.52611       -3.64239
| 12> H          7.04716        2.06686       -5.47360
| 13> H          7.19815        3.30799       -6.64523
| 14> H          3.28202        2.94919       -4.64026
| 15> H          3.56525        3.51457       -2.98252
| 16> H          4.14157        0.71142       -4.02935
| 17> H          2.78528        1.15146       -3.01944
| 18> H          4.41205        1.25066       -2.38949
| 19> *
| 20>
| 21> %MaxCore 64000
| 22>
| 23> %pal nprocs 4
| 24> end
| 25>
| 26> %scf
| 27>   MaxIter 150
| 28> end
| 29>
| 30>
| 31>                          ****END OF INPUT****

CARTESIAN COORDINATES (ANGSTROEM)
---------------------------------
  C      3.905950    2.819850   -3.752920
  N      5.295620    3.131510   -4.105330
  C      3.803510    1.374720   -3.260810
  C      5.708620    3.468890   -5.324190
  N      6.904700    3.038950   -5.717080
  N      4.981880    4.293570   -6.097460
  H      5.000550    4.101310   -7.087760
  H      4.084690    4.596900   -5.739650
  H      5.963360    2.526110   -3.642390
  H      7.047160    2.066860   -5.473600
  H      7.198150    3.307990   -6.645230
  H      3.282020    2.949190   -4.640260
  H      3.565250    3.514570   -2.982520
  H      4.141570    0.711420   -4.029350
  H      2.785280    1.151460   -3.019440
  H      4.412050    1.250660   -2.389490

 Total Charge           Charge          ....    1
 Multiplicity           Mult            ....    1
 Number of Electrons    NEL             ....   48
 Basis Dimension        Dim             ....  246

ORBITAL ENERGIES
----------------

  NO   OCC          E(Eh)            E(eV)
   0   2.0000     -14.541648      -395.6984
   1   2.0000     -14.541099      -395.6834
   2   2.0000     -14.540384      -395.6640
   3   2.0000     -10.503883      -285.8252
   4   2.0000     -10.379104      -282.4298
   5   2.0000     -10.311667      -280.5947
   6   2.0000      -1.220564       -33.2132
   7   2.0000      -1.108763       -30.1710
   8   2.0000      -1.101157       -29.9640
   9   2.0000      -0.934079       -25.4176
  10   2.0000      -0.835435       -22.7333
  11   2.0000      -0.808562       -22.0021
  12   2.0000      -0.776523       -21.1303
  13   2.0000      -0.746139       -20.3035
  14   2.0000      -0.701534       -19.0897
  15   2.0000      -0.688977       -18.7480
  16   2.0000      -0.650804       -17.7093
  17   2.0000      -0.628214       -17.0946
  18   2.0000      -0.595442       -16.2028
  19   2.0000      -0.560530       -15.2528
  20   2.0000      -0.537944       -14.6382
  21   2.0000      -0.523279       -14.2392
  22   2.0000      -0.490548       -13.3485
  23   2.0000      -0.460699       -12.5363
  24   0.0000      -0.192775        -5.2457
  25   0.0000      -0.155710        -4.2371
  26   0.0000      -0.120717        -3.2849
  27   0.0000      -0.106760        -2.9051
  28   0.0000      -0.087387        -2.3779

MULLIKEN ATOMIC CHARGES
-----------------------
   0 C :   -0.087137
   1 N :   -0.221040
   2 C :   -0.366809
   3 C :    0.387315
   4 N :   -0.360046
   5 N :   -0.379676
   6 H :    0.273328
   7 H :    0.279213
   8 H :    0.236428
   9 H :    0.270984
  10 H :    0.269127
  11 H :    0.111110
  12 H :    0.162628
  13 H :    0.122106
  14 H :    0.157767
  15 H :    0.144702
Sum of atomic charges:    1.0000000

LOEWDIN ATOMIC CHARGES
----------------------
   0 C :   -0.273299
   1 N :    0.172111
   2 C :   -0.276948
   3 C :   -0.412008
   4 N :    0.064425
   5 N :    0.066793
   6 H :    0.195086
   7 H :    0.195322
   8 H :    0.209668
   9 H :    0.199609
  10 H :    0.196238
  11 H :    0.134595
  12 H :    0.144285
  13 H :    0.120124
  14 H :    0.137569
  15 H :    0.126429

  Mayer bond orders larger than 0.100000
B(  0-C ,  1-N ) :   0.8530 B(  0-C ,  2-C ) :   0.9623 B(  0-C , 11-H ) :   0.9716
B(  0-C , 12-H ) :   0.9489 B(  1-N ,  3-C ) :   1.3910 B(  1-N ,  8-H ) :   0.9068
B(  2-C , 13-H ) :   0.9686 B(  2-C , 14-H ) :   0.9640 B(  2-C , 15-H ) :   0.9670
B(  3-C ,  4-N ) :   1.3028 B(  3-C ,  5-N ) :   1.3114 B(  4-N ,  9-H ) :   0.8939
B(  4-N , 10-H ) :   0.8997 B(  5-N ,  6-H ) :   0.8921 B(  5-N ,  7-H ) :   0.8983

Dispersion correction           -0.020056513
FINAL SINGLE POINT ENERGY      -284.343735332258

DIPOLE MOMENT
-------------
                                X             Y             Z
Electronic contribution:      3.51412       3.40223      -2.66680
Nuclear contribution   :     -3.31456      -3.64300       1.57303
                        -----------------------------------------
Total Dipole Moment    :      0.19956      -0.24076      -1.09377
                        -----------------------------------------
Magnitude (a.u.)       :      1.13759
Magnitude (Debye)      :      2.89153

Rotational constants in cm-1:     0.229487     0.071000     0.059428
Rotational constants in MHz :  6879.840828  2128.520047  1781.605314

                             ****ORCA TERMINATED NORMALLY****
TOTAL RUN TIME: 0 days 0 hours 0 minutes 36 seconds 243 msec
