                         Program Version 5.0.0 -  RELEASE  -
|  1> !B3LYP D3BJ RIJCOSX def2-TZVP def2/J TightSCF xyzfile
|  2>
|  3> *xyzfile 0 1 B.xyz
|  4>
|  5> %MaxCore 64000
|  6>
|  7> %pal nprocs 18
|  8> end
|  9>
| 10> %scf
| 11>   MaxIter 150
| 12> end
| 13>
| 14>
| 15>                          ****END OF INPUT****

CARTESIAN COORDINATES (ANGSTROEM)
---------------------------------
  C      3.905947    2.819855   -3.752920
  N      5.295615    3.131515   -4.105334
  C      3.803511    1.374716   -3.260807
  C      3.939934    0.320362   -4.367729
  H      4.105043   -0.655085   -3.907733
  H      3.022801    0.280517   -4.957117
  C      5.105846    0.668022   -5.305463
  C      5.708619    3.468885   -5.324190
  N      6.904696    3.038954   -5.717084
  N      4.981884    4.293570   -6.097457
  H      5.000546    4.101311   -7.087761
  H      4.084693    4.596899   -5.739652
  H      5.963358    2.526112   -3.642391
  H      7.047164    2.066861   -5.473604
  H      7.198145    3.307994   -6.645225
  H      3.282025    2.949187   -4.640259
  H      3.565254    3.514574   -2.982523
  H      4.574833    1.215157   -2.500443
  H      2.843514    1.260845   -2.751465
  O      4.809132    1.150187   -6.414361
  O      6.267366    0.564999   -4.819481

 Total Charge           Charge          ....    0
 Multiplicity           Mult            ....    1
 Number of Electrons    NEL             ....   78
 Basis Dimension        Dim             ....  376

ORBITAL ENERGIES
----------------

  NO   OCC          E(Eh)            E(eV)
   0   2.0000     -19.038724      -518.0700
   1   2.0000     -19.034862      -517.9649
   2   2.0000     -14.377871      -391.2418
   3   2.0000     -14.369642      -391.0178
   4   2.0000     -14.347044      -390.4029
   5   2.0000     -10.331734      -281.1408
   6   2.0000     -10.229317      -278.3539
   7   2.0000     -10.223489      -278.1953
   8   2.0000     -10.178953      -276.9834
   9   2.0000     -10.145363      -276.0694
  10   2.0000      -1.048674       -28.5359
  11   2.0000      -1.000705       -27.2306
  12   2.0000      -0.942292       -25.6411
  13   2.0000      -0.923939       -25.1417
  14   2.0000      -0.909763       -24.7559
  15   2.0000      -0.794338       -21.6150
  16   2.0000      -0.712403       -19.3855
  17   2.0000      -0.656918       -17.8757
  18   2.0000      -0.622506       -16.9393
  19   2.0000      -0.605956       -16.4889
  20   2.0000      -0.574099       -15.6220
  21   2.0000      -0.534295       -14.5389
  22   2.0000      -0.515095       -14.0164
  23   2.0000      -0.496017       -13.4973
  24   2.0000      -0.478540       -13.0217
  25   2.0000      -0.472817       -12.8660
  26   2.0000      -0.429056       -11.6752
  27   2.0000      -0.421771       -11.4770
  28   2.0000      -0.409515       -11.1435
  29   2.0000      -0.385820       -10.4987
  30   2.0000      -0.380468       -10.3531
  31   2.0000      -0.374947       -10.2028
  32   2.0000      -0.339492        -9.2380
  33   2.0000      -0.335729        -9.1357
  34   2.0000      -0.315992        -8.5986
  35   2.0000      -0.291808        -7.9405
  36   2.0000      -0.231678        -6.3043
  37   2.0000      -0.216144        -5.8816
  38   2.0000      -0.206372        -5.6157
  39   0.0000      -0.019847        -0.5401
  40   0.0000       0.004457         0.1213
  41   0.0000       0.030777         0.8375
  42   0.0000       0.042981         1.1696
  43   0.0000       0.058885         1.6023

MULLIKEN ATOMIC CHARGES
-----------------------
   0 C :   -0.078475
   1 N :   -0.225317
   2 C :   -0.241972
   3 C :   -0.152488
   4 H :    0.086142
   5 H :    0.074467
   6 C :    0.291301
   7 C :    0.331744
   8 N :   -0.331964
   9 N :   -0.414120
  10 H :    0.262812
  11 H :    0.246096
  12 H :    0.243691
  13 H :    0.273855
  14 H :    0.220879
  15 H :    0.096560
  16 H :    0.118824
  17 H :    0.105164
  18 H :    0.099941
  19 O :   -0.461217
  20 O :   -0.545925
Sum of atomic charges:    0.0000000

LOEWDIN ATOMIC CHARGES
----------------------
   0 C :   -0.261262
   1 N :    0.164452
   2 C :   -0.260721
   3 C :   -0.238222
   4 H :    0.138117
   5 H :    0.133836
   6 C :   -0.669221
   7 C :   -0.426269
   8 N :    0.056876
   9 N :    0.034906
  10 H :    0.186037
  11 H :    0.178856
  12 H :    0.206688
  13 H :    0.172711
  14 H :    0.175041
  15 H :    0.136677
  16 H :    0.128026
  17 H :    0.138820
  18 H :    0.137432
  19 O :   -0.044881
  20 O :   -0.087900

  Mayer bond orders larger than 0.100000
B(  0-C ,  1-N ) :   0.9145 B(  0-C ,  2-C ) :   0.9706 B(  0-C , 15-H ) :   0.9672
B(  0-C , 16-H ) :   0.9622 B(  1-N ,  7-C ) :   1.3672 B(  1-N , 12-H ) :   0.8895
B(  2-C ,  3-C ) :   0.9807 B(  2-C , 17-H ) :   0.9641 B(  2-C , 18-H ) :   0.9627
B(  3-C ,  4-H ) :   0.9446 B(  3-C ,  5-H ) :   0.9635 B(  3-C ,  6-C ) :   0.9343
B(  6-C , 19-O ) :   1.8412 B(  6-C , 20-O ) :   1.6733 B(  7-C ,  8-N ) :   1.3918
B(  7-C ,  9-N ) :   1.2483 B(  7-C , 19-O ) :   0.1552 B(  8-N , 13-H ) :   0.8013
B(  8-N , 14-H ) :   0.9210 B(  9-N , 10-H ) :   0.9091 B(  9-N , 11-H ) :   0.9164
B( 13-H , 20-O ) :   0.1659

Dispersion correction           -0.037868969
FINAL SINGLE POINT ENERGY      -511.833743272874

DIPOLE MOMENT
-------------
                                X             Y             Z
Electronic contribution:      4.19205       0.40328      -3.46618
Nuclear contribution   :     -4.94498       2.03334       3.78956
                        -----------------------------------------
Total Dipole Moment    :     -0.75293       2.43662       0.32337
                        -----------------------------------------
Magnitude (a.u.)       :      2.57072
Magnitude (Debye)      :      6.53425

Rotational constants in cm-1:     0.062533     0.042832     0.033687
Rotational constants in MHz :  1874.701390  1284.063603  1009.911042

                             ****ORCA TERMINATED NORMALLY****
TOTAL RUN TIME: 0 days 0 hours 0 minutes 32 seconds 767 msec
