                         Program Version 5.0.0 -  RELEASE  -
|  1> !B3LYP D3BJ RIJCOSX def2-TZVP def2/J TightSCF
|  2> *xyz 0 1
|  3> C          3.80351        1.37472       -3.26081
|  4> C          3.93993        0.32036       -4.36773
|  5> H          4.10504       -0.65508       -3.90773
|  6> H          3.02280        0.28052       -4.95712
|  7> C          5.10585        0.66802       -5.30546
|  8> F          4.80913        1.15019       -6.41436
|  9> O          6.26737        0.56500       -4.81948
| 10> H          3.64113        2.33595       -3.70189
| 11> H          4.69995        1.39701       -2.67703
| 12> H          2.97435        1.12625       -2.63180
| 13> *
| 14>
| 15> %MaxCore 64000
| 16>
| 17> %pal nprocs 4
| 18> end
| 19>
| 20> %scf
| 21>   MaxIter 150
| 22> end
| 23>
| 24>
| 25>                          ****END OF INPUT****

CARTESIAN COORDINATES (ANGSTROEM)
---------------------------------
  C      3.803510    1.374720   -3.260810
  C      3.939930    0.320360   -4.367730
  H      4.105040   -0.655080   -3.907730
  H      3.022800    0.280520   -4.957120
  C      5.105850    0.668020   -5.305460
  F      4.809130    1.150190   -6.414360
  O      6.267370    0.565000   -4.819480
  H      3.641130    2.335950   -3.701890
  H      4.699950    1.397010   -2.677030
  H      2.974350    1.126250   -2.631800

 Total Charge           Charge          ....    0
 Multiplicity           Mult            ....    1
 Number of Electrons    NEL             ....   40
 Basis Dimension        Dim             ....  185

ORBITAL ENERGIES
----------------

  NO   OCC          E(Eh)            E(eV)
   0   2.0000     -24.755334      -673.6269
   1   2.0000     -19.128528      -520.5137
   2   2.0000     -10.347348      -281.5656
   3   2.0000     -10.199471      -277.5417
   4   2.0000     -10.174349      -276.8581
   5   2.0000      -1.327370       -36.1196
   6   2.0000      -1.028078       -27.9754
   7   2.0000      -0.799775       -21.7630
   8   2.0000      -0.690630       -18.7930
   9   2.0000      -0.642810       -17.4918
  10   2.0000      -0.553325       -15.0567
  11   2.0000      -0.539424       -14.6785
  12   2.0000      -0.507335       -13.8053
  13   2.0000      -0.465497       -12.6668
  14   2.0000      -0.435636       -11.8543
  15   2.0000      -0.399557       -10.8725
  16   2.0000      -0.380045       -10.3415
  17   2.0000      -0.375228       -10.2105
  18   2.0000      -0.345802        -9.4097
  19   2.0000      -0.290249        -7.8981
  20   0.0000      -0.032408        -0.8819
  21   0.0000       0.033032         0.8988
  22   0.0000       0.072855         1.9825
  23   0.0000       0.087010         2.3677
  24   0.0000       0.099489         2.7072

MULLIKEN ATOMIC CHARGES
-----------------------
   0 C :   -0.337482
   1 C :   -0.177276
   2 H :    0.116947
   3 H :    0.095739
   4 C :    0.381264
   5 F :   -0.095266
   6 O :   -0.342828
   7 H :    0.110293
   8 H :    0.132507
   9 H :    0.116101
Sum of atomic charges:   -0.0000000

LOEWDIN ATOMIC CHARGES
----------------------
   0 C :   -0.281395
   1 C :   -0.253520
   2 H :    0.148717
   3 H :    0.134983
   4 C :   -0.501323
   5 F :    0.341056
   6 O :    0.052512
   7 H :    0.117643
   8 H :    0.123339
   9 H :    0.117987

  Mayer bond orders larger than 0.100000
B(  0-C ,  1-C ) :   0.9551 B(  0-C ,  7-H ) :   0.9743 B(  0-C ,  8-H ) :   0.9719
B(  0-C ,  9-H ) :   0.9708 B(  1-C ,  2-H ) :   0.9520 B(  1-C ,  3-H ) :   0.9555
B(  1-C ,  4-C ) :   0.9794 B(  4-C ,  5-F ) :   1.1609 B(  4-C ,  6-O ) :   2.0396

Dispersion correction           -0.010433496
FINAL SINGLE POINT ENERGY      -292.376615933783

DIPOLE MOMENT
-------------
                                X             Y             Z
Electronic contribution:      4.00975      -0.00946      -7.44145
Nuclear contribution   :     -5.17129      -0.01923       7.59895
                        -----------------------------------------
Total Dipole Moment    :     -1.16154      -0.02869       0.15750
                        -----------------------------------------
Magnitude (a.u.)       :      1.17252
Magnitude (Debye)      :      2.98032

Rotational constants in cm-1:     0.282073     0.131822     0.105134
Rotational constants in MHz :  8456.328792  3951.925810  3151.840112

                             ****ORCA TERMINATED NORMALLY****
TOTAL RUN TIME: 0 days 0 hours 0 minutes 26 seconds 505 msec
