                         Program Version 5.0.0 -  RELEASE  -
|  1> !B3LYP D3BJ RIJCOSX def2-TZVP def2/J TightSCF
|  2> *xyz 0 1
|  3> C          3.90595        2.81985       -3.75292
|  4> C          5.29562        3.13151       -4.10533
|  5> C          3.80351        1.37472       -3.26081
|  6> C          5.70862        3.46889       -5.32419
|  7> N          6.90470        3.03895       -5.71708
|  8> N          4.98188        4.29357       -6.09746
|  9> H          5.00055        4.10131       -7.08776
| 10> H          4.08469        4.59690       -5.73965
| 11> H          5.96336        2.52611       -3.64239
| 12> H          7.04716        2.06686       -5.47360
| 13> H          7.19815        3.30799       -6.64523
| 14> H          3.28202        2.94919       -4.64026
| 15> H          3.56525        3.51457       -2.98252
| 16> H          4.14157        0.71142       -4.02935
| 17> H          2.78528        1.15146       -3.01944
| 18> H          4.41205        1.25066       -2.38949
| 19> *
| 20>
| 21> %MaxCore 64000
| 22>
| 23> %pal nprocs 4
| 24> end
| 25>
| 26> %scf
| 27>   MaxIter 150
| 28> end
| 29>
| 30>
| 31>                          ****END OF INPUT****

CARTESIAN COORDINATES (ANGSTROEM)
---------------------------------
  C      3.905950    2.819850   -3.752920
  C      5.295620    3.131510   -4.105330
  C      3.803510    1.374720   -3.260810
  C      5.708620    3.468890   -5.324190
  N      6.904700    3.038950   -5.717080
  N      4.981880    4.293570   -6.097460
  H      5.000550    4.101310   -7.087760
  H      4.084690    4.596900   -5.739650
  H      5.963360    2.526110   -3.642390
  H      7.047160    2.066860   -5.473600
  H      7.198150    3.307990   -6.645230
  H      3.282020    2.949190   -4.640260
  H      3.565250    3.514570   -2.982520
  H      4.141570    0.711420   -4.029350
  H      2.785280    1.151460   -3.019440
  H      4.412050    1.250660   -2.389490

 Total Charge           Charge          ....    0
 Multiplicity           Mult            ....    1
 Number of Electrons    NEL             ....   48
 Basis Dimension        Dim             ....  246

ORBITAL ENERGIES
----------------

  NO   OCC          E(Eh)            E(eV)
   0   2.0000     -14.316814      -389.5803
   1   2.0000     -14.313790      -389.4980
   2   2.0000     -10.208594      -277.7900
   3   2.0000     -10.144394      -276.0430
   4   2.0000     -10.136807      -275.8365
   5   2.0000     -10.092211      -274.6230
   6   2.0000      -0.964138       -26.2355
   7   2.0000      -0.876617       -23.8540
   8   2.0000      -0.775003       -21.0889
   9   2.0000      -0.694309       -18.8931
  10   2.0000      -0.612445       -16.6655
  11   2.0000      -0.575115       -15.6497
  12   2.0000      -0.533956       -14.5297
  13   2.0000      -0.509850       -13.8737
  14   2.0000      -0.476791       -12.9741
  15   2.0000      -0.444860       -12.1053
  16   2.0000      -0.420537       -11.4434
  17   2.0000      -0.387777       -10.5520
  18   2.0000      -0.367998       -10.0137
  19   2.0000      -0.350295        -9.5320
  20   2.0000      -0.327059        -8.8997
  21   2.0000      -0.323271        -8.7966
  22   2.0000      -0.273381        -7.4391
  23   2.0000      -0.168840        -4.5944
  24   0.0000       0.015782         0.4294
  25   0.0000       0.048504         1.3199
  26   0.0000       0.056767         1.5447
  27   0.0000       0.065627         1.7858
  28   0.0000       0.080368         2.1869

MULLIKEN ATOMIC CHARGES
-----------------------
   0 C :   -0.116793
   1 C :   -0.274369
   2 C :   -0.334258
   3 C :    0.287671
   4 N :   -0.443747
   5 N :   -0.448623
   6 H :    0.195508
   7 H :    0.232477
   8 H :    0.053798
   9 H :    0.236462
  10 H :    0.199844
  11 H :    0.036219
  12 H :    0.084797
  13 H :    0.088927
  14 H :    0.097381
  15 H :    0.104707
Sum of atomic charges:    0.0000000

LOEWDIN ATOMIC CHARGES
----------------------
   0 C :   -0.302488
   1 C :   -0.270233
   2 C :   -0.296450
   3 C :   -0.468790
   4 N :   -0.013037
   5 N :   -0.016568
   6 H :    0.152611
   7 H :    0.172937
   8 H :    0.123799
   9 H :    0.178524
  10 H :    0.158169
  11 H :    0.122284
  12 H :    0.126810
  13 H :    0.109603
  14 H :    0.109021
  15 H :    0.113810

  Mayer bond orders larger than 0.100000
B(  0-C ,  1-C ) :   0.9659 B(  0-C ,  2-C ) :   0.9505 B(  0-C , 11-H ) :   0.9614
B(  0-C , 12-H ) :   0.9682 B(  1-C ,  3-C ) :   1.6668 B(  1-C ,  8-H ) :   1.0322
B(  2-C , 13-H ) :   0.9804 B(  2-C , 14-H ) :   0.9781 B(  2-C , 15-H ) :   0.9813
B(  3-C ,  4-N ) :   1.1097 B(  3-C ,  5-N ) :   1.1364 B(  4-N ,  9-H ) :   0.9202
B(  4-N , 10-H ) :   0.9320 B(  5-N ,  6-H ) :   0.9143 B(  5-N ,  7-H ) :   0.9250

Dispersion correction           -0.020987934
FINAL SINGLE POINT ENERGY      -267.861512788394

DIPOLE MOMENT
-------------
                                X             Y             Z
Electronic contribution:      3.20132       3.26630      -2.87888
Nuclear contribution   :     -3.27358      -3.61654       1.70633
                        -----------------------------------------
Total Dipole Moment    :     -0.07226      -0.35024      -1.17255
                        -----------------------------------------
Magnitude (a.u.)       :      1.22587
Magnitude (Debye)      :      3.11592

Rotational constants in cm-1:     0.231961     0.071249     0.059473
Rotational constants in MHz :  6954.024434  2135.976855  1782.962814

                             ****ORCA TERMINATED NORMALLY****
TOTAL RUN TIME: 0 days 0 hours 0 minutes 30 seconds 76 msec
