                         Program Version 5.0.0 -  RELEASE  -
|  1> !B3LYP D3BJ RIJCOSX def2-TZVP def2/J TightSCF
|  2> *xyz 0 1
|  3> C          3.80351        1.37472       -3.26081
|  4> C          3.93993        0.32036       -4.36773
|  5> H          4.10504       -0.65508       -3.90773
|  6> H          3.02280        0.28052       -4.95712
|  7> C          5.10585        0.66802       -5.30546
|  8> O          4.80913        1.15019       -6.41436
|  9> F          6.26737        0.56500       -4.81948
| 10> H          3.64113        2.33595       -3.70189
| 11> H          4.69995        1.39701       -2.67703
| 12> H          2.97435        1.12625       -2.63180
| 13> *
| 14>
| 15> %MaxCore 64000
| 16>
| 17> %pal nprocs 4
| 18> end
| 19>
| 20> %scf
| 21>   MaxIter 150
| 22> end
| 23>
| 24>
| 25>                          ****END OF INPUT****

CARTESIAN COORDINATES (ANGSTROEM)
---------------------------------
  C      3.803510    1.374720   -3.260810
  C      3.939930    0.320360   -4.367730
  H      4.105040   -0.655080   -3.907730
  H      3.022800    0.280520   -4.957120
  C      5.105850    0.668020   -5.305460
  O      4.809130    1.150190   -6.414360
  F      6.267370    0.565000   -4.819480
  H      3.641130    2.335950   -3.701890
  H      4.699950    1.397010   -2.677030
  H      2.974350    1.126250   -2.631800

 Total Charge           Charge          ....    0
 Multiplicity           Mult            ....    1
 Number of Electrons    NEL             ....   40
 Basis Dimension        Dim             ....  185

ORBITAL ENERGIES
----------------

  NO   OCC          E(Eh)            E(eV)
   0   2.0000     -24.748456      -673.4397
   1   2.0000     -19.131321      -520.5897
   2   2.0000     -10.345352      -281.5114
   3   2.0000     -10.199026      -277.5296
   4   2.0000     -10.177051      -276.9316
   5   2.0000      -1.313790       -35.7500
   6   2.0000      -1.039177       -28.2774
   7   2.0000      -0.801630       -21.8134
   8   2.0000      -0.685045       -18.6410
   9   2.0000      -0.640937       -17.4408
  10   2.0000      -0.547531       -14.8991
  11   2.0000      -0.534840       -14.5537
  12   2.0000      -0.504249       -13.7213
  13   2.0000      -0.465513       -12.6672
  14   2.0000      -0.436861       -11.8876
  15   2.0000      -0.402769       -10.9599
  16   2.0000      -0.385432       -10.4881
  17   2.0000      -0.375953       -10.2302
  18   2.0000      -0.354638        -9.6502
  19   2.0000      -0.291115        -7.9216
  20   0.0000      -0.028072        -0.7639
  21   0.0000       0.030903         0.8409
  22   0.0000       0.072119         1.9625
  23   0.0000       0.088801         2.4164
  24   0.0000       0.105240         2.8637

MULLIKEN ATOMIC CHARGES
-----------------------
   0 C :   -0.342673
   1 C :   -0.177296
   2 H :    0.101853
   3 H :    0.118792
   4 C :    0.372595
   5 O :   -0.318252
   6 F :   -0.114172
   7 H :    0.123945
   8 H :    0.116010
   9 H :    0.119199
Sum of atomic charges:    0.0000000

LOEWDIN ATOMIC CHARGES
----------------------
   0 C :   -0.285288
   1 C :   -0.250867
   2 H :    0.139234
   3 H :    0.147906
   4 C :   -0.499293
   5 O :    0.077707
   6 F :    0.312299
   7 H :    0.121058
   8 H :    0.117885
   9 H :    0.119359

  Mayer bond orders larger than 0.100000
B(  0-C ,  1-C ) :   0.9467 B(  0-C ,  7-H ) :   0.9735 B(  0-C ,  8-H ) :   0.9737
B(  0-C ,  9-H ) :   0.9706 B(  1-C ,  2-H ) :   0.9447 B(  1-C ,  3-H ) :   0.9642
B(  1-C ,  4-C ) :   0.9936 B(  4-C ,  5-O ) :   2.0729 B(  4-C ,  6-F ) :   1.1338

Dispersion correction           -0.010394963
FINAL SINGLE POINT ENERGY      -292.381993591515

DIPOLE MOMENT
-------------
                                X             Y             Z
Electronic contribution:      6.41662      -0.98445      -4.78134
Nuclear contribution   :     -6.76123       0.61881       5.86003
                        -----------------------------------------
Total Dipole Moment    :     -0.34461      -0.36564       1.07869
                        -----------------------------------------
Magnitude (a.u.)       :      1.18997
Magnitude (Debye)      :      3.02466

Rotational constants in cm-1:     0.275298     0.134631     0.105723
Rotational constants in MHz :  8253.224169  4036.137572  3169.487264

                             ****ORCA TERMINATED NORMALLY****
TOTAL RUN TIME: 0 days 0 hours 0 minutes 17 seconds 245 msec
