                         Program Version 5.0.0 -  RELEASE  -
|  1> !B3LYP D3BJ RIJCOSX def2-TZVP def2/J TightSCF
|  2> *xyz 0 1
|  3> C          3.90595        2.81985       -3.75292
|  4> N          5.29562        3.13151       -4.10533
|  5> C          3.80351        1.37472       -3.26081
|  6> C          5.70862        3.46889       -5.32419
|  7> C          6.90470        3.03895       -5.71708
|  8> N          4.98188        4.29357       -6.09746
|  9> H          5.00055        4.10131       -7.08776
| 10> H          4.08469        4.59690       -5.73965
| 11> H          5.96336        2.52611       -3.64239
| 12> H          7.04716        2.06686       -5.47360
| 13> H          7.19815        3.30799       -6.64523
| 14> H          3.28202        2.94919       -4.64026
| 15> H          3.56525        3.51457       -2.98252
| 16> H          4.14157        0.71142       -4.02935
| 17> H          2.78528        1.15146       -3.01944
| 18> H          4.41205        1.25066       -2.38949
| 19> *
| 20>
| 21> %MaxCore 64000
| 22>
| 23> %pal nprocs 4
| 24> end
| 25>
| 26> %scf
| 27>   MaxIter 150
| 28> end
| 29>
| 30>
| 31>                          ****END OF INPUT****

CARTESIAN COORDINATES (ANGSTROEM)
---------------------------------
  C      3.905950    2.819850   -3.752920
  N      5.295620    3.131510   -4.105330
  C      3.803510    1.374720   -3.260810
  C      5.708620    3.468890   -5.324190
  C      6.904700    3.038950   -5.717080
  N      4.981880    4.293570   -6.097460
  H      5.000550    4.101310   -7.087760
  H      4.084690    4.596900   -5.739650
  H      5.963360    2.526110   -3.642390
  H      7.047160    2.066860   -5.473600
  H      7.198150    3.307990   -6.645230
  H      3.282020    2.949190   -4.640260
  H      3.565250    3.514570   -2.982520
  H      4.141570    0.711420   -4.029350
  H      2.785280    1.151460   -3.019440
  H      4.412050    1.250660   -2.389490

 Total Charge           Charge          ....    0
 Multiplicity           Mult            ....    1
 Number of Electrons    NEL             ....   48
 Basis Dimension        Dim             ....  246

ORBITAL ENERGIES
----------------

  NO   OCC          E(Eh)            E(eV)
   0   2.0000     -14.316940      -389.5838
   1   2.0000     -14.315727      -389.5507
   2   2.0000     -10.213534      -277.9244
   3   2.0000     -10.208405      -277.7848
   4   2.0000     -10.166813      -276.6530
   5   2.0000     -10.078455      -274.2487
   6   2.0000      -0.969172       -26.3725
   7   2.0000      -0.887997       -24.1636
   8   2.0000      -0.773339       -21.0436
   9   2.0000      -0.706059       -19.2128
  10   2.0000      -0.630583       -17.1590
  11   2.0000      -0.596031       -16.2188
  12   2.0000      -0.533415       -14.5150
  13   2.0000      -0.494851       -13.4656
  14   2.0000      -0.483554       -13.1582
  15   2.0000      -0.452919       -12.3245
  16   2.0000      -0.422913       -11.5080
  17   2.0000      -0.401197       -10.9171
  18   2.0000      -0.381037       -10.3686
  19   2.0000      -0.375235       -10.2107
  20   2.0000      -0.372647       -10.1402
  21   2.0000      -0.337340        -9.1795
  22   2.0000      -0.260782        -7.0962
  23   2.0000      -0.173101        -4.7103
  24   0.0000       0.021381         0.5818
  25   0.0000       0.041774         1.1367
  26   0.0000       0.054953         1.4953
  27   0.0000       0.064097         1.7442
  28   0.0000       0.081554         2.2192

MULLIKEN ATOMIC CHARGES
-----------------------
   0 C :   -0.050126
   1 N :   -0.263627
   2 C :   -0.362864
   3 C :    0.305708
   4 C :   -0.467588
   5 N :   -0.448810
   6 H :    0.235674
   7 H :    0.208634
   8 H :    0.202739
   9 H :    0.067548
  10 H :    0.053386
  11 H :    0.074918
  12 H :    0.103512
  13 H :    0.119287
  14 H :    0.108125
  15 H :    0.113484
Sum of atomic charges:   -0.0000000

LOEWDIN ATOMIC CHARGES
----------------------
   0 C :   -0.301909
   1 N :    0.115345
   2 C :   -0.301433
   3 C :   -0.467169
   4 C :   -0.350384
   5 N :   -0.008254
   6 H :    0.172873
   7 H :    0.158121
   8 H :    0.194232
   9 H :    0.100683
  10 H :    0.094385
  11 H :    0.122620
  12 H :    0.121741
  13 H :    0.117132
  14 H :    0.116967
  15 H :    0.115051

  Mayer bond orders larger than 0.100000
B(  0-C ,  1-N ) :   0.9274 B(  0-C ,  2-C ) :   0.9644 B(  0-C , 11-H ) :   0.9687
B(  0-C , 12-H ) :   0.9625 B(  1-N ,  3-C ) :   1.2299 B(  1-N ,  8-H ) :   0.9261
B(  2-C , 13-H ) :   0.9758 B(  2-C , 14-H ) :   0.9736 B(  2-C , 15-H ) :   0.9754
B(  3-C ,  4-C ) :   1.6442 B(  3-C ,  5-N ) :   1.1002 B(  4-C ,  9-H ) :   0.9891
B(  4-C , 10-H ) :   1.0219 B(  5-N ,  6-H ) :   0.9219 B(  5-N ,  7-H ) :   0.9317

Dispersion correction           -0.020752750
FINAL SINGLE POINT ENERGY      -267.851751991039

DIPOLE MOMENT
-------------
                                X             Y             Z
Electronic contribution:      1.50390       3.26201      -1.27994
Nuclear contribution   :     -2.93222      -3.63618       1.36440
                        -----------------------------------------
Total Dipole Moment    :     -1.42832      -0.37417       0.08447
                        -----------------------------------------
Magnitude (a.u.)       :      1.47893
Magnitude (Debye)      :      3.75914

Rotational constants in cm-1:     0.237993     0.072843     0.061284
Rotational constants in MHz :  7134.860770  2183.763760  1837.240960

                             ****ORCA TERMINATED NORMALLY****
TOTAL RUN TIME: 0 days 0 hours 0 minutes 32 seconds 43 msec
