                         Program Version 5.0.0 -  RELEASE  -
|  1> !B3LYP D3BJ RIJCOSX def2-TZVP def2/J TightSCF
|  2> *xyz 0 1
|  3> C          3.90595        2.81985       -3.75292
|  4> N          5.29562        3.13151       -4.10533
|  5> C          3.80351        1.37472       -3.26081
|  6> C          5.70862        3.46889       -5.32419
|  7> N          6.90470        3.03895       -5.71708
|  8> C          4.98188        4.29357       -6.09746
|  9> H          5.00055        4.10131       -7.08776
| 10> H          4.08469        4.59690       -5.73965
| 11> H          5.96336        2.52611       -3.64239
| 12> H          7.04716        2.06686       -5.47360
| 13> H          7.19815        3.30799       -6.64523
| 14> H          3.28202        2.94919       -4.64026
| 15> H          3.56525        3.51457       -2.98252
| 16> H          4.14157        0.71142       -4.02935
| 17> H          2.78528        1.15146       -3.01944
| 18> H          4.41205        1.25066       -2.38949
| 19> *
| 20>
| 21> %MaxCore 64000
| 22>
| 23> %pal nprocs 4
| 24> end
| 25>
| 26> %scf
| 27>   MaxIter 150
| 28> end
| 29>
| 30>
| 31>                          ****END OF INPUT****

CARTESIAN COORDINATES (ANGSTROEM)
---------------------------------
  C      3.905950    2.819850   -3.752920
  N      5.295620    3.131510   -4.105330
  C      3.803510    1.374720   -3.260810
  C      5.708620    3.468890   -5.324190
  N      6.904700    3.038950   -5.717080
  C      4.981880    4.293570   -6.097460
  H      5.000550    4.101310   -7.087760
  H      4.084690    4.596900   -5.739650
  H      5.963360    2.526110   -3.642390
  H      7.047160    2.066860   -5.473600
  H      7.198150    3.307990   -6.645230
  H      3.282020    2.949190   -4.640260
  H      3.565250    3.514570   -2.982520
  H      4.141570    0.711420   -4.029350
  H      2.785280    1.151460   -3.019440
  H      4.412050    1.250660   -2.389490

 Total Charge           Charge          ....    0
 Multiplicity           Mult            ....    1
 Number of Electrons    NEL             ....   48
 Basis Dimension        Dim             ....  246

ORBITAL ENERGIES
----------------

  NO   OCC          E(Eh)            E(eV)
   0   2.0000     -14.317887      -389.6095
   1   2.0000     -14.315905      -389.5556
   2   2.0000     -10.212529      -277.8970
   3   2.0000     -10.202624      -277.6275
   4   2.0000     -10.164669      -276.5947
   5   2.0000     -10.084011      -274.3999
   6   2.0000      -0.974127       -26.5073
   7   2.0000      -0.889662       -24.2089
   8   2.0000      -0.762534       -20.7496
   9   2.0000      -0.707373       -19.2486
  10   2.0000      -0.643717       -17.5164
  11   2.0000      -0.567041       -15.4300
  12   2.0000      -0.535886       -14.5822
  13   2.0000      -0.517066       -14.0701
  14   2.0000      -0.471253       -12.8234
  15   2.0000      -0.457094       -12.4382
  16   2.0000      -0.405060       -11.0223
  17   2.0000      -0.402788       -10.9604
  18   2.0000      -0.393083       -10.6963
  19   2.0000      -0.374411       -10.1882
  20   2.0000      -0.364237        -9.9114
  21   2.0000      -0.339009        -9.2249
  22   2.0000      -0.258404        -7.0315
  23   2.0000      -0.176595        -4.8054
  24   0.0000       0.018484         0.5030
  25   0.0000       0.047265         1.2861
  26   0.0000       0.057998         1.5782
  27   0.0000       0.065638         1.7861
  28   0.0000       0.081628         2.2212

MULLIKEN ATOMIC CHARGES
-----------------------
   0 C :   -0.029980
   1 N :   -0.282277
   2 C :   -0.360833
   3 C :    0.318794
   4 N :   -0.438302
   5 C :   -0.476009
   6 H :    0.078384
   7 H :    0.064778
   8 H :    0.168088
   9 H :    0.194940
  10 H :    0.229517
  11 H :    0.102781
  12 H :    0.101434
  13 H :    0.109064
  14 H :    0.110092
  15 H :    0.109530
Sum of atomic charges:    0.0000000

LOEWDIN ATOMIC CHARGES
----------------------
   0 C :   -0.287053
   1 N :    0.117784
   2 C :   -0.304612
   3 C :   -0.476409
   4 N :   -0.013731
   5 C :   -0.336308
   6 H :    0.095729
   7 H :    0.095696
   8 H :    0.176187
   9 H :    0.156725
  10 H :    0.174656
  11 H :    0.133345
  12 H :    0.123900
  13 H :    0.113415
  14 H :    0.117849
  15 H :    0.112829

  Mayer bond orders larger than 0.100000
B(  0-C ,  1-N ) :   0.9243 B(  0-C ,  2-C ) :   0.9595 B(  0-C , 11-H ) :   0.9656
B(  0-C , 12-H ) :   0.9658 B(  1-N ,  3-C ) :   1.1728 B(  1-N ,  8-H ) :   0.9354
B(  2-C , 13-H ) :   0.9771 B(  2-C , 14-H ) :   0.9743 B(  2-C , 15-H ) :   0.9756
B(  3-C ,  4-N ) :   1.1367 B(  3-C ,  5-C ) :   1.5844 B(  4-N ,  9-H ) :   0.9168
B(  4-N , 10-H ) :   0.9241 B(  5-C ,  6-H ) :   0.9791 B(  5-C ,  7-H ) :   1.0146

Dispersion correction           -0.020819231
FINAL SINGLE POINT ENERGY      -267.856295843134

DIPOLE MOMENT
-------------
                                X             Y             Z
Electronic contribution:      3.40983       2.06491      -0.98127
Nuclear contribution   :     -3.34013      -3.37002       1.28371
                        -----------------------------------------
Total Dipole Moment    :      0.06970      -1.30511       0.30244
                        -----------------------------------------
Magnitude (a.u.)       :      1.34150
Magnitude (Debye)      :      3.40983

Rotational constants in cm-1:     0.239537     0.072280     0.060961
Rotational constants in MHz :  7181.153552  2166.902802  1827.551447

                             ****ORCA TERMINATED NORMALLY****
TOTAL RUN TIME: 0 days 0 hours 0 minutes 32 seconds 166 msec
