                         Program Version 5.0.0 -  RELEASE  -
|  1> !B3LYP D3BJ RIJCOSX def2-TZVP def2/J TightSCF xyzfile
|  2>
|  3> *xyzfile 0 1 D1.xyz
|  4>
|  5> %MaxCore 64000
|  6>
|  7> %pal nprocs 18
|  8> end
|  9>
| 10> %scf
| 11>   MaxIter 150
| 12> end
| 13>
| 14>
| 15>                          ****END OF INPUT****

CARTESIAN COORDINATES (ANGSTROEM)
---------------------------------
  C      3.905947    2.819855   -3.752920
  C      5.295615    3.131515   -4.105334
  C      3.803511    1.374716   -3.260807
  C      3.939934    0.320362   -4.367729
  H      4.105043   -0.655085   -3.907733
  H      3.022801    0.280517   -4.957117
  C      5.105846    0.668022   -5.305463
  C      5.708619    3.468885   -5.324190
  N      6.904696    3.038954   -5.717084
  N      4.981884    4.293570   -6.097457
  H      5.000546    4.101311   -7.087761
  H      4.084693    4.596899   -5.739652
  H      5.963358    2.526112   -3.642391
  H      7.047164    2.066861   -5.473604
  H      7.198145    3.307994   -6.645225
  H      3.282025    2.949187   -4.640259
  H      3.565254    3.514574   -2.982523
  H      4.574833    1.215157   -2.500443
  H      2.843514    1.260845   -2.751465
  F      4.809132    1.150187   -6.414361
  O      6.267366    0.564999   -4.819481

 Total Charge           Charge          ....    0
 Multiplicity           Mult            ....    1
 Number of Electrons    NEL             ....   78
 Basis Dimension        Dim             ....  376

ORBITAL ENERGIES
----------------

  NO   OCC          E(Eh)            E(eV)
   0   2.0000     -24.758937      -673.7249
   1   2.0000     -19.130920      -520.5788
   2   2.0000     -14.316256      -389.5651
   3   2.0000     -14.295043      -388.9879
   4   2.0000     -10.352830      -281.7148
   5   2.0000     -10.207542      -277.7613
   6   2.0000     -10.195668      -277.4382
   7   2.0000     -10.174230      -276.8549
   8   2.0000     -10.156556      -276.3739
   9   2.0000     -10.093664      -274.6626
  10   2.0000      -1.332315       -36.2541
  11   2.0000      -1.038230       -28.2517
  12   2.0000      -0.958820       -26.0908
  13   2.0000      -0.869895       -23.6710
  14   2.0000      -0.815912       -22.2021
  15   2.0000      -0.750697       -20.4275
  16   2.0000      -0.694873       -18.9085
  17   2.0000      -0.660909       -17.9842
  18   2.0000      -0.608349       -16.5540
  19   2.0000      -0.577849       -15.7241
  20   2.0000      -0.558149       -15.1880
  21   2.0000      -0.541657       -14.7392
  22   2.0000      -0.532961       -14.5026
  23   2.0000      -0.518800       -14.1173
  24   2.0000      -0.501225       -13.6390
  25   2.0000      -0.466920       -12.7055
  26   2.0000      -0.459376       -12.5003
  27   2.0000      -0.440842       -11.9959
  28   2.0000      -0.430338       -11.7101
  29   2.0000      -0.397980       -10.8296
  30   2.0000      -0.385394       -10.4871
  31   2.0000      -0.368105       -10.0166
  32   2.0000      -0.361886        -9.8474
  33   2.0000      -0.347372        -9.4525
  34   2.0000      -0.335643        -9.1333
  35   2.0000      -0.322195        -8.7674
  36   2.0000      -0.298745        -8.1293
  37   2.0000      -0.263885        -7.1807
  38   2.0000      -0.170589        -4.6420
  39   0.0000      -0.037310        -1.0153
  40   0.0000       0.023473         0.6387
  41   0.0000       0.044377         1.2076
  42   0.0000       0.055131         1.5002
  43   0.0000       0.064162         1.7459

MULLIKEN ATOMIC CHARGES
-----------------------
   0 C :   -0.162599
   1 C :   -0.282221
   2 C :   -0.181583
   3 C :   -0.216629
   4 H :    0.119608
   5 H :    0.096363
   6 C :    0.454367
   7 C :    0.179951
   8 N :   -0.401639
   9 N :   -0.440168
  10 H :    0.197127
  11 H :    0.228735
  12 H :    0.098868
  13 H :    0.251370
  14 H :    0.192876
  15 H :    0.044233
  16 H :    0.097506
  17 H :    0.111852
  18 H :    0.093459
  19 F :   -0.101347
  20 O :   -0.380130
Sum of atomic charges:   -0.0000000

LOEWDIN ATOMIC CHARGES
----------------------
   0 C :   -0.281490
   1 C :   -0.260498
   2 C :   -0.242748
   3 C :   -0.222033
   4 H :    0.151993
   5 H :    0.138178
   6 C :   -0.498118
   7 C :   -0.482686
   8 N :   -0.001571
   9 N :   -0.013753
  10 H :    0.152404
  11 H :    0.170414
  12 H :    0.130317
  13 H :    0.164551
  14 H :    0.155684
  15 H :    0.127797
  16 H :    0.132913
  17 H :    0.143782
  18 H :    0.134052
  19 F :    0.352511
  20 O :    0.048301

  Mayer bond orders larger than 0.100000
B(  0-C ,  1-C ) :   0.9807 B(  0-C ,  2-C ) :   0.9608 B(  0-C , 15-H ) :   0.9607
B(  0-C , 16-H ) :   0.9587 B(  1-C ,  7-C ) :   1.6069 B(  1-C , 12-H ) :   1.0345
B(  2-C ,  3-C ) :   0.9743 B(  2-C , 17-H ) :   0.9670 B(  2-C , 18-H ) :   0.9632
B(  3-C ,  4-H ) :   0.9482 B(  3-C ,  5-H ) :   0.9513 B(  3-C ,  6-C ) :   0.9931
B(  6-C , 19-F ) :   1.1537 B(  6-C , 20-O ) :   1.9316 B(  7-C ,  8-N ) :   1.1870
B(  7-C ,  9-N ) :   1.1522 B(  8-N , 13-H ) :   0.8661 B(  8-N , 14-H ) :   0.9310
B(  9-N , 10-H ) :   0.9181 B(  9-N , 11-H ) :   0.9263

Dispersion correction           -0.037840045
FINAL SINGLE POINT ENERGY      -519.737632317792

DIPOLE MOMENT
-------------
                                X             Y             Z
Electronic contribution:      3.44291      -3.60597      -6.50099
Nuclear contribution   :     -4.60158       3.22721       5.56005
                        -----------------------------------------
Total Dipole Moment    :     -1.15868      -0.37875      -0.94094
                        -----------------------------------------
Magnitude (a.u.)       :      1.53992
Magnitude (Debye)      :      3.91417

Rotational constants in cm-1:     0.061224     0.042534     0.033552
Rotational constants in MHz :  1835.464095  1275.135177  1005.856966

                             ****ORCA TERMINATED NORMALLY****
TOTAL RUN TIME: 0 days 0 hours 0 minutes 30 seconds 247 msec
