                         Program Version 5.0.0 -  RELEASE  -
|  1> !B3LYP D3BJ RIJCOSX def2-TZVP def2/J TightSCF xyzfile
|  2>
|  3> *xyzfile 0 1 D3.xyz
|  4>
|  5> %MaxCore 64000
|  6>
|  7> %pal nprocs 18
|  8> end
|  9>
| 10> %scf
| 11>   MaxIter 150
| 12> end
| 13>
| 14>
| 15>                          ****END OF INPUT****

CARTESIAN COORDINATES (ANGSTROEM)
---------------------------------
  C      3.905947    2.819855   -3.752920
  N      5.295615    3.131515   -4.105334
  C      3.803511    1.374716   -3.260807
  C      3.939934    0.320362   -4.367729
  H      4.105043   -0.655085   -3.907733
  H      3.022801    0.280517   -4.957117
  C      5.105846    0.668022   -5.305463
  C      5.708619    3.468885   -5.324190
  N      6.904696    3.038954   -5.717084
  C      4.981884    4.293570   -6.097457
  H      5.000546    4.101311   -7.087761
  H      4.084693    4.596899   -5.739652
  H      5.963358    2.526112   -3.642391
  H      7.047164    2.066861   -5.473604
  H      7.198145    3.307994   -6.645225
  H      3.282025    2.949187   -4.640259
  H      3.565254    3.514574   -2.982523
  H      4.574833    1.215157   -2.500443
  H      2.843514    1.260845   -2.751465
  F      4.809132    1.150187   -6.414361
  O      6.267366    0.564999   -4.819481

 Total Charge           Charge          ....    0
 Multiplicity           Mult            ....    1
 Number of Electrons    NEL             ....   78
 Basis Dimension        Dim             ....  376

ORBITAL ENERGIES
----------------

  NO   OCC          E(Eh)            E(eV)
   0   2.0000     -24.770270      -674.0333
   1   2.0000     -19.149485      -521.0840
   2   2.0000     -14.317668      -389.6035
   3   2.0000     -14.293436      -388.9442
   4   2.0000     -10.370475      -282.1950
   5   2.0000     -10.213737      -277.9299
   6   2.0000     -10.213061      -277.9115
   7   2.0000     -10.206337      -277.7286
   8   2.0000     -10.200155      -277.5603
   9   2.0000     -10.078499      -274.2499
  10   2.0000      -1.343092       -36.5474
  11   2.0000      -1.057287       -28.7702
  12   2.0000      -0.969615       -26.3846
  13   2.0000      -0.886029       -24.1101
  14   2.0000      -0.818524       -22.2732
  15   2.0000      -0.738865       -20.1055
  16   2.0000      -0.703019       -19.1301
  17   2.0000      -0.679859       -18.4999
  18   2.0000      -0.634248       -17.2588
  19   2.0000      -0.572506       -15.5787
  20   2.0000      -0.568073       -15.4581
  21   2.0000      -0.557263       -15.1639
  22   2.0000      -0.541254       -14.7283
  23   2.0000      -0.514974       -14.0132
  24   2.0000      -0.503741       -13.7075
  25   2.0000      -0.483498       -13.1566
  26   2.0000      -0.473841       -12.8939
  27   2.0000      -0.437084       -11.8937
  28   2.0000      -0.428684       -11.6651
  29   2.0000      -0.408819       -11.1245
  30   2.0000      -0.392596       -10.6831
  31   2.0000      -0.391745       -10.6599
  32   2.0000      -0.377887       -10.2828
  33   2.0000      -0.371618       -10.1122
  34   2.0000      -0.359710        -9.7882
  35   2.0000      -0.332641        -9.0516
  36   2.0000      -0.313872        -8.5409
  37   2.0000      -0.252097        -6.8599
  38   2.0000      -0.170843        -4.6489
  39   0.0000      -0.055497        -1.5102
  40   0.0000       0.023811         0.6479
  41   0.0000       0.049190         1.3385
  42   0.0000       0.059664         1.6235
  43   0.0000       0.061873         1.6836

MULLIKEN ATOMIC CHARGES
-----------------------
   0 C :   -0.081722
   1 N :   -0.263172
   2 C :   -0.227575
   3 C :   -0.190776
   4 H :    0.126859
   5 H :    0.110437
   6 C :    0.410655
   7 C :    0.201222
   8 N :   -0.407667
   9 C :   -0.447273
  10 H :    0.073787
  11 H :    0.056814
  12 H :    0.195771
  13 H :    0.232125
  14 H :    0.219060
  15 H :    0.109969
  16 H :    0.115485
  17 H :    0.118421
  18 H :    0.109420
  19 F :   -0.073839
  20 O :   -0.388003
Sum of atomic charges:   -0.0000000

LOEWDIN ATOMIC CHARGES
----------------------
   0 C :   -0.266110
   1 N :    0.129959
   2 C :   -0.254670
   3 C :   -0.221028
   4 H :    0.154196
   5 H :    0.142570
   6 C :   -0.494924
   7 C :   -0.497770
   8 N :   -0.006857
   9 C :   -0.342902
  10 H :    0.093902
  11 H :    0.092744
  12 H :    0.181419
  13 H :    0.152449
  14 H :    0.170833
  15 H :    0.138236
  16 H :    0.129576
  17 H :    0.141873
  18 H :    0.141794
  19 F :    0.371381
  20 O :    0.043329

  Mayer bond orders larger than 0.100000
B(  0-C ,  1-N ) :   0.9500 B(  0-C ,  2-C ) :   0.9612 B(  0-C , 15-H ) :   0.9666
B(  0-C , 16-H ) :   0.9708 B(  1-N ,  7-C ) :   1.1414 B(  1-N , 12-H ) :   0.9253
B(  2-C ,  3-C ) :   0.9623 B(  2-C , 17-H ) :   0.9677 B(  2-C , 18-H ) :   0.9629
B(  3-C ,  4-H ) :   0.9489 B(  3-C ,  5-H ) :   0.9520 B(  3-C ,  6-C ) :   0.9806
B(  6-C , 19-F ) :   1.1944 B(  6-C , 20-O ) :   1.9286 B(  7-C ,  8-N ) :   1.2058
B(  7-C ,  9-C ) :   1.6466 B(  8-N , 13-H ) :   0.8831 B(  8-N , 14-H ) :   0.9276
B(  9-C , 10-H ) :   0.9819 B(  9-C , 11-H ) :   1.0128

Dispersion correction           -0.037553149
FINAL SINGLE POINT ENERGY      -519.728678363364

DIPOLE MOMENT
-------------
                                X             Y             Z
Electronic contribution:      3.59590      -4.85426      -4.88323
Nuclear contribution   :     -4.64021       3.37029       5.31478
                        -----------------------------------------
Total Dipole Moment    :     -1.04431      -1.48398       0.43155
                        -----------------------------------------
Magnitude (a.u.)       :      1.86521
Magnitude (Debye)      :      4.74099

Rotational constants in cm-1:     0.061077     0.043622     0.034103
Rotational constants in MHz :  1831.041375  1307.759852  1022.388536

                             ****ORCA TERMINATED NORMALLY****
TOTAL RUN TIME: 0 days 0 hours 0 minutes 35 seconds 336 msec
