                         Program Version 5.0.0 -  RELEASE  -
|  1> !B3LYP D3BJ RIJCOSX def2-TZVP def2/J TightSCF xyzfile
|  2>
|  3> *xyzfile 0 1 D4.xyz
|  4>
|  5> %MaxCore 64000
|  6>
|  7> %pal nprocs 18
|  8> end
|  9>
| 10> %scf
| 11>   MaxIter 150
| 12> end
| 13>
| 14>
| 15>                          ****END OF INPUT****

CARTESIAN COORDINATES (ANGSTROEM)
---------------------------------
  C      3.905947    2.819855   -3.752920
  C      5.295615    3.131515   -4.105334
  C      3.803511    1.374716   -3.260807
  C      3.939934    0.320362   -4.367729
  H      4.105043   -0.655085   -3.907733
  H      3.022801    0.280517   -4.957117
  C      5.105846    0.668022   -5.305463
  C      5.708619    3.468885   -5.324190
  N      6.904696    3.038954   -5.717084
  N      4.981884    4.293570   -6.097457
  H      5.000546    4.101311   -7.087761
  H      4.084693    4.596899   -5.739652
  H      5.963358    2.526112   -3.642391
  H      7.047164    2.066861   -5.473604
  H      7.198145    3.307994   -6.645225
  H      3.282025    2.949187   -4.640259
  H      3.565254    3.514574   -2.982523
  H      4.574833    1.215157   -2.500443
  H      2.843514    1.260845   -2.751465
  O      4.809132    1.150187   -6.414361
  F      6.267366    0.564999   -4.819481

 Total Charge           Charge          ....    0
 Multiplicity           Mult            ....    1
 Number of Electrons    NEL             ....   78
 Basis Dimension        Dim             ....  376

ORBITAL ENERGIES
----------------

  NO   OCC          E(Eh)            E(eV)
   0   2.0000     -24.755820      -673.6401
   1   2.0000     -19.127699      -520.4911
   2   2.0000     -14.314473      -389.5166
   3   2.0000     -14.303725      -389.2242
   4   2.0000     -10.345575      -281.5174
   5   2.0000     -10.210465      -277.8409
   6   2.0000     -10.192647      -277.3560
   7   2.0000     -10.174325      -276.8575
   8   2.0000     -10.154017      -276.3049
   9   2.0000     -10.094756      -274.6923
  10   2.0000      -1.324654       -36.0457
  11   2.0000      -1.040029       -28.3006
  12   2.0000      -0.960351       -26.1325
  13   2.0000      -0.872443       -23.7404
  14   2.0000      -0.815255       -22.1842
  15   2.0000      -0.749456       -20.3937
  16   2.0000      -0.693648       -18.8751
  17   2.0000      -0.658645       -17.9226
  18   2.0000      -0.608075       -16.5466
  19   2.0000      -0.587519       -15.9872
  20   2.0000      -0.554288       -15.0829
  21   2.0000      -0.542455       -14.7609
  22   2.0000      -0.527526       -14.3547
  23   2.0000      -0.508769       -13.8443
  24   2.0000      -0.499596       -13.5947
  25   2.0000      -0.468154       -12.7391
  26   2.0000      -0.462338       -12.5809
  27   2.0000      -0.441719       -12.0198
  28   2.0000      -0.428292       -11.6544
  29   2.0000      -0.397984       -10.8297
  30   2.0000      -0.383023       -10.4226
  31   2.0000      -0.371214       -10.1013
  32   2.0000      -0.363108        -9.8807
  33   2.0000      -0.345511        -9.4018
  34   2.0000      -0.336495        -9.1565
  35   2.0000      -0.327289        -8.9060
  36   2.0000      -0.290115        -7.8944
  37   2.0000      -0.264721        -7.2034
  38   2.0000      -0.172669        -4.6986
  39   0.0000      -0.028691        -0.7807
  40   0.0000       0.028614         0.7786
  41   0.0000       0.043197         1.1755
  42   0.0000       0.056016         1.5243
  43   0.0000       0.064676         1.7599

MULLIKEN ATOMIC CHARGES
-----------------------
   0 C :   -0.134680
   1 C :   -0.286065
   2 C :   -0.217341
   3 C :   -0.206220
   4 H :    0.108719
   5 H :    0.110963
   6 C :    0.419221
   7 C :    0.221137
   8 N :   -0.391643
   9 N :   -0.444254
  10 H :    0.208933
  11 H :    0.228426
  12 H :    0.073599
  13 H :    0.228301
  14 H :    0.201235
  15 H :    0.052648
  16 H :    0.095548
  17 H :    0.108386
  18 H :    0.094888
  19 O :   -0.329146
  20 F :   -0.142655
Sum of atomic charges:    0.0000000

LOEWDIN ATOMIC CHARGES
----------------------
   0 C :   -0.279355
   1 C :   -0.272407
   2 C :   -0.248771
   3 C :   -0.221583
   4 H :    0.142136
   5 H :    0.150046
   6 C :   -0.507985
   7 C :   -0.470796
   8 N :    0.002656
   9 N :   -0.002441
  10 H :    0.158312
  11 H :    0.171809
  12 H :    0.122065
  13 H :    0.164421
  14 H :    0.159765
  15 H :    0.132781
  16 H :    0.132344
  17 H :    0.138781
  18 H :    0.134625
  19 O :    0.080247
  20 F :    0.313350

  Mayer bond orders larger than 0.100000
B(  0-C ,  1-C ) :   0.9725 B(  0-C ,  2-C ) :   0.9562 B(  0-C , 15-H ) :   0.9561
B(  0-C , 16-H ) :   0.9593 B(  1-C ,  7-C ) :   1.6053 B(  1-C , 12-H ) :   1.0505
B(  2-C ,  3-C ) :   0.9687 B(  2-C , 17-H ) :   0.9724 B(  2-C , 18-H ) :   0.9618
B(  3-C ,  4-H ) :   0.9448 B(  3-C ,  5-H ) :   0.9634 B(  3-C ,  6-C ) :   1.0012
B(  6-C , 19-O ) :   2.0446 B(  6-C , 20-F ) :   1.0721 B(  7-C ,  8-N ) :   1.1667
B(  7-C ,  9-N ) :   1.1567 B(  8-N , 13-H ) :   0.9109 B(  8-N , 14-H ) :   0.9316
B(  9-N , 10-H ) :   0.9193 B(  9-N , 11-H ) :   0.9271

Dispersion correction           -0.037900227
FINAL SINGLE POINT ENERGY      -519.738788565126

DIPOLE MOMENT
-------------
                                X             Y             Z
Electronic contribution:      5.86741      -4.47751      -3.96075
Nuclear contribution   :     -6.25608       3.89116       3.75052
                        -----------------------------------------
Total Dipole Moment    :     -0.38867      -0.58635      -0.21022
                        -----------------------------------------
Magnitude (a.u.)       :      0.73421
Magnitude (Debye)      :      1.86622

Rotational constants in cm-1:     0.061229     0.042568     0.033282
Rotational constants in MHz :  1835.590871  1276.154029   997.769927

                             ****ORCA TERMINATED NORMALLY****
TOTAL RUN TIME: 0 days 0 hours 0 minutes 33 seconds 614 msec
