                         Program Version 5.0.0 -  RELEASE  -
|  1> !B3LYP D3BJ RIJCOSX def2-TZVP def2/J TightSCF xyzfile
|  2>
|  3> *xyzfile 0 1 D5.xyz
|  4>
|  5> %MaxCore 64000
|  6>
|  7> %pal nprocs 18
|  8> end
|  9>
| 10> %scf
| 11>   MaxIter 150
| 12> end
| 13>
| 14>
| 15>                          ****END OF INPUT****

CARTESIAN COORDINATES (ANGSTROEM)
---------------------------------
  C      3.905947    2.819855   -3.752920
  N      5.295615    3.131515   -4.105334
  C      3.803511    1.374716   -3.260807
  C      3.939934    0.320362   -4.367729
  H      4.105043   -0.655085   -3.907733
  H      3.022801    0.280517   -4.957117
  C      5.105846    0.668022   -5.305463
  C      5.708619    3.468885   -5.324190
  C      6.904696    3.038954   -5.717084
  N      4.981884    4.293570   -6.097457
  H      5.000546    4.101311   -7.087761
  H      4.084693    4.596899   -5.739652
  H      5.963358    2.526112   -3.642391
  H      7.047164    2.066861   -5.473604
  H      7.198145    3.307994   -6.645225
  H      3.282025    2.949187   -4.640259
  H      3.565254    3.514574   -2.982523
  H      4.574833    1.215157   -2.500443
  H      2.843514    1.260845   -2.751465
  O      4.809132    1.150187   -6.414361
  F      6.267366    0.564999   -4.819481

 Total Charge           Charge          ....    0
 Multiplicity           Mult            ....    1
 Number of Electrons    NEL             ....   78
 Basis Dimension        Dim             ....  376

ORBITAL ENERGIES
----------------

  NO   OCC          E(Eh)            E(eV)
   0   2.0000     -24.752299      -673.5443
   1   2.0000     -19.132531      -520.6226
   2   2.0000     -14.320642      -389.6845
   3   2.0000     -14.309302      -389.3759
   4   2.0000     -10.348630      -281.6005
   5   2.0000     -10.215730      -277.9841
   6   2.0000     -10.206058      -277.7210
   7   2.0000     -10.205969      -277.7185
   8   2.0000     -10.200164      -277.5606
   9   2.0000     -10.066740      -273.9299
  10   2.0000      -1.321789       -35.9677
  11   2.0000      -1.043319       -28.3901
  12   2.0000      -0.969840       -26.3907
  13   2.0000      -0.887854       -24.1597
  14   2.0000      -0.819044       -22.2873
  15   2.0000      -0.743259       -20.2251
  16   2.0000      -0.700688       -19.0667
  17   2.0000      -0.660773       -17.9806
  18   2.0000      -0.622900       -16.9500
  19   2.0000      -0.598282       -16.2801
  20   2.0000      -0.555903       -15.1269
  21   2.0000      -0.553221       -15.0539
  22   2.0000      -0.521269       -14.1844
  23   2.0000      -0.507178       -13.8010
  24   2.0000      -0.498878       -13.5752
  25   2.0000      -0.485823       -13.2199
  26   2.0000      -0.466789       -12.7020
  27   2.0000      -0.442362       -12.0373
  28   2.0000      -0.422241       -11.4898
  29   2.0000      -0.404427       -11.0050
  30   2.0000      -0.395007       -10.7487
  31   2.0000      -0.381915       -10.3924
  32   2.0000      -0.374720       -10.1967
  33   2.0000      -0.367019        -9.9871
  34   2.0000      -0.359741        -9.7890
  35   2.0000      -0.324326        -8.8254
  36   2.0000      -0.293537        -7.9876
  37   2.0000      -0.261154        -7.1064
  38   2.0000      -0.165186        -4.4949
  39   0.0000      -0.033352        -0.9076
  40   0.0000       0.019844         0.5400
  41   0.0000       0.036563         0.9949
  42   0.0000       0.052288         1.4228
  43   0.0000       0.060983         1.6594

MULLIKEN ATOMIC CHARGES
-----------------------
   0 C :   -0.082758
   1 N :   -0.266669
   2 C :   -0.255403
   3 C :   -0.187614
   4 H :    0.117152
   5 H :    0.117390
   6 C :    0.387153
   7 C :    0.278957
   8 C :   -0.423028
   9 N :   -0.461890
  10 H :    0.243418
  11 H :    0.203379
  12 H :    0.203997
  13 H :    0.075053
  14 H :    0.052778
  15 H :    0.093698
  16 H :    0.114259
  17 H :    0.118657
  18 H :    0.106465
  19 O :   -0.306306
  20 F :   -0.128686
Sum of atomic charges:   -0.0000000

LOEWDIN ATOMIC CHARGES
----------------------
   0 C :   -0.278325
   1 N :    0.124003
   2 C :   -0.261292
   3 C :   -0.223919
   4 H :    0.144533
   5 H :    0.151327
   6 C :   -0.507350
   7 C :   -0.482595
   8 C :   -0.335478
   9 N :   -0.003566
  10 H :    0.175752
  11 H :    0.155965
  12 H :    0.191496
  13 H :    0.095135
  14 H :    0.094215
  15 H :    0.133009
  16 H :    0.126609
  17 H :    0.138619
  18 H :    0.140455
  19 O :    0.101119
  20 F :    0.320287

  Mayer bond orders larger than 0.100000
B(  0-C ,  1-N ) :   0.9399 B(  0-C ,  2-C ) :   0.9573 B(  0-C , 15-H ) :   0.9678
B(  0-C , 16-H ) :   0.9645 B(  1-N ,  7-C ) :   1.1781 B(  1-N , 12-H ) :   0.9247
B(  2-C ,  3-C ) :   0.9548 B(  2-C , 17-H ) :   0.9720 B(  2-C , 18-H ) :   0.9597
B(  3-C ,  4-H ) :   0.9495 B(  3-C ,  5-H ) :   0.9650 B(  3-C ,  6-C ) :   0.9881
B(  6-C , 19-O ) :   2.0607 B(  6-C , 20-F ) :   1.1067 B(  7-C ,  8-C ) :   1.6571
B(  7-C ,  9-N ) :   1.0656 B(  8-C , 13-H ) :   0.9825 B(  8-C , 14-H ) :   1.0177
B(  9-N , 10-H ) :   0.9250 B(  9-N , 11-H ) :   0.9366

Dispersion correction           -0.037642309
FINAL SINGLE POINT ENERGY      -519.714974741410

DIPOLE MOMENT
-------------
                                X             Y             Z
Electronic contribution:      4.41747      -4.63285      -2.62433
Nuclear contribution   :     -6.05797       3.87976       3.55209
                        -----------------------------------------
Total Dipole Moment    :     -1.64050      -0.75309       0.92776
                        -----------------------------------------
Magnitude (a.u.)       :      2.02956
Magnitude (Debye)      :      5.15873

Rotational constants in cm-1:     0.061282     0.043164     0.033679
Rotational constants in MHz :  1837.191639  1294.028651  1009.659886

                             ****ORCA TERMINATED NORMALLY****
TOTAL RUN TIME: 0 days 0 hours 0 minutes 33 seconds 775 msec
