                         Program Version 5.0.0 -  RELEASE  -
|  1> !B3LYP D3BJ RIJCOSX def2-SVPD def2/J TightSCF
|  2> *xyz -1 1
|  3> C         -0.96015       -0.52236       -0.48987
|  4> O          0.26170       -0.58031        0.13861
|  5> H         -0.85050       -0.82220       -1.51113
|  6> H         -1.33436        0.47929       -0.45044
|  7> H         -1.64624       -1.17908        0.00297
|  8> *
|  9>
| 10> %MaxCore 64000
| 11>
| 12> %pal nprocs 4
| 13> end
| 14>
| 15> %scf
| 16>   MaxIter 150
| 17> end
| 18>
| 19>
| 20>                          ****END OF INPUT****

CARTESIAN COORDINATES (ANGSTROEM)
---------------------------------
  C     -0.960150   -0.522360   -0.489870
  O      0.261700   -0.580310    0.138610
  H     -0.850500   -0.822200   -1.511130
  H     -1.334360    0.479290   -0.450440
  H     -1.646240   -1.179080    0.002970

 Total Charge           Charge          ....   -1
 Multiplicity           Mult            ....    1
 Number of Electrons    NEL             ....   18
 Basis Dimension        Dim             ....   67

ORBITAL ENERGIES
----------------

  NO   OCC          E(Eh)            E(eV)
   0   2.0000     -18.786430      -511.2047
   1   2.0000      -9.970396      -271.3083
   2   2.0000      -0.645892       -17.5756
   3   2.0000      -0.390779       -10.6336
   4   2.0000      -0.195706        -5.3254
   5   2.0000      -0.195692        -5.3251
   6   2.0000      -0.097816        -2.6617
   7   2.0000       0.050765         1.3814
   8   2.0000       0.050775         1.3816
   9   0.0000       0.196649         5.3511
  10   0.0000       0.268021         7.2932
  11   0.0000       0.268022         7.2932
  12   0.0000       0.276391         7.5210
  13   0.0000       0.312743         8.5102

MULLIKEN ATOMIC CHARGES
-----------------------
   0 C :    1.033253
   1 O :   -1.030126
   2 H :   -0.334460
   3 H :   -0.334309
   4 H :   -0.334358
Sum of atomic charges:   -1.0000000

LOEWDIN ATOMIC CHARGES
----------------------
   0 C :   -0.105142
   1 O :   -0.645212
   2 H :   -0.083234
   3 H :   -0.083191
   4 H :   -0.083221

  Mayer bond orders larger than 0.100000
B(  0-C ,  1-O ) :   1.1509 B(  0-C ,  2-H ) :   0.8686 B(  0-C ,  3-H ) :   0.8689
B(  0-C ,  4-H ) :   0.8688

Dispersion correction           -0.002430372
FINAL SINGLE POINT ENERGY      -114.958021386805

DIPOLE MOMENT
-------------
                                X             Y             Z
Electronic contribution:      1.64745      -0.07810       0.84729
Nuclear contribution   :     -2.56864       0.12183      -1.32123
                        -----------------------------------------
Total Dipole Moment    :     -0.92118       0.04372      -0.47394
                        -----------------------------------------
Magnitude (a.u.)       :      1.03688
Magnitude (Debye)      :      2.63553

Rotational constants in cm-1:     5.477744     0.932677     0.932677
Rotational constants in MHz : 164218.635293 27960.967920 27960.945417

                             ****ORCA TERMINATED NORMALLY****
TOTAL RUN TIME: 0 days 0 hours 0 minutes 3 seconds 970 msec
