                         Program Version 5.0.0 -  RELEASE  -
|  1> !B3LYP D3BJ RIJCOSX def2-SVPD def2/J TightSCF
|  2> *xyz 1 1
|  3> C          4.36645       -0.13321       -1.41606
|  4> C          3.05650       -0.32080       -0.70738
|  5> N          2.38983        0.71129       -0.24391
|  6> N          2.51600       -1.50772       -0.55023
|  7> H          2.96768       -2.32291       -0.95631
|  8> H          1.54987       -1.49063       -0.24988
|  9> H          2.74307        1.64947       -0.41280
| 10> H          1.44036        0.50278        0.03703
| 11> H          4.74975       -1.08632       -1.71533
| 12> H          5.06373        0.34075       -0.75722
| 13> H          4.21960        0.47966       -2.28077
| 14> *
| 15>
| 16> %MaxCore 64000
| 17>
| 18> %pal nprocs 4
| 19> end
| 20>
| 21> %scf
| 22>   MaxIter 150
| 23> end
| 24>
| 25>
| 26>                          ****END OF INPUT****

CARTESIAN COORDINATES (ANGSTROEM)
---------------------------------
  C      4.366450   -0.133210   -1.416060
  C      3.056500   -0.320800   -0.707380
  N      2.389830    0.711290   -0.243910
  N      2.516000   -1.507720   -0.550230
  H      2.967680   -2.322910   -0.956310
  H      1.549870   -1.490630   -0.249880
  H      2.743070    1.649470   -0.412800
  H      1.440360    0.502780    0.037030
  H      4.749750   -1.086320   -1.715330
  H      5.063730    0.340750   -0.757220
  H      4.219600    0.479660   -2.280770

 Total Charge           Charge          ....    1
 Multiplicity           Mult            ....    1
 Number of Electrons    NEL             ....   32
 Basis Dimension        Dim             ....  136

ORBITAL ENERGIES
----------------

  NO   OCC          E(Eh)            E(eV)
   0   2.0000     -14.585109      -396.8810
   1   2.0000     -14.582623      -396.8133
   2   2.0000     -10.515166      -286.1322
   3   2.0000     -10.386472      -282.6303
   4   2.0000      -1.211868       -32.9766
   5   2.0000      -1.106153       -30.0999
   6   2.0000      -0.952550       -25.9202
   7   2.0000      -0.839452       -22.8426
   8   2.0000      -0.784615       -21.3505
   9   2.0000      -0.774265       -21.0688
  10   2.0000      -0.713358       -19.4115
  11   2.0000      -0.664877       -18.0922
  12   2.0000      -0.624658       -16.9978
  13   2.0000      -0.605951       -16.4888
  14   2.0000      -0.582402       -15.8480
  15   2.0000      -0.502267       -13.6674
  16   0.0000      -0.222983        -6.0677
  17   0.0000      -0.172205        -4.6859
  18   0.0000      -0.126201        -3.4341
  19   0.0000      -0.117718        -3.2033
  20   0.0000      -0.098787        -2.6881

MULLIKEN ATOMIC CHARGES
-----------------------
   0 C :    0.827325
   1 C :    0.148695
   2 N :    0.229287
   3 N :    0.125440
   4 H :   -0.007465
   5 H :   -0.073827
   6 H :   -0.023521
   7 H :   -0.122538
   8 H :   -0.024989
   9 H :   -0.029526
  10 H :   -0.048881
Sum of atomic charges:    1.0000000

LOEWDIN ATOMIC CHARGES
----------------------
   0 C :    0.247730
   1 C :   -0.071133
   2 N :    0.283121
   3 N :    0.287460
   4 H :    0.059033
   5 H :    0.042860
   6 H :    0.063187
   7 H :    0.041676
   8 H :    0.004797
   9 H :    0.020350
  10 H :    0.020919

  Mayer bond orders larger than 0.100000
B(  0-C ,  1-C ) :   1.3310 B(  0-C ,  8-H ) :   0.7209 B(  0-C ,  9-H ) :   0.6693
B(  0-C , 10-H ) :   0.7544 B(  1-C ,  2-N ) :   1.2186 B(  1-C ,  3-N ) :   1.1054
B(  1-C ,  5-H ) :  -0.1439 B(  1-C ,  7-H ) :  -0.1119 B(  1-C ,  8-H ) :   0.3097
B(  1-C ,  9-H ) :   0.2452 B(  1-C , 10-H ) :   0.1827 B(  2-N ,  3-N ) :   0.2079
B(  2-N ,  6-H ) :   1.1221 B(  2-N ,  7-H ) :   1.1861 B(  3-N ,  4-H ) :   1.1141
B(  3-N ,  5-H ) :   1.2160 B(  4-H ,  5-H ) :  -0.1512 B(  6-H ,  7-H ) :  -0.1399
B(  8-H ,  9-H ) :   0.1115 B(  8-H , 10-H ) :   0.1028 B(  9-H , 10-H ) :   0.1020

Dispersion correction           -0.011456877
FINAL SINGLE POINT ENERGY      -189.480586996938

DIPOLE MOMENT
-------------
                                X             Y             Z
Electronic contribution:     -1.73954      -0.26648       1.10565
Nuclear contribution   :      1.22976       0.25273      -1.15956
                        -----------------------------------------
Total Dipole Moment    :     -0.50978      -0.01375      -0.05390
                        -----------------------------------------
Magnitude (a.u.)       :      0.51281
Magnitude (Debye)      :      1.30345

Rotational constants in cm-1:     0.347067     0.291236     0.163306
Rotational constants in MHz : 10404.811357  8731.035118  4895.793931

                             ****ORCA TERMINATED NORMALLY****
TOTAL RUN TIME: 0 days 0 hours 0 minutes 10 seconds 224 msec
