                         Program Version 5.0.0 -  RELEASE  -
|  1> !B3LYP D3BJ RIJCOSX def2-SVPD def2/J TightSCF
|  2> *xyz 0 1
|  3> C         -0.96015       -0.52236       -0.48987
|  4> F          0.26170       -0.58031        0.13861
|  5> H         -0.85050       -0.82220       -1.51113
|  6> H         -1.33436        0.47929       -0.45044
|  7> H         -1.64624       -1.17908        0.00297
|  8> *
|  9>
| 10> %MaxCore 64000
| 11>
| 12> %pal nprocs 4
| 13> end
| 14>
| 15> %scf
| 16>   MaxIter 150
| 17> end
| 18>
| 19>
| 20>                          ****END OF INPUT****

CARTESIAN COORDINATES (ANGSTROEM)
---------------------------------
  C     -0.960150   -0.522360   -0.489870
  F      0.261700   -0.580310    0.138610
  H     -0.850500   -0.822200   -1.511130
  H     -1.334360    0.479290   -0.450440
  H     -1.646240   -1.179080    0.002970

 Total Charge           Charge          ....    0
 Multiplicity           Mult            ....    1
 Number of Electrons    NEL             ....   18
 Basis Dimension        Dim             ....   67

ORBITAL ENERGIES
----------------

  NO   OCC          E(Eh)            E(eV)
   0   2.0000     -24.681837      -671.6269
   1   2.0000     -10.256636      -279.0972
   2   2.0000      -1.180313       -32.1180
   3   2.0000      -0.702382       -19.1128
   4   2.0000      -0.499341       -13.5878
   5   2.0000      -0.491418       -13.3722
   6   2.0000      -0.491409       -13.3719
   7   2.0000      -0.354135        -9.6365
   8   2.0000      -0.354131        -9.6364
   9   0.0000       0.023602         0.6423
  10   0.0000       0.057223         1.5571
  11   0.0000       0.098800         2.6885
  12   0.0000       0.098804         2.6886
  13   0.0000       0.144108         3.9214

MULLIKEN ATOMIC CHARGES
-----------------------
   0 C :    1.088809
   1 F :   -0.484028
   2 H :   -0.201676
   3 H :   -0.201516
   4 H :   -0.201589
Sum of atomic charges:    0.0000000

LOEWDIN ATOMIC CHARGES
----------------------
   0 C :    0.276899
   1 F :   -0.250869
   2 H :   -0.008695
   3 H :   -0.008660
   4 H :   -0.008675

  Mayer bond orders larger than 0.100000
B(  0-C ,  1-F ) :   0.8425 B(  0-C ,  2-H ) :   0.9056 B(  0-C ,  3-H ) :   0.9057
B(  0-C ,  4-H ) :   0.9054

Dispersion correction           -0.002119709
FINAL SINGLE POINT ENERGY      -139.581893035063

DIPOLE MOMENT
-------------
                                X             Y             Z
Electronic contribution:      2.60121      -0.12341       1.33782
Nuclear contribution   :     -3.25854       0.15455      -1.67609
                        -----------------------------------------
Total Dipole Moment    :     -0.65733       0.03114      -0.33828
                        -----------------------------------------
Magnitude (a.u.)       :      0.73992
Magnitude (Debye)      :      1.88073

Rotational constants in cm-1:     5.477744     0.868130     0.868129
Rotational constants in MHz : 164218.635293 26025.869915 26025.850419

                             ****ORCA TERMINATED NORMALLY****
TOTAL RUN TIME: 0 days 0 hours 0 minutes 3 seconds 921 msec
