                         Program Version 5.0.0 -  RELEASE  -
|  1> !B3LYP D3BJ RIJCOSX def2-SVPD def2/J TightSCF
|  2> *xyz 0 1
|  3> C          4.36645       -0.13321       -1.41606
|  4> C          3.05650       -0.32080       -0.70738
|  5> C          2.38983        0.71129       -0.24391
|  6> N          2.51600       -1.50772       -0.55023
|  7> H          2.96768       -2.32291       -0.95631
|  8> H          1.54987       -1.49063       -0.24988
|  9> H          2.74307        1.64947       -0.41280
| 10> H          1.44036        0.50278        0.03703
| 11> H          4.74975       -1.08632       -1.71533
| 12> H          5.06373        0.34075       -0.75722
| 13> H          4.21960        0.47966       -2.28077
| 14> *
| 15>
| 16> %MaxCore 64000
| 17>
| 18> %pal nprocs 4
| 19> end
| 20>
| 21> %scf
| 22>   MaxIter 150
| 23> end
| 24>
| 25>
| 26>                          ****END OF INPUT****

CARTESIAN COORDINATES (ANGSTROEM)
---------------------------------
  C      4.366450   -0.133210   -1.416060
  C      3.056500   -0.320800   -0.707380
  C      2.389830    0.711290   -0.243910
  N      2.516000   -1.507720   -0.550230
  H      2.967680   -2.322910   -0.956310
  H      1.549870   -1.490630   -0.249880
  H      2.743070    1.649470   -0.412800
  H      1.440360    0.502780    0.037030
  H      4.749750   -1.086320   -1.715330
  H      5.063730    0.340750   -0.757220
  H      4.219600    0.479660   -2.280770

 Total Charge           Charge          ....    0
 Multiplicity           Mult            ....    1
 Number of Electrons    NEL             ....   32
 Basis Dimension        Dim             ....  136

ORBITAL ENERGIES
----------------

  NO   OCC          E(Eh)            E(eV)
   0   2.0000     -14.331280      -389.9739
   1   2.0000     -10.201553      -277.5984
   2   2.0000     -10.176953      -276.9290
   3   2.0000     -10.111738      -275.1544
   4   2.0000      -0.925183       -25.1755
   5   2.0000      -0.748855       -20.3774
   6   2.0000      -0.686778       -18.6882
   7   2.0000      -0.562993       -15.3198
   8   2.0000      -0.532997       -14.5036
   9   2.0000      -0.467832       -12.7304
  10   2.0000      -0.431709       -11.7474
  11   2.0000      -0.401779       -10.9330
  12   2.0000      -0.391740       -10.6598
  13   2.0000      -0.359905        -9.7935
  14   2.0000      -0.337021        -9.1708
  15   2.0000      -0.187002        -5.0886
  16   0.0000       0.015900         0.4327
  17   0.0000       0.041472         1.1285
  18   0.0000       0.053628         1.4593
  19   0.0000       0.060142         1.6366
  20   0.0000       0.088717         2.4141

MULLIKEN ATOMIC CHARGES
-----------------------
   0 C :    1.024413
   1 C :   -0.505777
   2 C :    0.577360
   3 N :    0.267704
   4 H :   -0.158807
   5 H :   -0.094535
   6 H :   -0.314365
   7 H :   -0.460401
   8 H :   -0.176878
   9 H :   -0.063077
  10 H :   -0.095636
Sum of atomic charges:   -0.0000000

LOEWDIN ATOMIC CHARGES
----------------------
   0 C :    0.179601
   1 C :   -0.288858
   2 C :    0.164020
   3 N :    0.166141
   4 H :   -0.000203
   5 H :    0.001544
   6 H :   -0.078465
   7 H :   -0.093081
   8 H :   -0.030621
   9 H :   -0.010039
  10 H :   -0.010038

  Mayer bond orders larger than 0.100000
B(  0-C ,  1-C ) :   1.1610 B(  0-C ,  8-H ) :   0.6275 B(  0-C ,  9-H ) :   0.6707
B(  0-C , 10-H ) :   0.7412 B(  1-C ,  2-C ) :   1.8006 B(  1-C ,  3-N ) :   1.1490
B(  1-C ,  6-H ) :   0.1462 B(  1-C ,  7-H ) :   0.2772 B(  1-C ,  8-H ) :   0.3676
B(  1-C ,  9-H ) :   0.2454 B(  1-C , 10-H ) :   0.1865 B(  2-C ,  3-N ) :   0.2740
B(  2-C ,  6-H ) :   0.7857 B(  2-C ,  7-H ) :   0.6950 B(  3-N ,  4-H ) :   1.1391
B(  3-N ,  5-H ) :   1.1294 B(  4-H ,  5-H ) :  -0.1336

Dispersion correction           -0.012093166
FINAL SINGLE POINT ENERGY      -173.024347540679

DIPOLE MOMENT
-------------
                                X             Y             Z
Electronic contribution:     -1.00937      -1.15438       0.67190
Nuclear contribution   :      1.07959       0.48266      -1.05101
                        -----------------------------------------
Total Dipole Moment    :      0.07022      -0.67172      -0.37911
                        -----------------------------------------
Magnitude (a.u.)       :      0.77451
Magnitude (Debye)      :      1.96865

Rotational constants in cm-1:     0.369235     0.294626     0.169175
Rotational constants in MHz : 11069.394850  8832.653024  5071.734673

                             ****ORCA TERMINATED NORMALLY****
TOTAL RUN TIME: 0 days 0 hours 0 minutes 10 seconds 670 msec
