                         Program Version 5.0.0 -  RELEASE  -
|  1> !B3LYP D3BJ RIJCOSX def2-SVPD def2/J TightSCF
|  2> *xyz 0 1
|  3> C          4.36645       -0.13321       -1.41606
|  4> C          3.05650       -0.32080       -0.70738
|  5> N          2.38983        0.71129       -0.24391
|  6> C          2.51600       -1.50772       -0.55023
|  7> H          2.96768       -2.32291       -0.95631
|  8> H          1.54987       -1.49063       -0.24988
|  9> H          2.74307        1.64947       -0.41280
| 10> H          1.44036        0.50278        0.03703
| 11> H          4.74975       -1.08632       -1.71533
| 12> H          5.06373        0.34075       -0.75722
| 13> H          4.21960        0.47966       -2.28077
| 14> *
| 15>
| 16> %MaxCore 64000
| 17>
| 18> %pal nprocs 4
| 19> end
| 20>
| 21> %scf
| 22>   MaxIter 150
| 23> end
| 24>
| 25>
| 26>                          ****END OF INPUT****

CARTESIAN COORDINATES (ANGSTROEM)
---------------------------------
  C      4.366450   -0.133210   -1.416060
  C      3.056500   -0.320800   -0.707380
  N      2.389830    0.711290   -0.243910
  C      2.516000   -1.507720   -0.550230
  H      2.967680   -2.322910   -0.956310
  H      1.549870   -1.490630   -0.249880
  H      2.743070    1.649470   -0.412800
  H      1.440360    0.502780    0.037030
  H      4.749750   -1.086320   -1.715330
  H      5.063730    0.340750   -0.757220
  H      4.219600    0.479660   -2.280770

 Total Charge           Charge          ....    0
 Multiplicity           Mult            ....    1
 Number of Electrons    NEL             ....   32
 Basis Dimension        Dim             ....  136

ORBITAL ENERGIES
----------------

  NO   OCC          E(Eh)            E(eV)
   0   2.0000     -14.329944      -389.9376
   1   2.0000     -10.202377      -277.6208
   2   2.0000     -10.176461      -276.9156
   3   2.0000     -10.115963      -275.2693
   4   2.0000      -0.925319       -25.1792
   5   2.0000      -0.748031       -20.3550
   6   2.0000      -0.688335       -18.7305
   7   2.0000      -0.563040       -15.3211
   8   2.0000      -0.533246       -14.5104
   9   2.0000      -0.468171       -12.7396
  10   2.0000      -0.433297       -11.7906
  11   2.0000      -0.399822       -10.8797
  12   2.0000      -0.394214       -10.7271
  13   2.0000      -0.360122        -9.7994
  14   2.0000      -0.335621        -9.1327
  15   2.0000      -0.190743        -5.1904
  16   0.0000       0.016188         0.4405
  17   0.0000       0.044788         1.2187
  18   0.0000       0.053884         1.4663
  19   0.0000       0.061240         1.6664
  20   0.0000       0.088945         2.4203

MULLIKEN ATOMIC CHARGES
-----------------------
   0 C :    1.049031
   1 C :   -0.631755
   2 N :    0.373127
   3 C :    0.574200
   4 H :   -0.254689
   5 H :   -0.483020
   6 H :   -0.196065
   7 H :   -0.149290
   8 H :   -0.045968
   9 H :   -0.109417
  10 H :   -0.126155
Sum of atomic charges:    0.0000000

LOEWDIN ATOMIC CHARGES
----------------------
   0 C :    0.177684
   1 C :   -0.296810
   2 N :    0.164174
   3 C :    0.174021
   4 H :   -0.083330
   5 H :   -0.090905
   6 H :    0.004142
   7 H :    0.000470
   8 H :   -0.017189
   9 H :   -0.017303
  10 H :   -0.014954

  Mayer bond orders larger than 0.100000
B(  0-C ,  1-C ) :   1.3371 B(  0-C ,  8-H ) :   0.7450 B(  0-C ,  9-H ) :   0.5970
B(  0-C , 10-H ) :   0.6122 B(  1-C ,  2-N ) :   1.2533 B(  1-C ,  3-C ) :   1.7379
B(  1-C ,  5-H ) :   0.2546 B(  1-C ,  8-H ) :   0.2879 B(  1-C ,  9-H ) :   0.3172
B(  1-C , 10-H ) :   0.3252 B(  2-N ,  3-C ) :   0.2699 B(  2-N ,  6-H ) :   1.1454
B(  2-N ,  7-H ) :   1.1103 B(  3-C ,  4-H ) :   0.9013 B(  3-C ,  5-H ) :   0.6718
B(  6-H ,  7-H ) :  -0.1119 B(  8-H , 10-H ) :   0.1123

Dispersion correction           -0.012092459
FINAL SINGLE POINT ENERGY      -173.027447839198

DIPOLE MOMENT
-------------
                                X             Y             Z
Electronic contribution:     -1.14427       0.75723       0.95179
Nuclear contribution   :      1.10788      -0.01499      -1.11971
                        -----------------------------------------
Total Dipole Moment    :     -0.03639       0.74224      -0.16792
                        -----------------------------------------
Magnitude (a.u.)       :      0.76187
Magnitude (Debye)      :      1.93652

Rotational constants in cm-1:     0.367851     0.295709     0.169239
Rotational constants in MHz : 11027.892768  8865.123922  5073.656136

                             ****ORCA TERMINATED NORMALLY****
TOTAL RUN TIME: 0 days 0 hours 0 minutes 10 seconds 409 msec
