                         Program Version 5.0.0 -  RELEASE  -
|  1> !LC-BLYP RIJCOSX def2-TZVPD def2/J TightSCF
|  2> *xyz -1 1
|  3> C         -0.77894        0.17197        1.80496
|  4> C         -0.60249       -0.63071        0.49224
|  5> H          0.31389       -1.24035        0.60350
|  6> H         -0.36383        0.11332       -0.30117
|  7> O         -1.71206       -1.37684        0.20253
|  8> H         -1.65864        0.77733        1.73736
|  9> H          0.07466        0.79896        1.95712
| 10> H         -0.87474       -0.50584        2.62734
| 11> *
| 12> %MaxCore 64000
| 13>
| 14> %pal nprocs 4
| 15> end
| 16>
| 17> %scf
| 18>   MaxIter 150
| 19> end
| 20>
| 21>
| 22>                          ****END OF INPUT****

CARTESIAN COORDINATES (ANGSTROEM)
---------------------------------
  C     -0.778940    0.171970    1.804960
  C     -0.602490   -0.630710    0.492240
  H      0.313890   -1.240350    0.603500
  H     -0.363830    0.113320   -0.301170
  O     -1.712060   -1.376840    0.202530
  H     -1.658640    0.777330    1.737360
  H      0.074660    0.798960    1.957120
  H     -0.874740   -0.505840    2.627340

 Total Charge           Charge          ....   -1
 Multiplicity           Mult            ....    1
 Number of Electrons    NEL             ....   26
 Basis Dimension        Dim             ....  159

ORBITAL ENERGIES
----------------

  NO   OCC          E(Eh)            E(eV)
   0   2.0000     -18.605913      -506.2926
   1   2.0000      -9.884679      -268.9758
   2   2.0000      -9.858905      -268.2744
   3   2.0000      -0.777819       -21.1655
   4   2.0000      -0.633015       -17.2252
   5   2.0000      -0.481471       -13.1015
   6   2.0000      -0.357678        -9.7329
   7   2.0000      -0.331414        -9.0182
   8   2.0000      -0.275086        -7.4855
   9   2.0000      -0.258749        -7.0409
  10   2.0000      -0.213701        -5.8151
  11   2.0000      -0.067036        -1.8241
  12   2.0000      -0.066135        -1.7996
  13   0.0000       0.198365         5.3978
  14   0.0000       0.219254         5.9662
  15   0.0000       0.249328         6.7846
  16   0.0000       0.249789         6.7971
  17   0.0000       0.273522         7.4429

MULLIKEN ATOMIC CHARGES
-----------------------
   0 C :   -1.185150
   1 C :   -0.510193
   2 H :    0.291990
   3 H :    0.287510
   4 O :   -0.905905
   5 H :    0.316454
   6 H :    0.397805
   7 H :    0.307489
Sum of atomic charges:   -1.0000000

LOEWDIN ATOMIC CHARGES
----------------------
   0 C :   -0.183120
   1 C :   -0.641907
   2 H :    0.061343
   3 H :    0.062876
   4 O :   -0.415360
   5 H :    0.043086
   6 H :    0.031296
   7 H :    0.041787

  Mayer bond orders larger than 0.100000
B(  0-C ,  1-C ) :   0.6582 B(  0-C ,  4-O ) :   0.2553 B(  0-C ,  5-H ) :   0.9595
B(  0-C ,  6-H ) :   0.9101 B(  0-C ,  7-H ) :   0.9615 B(  1-C ,  2-H ) :   1.0017
B(  1-C ,  3-H ) :   1.0046 B(  1-C ,  4-O ) :   0.9533 B(  2-H ,  3-H ) :   0.1039

FINAL SINGLE POINT ENERGY      -154.111441196625

DIPOLE MOMENT
-------------
                                X             Y             Z
Electronic contribution:     -1.53307      -1.78172      -1.47218
Nuclear contribution   :      2.47835       2.80827       2.30058
                        -----------------------------------------
Total Dipole Moment    :      0.94528       1.02655       0.82841
                        -----------------------------------------
Magnitude (a.u.)       :      1.62284
Magnitude (Debye)      :      4.12494

Rotational constants in cm-1:     1.255775     0.327783     0.287473
Rotational constants in MHz : 37647.186859  9826.677683  8618.224821

                             ****ORCA TERMINATED NORMALLY****
TOTAL RUN TIME: 0 days 0 hours 0 minutes 16 seconds 552 msec
