                         Program Version 5.0.0 -  RELEASE  -
|  1> !LC-BLYP RIJCOSX def2-TZVPD def2/J TightSCF
|  2> *xyz 1 1
|  3> C         -2.12050        0.88520        1.78951
|  4> C         -0.77894        0.17197        1.80496
|  5> H         -2.32419        1.47265        2.68608
|  6> H         -2.18770        1.54127        0.91948
|  7> N         -3.17690       -0.15948        1.61070
|  8> H         -4.06474        0.23127        1.28675
|  9> H         -3.34407       -0.67151        2.48493
| 10> H         -2.71686       -0.78189        0.93588
| 11> H         -0.65708       -0.37837        0.89547
| 12> H         -0.74207       -0.50050        2.63642
| 13> H          0.00707        0.89251        1.89389
| 14> *
| 15> %MaxCore 64000
| 16>
| 17> %pal nprocs 4
| 18> end
| 19>
| 20> %scf
| 21>   MaxIter 150
| 22> end
| 23>
| 24>
| 25>                          ****END OF INPUT****

CARTESIAN COORDINATES (ANGSTROEM)
---------------------------------
  C     -2.120500    0.885200    1.789510
  C     -0.778940    0.171970    1.804960
  H     -2.324190    1.472650    2.686080
  H     -2.187700    1.541270    0.919480
  N     -3.176900   -0.159480    1.610700
  H     -4.064740    0.231270    1.286750
  H     -3.344070   -0.671510    2.484930
  H     -2.716860   -0.781890    0.935880
  H     -0.657080   -0.378370    0.895470
  H     -0.742070   -0.500500    2.636420
  H      0.007070    0.892510    1.893890

 Total Charge           Charge          ....    1
 Multiplicity           Mult            ....    1
 Number of Electrons    NEL             ....   26
 Basis Dimension        Dim             ....  183

ORBITAL ENERGIES
----------------

  NO   OCC          E(Eh)            E(eV)
   0   2.0000     -14.500395      -394.5758
   1   2.0000     -10.323865      -280.9266
   2   2.0000     -10.247128      -278.8385
   3   2.0000      -1.317478       -35.8504
   4   2.0000      -1.076643       -29.2970
   5   2.0000      -0.954108       -25.9626
   6   2.0000      -0.908198       -24.7133
   7   2.0000      -0.897196       -24.4139
   8   2.0000      -0.794311       -21.6143
   9   2.0000      -0.747775       -20.3480
  10   2.0000      -0.685360       -18.6496
  11   2.0000      -0.677889       -18.4463
  12   2.0000      -0.654793       -17.8178
  13   0.0000      -0.139247        -3.7891
  14   0.0000      -0.084114        -2.2888
  15   0.0000      -0.080454        -2.1893
  16   0.0000      -0.078591        -2.1386
  17   0.0000      -0.044316        -1.2059

MULLIKEN ATOMIC CHARGES
-----------------------
   0 C :   -0.445287
   1 C :   -1.440223
   2 H :    0.427391
   3 H :    0.395231
   4 N :   -0.376789
   5 H :    0.362392
   6 H :    0.353770
   7 H :    0.356720
   8 H :    0.515300
   9 H :    0.439313
  10 H :    0.412183
Sum of atomic charges:    1.0000000

LOEWDIN ATOMIC CHARGES
----------------------
   0 C :   -0.209994
   1 C :   -0.071236
   2 H :    0.142927
   3 H :    0.141475
   4 N :    0.181480
   5 H :    0.181755
   6 H :    0.184049
   7 H :    0.168583
   8 H :    0.089172
   9 H :    0.091827
  10 H :    0.099963

  Mayer bond orders larger than 0.100000
B(  0-C ,  1-C ) :   0.4252 B(  0-C ,  2-H ) :   0.8616 B(  0-C ,  3-H ) :   0.8982
B(  0-C ,  4-N ) :   0.8265 B(  1-C ,  8-H ) :   0.7765 B(  1-C ,  9-H ) :   0.8779
B(  1-C , 10-H ) :   0.9178 B(  4-N ,  5-H ) :   0.8678 B(  4-N ,  6-H ) :   0.8725
B(  4-N ,  7-H ) :   0.8596

FINAL SINGLE POINT ENERGY      -135.189191298161

DIPOLE MOMENT
-------------
                                X             Y             Z
Electronic contribution:     -1.81518      -0.14997      -0.05659
Nuclear contribution   :      0.50278      -0.30871      -0.06979
                        -----------------------------------------
Total Dipole Moment    :     -1.31240      -0.45868      -0.12638
                        -----------------------------------------
Magnitude (a.u.)       :      1.39598
Magnitude (Debye)      :      3.54829

Rotational constants in cm-1:     0.963746     0.295157     0.256910
Rotational constants in MHz : 28892.375247  8848.576767  7701.963879

                             ****ORCA TERMINATED NORMALLY****
TOTAL RUN TIME: 0 days 0 hours 0 minutes 21 seconds 817 msec
