                         Program Version 5.0.0 -  RELEASE  -
|  1> !LC-BLYP RIJCOSX def2-TZVPD def2/J TightSCF xyzfile
|  2>
|  3> *xyzfile 0 1 B.xyz
|  4>
|  5> %MaxCore 64000
|  6>
|  7> %pal nprocs 4
|  8> end
|  9>
| 10> %scf
| 11>   MaxIter 150
| 12> end
| 13>
| 14>
| 15>                          ****END OF INPUT****

CARTESIAN COORDINATES (ANGSTROEM)
---------------------------------
  C     -2.120502    0.885196    1.789506
  C     -0.778939    0.171966    1.804965
  H     -2.324193    1.472649    2.686078
  H     -2.187698    1.541272    0.919482
  N     -3.176900   -0.159484    1.610700
  H      0.015695    0.910767    1.939153
  H     -0.743553   -0.506827    2.665420
  C     -0.602493   -0.630712    0.492240
  H      0.313894   -1.240346    0.603498
  H     -0.363829    0.113322   -0.301169
  O     -1.712061   -1.376836    0.202535
  H     -4.064736    0.231272    1.286754
  H     -3.344073   -0.671511    2.484928
  H     -2.716861   -0.781886    0.935880

 Total Charge           Charge          ....    0
 Multiplicity           Mult            ....    1
 Number of Electrons    NEL             ....   42
 Basis Dimension        Dim             ....  269

ORBITAL ENERGIES
----------------

  NO   OCC          E(Eh)            E(eV)
   0   2.0000     -18.810087      -511.8485
   1   2.0000     -14.249229      -387.7412
   2   2.0000     -10.132979      -275.7324
   3   2.0000     -10.066673      -273.9281
   4   2.0000     -10.063149      -273.8322
   5   2.0000      -1.094181       -29.7742
   6   2.0000      -0.991051       -26.9679
   7   2.0000      -0.880627       -23.9631
   8   2.0000      -0.764085       -20.7918
   9   2.0000      -0.701286       -19.0830
  10   2.0000      -0.678958       -18.4754
  11   2.0000      -0.650532       -17.7019
  12   2.0000      -0.591601       -16.0983
  13   2.0000      -0.541316       -14.7300
  14   2.0000      -0.507907       -13.8208
  15   2.0000      -0.504010       -13.7148
  16   2.0000      -0.461696       -12.5634
  17   2.0000      -0.441039       -12.0013
  18   2.0000      -0.417153       -11.3513
  19   2.0000      -0.281676        -7.6648
  20   2.0000      -0.274932        -7.4813
  21   0.0000       0.027107         0.7376
  22   0.0000       0.060122         1.6360
  23   0.0000       0.062686         1.7058
  24   0.0000       0.081684         2.2227
  25   0.0000       0.105614         2.8739

MULLIKEN ATOMIC CHARGES
-----------------------
   0 C :   -0.674492
   1 C :   -0.855773
   2 H :    0.402976
   3 H :    0.377864
   4 N :   -0.319952
   5 H :    0.389159
   6 H :    0.368840
   7 C :   -0.466302
   8 H :    0.372672
   9 H :    0.326585
  10 O :   -0.828340
  11 H :    0.304579
  12 H :    0.305240
  13 H :    0.296944
Sum of atomic charges:    0.0000000

LOEWDIN ATOMIC CHARGES
----------------------
   0 C :   -0.191228
   1 C :   -0.204803
   2 H :    0.120405
   3 H :    0.133366
   4 N :    0.128392
   5 H :    0.115941
   6 H :    0.116243
   7 C :   -0.441965
   8 H :    0.104332
   9 H :    0.105636
  10 O :   -0.270438
  11 H :    0.157571
  12 H :    0.161879
  13 H :   -0.035331

  Mayer bond orders larger than 0.100000
B(  0-C ,  1-C ) :   0.6865 B(  0-C ,  2-H ) :   0.9211 B(  0-C ,  3-H ) :   0.8849
B(  0-C ,  4-N ) :   0.8517 B(  1-C ,  5-H ) :   0.9512 B(  1-C ,  6-H ) :   0.9025
B(  1-C ,  7-C ) :   0.8101 B(  1-C , 10-O ) :   0.1593 B(  4-N , 10-O ) :  -0.1248
B(  4-N , 11-H ) :   0.9223 B(  4-N , 12-H ) :   0.9089 B(  4-N , 13-H ) :   0.5965
B(  7-C ,  8-H ) :   0.9555 B(  7-C ,  9-H ) :   0.9863 B(  7-C , 10-O ) :   0.7788
B( 10-O , 13-H ) :   0.4369

FINAL SINGLE POINT ENERGY      -249.137297608800

DIPOLE MOMENT
-------------
                                X             Y             Z
Electronic contribution:     -1.47795      -1.40893      -0.77335
Nuclear contribution   :      0.08650       3.01678       2.47433
                        -----------------------------------------
Total Dipole Moment    :     -1.39145       1.60785       1.70098
                        -----------------------------------------
Magnitude (a.u.)       :      2.72298
Magnitude (Debye)      :      6.92128

Rotational constants in cm-1:     0.238796     0.156489     0.106146
Rotational constants in MHz :  7158.916762  4691.413084  3182.185740

                             ****ORCA TERMINATED NORMALLY****
TOTAL RUN TIME: 0 days 0 hours 0 minutes 43 seconds 255 msec
