                         Program Version 5.0.0 -  RELEASE  -
|  1> !LC-BLYP RIJCOSX def2-TZVPD def2/J TightSCF
|  2> *xyz 0 1
|  3> C         -0.77894        0.17197        1.80496
|  4> C         -0.60249       -0.63071        0.49224
|  5> H          0.31389       -1.24035        0.60350
|  6> H         -0.36383        0.11332       -0.30117
|  7> F         -1.71206       -1.37684        0.20253
|  8> H         -1.65864        0.77733        1.73736
|  9> H          0.07466        0.79896        1.95712
| 10> H         -0.87474       -0.50584        2.62734
| 11> *
| 12> %MaxCore 64000
| 13>
| 14> %pal nprocs 4
| 15> end
| 16>
| 17> %scf
| 18>   MaxIter 150
| 19> end
| 20>
| 21>
| 22>                          ****END OF INPUT****

CARTESIAN COORDINATES (ANGSTROEM)
---------------------------------
  C     -0.778940    0.171970    1.804960
  C     -0.602490   -0.630710    0.492240
  H      0.313890   -1.240350    0.603500
  H     -0.363830    0.113320   -0.301170
  F     -1.712060   -1.376840    0.202530
  H     -1.658640    0.777330    1.737360
  H      0.074660    0.798960    1.957120
  H     -0.874740   -0.505840    2.627340

 Total Charge           Charge          ....    0
 Multiplicity           Mult            ....    1
 Number of Electrons    NEL             ....   26
 Basis Dimension        Dim             ....  159

ORBITAL ENERGIES
----------------

  NO   OCC          E(Eh)            E(eV)
   0   2.0000     -24.443199      -665.1333
   1   2.0000     -10.148900      -276.1656
   2   2.0000     -10.063246      -273.8348
   3   2.0000      -1.280725       -34.8503
   4   2.0000      -0.872763       -23.7491
   5   2.0000      -0.740464       -20.1490
   6   2.0000      -0.614615       -16.7245
   7   2.0000      -0.603860       -16.4319
   8   2.0000      -0.562452       -15.3051
   9   2.0000      -0.506779       -13.7901
  10   2.0000      -0.502001       -13.6601
  11   2.0000      -0.434185       -11.8148
  12   2.0000      -0.430224       -11.7070
  13   0.0000       0.055554         1.5117
  14   0.0000       0.078856         2.1458
  15   0.0000       0.100147         2.7251
  16   0.0000       0.103367         2.8128
  17   0.0000       0.132370         3.6020

MULLIKEN ATOMIC CHARGES
-----------------------
   0 C :   -1.165915
   1 C :   -0.296221
   2 H :    0.316301
   3 H :    0.310592
   4 F :   -0.275174
   5 H :    0.364113
   6 H :    0.392994
   7 H :    0.353312
Sum of atomic charges:   -0.0000000

LOEWDIN ATOMIC CHARGES
----------------------
   0 C :   -0.096678
   1 C :   -0.313180
   2 H :    0.115598
   3 H :    0.118120
   4 F :   -0.030581
   5 H :    0.068927
   6 H :    0.070040
   7 H :    0.067754

  Mayer bond orders larger than 0.100000
B(  0-C ,  1-C ) :   0.6509 B(  0-C ,  5-H ) :   0.9088 B(  0-C ,  6-H ) :   0.8974
B(  0-C ,  7-H ) :   0.9155 B(  1-C ,  2-H ) :   0.9400 B(  1-C ,  3-H ) :   0.9454
B(  1-C ,  4-F ) :   0.8338

FINAL SINGLE POINT ENERGY      -178.741232466602

DIPOLE MOMENT
-------------
                                X             Y             Z
Electronic contribution:     -2.71380      -3.27635      -2.81933
Nuclear contribution   :      3.27800       3.70743       3.04146
                        -----------------------------------------
Total Dipole Moment    :      0.56421       0.43109       0.22212
                        -----------------------------------------
Magnitude (a.u.)       :      0.74398
Magnitude (Debye)      :      1.89104

Rotational constants in cm-1:     1.234437     0.305084     0.268865
Rotational constants in MHz : 37007.496448  9146.194083  8060.380630

                             ****ORCA TERMINATED NORMALLY****
TOTAL RUN TIME: 0 days 0 hours 0 minutes 14 seconds 336 msec
