                         Program Version 5.0.0 -  RELEASE  -
|  1> !LC-BLYP RIJCOSX def2-TZVPD def2/J TightSCF
|  2> *xyz 0 1
|  3> C         -2.12050        0.88520        1.78951
|  4> C         -0.77894        0.17197        1.80496
|  5> H         -2.32419        1.47265        2.68608
|  6> H         -2.18770        1.54127        0.91948
|  7> C         -3.17690       -0.15948        1.61070
|  8> H         -4.06474        0.23127        1.28675
|  9> H         -3.34407       -0.67151        2.48493
| 10> H         -2.71686       -0.78189        0.93588
| 11> H         -0.65708       -0.37837        0.89547
| 12> H         -0.74207       -0.50050        2.63642
| 13> H          0.00707        0.89251        1.89389
| 14> *
| 15> %MaxCore 64000
| 16>
| 17> %pal nprocs 4
| 18> end
| 19>
| 20> %scf
| 21>   MaxIter 150
| 22> end
| 23>
| 24>
| 25>                          ****END OF INPUT****

CARTESIAN COORDINATES (ANGSTROEM)
---------------------------------
  C     -2.120500    0.885200    1.789510
  C     -0.778940    0.171970    1.804960
  H     -2.324190    1.472650    2.686080
  H     -2.187700    1.541270    0.919480
  C     -3.176900   -0.159480    1.610700
  H     -4.064740    0.231270    1.286750
  H     -3.344070   -0.671510    2.484930
  H     -2.716860   -0.781890    0.935880
  H     -0.657080   -0.378370    0.895470
  H     -0.742070   -0.500500    2.636420
  H      0.007070    0.892510    1.893890

 Total Charge           Charge          ....    0
 Multiplicity           Mult            ....    1
 Number of Electrons    NEL             ....   26
 Basis Dimension        Dim             ....  183

ORBITAL ENERGIES
----------------

  NO   OCC          E(Eh)            E(eV)
   0   2.0000     -10.054116      -273.5864
   1   2.0000     -10.045197      -273.3437
   2   2.0000     -10.026040      -272.8224
   3   2.0000      -0.905930       -24.6516
   4   2.0000      -0.794358       -21.6156
   5   2.0000      -0.693718       -18.8770
   6   2.0000      -0.579584       -15.7713
   7   2.0000      -0.559275       -15.2187
   8   2.0000      -0.501569       -13.6484
   9   2.0000      -0.485158       -13.2018
  10   2.0000      -0.438758       -11.9392
  11   2.0000      -0.430167       -11.7055
  12   2.0000      -0.424778       -11.5588
  13   0.0000       0.061073         1.6619
  14   0.0000       0.079996         2.1768
  15   0.0000       0.082230         2.2376
  16   0.0000       0.110588         3.0092
  17   0.0000       0.131325         3.5735

MULLIKEN ATOMIC CHARGES
-----------------------
   0 C :   -0.350088
   1 C :   -1.330263
   2 H :    0.348462
   3 H :    0.333282
   4 C :   -1.401996
   5 H :    0.417006
   6 H :    0.406951
   7 H :    0.404164
   8 H :    0.421780
   9 H :    0.362064
  10 H :    0.388638
Sum of atomic charges:   -0.0000000

LOEWDIN ATOMIC CHARGES
----------------------
   0 C :   -0.329626
   1 C :   -0.136349
   2 H :    0.109457
   3 H :    0.109139
   4 C :   -0.135374
   5 H :    0.055652
   6 H :    0.061359
   7 H :    0.051624
   8 H :    0.071425
   9 H :    0.075552
  10 H :    0.067142

  Mayer bond orders larger than 0.100000
B(  0-C ,  1-C ) :   0.5118 B(  0-C ,  2-H ) :   0.8984 B(  0-C ,  3-H ) :   0.9449
B(  0-C ,  4-C ) :   0.4786 B(  1-C ,  8-H ) :   0.8821 B(  1-C ,  9-H ) :   0.9472
B(  1-C , 10-H ) :   0.9319 B(  4-C ,  5-H ) :   0.8927 B(  4-C ,  6-H ) :   0.9173
B(  4-C ,  7-H ) :   0.8748

FINAL SINGLE POINT ENERGY      -118.780339875324

DIPOLE MOMENT
-------------
                                X             Y             Z
Electronic contribution:     -0.14186       0.47550       0.11362
Nuclear contribution   :      0.13334      -0.45108      -0.10852
                        -----------------------------------------
Total Dipole Moment    :     -0.00852       0.02442       0.00511
                        -----------------------------------------
Magnitude (a.u.)       :      0.02636
Magnitude (Debye)      :      0.06701

Rotational constants in cm-1:     0.972269     0.310387     0.269029
Rotational constants in MHz : 29147.878530  9305.178981  8065.286472

                             ****ORCA TERMINATED NORMALLY****
TOTAL RUN TIME: 0 days 0 hours 0 minutes 20 seconds 252 msec
