                         Program Version 5.0.0 -  RELEASE  -
|  1> !LC-BLYP RIJCOSX def2-TZVPD def2/J TightSCF xyzfile
|  2>
|  3> *xyzfile 0 1 D.xyz
|  4>
|  5> %MaxCore 64000
|  6>
|  7> %pal nprocs 4
|  8> end
|  9>
| 10> %scf
| 11>   MaxIter 150
| 12> end
| 13>
| 14>
| 15>                          ****END OF INPUT****

CARTESIAN COORDINATES (ANGSTROEM)
---------------------------------
  C     -2.120502    0.885196    1.789506
  C     -0.778939    0.171966    1.804965
  H     -2.324193    1.472649    2.686078
  H     -2.187698    1.541272    0.919482
  C     -3.176900   -0.159484    1.610700
  H      0.015695    0.910767    1.939153
  H     -0.743553   -0.506827    2.665420
  C     -0.602493   -0.630712    0.492240
  H      0.313894   -1.240346    0.603498
  H     -0.363829    0.113322   -0.301169
  F     -1.712061   -1.376836    0.202535
  H     -4.064736    0.231272    1.286754
  H     -3.344073   -0.671511    2.484928
  H     -2.716861   -0.781886    0.935880

 Total Charge           Charge          ....    0
 Multiplicity           Mult            ....    1
 Number of Electrons    NEL             ....   42
 Basis Dimension        Dim             ....  269

ORBITAL ENERGIES
----------------

  NO   OCC          E(Eh)            E(eV)
   0   2.0000     -24.460152      -665.5946
   1   2.0000     -10.155794      -276.3532
   2   2.0000     -10.073060      -274.1019
   3   2.0000     -10.052635      -273.5461
   4   2.0000      -9.991346      -271.8783
   5   2.0000      -1.312390       -35.7120
   6   2.0000      -0.916889       -24.9498
   7   2.0000      -0.844172       -22.9711
   8   2.0000      -0.745229       -20.2787
   9   2.0000      -0.701026       -19.0759
  10   2.0000      -0.637693       -17.3525
  11   2.0000      -0.633378       -17.2351
  12   2.0000      -0.592906       -16.1338
  13   2.0000      -0.544852       -14.8262
  14   2.0000      -0.515556       -14.0290
  15   2.0000      -0.506626       -13.7860
  16   2.0000      -0.480030       -13.0623
  17   2.0000      -0.443922       -12.0797
  18   2.0000      -0.426962       -11.6182
  19   2.0000      -0.420954       -11.4547
  20   2.0000      -0.371899       -10.1199
  21   0.0000       0.055003         1.4967
  22   0.0000       0.075534         2.0554
  23   0.0000       0.076759         2.0887
  24   0.0000       0.078223         2.1285
  25   0.0000       0.109636         2.9833

MULLIKEN ATOMIC CHARGES
-----------------------
   0 C :   -0.561263
   1 C :   -0.820334
   2 H :    0.352880
   3 H :    0.336657
   4 C :   -1.358244
   5 H :    0.364012
   6 H :    0.370692
   7 C :   -0.401607
   8 H :    0.391638
   9 H :    0.345506
  10 F :   -0.288922
  11 H :    0.430328
  12 H :    0.435252
  13 H :    0.403404
Sum of atomic charges:   -0.0000000

LOEWDIN ATOMIC CHARGES
----------------------
   0 C :   -0.269665
   1 C :   -0.201886
   2 H :    0.111838
   3 H :    0.116985
   4 C :   -0.115916
   5 H :    0.118333
   6 H :    0.121793
   7 C :   -0.221339
   8 H :    0.125846
   9 H :    0.133698
  10 F :   -0.023646
  11 H :    0.061583
  12 H :    0.067299
  13 H :   -0.024923

  Mayer bond orders larger than 0.100000
B(  0-C ,  1-C ) :   0.6843 B(  0-C ,  2-H ) :   0.9244 B(  0-C ,  3-H ) :   0.9620
B(  0-C ,  4-C ) :   0.4865 B(  1-C ,  5-H ) :   0.9484 B(  1-C ,  6-H ) :   0.9410
B(  1-C ,  7-C ) :   0.7645 B(  4-C , 11-H ) :   0.9365 B(  4-C , 12-H ) :   0.9473
B(  4-C , 13-H ) :   0.8844 B(  7-C ,  8-H ) :   0.9130 B(  7-C ,  9-H ) :   0.9536
B(  7-C , 10-F ) :   0.7975 B( 10-F , 13-H ) :  -0.1324

FINAL SINGLE POINT ENERGY      -257.100861588452

DIPOLE MOMENT
-------------
                                X             Y             Z
Electronic contribution:      0.90684      -4.18325      -3.72772
Nuclear contribution   :     -0.20666       4.43855       3.76066
                        -----------------------------------------
Total Dipole Moment    :      0.70017       0.25529       0.03293
                        -----------------------------------------
Magnitude (a.u.)       :      0.74599
Magnitude (Debye)      :      1.89615

Rotational constants in cm-1:     0.236353     0.155239     0.105045
Rotational constants in MHz :  7085.692869  4653.957069  3149.180346

                             ****ORCA TERMINATED NORMALLY****
TOTAL RUN TIME: 0 days 0 hours 0 minutes 41 seconds 97 msec
