                         Program Version 5.0.0 -  RELEASE  -
|  1> !B3LYP D3BJ RIJCOSX def2-TZVP def2/J TightSCF
|  2> *xyz -1 1
|  3> C          0.84888        2.66797       -4.30235
|  4> C          2.09343        1.86104       -4.65684
|  5> H          2.44481        2.04157       -5.67499
|  6> H          2.90175        2.13786       -3.98034
|  7> S          1.87964        0.07859       -4.46297
|  8> O          3.20757       -0.46611       -4.42026
|  9> O          1.07506       -0.05616       -3.26876
| 10> O          1.13166       -0.31996       -5.67903
| 11> H          0.05064        2.40112       -4.96303
| 12> H          1.06043        3.71210       -4.40203
| 13> H          0.56237        2.45684       -3.29327
| 14> *
| 15>
| 16> %MaxCore 64000
| 17>
| 18> %pal nprocs 4
| 19> end
| 20>
| 21> %scf
| 22>   MaxIter 150
| 23> end
| 24>
| 25>
| 26>                          ****END OF INPUT****

CARTESIAN COORDINATES (ANGSTROEM)
---------------------------------
  C      0.848880    2.667970   -4.302350
  C      2.093430    1.861040   -4.656840
  H      2.444810    2.041570   -5.674990
  H      2.901750    2.137860   -3.980340
  S      1.879640    0.078590   -4.462970
  O      3.207570   -0.466110   -4.420260
  O      1.075060   -0.056160   -3.268760
  O      1.131660   -0.319960   -5.679030
  H      0.050640    2.401120   -4.963030
  H      1.060430    3.712100   -4.402030
  H      0.562370    2.456840   -3.293270

 Total Charge           Charge          ....   -1
 Multiplicity           Mult            ....    1
 Number of Electrons    NEL             ....   58
 Basis Dimension        Dim             ....  222

ORBITAL ENERGIES
----------------

  NO   OCC          E(Eh)            E(eV)
   0   2.0000     -88.829915     -2417.1849
   1   2.0000     -18.899023      -514.2686
   2   2.0000     -18.895807      -514.1810
   3   2.0000     -18.882570      -513.8208
   4   2.0000     -10.021205      -272.6908
   5   2.0000     -10.015984      -272.5488
   6   2.0000      -7.873163      -214.2397
   7   2.0000      -5.836769      -158.8266
   8   2.0000      -5.835644      -158.7960
   9   2.0000      -5.835391      -158.7891
  10   2.0000      -0.918109       -24.9830
  11   2.0000      -0.791220       -21.5302
  12   2.0000      -0.765176       -20.8215
  13   2.0000      -0.624105       -16.9828
  14   2.0000      -0.497008       -13.5243
  15   2.0000      -0.373591       -10.1659
  16   2.0000      -0.310906        -8.4602
  17   2.0000      -0.308059        -8.3827
  18   2.0000      -0.267062        -7.2671
  19   2.0000      -0.253591        -6.9006
  20   2.0000      -0.247602        -6.7376
  21   2.0000      -0.223206        -6.0737
  22   2.0000      -0.208574        -5.6756
  23   2.0000      -0.146098        -3.9755
  24   2.0000      -0.145163        -3.9501
  25   2.0000      -0.111965        -3.0467
  26   2.0000      -0.103372        -2.8129
  27   2.0000      -0.092228        -2.5097
  28   2.0000      -0.058963        -1.6045
  29   0.0000       0.175742         4.7822
  30   0.0000       0.217615         5.9216
  31   0.0000       0.233230         6.3465
  32   0.0000       0.238986         6.5031
  33   0.0000       0.267009         7.2657

MULLIKEN ATOMIC CHARGES
-----------------------
   0 C :   -0.300717
   1 C :   -0.207552
   2 H :    0.063917
   3 H :    0.056938
   4 S :    0.844081
   5 O :   -0.547577
   6 O :   -0.560234
   7 O :   -0.601380
   8 H :    0.093223
   9 H :    0.051787
  10 H :    0.107513
Sum of atomic charges:   -1.0000000

LOEWDIN ATOMIC CHARGES
----------------------
   0 C :   -0.341300
   1 C :   -0.426696
   2 H :    0.112610
   3 H :    0.111514
   4 S :    0.412703
   5 O :   -0.372809
   6 O :   -0.380193
   7 O :   -0.434178
   8 H :    0.110802
   9 H :    0.095055
  10 H :    0.112491

  Mayer bond orders larger than 0.100000
B(  0-C ,  1-C ) :   0.9502 B(  0-C ,  8-H ) :   0.9769 B(  0-C ,  9-H ) :   0.9609
B(  0-C , 10-H ) :   0.9746 B(  1-C ,  2-H ) :   0.9621 B(  1-C ,  3-H ) :   0.9537
B(  1-C ,  4-S ) :   0.8732 B(  4-S ,  5-O ) :   1.8237 B(  4-S ,  6-O ) :   1.7550
B(  4-S ,  7-O ) :   1.7467

Dispersion correction           -0.016784693
FINAL SINGLE POINT ENERGY      -703.117471514691

DIPOLE MOMENT
-------------
                                X             Y             Z
Electronic contribution:      1.61837      -7.77774       0.05868
Nuclear contribution   :     -1.55288       9.51857       0.00420
                        -----------------------------------------
Total Dipole Moment    :      0.06549       1.74083       0.06288
                        -----------------------------------------
Magnitude (a.u.)       :      1.74320
Magnitude (Debye)      :      4.43086

Rotational constants in cm-1:     0.163401     0.083833     0.082462
Rotational constants in MHz :  4898.624208  2513.264548  2472.149188

                             ****ORCA TERMINATED NORMALLY****
TOTAL RUN TIME: 0 days 0 hours 0 minutes 23 seconds 624 msec
