                         Program Version 5.0.0 -  RELEASE  -
|  1> !B3LYP D3BJ RIJCOSX def2-TZVP def2/J TightSCF
|  2> *xyz 1 1
|  3> C         -0.46129        2.23469       -4.98962
|  4> C          0.84888        2.66797       -4.30235
|  5> C         -0.42384        2.39877       -6.47432
|  6> N         -0.95947        3.49265       -7.00740
|  7> N          0.14558        1.48689       -7.20399
|  8> H          0.56537        0.69681       -6.72386
|  9> H          0.22068        1.58177       -8.20752
| 10> H         -1.40624        4.18151       -6.40326
| 11> H         -0.93421        3.68160       -7.99947
| 12> H         -1.28888        2.82674       -4.59500
| 13> H         -0.65170        1.18634       -4.75655
| 14> H          1.66208        2.08894       -4.68750
| 15> H          0.76716        2.51042       -3.24717
| 16> H          1.02677        3.70527       -4.49537
| 17> *
| 18>
| 19> %MaxCore 64000
| 20>
| 21> %pal nprocs 4
| 22> end
| 23>
| 24> %scf
| 25>   MaxIter 150
| 26> end
| 27>
| 28>
| 29>                          ****END OF INPUT****

CARTESIAN COORDINATES (ANGSTROEM)
---------------------------------
  C     -0.461290    2.234690   -4.989620
  C      0.848880    2.667970   -4.302350
  C     -0.423840    2.398770   -6.474320
  N     -0.959470    3.492650   -7.007400
  N      0.145580    1.486890   -7.203990
  H      0.565370    0.696810   -6.723860
  H      0.220680    1.581770   -8.207520
  H     -1.406240    4.181510   -6.403260
  H     -0.934210    3.681600   -7.999470
  H     -1.288880    2.826740   -4.595000
  H     -0.651700    1.186340   -4.756550
  H      1.662080    2.088940   -4.687500
  H      0.767160    2.510420   -3.247170
  H      1.026770    3.705270   -4.495370

 Total Charge           Charge          ....    1
 Multiplicity           Mult            ....    1
 Number of Electrons    NEL             ....   40
 Basis Dimension        Dim             ....  209

ORBITAL ENERGIES
----------------

  NO   OCC          E(Eh)            E(eV)
   0   2.0000     -14.562206      -396.2578
   1   2.0000     -14.558375      -396.1535
   2   2.0000     -10.489837      -285.4430
   3   2.0000     -10.366975      -282.0997
   4   2.0000     -10.322892      -280.9002
   5   2.0000      -1.203919       -32.7603
   6   2.0000      -1.109852       -30.2006
   7   2.0000      -0.968010       -26.3409
   8   2.0000      -0.861242       -23.4356
   9   2.0000      -0.815605       -22.1937
  10   2.0000      -0.777908       -21.1679
  11   2.0000      -0.751184       -20.4407
  12   2.0000      -0.702203       -19.1079
  13   2.0000      -0.648255       -17.6399
  14   2.0000      -0.623592       -16.9688
  15   2.0000      -0.614113       -16.7109
  16   2.0000      -0.545455       -14.8426
  17   2.0000      -0.536030       -14.5861
  18   2.0000      -0.530028       -14.4228
  19   2.0000      -0.492924       -13.4131
  20   0.0000      -0.208158        -5.6643
  21   0.0000      -0.162361        -4.4181
  22   0.0000      -0.116485        -3.1697
  23   0.0000      -0.113994        -3.1019
  24   0.0000      -0.086306        -2.3485

MULLIKEN ATOMIC CHARGES
-----------------------
   0 C :   -0.248849
   1 C :   -0.309694
   2 C :    0.338811
   3 N :   -0.339149
   4 N :   -0.300285
   5 H :    0.292583
   6 H :    0.274991
   7 H :    0.292388
   8 H :    0.273003
   9 H :    0.140736
  10 H :    0.158659
  11 H :    0.126878
  12 H :    0.165664
  13 H :    0.134264
Sum of atomic charges:    1.0000000

LOEWDIN ATOMIC CHARGES
----------------------
   0 C :   -0.216261
   1 C :   -0.253497
   2 C :   -0.290221
   3 N :    0.104924
   4 N :    0.128886
   5 H :    0.213656
   6 H :    0.200459
   7 H :    0.209484
   8 H :    0.194138
   9 H :    0.159004
  10 H :    0.162545
  11 H :    0.123182
  12 H :    0.137249
  13 H :    0.126453

  Mayer bond orders larger than 0.100000
B(  0-C ,  1-C ) :   0.9455 B(  0-C ,  2-C ) :   0.9714 B(  0-C ,  9-H ) :   0.9629
B(  0-C , 10-H ) :   0.9543 B(  1-C , 11-H ) :   0.9681 B(  1-C , 12-H ) :   0.9656
B(  1-C , 13-H ) :   0.9635 B(  2-C ,  3-N ) :   1.4342 B(  2-C ,  4-N ) :   1.4711
B(  3-N ,  7-H ) :   0.8881 B(  3-N ,  8-H ) :   0.8948 B(  4-N ,  5-H ) :   0.8873
B(  4-N ,  6-H ) :   0.8924

Dispersion correction           -0.016636179
FINAL SINGLE POINT ENERGY      -228.993843492854

DIPOLE MOMENT
-------------
                                X             Y             Z
Electronic contribution:     -1.55616      -0.26676      -3.88300
Nuclear contribution   :      1.33202       0.27544       2.83701
                        -----------------------------------------
Total Dipole Moment    :     -0.22414       0.00868      -1.04599
                        -----------------------------------------
Magnitude (a.u.)       :      1.06977
Magnitude (Debye)      :      2.71914

Rotational constants in cm-1:     0.258570     0.126296     0.098869
Rotational constants in MHz :  7751.748523  3786.267300  2964.011691

                             ****ORCA TERMINATED NORMALLY****
TOTAL RUN TIME: 0 days 0 hours 0 minutes 23 seconds 501 msec
