                         Program Version 5.0.0 -  RELEASE  -
|  1> !B3LYP D3BJ RIJCOSX def2-TZVP def2/J TightSCF xyzfile
|  2>
|  3> *xyzfile 0 1 B.xyz
|  4>
|  5> %MaxCore 64000
|  6>
|  7> %pal nprocs 18
|  8> end
|  9>
| 10> %scf
| 11>   MaxIter 150
| 12> end
| 13>
| 14>
| 15>                          ****END OF INPUT****

CARTESIAN COORDINATES (ANGSTROEM)
---------------------------------
  C     -0.461293    2.234686   -4.989619
  C      0.848883    2.667967   -4.302351
  C      2.093434    1.861037   -4.656845
  H      2.444814    2.041567   -5.674990
  H      2.901748    2.137864   -3.980338
  S      1.879644    0.078594   -4.462965
  C     -0.423841    2.398772   -6.474317
  N     -0.959467    3.492647   -7.007401
  N      0.145585    1.486891   -7.203987
  H      0.565371    0.696807   -6.723858
  H      0.220682    1.581768   -8.207520
  H     -1.406243    4.181507   -6.403261
  H     -0.934215    3.681601   -7.999468
  O      3.207574   -0.466111   -4.420259
  O      1.075064   -0.056160   -3.268758
  O      1.131661   -0.319960   -5.679031
  H      0.668432    2.559427   -3.232850
  H      1.034074    3.729426   -4.497081
  H     -1.288884    2.826737   -4.594997
  H     -0.651696    1.186343   -4.756552

 Total Charge           Charge          ....    0
 Multiplicity           Mult            ....    1
 Number of Electrons    NEL             ....   88
 Basis Dimension        Dim             ....  376

ORBITAL ENERGIES
----------------

  NO   OCC          E(Eh)            E(eV)
   0   2.0000     -88.986203     -2421.4377
   1   2.0000     -19.059483      -518.6349
   2   2.0000     -19.045360      -518.2506
   3   2.0000     -19.043289      -518.1942
   4   2.0000     -14.422825      -392.4650
   5   2.0000     -14.390377      -391.5821
   6   2.0000     -10.340803      -281.3876
   7   2.0000     -10.218464      -278.0585
   8   2.0000     -10.197468      -277.4872
   9   2.0000     -10.173015      -276.8218
  10   2.0000      -8.029589      -218.4962
  11   2.0000      -5.993458      -163.0903
  12   2.0000      -5.992454      -163.0630
  13   2.0000      -5.991117      -163.0266
  14   2.0000      -1.074736       -29.2450
  15   2.0000      -1.055754       -28.7285
  16   2.0000      -0.963850       -26.2277
  17   2.0000      -0.937663       -25.5151
  18   2.0000      -0.936127       -25.4733
  19   2.0000      -0.832415       -22.6512
  20   2.0000      -0.754164       -20.5219
  21   2.0000      -0.692687       -18.8490
  22   2.0000      -0.647721       -17.6254
  23   2.0000      -0.631581       -17.1862
  24   2.0000      -0.603421       -16.4199
  25   2.0000      -0.562179       -15.2977
  26   2.0000      -0.519047       -14.1240
  27   2.0000      -0.511472       -13.9179
  28   2.0000      -0.481970       -13.1151
  29   2.0000      -0.470686       -12.8080
  30   2.0000      -0.444661       -12.0999
  31   2.0000      -0.433225       -11.7886
  32   2.0000      -0.410923       -11.1818
  33   2.0000      -0.402473       -10.9519
  34   2.0000      -0.390127       -10.6159
  35   2.0000      -0.374150       -10.1811
  36   2.0000      -0.359442        -9.7809
  37   2.0000      -0.345944        -9.4136
  38   2.0000      -0.303114        -8.2482
  39   2.0000      -0.297159        -8.0861
  40   2.0000      -0.268615        -7.3094
  41   2.0000      -0.257446        -7.0055
  42   2.0000      -0.251104        -6.8329
  43   2.0000      -0.217826        -5.9273
  44   0.0000      -0.062016        -1.6875
  45   0.0000      -0.038440        -1.0460
  46   0.0000       0.001646         0.0448
  47   0.0000       0.024487         0.6663
  48   0.0000       0.049721         1.3530

MULLIKEN ATOMIC CHARGES
-----------------------
   0 C :   -0.243986
   1 C :   -0.141039
   2 C :   -0.302367
   3 H :    0.098035
   4 H :    0.125548
   5 S :    0.888970
   6 C :    0.276972
   7 N :   -0.368973
   8 N :   -0.300801
   9 H :    0.315225
  10 H :    0.225191
  11 H :    0.266535
  12 H :    0.245525
  13 O :   -0.498506
  14 O :   -0.514277
  15 O :   -0.592697
  16 H :    0.128899
  17 H :    0.086402
  18 H :    0.106285
  19 H :    0.199060
Sum of atomic charges:    0.0000000

LOEWDIN ATOMIC CHARGES
----------------------
   0 C :   -0.205759
   1 C :   -0.268650
   2 C :   -0.388845
   3 H :    0.120497
   4 H :    0.137672
   5 S :    0.444233
   6 C :   -0.301353
   7 N :    0.062392
   8 N :    0.130923
   9 H :    0.151595
  10 H :    0.178648
  11 H :    0.194629
  12 H :    0.179307
  13 O :   -0.319922
  14 O :   -0.338353
  15 O :   -0.378861
  16 H :    0.154077
  17 H :    0.131032
  18 H :    0.145555
  19 H :    0.171181

  Mayer bond orders larger than 0.100000
B(  0-C ,  1-C ) :   0.9295 B(  0-C ,  6-C ) :   0.9742 B(  0-C , 18-H ) :   0.9639
B(  0-C , 19-H ) :   0.9364 B(  1-C ,  2-C ) :   0.9763 B(  1-C , 16-H ) :   0.9470
B(  1-C , 17-H ) :   0.9497 B(  2-C ,  3-H ) :   0.9514 B(  2-C ,  4-H ) :   0.9586
B(  2-C ,  5-S ) :   0.8954 B(  5-S , 13-O ) :   1.9000 B(  5-S , 14-O ) :   1.7658
B(  5-S , 15-O ) :   1.4736 B(  6-C ,  7-N ) :   1.3404 B(  6-C ,  8-N ) :   1.5858
B(  7-N , 11-H ) :   0.8994 B(  7-N , 12-H ) :   0.9055 B(  8-N ,  9-H ) :   0.7349
B(  8-N , 10-H ) :   0.9095 B(  9-H , 15-O ) :   0.2152

Dispersion correction           -0.038444262
FINAL SINGLE POINT ENERGY      -891.760581371691

DIPOLE MOMENT
-------------
                                X             Y             Z
Electronic contribution:      3.11830      -7.69884       1.09785
Nuclear contribution   :     -5.91573      12.15027      -4.18945
                        -----------------------------------------
Total Dipole Moment    :     -2.79743       4.45143      -3.09161
                        -----------------------------------------
Magnitude (a.u.)       :      6.09909
Magnitude (Debye)      :     15.50266

Rotational constants in cm-1:     0.082044     0.024757     0.022371
Rotational constants in MHz :  2459.631375   742.181961   670.660570

                             ****ORCA TERMINATED NORMALLY****
TOTAL RUN TIME: 0 days 0 hours 0 minutes 30 seconds 313 msec
