                         Program Version 5.0.0 -  RELEASE  -
|  1> !B3LYP D3BJ RIJCOSX def2-TZVP def2/J TightSCF
|  2> *xyz 0 1
|  3> C          0.84888        2.66797       -4.30235
|  4> C          2.09343        1.86104       -4.65684
|  5> H          2.44481        2.04157       -5.67499
|  6> H          2.90175        2.13786       -3.98034
|  7> S          1.87964        0.07859       -4.46297
|  8> F          3.20757       -0.46611       -4.42026
|  9> O          1.07506       -0.05616       -3.26876
| 10> O          1.13166       -0.31996       -5.67903
| 11> H          0.05064        2.40112       -4.96303
| 12> H          1.06043        3.71210       -4.40203
| 13> H          0.56237        2.45684       -3.29327
| 14> *
| 15>
| 16> %MaxCore 64000
| 17>
| 18> %pal nprocs 4
| 19> end
| 20>
| 21> %scf
| 22>   MaxIter 150
| 23> end
| 24>
| 25>
| 26>                          ****END OF INPUT****

CARTESIAN COORDINATES (ANGSTROEM)
---------------------------------
  C      0.848880    2.667970   -4.302350
  C      2.093430    1.861040   -4.656840
  H      2.444810    2.041570   -5.674990
  H      2.901750    2.137860   -3.980340
  S      1.879640    0.078590   -4.462970
  F      3.207570   -0.466110   -4.420260
  O      1.075060   -0.056160   -3.268760
  O      1.131660   -0.319960   -5.679030
  H      0.050640    2.401120   -4.963030
  H      1.060430    3.712100   -4.402030
  H      0.562370    2.456840   -3.293270

 Total Charge           Charge          ....    0
 Multiplicity           Mult            ....    1
 Number of Electrons    NEL             ....   58
 Basis Dimension        Dim             ....  222

ORBITAL ENERGIES
----------------

  NO   OCC          E(Eh)            E(eV)
   0   2.0000     -89.097231     -2424.4589
   1   2.0000     -24.805659      -674.9963
   2   2.0000     -19.135824      -520.7122
   3   2.0000     -19.123323      -520.3721
   4   2.0000     -10.226498      -278.2772
   5   2.0000     -10.182334      -277.0754
   6   2.0000      -8.141078      -221.5300
   7   2.0000      -6.107774      -166.2010
   8   2.0000      -6.101463      -166.0292
   9   2.0000      -6.101227      -166.0228
  10   2.0000      -1.390210       -37.8295
  11   2.0000      -1.102755       -30.0075
  12   2.0000      -1.003554       -27.3081
  13   2.0000      -0.817280       -22.2393
  14   2.0000      -0.738537       -20.0966
  15   2.0000      -0.673634       -18.3305
  16   2.0000      -0.591270       -16.0893
  17   2.0000      -0.590239       -16.0612
  18   2.0000      -0.554538       -15.0898
  19   2.0000      -0.491487       -13.3740
  20   2.0000      -0.481816       -13.1109
  21   2.0000      -0.442587       -12.0434
  22   2.0000      -0.427893       -11.6436
  23   2.0000      -0.406196       -11.0532
  24   2.0000      -0.387702       -10.5499
  25   2.0000      -0.382313       -10.4033
  26   2.0000      -0.333909        -9.0861
  27   2.0000      -0.319718        -8.7000
  28   2.0000      -0.305218        -8.3054
  29   0.0000       0.018021         0.4904
  30   0.0000       0.034068         0.9270
  31   0.0000       0.060833         1.6553
  32   0.0000       0.064820         1.7639
  33   0.0000       0.075028         2.0416

MULLIKEN ATOMIC CHARGES
-----------------------
   0 C :   -0.323778
   1 C :   -0.221096
   2 H :    0.134308
   3 H :    0.115523
   4 S :    0.874159
   5 F :   -0.099926
   6 O :   -0.416234
   7 O :   -0.453035
   8 H :    0.134023
   9 H :    0.118164
  10 H :    0.137893
Sum of atomic charges:   -0.0000000

LOEWDIN ATOMIC CHARGES
----------------------
   0 C :   -0.300103
   1 C :   -0.392827
   2 H :    0.135306
   3 H :    0.130222
   4 S :    0.532870
   5 F :    0.102691
   6 O :   -0.265965
   7 O :   -0.314335
   8 H :    0.125157
   9 H :    0.122228
  10 H :    0.124756

  Mayer bond orders larger than 0.100000
B(  0-C ,  1-C ) :   0.9660 B(  0-C ,  8-H ) :   0.9714 B(  0-C ,  9-H ) :   0.9581
B(  0-C , 10-H ) :   0.9683 B(  1-C ,  2-H ) :   0.9408 B(  1-C ,  3-H ) :   0.9370
B(  1-C ,  4-S ) :   0.9130 B(  4-S ,  5-F ) :   1.1374 B(  4-S ,  6-O ) :   1.9042
B(  4-S ,  7-O ) :   1.8839

Dispersion correction           -0.016042197
FINAL SINGLE POINT ENERGY      -727.634832331180

DIPOLE MOMENT
-------------
                                X             Y             Z
Electronic contribution:      4.16941      -9.35694       0.10499
Nuclear contribution   :     -3.08754      10.54185      -0.04092
                        -----------------------------------------
Total Dipole Moment    :      1.08187       1.18492       0.06408
                        -----------------------------------------
Magnitude (a.u.)       :      1.60580
Magnitude (Debye)      :      4.08161

Rotational constants in cm-1:     0.158925     0.081210     0.079022
Rotational constants in MHz :  4764.450166  2434.603461  2369.014434

                             ****ORCA TERMINATED NORMALLY****
TOTAL RUN TIME: 0 days 0 hours 0 minutes 27 seconds 313 msec
