                         Program Version 5.0.0 -  RELEASE  -
|  1> !B3LYP D3BJ RIJCOSX def2-TZVP def2/J TightSCF
|  2> *xyz 0 1
|  3> C         -0.46129        2.23469       -4.98962
|  4> C          0.84888        2.66797       -4.30235
|  5> C         -0.42384        2.39877       -6.47432
|  6> C         -0.95947        3.49265       -7.00740
|  7> N          0.14558        1.48689       -7.20399
|  8> H          0.56537        0.69681       -6.72386
|  9> H          0.22068        1.58177       -8.20752
| 10> H         -1.40624        4.18151       -6.40326
| 11> H         -0.93421        3.68160       -7.99947
| 12> H         -1.28888        2.82674       -4.59500
| 13> H         -0.65170        1.18634       -4.75655
| 14> H          1.66208        2.08894       -4.68750
| 15> H          0.76716        2.51042       -3.24717
| 16> H          1.02677        3.70527       -4.49537
| 17> *
| 18>
| 19> %MaxCore 64000
| 20>
| 21> %pal nprocs 4
| 22> end
| 23>
| 24> %scf
| 25>   MaxIter 150
| 26> end
| 27>
| 28>
| 29>                          ****END OF INPUT****

CARTESIAN COORDINATES (ANGSTROEM)
---------------------------------
  C     -0.461290    2.234690   -4.989620
  C      0.848880    2.667970   -4.302350
  C     -0.423840    2.398770   -6.474320
  C     -0.959470    3.492650   -7.007400
  N      0.145580    1.486890   -7.203990
  H      0.565370    0.696810   -6.723860
  H      0.220680    1.581770   -8.207520
  H     -1.406240    4.181510   -6.403260
  H     -0.934210    3.681600   -7.999470
  H     -1.288880    2.826740   -4.595000
  H     -0.651700    1.186340   -4.756550
  H      1.662080    2.088940   -4.687500
  H      0.767160    2.510420   -3.247170
  H      1.026770    3.705270   -4.495370

 Total Charge           Charge          ....    0
 Multiplicity           Mult            ....    1
 Number of Electrons    NEL             ....   40
 Basis Dimension        Dim             ....  209

ORBITAL ENERGIES
----------------

  NO   OCC          E(Eh)            E(eV)
   0   2.0000     -14.315838      -389.5537
   1   2.0000     -10.185536      -277.1625
   2   2.0000     -10.166615      -276.6477
   3   2.0000     -10.152063      -276.2517
   4   2.0000     -10.096781      -274.7474
   5   2.0000      -0.934812       -25.4375
   6   2.0000      -0.776743       -21.1362
   7   2.0000      -0.711704       -19.3664
   8   2.0000      -0.634592       -17.2681
   9   2.0000      -0.569268       -15.4906
  10   2.0000      -0.529546       -14.4097
  11   2.0000      -0.478891       -13.0313
  12   2.0000      -0.437177       -11.8962
  13   2.0000      -0.418897       -11.3988
  14   2.0000      -0.391254       -10.6466
  15   2.0000      -0.380918       -10.3653
  16   2.0000      -0.353041        -9.6067
  17   2.0000      -0.335254        -9.1227
  18   2.0000      -0.330236        -8.9862
  19   2.0000      -0.185268        -5.0414
  20   0.0000       0.022666         0.6168
  21   0.0000       0.048129         1.3097
  22   0.0000       0.067752         1.8436
  23   0.0000       0.077263         2.1024
  24   0.0000       0.087433         2.3792

MULLIKEN ATOMIC CHARGES
-----------------------
   0 C :   -0.207761
   1 C :   -0.299039
   2 C :    0.245666
   3 C :   -0.419709
   4 N :   -0.415465
   5 H :    0.218058
   6 H :    0.220692
   7 H :    0.085387
   8 H :    0.078923
   9 H :    0.103029
  10 H :    0.080068
  11 H :    0.091664
  12 H :    0.104797
  13 H :    0.113690
Sum of atomic charges:   -0.0000000

LOEWDIN ATOMIC CHARGES
----------------------
   0 C :   -0.233874
   1 C :   -0.287347
   2 C :   -0.372359
   3 C :   -0.280904
   4 N :    0.015778
   5 H :    0.172257
   6 H :    0.173493
   7 H :    0.104057
   8 H :    0.092399
   9 H :    0.145568
  10 H :    0.131267
  11 H :    0.110462
  12 H :    0.112151
  13 H :    0.117053

  Mayer bond orders larger than 0.100000
B(  0-C ,  1-C ) :   0.9481 B(  0-C ,  2-C ) :   0.9530 B(  0-C ,  9-H ) :   0.9838
B(  0-C , 10-H ) :   0.9710 B(  1-C , 11-H ) :   0.9755 B(  1-C , 12-H ) :   0.9751
B(  1-C , 13-H ) :   0.9784 B(  2-C ,  3-C ) :   1.7238 B(  2-C ,  4-N ) :   1.1892
B(  3-C ,  7-H ) :   0.9950 B(  3-C ,  8-H ) :   0.9908 B(  4-N ,  5-H ) :   0.9255
B(  4-N ,  6-H ) :   0.9194

Dispersion correction           -0.017373533
FINAL SINGLE POINT ENERGY      -212.522269292690

DIPOLE MOMENT
-------------
                                X             Y             Z
Electronic contribution:     -0.70666      -1.19749      -2.60121
Nuclear contribution   :      1.14741       0.51394       2.60761
                        -----------------------------------------
Total Dipole Moment    :      0.44075      -0.68355       0.00640
                        -----------------------------------------
Magnitude (a.u.)       :      0.81335
Magnitude (Debye)      :      2.06738

Rotational constants in cm-1:     0.269157     0.129188     0.102123
Rotational constants in MHz :  8069.118715  3872.945231  3061.580645

                             ****ORCA TERMINATED NORMALLY****
TOTAL RUN TIME: 0 days 0 hours 0 minutes 25 seconds 378 msec
