                         Program Version 5.0.0 -  RELEASE  -
|  1> !B3LYP D3BJ RIJCOSX def2-TZVP def2/J TightSCF
|  2> *xyz 0 1
|  3> C          0.84888        2.66797       -4.30235
|  4> C          2.09343        1.86104       -4.65684
|  5> H          2.44481        2.04157       -5.67499
|  6> H          2.90175        2.13786       -3.98034
|  7> S          1.87964        0.07859       -4.46297
|  8> O          3.20757       -0.46611       -4.42026
|  9> F          1.07506       -0.05616       -3.26876
| 10> O          1.13166       -0.31996       -5.67903
| 11> H          0.05064        2.40112       -4.96303
| 12> H          1.06043        3.71210       -4.40203
| 13> H          0.56237        2.45684       -3.29327
| 14> *
| 15>
| 16> %MaxCore 64000
| 17>
| 18> %pal nprocs 4
| 19> end
| 20>
| 21> %scf
| 22>   MaxIter 150
| 23> end
| 24>
| 25>
| 26>                          ****END OF INPUT****

CARTESIAN COORDINATES (ANGSTROEM)
---------------------------------
  C      0.848880    2.667970   -4.302350
  C      2.093430    1.861040   -4.656840
  H      2.444810    2.041570   -5.674990
  H      2.901750    2.137860   -3.980340
  S      1.879640    0.078590   -4.462970
  O      3.207570   -0.466110   -4.420260
  F      1.075060   -0.056160   -3.268760
  O      1.131660   -0.319960   -5.679030
  H      0.050640    2.401120   -4.963030
  H      1.060430    3.712100   -4.402030
  H      0.562370    2.456840   -3.293270

 Total Charge           Charge          ....    0
 Multiplicity           Mult            ....    1
 Number of Electrons    NEL             ....   58
 Basis Dimension        Dim             ....  222

ORBITAL ENERGIES
----------------

  NO   OCC          E(Eh)            E(eV)
   0   2.0000     -89.096692     -2424.4442
   1   2.0000     -24.800091      -674.8448
   2   2.0000     -19.139545      -520.8135
   3   2.0000     -19.123474      -520.3762
   4   2.0000     -10.226491      -278.2770
   5   2.0000     -10.189141      -277.2606
   6   2.0000      -8.140535      -221.5152
   7   2.0000      -6.107433      -166.1917
   8   2.0000      -6.100827      -166.0120
   9   2.0000      -6.100627      -166.0065
  10   2.0000      -1.381633       -37.5961
  11   2.0000      -1.106974       -30.1223
  12   2.0000      -1.006670       -27.3929
  13   2.0000      -0.822572       -22.3833
  14   2.0000      -0.732161       -19.9231
  15   2.0000      -0.676460       -18.4074
  16   2.0000      -0.597392       -16.2559
  17   2.0000      -0.584579       -15.9072
  18   2.0000      -0.546102       -14.8602
  19   2.0000      -0.493846       -13.4382
  20   2.0000      -0.475869       -12.9491
  21   2.0000      -0.450321       -12.2539
  22   2.0000      -0.438155       -11.9228
  23   2.0000      -0.412125       -11.2145
  24   2.0000      -0.396542       -10.7905
  25   2.0000      -0.383176       -10.4268
  26   2.0000      -0.335430        -9.1275
  27   2.0000      -0.320393        -8.7183
  28   2.0000      -0.308280        -8.3887
  29   0.0000       0.008388         0.2283
  30   0.0000       0.043895         1.1944
  31   0.0000       0.056559         1.5391
  32   0.0000       0.067933         1.8486
  33   0.0000       0.074631         2.0308

MULLIKEN ATOMIC CHARGES
-----------------------
   0 C :   -0.335224
   1 C :   -0.222641
   2 H :    0.149018
   3 H :    0.129630
   4 S :    0.875376
   5 O :   -0.401620
   6 F :   -0.112270
   7 O :   -0.455940
   8 H :    0.136687
   9 H :    0.121897
  10 H :    0.115087
Sum of atomic charges:   -0.0000000

LOEWDIN ATOMIC CHARGES
----------------------
   0 C :   -0.314733
   1 C :   -0.385047
   2 H :    0.145512
   3 H :    0.134972
   4 S :    0.535473
   5 O :   -0.256746
   6 F :    0.093378
   7 O :   -0.315200
   8 H :    0.123284
   9 H :    0.123075
  10 H :    0.116032

  Mayer bond orders larger than 0.100000
B(  0-C ,  1-C ) :   0.9513 B(  0-C ,  8-H ) :   0.9699 B(  0-C ,  9-H ) :   0.9624
B(  0-C , 10-H ) :   0.9710 B(  1-C ,  2-H ) :   0.9457 B(  1-C ,  3-H ) :   0.9427
B(  1-C ,  4-S ) :   0.9073 B(  4-S ,  5-O ) :   1.9511 B(  4-S ,  6-F ) :   1.1130
B(  4-S ,  7-O ) :   1.8790

Dispersion correction           -0.015930520
FINAL SINGLE POINT ENERGY      -727.639219343779

DIPOLE MOMENT
-------------
                                X             Y             Z
Electronic contribution:      0.56727      -8.63522       2.03366
Nuclear contribution   :     -0.86540      10.11467      -1.24082
                        -----------------------------------------
Total Dipole Moment    :     -0.29813       1.47946       0.79285
                        -----------------------------------------
Magnitude (a.u.)       :      1.70478
Magnitude (Debye)      :      4.33321

Rotational constants in cm-1:     0.154065     0.083345     0.080357
Rotational constants in MHz :  4618.752213  2498.631937  2409.037217

                             ****ORCA TERMINATED NORMALLY****
TOTAL RUN TIME: 0 days 0 hours 0 minutes 25 seconds 367 msec
