                         Program Version 5.0.0 -  RELEASE  -
|  1> !B3LYP D3BJ RIJCOSX def2-TZVP def2/J TightSCF
|  2> *xyz 0 1
|  3> C         -0.46129        2.23469       -4.98962
|  4> C          0.84888        2.66797       -4.30235
|  5> C         -0.42384        2.39877       -6.47432
|  6> N         -0.95947        3.49265       -7.00740
|  7> C          0.14558        1.48689       -7.20399
|  8> H          0.56537        0.69681       -6.72386
|  9> H          0.22068        1.58177       -8.20752
| 10> H         -1.40624        4.18151       -6.40326
| 11> H         -0.93421        3.68160       -7.99947
| 12> H         -1.28888        2.82674       -4.59500
| 13> H         -0.65170        1.18634       -4.75655
| 14> H          1.66208        2.08894       -4.68750
| 15> H          0.76716        2.51042       -3.24717
| 16> H          1.02677        3.70527       -4.49537
| 17> *
| 18>
| 19> %MaxCore 64000
| 20>
| 21> %pal nprocs 4
| 22> end
| 23>
| 24> %scf
| 25>   MaxIter 150
| 26> end
| 27>
| 28>
| 29>                          ****END OF INPUT****

CARTESIAN COORDINATES (ANGSTROEM)
---------------------------------
  C     -0.461290    2.234690   -4.989620
  C      0.848880    2.667970   -4.302350
  C     -0.423840    2.398770   -6.474320
  N     -0.959470    3.492650   -7.007400
  C      0.145580    1.486890   -7.203990
  H      0.565370    0.696810   -6.723860
  H      0.220680    1.581770   -8.207520
  H     -1.406240    4.181510   -6.403260
  H     -0.934210    3.681600   -7.999470
  H     -1.288880    2.826740   -4.595000
  H     -0.651700    1.186340   -4.756550
  H      1.662080    2.088940   -4.687500
  H      0.767160    2.510420   -3.247170
  H      1.026770    3.705270   -4.495370

 Total Charge           Charge          ....    0
 Multiplicity           Mult            ....    1
 Number of Electrons    NEL             ....   40
 Basis Dimension        Dim             ....  209

ORBITAL ENERGIES
----------------

  NO   OCC          E(Eh)            E(eV)
   0   2.0000     -14.312308      -389.4577
   1   2.0000     -10.183275      -277.1010
   2   2.0000     -10.166364      -276.6408
   3   2.0000     -10.150627      -276.2126
   4   2.0000     -10.095275      -274.7064
   5   2.0000      -0.922082       -25.0911
   6   2.0000      -0.778344       -21.1798
   7   2.0000      -0.715596       -19.4724
   8   2.0000      -0.635454       -17.2916
   9   2.0000      -0.563491       -15.3334
  10   2.0000      -0.519423       -14.1342
  11   2.0000      -0.481133       -13.0923
  12   2.0000      -0.438416       -11.9299
  13   2.0000      -0.414408       -11.2766
  14   2.0000      -0.392319       -10.6755
  15   2.0000      -0.381293       -10.3755
  16   2.0000      -0.350604        -9.5404
  17   2.0000      -0.338001        -9.1975
  18   2.0000      -0.326018        -8.8714
  19   2.0000      -0.189153        -5.1471
  20   0.0000       0.024850         0.6762
  21   0.0000       0.048072         1.3081
  22   0.0000       0.068712         1.8698
  23   0.0000       0.075259         2.0479
  24   0.0000       0.090442         2.4611

MULLIKEN ATOMIC CHARGES
-----------------------
   0 C :   -0.202262
   1 C :   -0.300444
   2 C :    0.274060
   3 N :   -0.452596
   4 C :   -0.409968
   5 H :    0.088073
   6 H :    0.078661
   7 H :    0.216962
   8 H :    0.217664
   9 H :    0.070903
  10 H :    0.106953
  11 H :    0.111712
  12 H :    0.102242
  13 H :    0.098040
Sum of atomic charges:   -0.0000000

LOEWDIN ATOMIC CHARGES
----------------------
   0 C :   -0.232245
   1 C :   -0.285361
   2 C :   -0.363565
   3 N :   -0.007219
   4 C :   -0.268037
   5 H :    0.108966
   6 H :    0.097358
   7 H :    0.167281
   8 H :    0.166868
   9 H :    0.130272
  10 H :    0.144942
  11 H :    0.116369
  12 H :    0.111204
  13 H :    0.113168

  Mayer bond orders larger than 0.100000
B(  0-C ,  1-C ) :   0.9537 B(  0-C ,  2-C ) :   0.9356 B(  0-C ,  9-H ) :   0.9756
B(  0-C , 10-H ) :   0.9848 B(  1-C , 11-H ) :   0.9776 B(  1-C , 12-H ) :   0.9748
B(  1-C , 13-H ) :   0.9770 B(  2-C ,  3-N ) :   1.1460 B(  2-C ,  4-C ) :   1.7545
B(  3-N ,  7-H ) :   0.9260 B(  3-N ,  8-H ) :   0.9218 B(  4-C ,  5-H ) :   0.9968
B(  4-C ,  6-H ) :   0.9908

Dispersion correction           -0.017388539
FINAL SINGLE POINT ENERGY      -212.522376342958

DIPOLE MOMENT
-------------
                                X             Y             Z
Electronic contribution:     -1.71711       0.60922      -2.41942
Nuclear contribution   :      1.40335       0.04939       2.56207
                        -----------------------------------------
Total Dipole Moment    :     -0.31375       0.65861       0.14265
                        -----------------------------------------
Magnitude (a.u.)       :      0.74334
Magnitude (Debye)      :      1.88943

Rotational constants in cm-1:     0.271383     0.128194     0.101873
Rotational constants in MHz :  8135.853259  3843.152748  3054.074278

                             ****ORCA TERMINATED NORMALLY****
TOTAL RUN TIME: 0 days 0 hours 0 minutes 25 seconds 518 msec
