                         Program Version 5.0.0 -  RELEASE  -
|  1> !B3LYP D3BJ RIJCOSX def2-TZVP def2/J TightSCF
|  2> *xyz 0 1
|  3> C          0.84888        2.66797       -4.30235
|  4> C          2.09343        1.86104       -4.65684
|  5> H          2.44481        2.04157       -5.67499
|  6> H          2.90175        2.13786       -3.98034
|  7> S          1.87964        0.07859       -4.46297
|  8> O          3.20757       -0.46611       -4.42026
|  9> O          1.07506       -0.05616       -3.26876
| 10> F          1.13166       -0.31996       -5.67903
| 11> H          0.05064        2.40112       -4.96303
| 12> H          1.06043        3.71210       -4.40203
| 13> H          0.56237        2.45684       -3.29327
| 14> *
| 15>
| 16> %MaxCore 64000
| 17>
| 18> %pal nprocs 4
| 19> end
| 20>
| 21> %scf
| 22>   MaxIter 150
| 23> end
| 24>
| 25>
| 26>                          ****END OF INPUT****

CARTESIAN COORDINATES (ANGSTROEM)
---------------------------------
  C      0.848880    2.667970   -4.302350
  C      2.093430    1.861040   -4.656840
  H      2.444810    2.041570   -5.674990
  H      2.901750    2.137860   -3.980340
  S      1.879640    0.078590   -4.462970
  O      3.207570   -0.466110   -4.420260
  O      1.075060   -0.056160   -3.268760
  F      1.131660   -0.319960   -5.679030
  H      0.050640    2.401120   -4.963030
  H      1.060430    3.712100   -4.402030
  H      0.562370    2.456840   -3.293270

 Total Charge           Charge          ....    0
 Multiplicity           Mult            ....    1
 Number of Electrons    NEL             ....   58
 Basis Dimension        Dim             ....  222

ORBITAL ENERGIES
----------------

  NO   OCC          E(Eh)            E(eV)
   0   2.0000     -89.094974     -2424.3975
   1   2.0000     -24.781721      -674.3449
   2   2.0000     -19.139323      -520.8074
   3   2.0000     -19.135957      -520.7159
   4   2.0000     -10.225733      -278.2564
   5   2.0000     -10.183523      -277.1077
   6   2.0000      -8.138867      -221.4698
   7   2.0000      -6.105734      -166.1455
   8   2.0000      -6.099383      -165.9726
   9   2.0000      -6.098878      -165.9589
  10   2.0000      -1.351456       -36.7750
  11   2.0000      -1.115773       -30.3617
  12   2.0000      -1.025939       -27.9172
  13   2.0000      -0.818591       -22.2750
  14   2.0000      -0.720841       -19.6151
  15   2.0000      -0.668374       -18.1874
  16   2.0000      -0.577456       -15.7134
  17   2.0000      -0.563203       -15.3255
  18   2.0000      -0.547590       -14.9007
  19   2.0000      -0.492955       -13.4140
  20   2.0000      -0.478420       -13.0185
  21   2.0000      -0.456686       -12.4271
  22   2.0000      -0.431543       -11.7429
  23   2.0000      -0.404252       -11.0003
  24   2.0000      -0.401863       -10.9352
  25   2.0000      -0.382371       -10.4048
  26   2.0000      -0.341269        -9.2864
  27   2.0000      -0.332290        -9.0421
  28   2.0000      -0.322213        -8.7679
  29   0.0000       0.013479         0.3668
  30   0.0000       0.042651         1.1606
  31   0.0000       0.055853         1.5198
  32   0.0000       0.068165         1.8549
  33   0.0000       0.080348         2.1864

MULLIKEN ATOMIC CHARGES
-----------------------
   0 C :   -0.317638
   1 C :   -0.238490
   2 H :    0.128129
   3 H :    0.143575
   4 S :    0.881332
   5 O :   -0.409792
   6 O :   -0.424935
   7 F :   -0.137227
   8 H :    0.112708
   9 H :    0.117719
  10 H :    0.144620
Sum of atomic charges:    0.0000000

LOEWDIN ATOMIC CHARGES
----------------------
   0 C :   -0.311412
   1 C :   -0.388840
   2 H :    0.132224
   3 H :    0.145306
   4 S :    0.541494
   5 O :   -0.260269
   6 O :   -0.268667
   7 F :    0.045937
   8 H :    0.117927
   9 H :    0.121239
  10 H :    0.125061

  Mayer bond orders larger than 0.100000
B(  0-C ,  1-C ) :   0.9533 B(  0-C ,  8-H ) :   0.9725 B(  0-C ,  9-H ) :   0.9602
B(  0-C , 10-H ) :   0.9673 B(  1-C ,  2-H ) :   0.9474 B(  1-C ,  3-H ) :   0.9448
B(  1-C ,  4-S ) :   0.9075 B(  4-S ,  5-O ) :   1.9476 B(  4-S ,  6-O ) :   1.8993
B(  4-S ,  7-F ) :   1.0876

Dispersion correction           -0.015980707
FINAL SINGLE POINT ENERGY      -727.654669252204

DIPOLE MOMENT
-------------
                                X             Y             Z
Electronic contribution:      0.64987      -9.11170      -2.04690
Nuclear contribution   :     -0.92438      10.38956       1.27076
                        -----------------------------------------
Total Dipole Moment    :     -0.27451       1.27786      -0.77614
                        -----------------------------------------
Magnitude (a.u.)       :      1.52009
Magnitude (Debye)      :      3.86377

Rotational constants in cm-1:     0.154243     0.082247     0.080562
Rotational constants in MHz :  4624.087322  2465.703680  2415.175852

                             ****ORCA TERMINATED NORMALLY****
TOTAL RUN TIME: 0 days 0 hours 0 minutes 27 seconds 870 msec
