                         Program Version 5.0.0 -  RELEASE  -
|  1> !B3LYP D3BJ RIJCOSX def2-TZVP def2/J TightSCF xyzfile
|  2>
|  3> *xyzfile 0 1 D2.xyz
|  4>
|  5> %MaxCore 64000
|  6>
|  7> %pal nprocs 18
|  8> end
|  9>
| 10> %scf
| 11>   MaxIter 150
| 12> end
| 13>
| 14>
| 15>                          ****END OF INPUT****

CARTESIAN COORDINATES (ANGSTROEM)
---------------------------------
  C     -0.461293    2.234686   -4.989619
  C      0.848883    2.667967   -4.302351
  C      2.093434    1.861037   -4.656845
  H      2.444814    2.041567   -5.674990
  H      2.901748    2.137864   -3.980338
  S      1.879644    0.078594   -4.462965
  C     -0.423841    2.398772   -6.474317
  N     -0.959467    3.492647   -7.007401
  C      0.145585    1.486891   -7.203987
  H      0.565371    0.696807   -6.723858
  H      0.220682    1.581768   -8.207520
  H     -1.406243    4.181507   -6.403261
  H     -0.934215    3.681601   -7.999468
  F      3.207574   -0.466111   -4.420259
  O      1.075064   -0.056160   -3.268758
  O      1.131661   -0.319960   -5.679031
  H      0.668432    2.559427   -3.232850
  H      1.034074    3.729426   -4.497081
  H     -1.288884    2.826737   -4.594997
  H     -0.651696    1.186343   -4.756552

 Total Charge           Charge          ....    0
 Multiplicity           Mult            ....    1
 Number of Electrons    NEL             ....   88
 Basis Dimension        Dim             ....  376

ORBITAL ENERGIES
----------------

  NO   OCC          E(Eh)            E(eV)
   0   2.0000     -89.098715     -2424.4993
   1   2.0000     -24.805579      -674.9941
   2   2.0000     -19.137261      -520.7514
   3   2.0000     -19.126376      -520.4552
   4   2.0000     -14.306202      -389.2916
   5   2.0000     -10.221640      -278.1450
   6   2.0000     -10.192540      -277.3531
   7   2.0000     -10.174598      -276.8649
   8   2.0000     -10.168212      -276.6911
   9   2.0000     -10.072910      -274.0978
  10   2.0000      -8.142794      -221.5767
  11   2.0000      -6.109464      -166.2470
  12   2.0000      -6.103248      -166.0778
  13   2.0000      -6.102871      -166.0676
  14   2.0000      -1.390292       -37.8318
  15   2.0000      -1.107174       -30.1277
  16   2.0000      -1.011255       -27.5176
  17   2.0000      -0.916733       -24.9456
  18   2.0000      -0.825313       -22.4579
  19   2.0000      -0.766040       -20.8450
  20   2.0000      -0.724232       -19.7074
  21   2.0000      -0.698747       -19.0139
  22   2.0000      -0.636527       -17.3208
  23   2.0000      -0.594040       -16.1646
  24   2.0000      -0.587481       -15.9862
  25   2.0000      -0.560405       -15.2494
  26   2.0000      -0.559446       -15.2233
  27   2.0000      -0.512508       -13.9461
  28   2.0000      -0.493661       -13.4332
  29   2.0000      -0.483936       -13.1686
  30   2.0000      -0.470585       -12.8053
  31   2.0000      -0.455658       -12.3991
  32   2.0000      -0.438991       -11.9455
  33   2.0000      -0.403927       -10.9914
  34   2.0000      -0.398947       -10.8559
  35   2.0000      -0.385894       -10.5007
  36   2.0000      -0.372035       -10.1236
  37   2.0000      -0.361238        -9.8298
  38   2.0000      -0.337294        -9.1782
  39   2.0000      -0.335722        -9.1355
  40   2.0000      -0.319870        -8.7041
  41   2.0000      -0.314230        -8.5506
  42   2.0000      -0.293784        -7.9943
  43   2.0000      -0.180773        -4.9191
  44   0.0000       0.019098         0.5197
  45   0.0000       0.023867         0.6495
  46   0.0000       0.045967         1.2508
  47   0.0000       0.048330         1.3151
  48   0.0000       0.062508         1.7009

MULLIKEN ATOMIC CHARGES
-----------------------
   0 C :   -0.259946
   1 C :   -0.137852
   2 C :   -0.280890
   3 H :    0.155458
   4 H :    0.129675
   5 S :    0.868954
   6 C :    0.238509
   7 N :   -0.457077
   8 C :   -0.465152
   9 H :    0.179903
  10 H :    0.068341
  11 H :    0.210002
  12 H :    0.216709
  13 F :   -0.102234
  14 O :   -0.411235
  15 O :   -0.423142
  16 H :    0.112804
  17 H :    0.105654
  18 H :    0.085637
  19 H :    0.165881
Sum of atomic charges:    0.0000000

LOEWDIN ATOMIC CHARGES
----------------------
   0 C :   -0.211545
   1 C :   -0.261519
   2 C :   -0.363789
   3 H :    0.142294
   4 H :    0.133818
   5 S :    0.545330
   6 C :   -0.374253
   7 N :   -0.014641
   8 C :   -0.260677
   9 H :    0.090883
  10 H :    0.093679
  11 H :    0.163190
  12 H :    0.165450
  13 F :    0.104039
  14 O :   -0.261566
  15 O :   -0.267389
  16 H :    0.143523
  17 H :    0.143050
  18 H :    0.135893
  19 H :    0.154230

  Mayer bond orders larger than 0.100000
B(  0-C ,  1-C ) :   0.9464 B(  0-C ,  6-C ) :   0.9216 B(  0-C , 18-H ) :   0.9752
B(  0-C , 19-H ) :   0.9947 B(  1-C ,  2-C ) :   0.9839 B(  1-C , 16-H ) :   0.9606
B(  1-C , 17-H ) :   0.9447 B(  2-C ,  3-H ) :   0.9303 B(  2-C ,  4-H ) :   0.9408
B(  2-C ,  5-S ) :   0.9288 B(  5-S , 13-F ) :   1.1397 B(  5-S , 14-O ) :   1.8980
B(  5-S , 15-O ) :   1.8049 B(  6-C ,  7-N ) :   1.1154 B(  6-C ,  8-C ) :   1.7398
B(  7-N , 11-H ) :   0.9275 B(  7-N , 12-H ) :   0.9237 B(  8-C ,  9-H ) :   0.9615
B(  8-C , 10-H ) :   0.9922

Dispersion correction           -0.038748752
FINAL SINGLE POINT ENERGY      -899.636160810568

DIPOLE MOMENT
-------------
                                X             Y             Z
Electronic contribution:      9.24261     -12.45144       5.39080
Nuclear contribution   :     -8.42493      13.96425      -5.19491
                        -----------------------------------------
Total Dipole Moment    :      0.81767       1.51281       0.19589
                        -----------------------------------------
Magnitude (a.u.)       :      1.73077
Magnitude (Debye)      :      4.39927

Rotational constants in cm-1:     0.082815     0.024151     0.022015
Rotational constants in MHz :  2482.732265   724.035221   660.002136

                             ****ORCA TERMINATED NORMALLY****
TOTAL RUN TIME: 0 days 0 hours 0 minutes 33 seconds 8 msec
