                         Program Version 5.0.0 -  RELEASE  -
|  1> !B3LYP D3BJ RIJCOSX def2-TZVP def2/J TightSCF xyzfile
|  2>
|  3> *xyzfile 0 1 D6.xyz
|  4>
|  5> %MaxCore 64000
|  6>
|  7> %pal nprocs 18
|  8> end
|  9>
| 10> %scf
| 11>   MaxIter 150
| 12> end
| 13>
| 14>
| 15>                          ****END OF INPUT****

CARTESIAN COORDINATES (ANGSTROEM)
---------------------------------
  C     -0.461293    2.234686   -4.989619
  C      0.848883    2.667967   -4.302351
  C      2.093434    1.861037   -4.656845
  H      2.444814    2.041567   -5.674990
  H      2.901748    2.137864   -3.980338
  S      1.879644    0.078594   -4.462965
  C     -0.423841    2.398772   -6.474317
  N     -0.959467    3.492647   -7.007401
  C      0.145585    1.486891   -7.203987
  H      0.565371    0.696807   -6.723858
  H      0.220682    1.581768   -8.207520
  H     -1.406243    4.181507   -6.403261
  H     -0.934215    3.681601   -7.999468
  O      3.207574   -0.466111   -4.420259
  O      1.075064   -0.056160   -3.268758
  F      1.131661   -0.319960   -5.679031
  H      0.668432    2.559427   -3.232850
  H      1.034074    3.729426   -4.497081
  H     -1.288884    2.826737   -4.594997
  H     -0.651696    1.186343   -4.756552

 Total Charge           Charge          ....    0
 Multiplicity           Mult            ....    1
 Number of Electrons    NEL             ....   88
 Basis Dimension        Dim             ....  376

ORBITAL ENERGIES
----------------

  NO   OCC          E(Eh)            E(eV)
   0   2.0000     -89.093627     -2424.3608
   1   2.0000     -24.781253      -674.3322
   2   2.0000     -19.137710      -520.7636
   3   2.0000     -19.134945      -520.6883
   4   2.0000     -14.322769      -389.7424
   5   2.0000     -10.219169      -278.0777
   6   2.0000     -10.195092      -277.4226
   7   2.0000     -10.194262      -277.4000
   8   2.0000     -10.182584      -277.0822
   9   2.0000     -10.099181      -274.8127
  10   2.0000      -8.137741      -221.4392
  11   2.0000      -6.104687      -166.1170
  12   2.0000      -6.098192      -165.9402
  13   2.0000      -6.097652      -165.9255
  14   2.0000      -1.356842       -36.9215
  15   2.0000      -1.115350       -30.3502
  16   2.0000      -1.024984       -27.8912
  17   2.0000      -0.933572       -25.4038
  18   2.0000      -0.830096       -22.5881
  19   2.0000      -0.770646       -20.9703
  20   2.0000      -0.722981       -19.6733
  21   2.0000      -0.711282       -19.3550
  22   2.0000      -0.637279       -17.3412
  23   2.0000      -0.600239       -16.3333
  24   2.0000      -0.568235       -15.4625
  25   2.0000      -0.557631       -15.1739
  26   2.0000      -0.548001       -14.9119
  27   2.0000      -0.531133       -14.4529
  28   2.0000      -0.498374       -13.5614
  29   2.0000      -0.486726       -13.2445
  30   2.0000      -0.469292       -12.7701
  31   2.0000      -0.456228       -12.4146
  32   2.0000      -0.448237       -12.1972
  33   2.0000      -0.411374       -11.1941
  34   2.0000      -0.403003       -10.9663
  35   2.0000      -0.394127       -10.7247
  36   2.0000      -0.381306       -10.3759
  37   2.0000      -0.373605       -10.1663
  38   2.0000      -0.346437        -9.4270
  39   2.0000      -0.341445        -9.2912
  40   2.0000      -0.336155        -9.1472
  41   2.0000      -0.326854        -8.8941
  42   2.0000      -0.320879        -8.7316
  43   2.0000      -0.201077        -5.4716
  44   0.0000       0.012798         0.3482
  45   0.0000       0.026317         0.7161
  46   0.0000       0.036733         0.9996
  47   0.0000       0.047939         1.3045
  48   0.0000       0.057276         1.5586

MULLIKEN ATOMIC CHARGES
-----------------------
   0 C :   -0.283822
   1 C :   -0.113748
   2 C :   -0.304273
   3 H :    0.156728
   4 H :    0.150442
   5 S :    0.883414
   6 C :    0.268168
   7 N :   -0.450529
   8 C :   -0.458862
   9 H :    0.123967
  10 H :    0.081124
  11 H :    0.217067
  12 H :    0.220998
  13 O :   -0.417743
  14 O :   -0.422237
  15 F :   -0.116909
  16 H :    0.118574
  17 H :    0.101751
  18 H :    0.094220
  19 H :    0.151672
Sum of atomic charges:   -0.0000000

LOEWDIN ATOMIC CHARGES
----------------------
   0 C :   -0.213522
   1 C :   -0.267343
   2 C :   -0.359104
   3 H :    0.139841
   4 H :    0.147182
   5 S :    0.552649
   6 C :   -0.366960
   7 N :   -0.004669
   8 C :   -0.273740
   9 H :    0.089175
  10 H :    0.097480
  11 H :    0.167317
  12 H :    0.168092
  13 O :   -0.257975
  14 O :   -0.265360
  15 F :    0.074027
  16 H :    0.144948
  17 H :    0.140951
  18 H :    0.138937
  19 H :    0.148076

  Mayer bond orders larger than 0.100000
B(  0-C ,  1-C ) :   0.9367 B(  0-C ,  6-C ) :   0.9114 B(  0-C , 18-H ) :   0.9764
B(  0-C , 19-H ) :   1.0023 B(  1-C ,  2-C ) :   0.9663 B(  1-C , 16-H ) :   0.9601
B(  1-C , 17-H ) :   0.9423 B(  2-C ,  3-H ) :   0.9388 B(  2-C ,  4-H ) :   0.9471
B(  2-C ,  5-S ) :   0.9173 B(  5-S , 13-O ) :   1.9564 B(  5-S , 14-O ) :   1.8839
B(  5-S , 15-F ) :   1.0600 B(  6-C ,  7-N ) :   1.1408 B(  6-C ,  8-C ) :   1.7176
B(  7-N , 11-H ) :   0.9246 B(  7-N , 12-H ) :   0.9224 B(  8-C ,  9-H ) :   1.0026
B(  8-C , 10-H ) :   0.9895

Dispersion correction           -0.038311049
FINAL SINGLE POINT ENERGY      -899.655464146299

DIPOLE MOMENT
-------------
                                X             Y             Z
Electronic contribution:      5.53464     -11.97253       3.16882
Nuclear contribution   :     -6.15577      13.80449      -3.81895
                        -----------------------------------------
Total Dipole Moment    :     -0.62112       1.83197      -0.65013
                        -----------------------------------------
Magnitude (a.u.)       :      2.04073
Magnitude (Debye)      :      5.18711

Rotational constants in cm-1:     0.081431     0.024887     0.022470
Rotational constants in MHz :  2441.231544   746.086417   673.646914

                             ****ORCA TERMINATED NORMALLY****
TOTAL RUN TIME: 0 days 0 hours 0 minutes 27 seconds 532 msec
