                         Program Version 5.0.0 -  RELEASE  -
|  1> !LC-PBE RIJCOSX def2-SVP def2/J TightSCF
|  2> *xyz -1 1
|  3> C         -0.77894        0.17197        1.80496
|  4> C         -0.60249       -0.63071        0.49224
|  5> H          0.31389       -1.24035        0.60350
|  6> H         -0.36383        0.11332       -0.30117
|  7> O         -1.71206       -1.37684        0.20253
|  8> H         -1.65864        0.77733        1.73736
|  9> H          0.07466        0.79896        1.95712
| 10> H         -0.87474       -0.50584        2.62734
| 11> *
| 12> %MaxCore 64000
| 13>
| 14> %pal nprocs 4
| 15> end
| 16>
| 17> %scf
| 18>   MaxIter 150
| 19> end
| 20>
| 21>
| 22>                          ****END OF INPUT****

CARTESIAN COORDINATES (ANGSTROEM)
---------------------------------
  C     -0.778940    0.171970    1.804960
  C     -0.602490   -0.630710    0.492240
  H      0.313890   -1.240350    0.603500
  H     -0.363830    0.113320   -0.301170
  O     -1.712060   -1.376840    0.202530
  H     -1.658640    0.777330    1.737360
  H      0.074660    0.798960    1.957120
  H     -0.874740   -0.505840    2.627340

 Total Charge           Charge          ....   -1
 Multiplicity           Mult            ....    1
 Number of Electrons    NEL             ....   26
 Basis Dimension        Dim             ....   67

ORBITAL ENERGIES
----------------

  NO   OCC          E(Eh)            E(eV)
   0   2.0000     -18.586843      -505.7737
   1   2.0000      -9.914986      -269.8005
   2   2.0000      -9.901523      -269.4341
   3   2.0000      -0.793094       -21.5812
   4   2.0000      -0.666174       -18.1275
   5   2.0000      -0.502352       -13.6697
   6   2.0000      -0.377848       -10.2818
   7   2.0000      -0.349562        -9.5121
   8   2.0000      -0.289277        -7.8716
   9   2.0000      -0.271163        -7.3787
  10   2.0000      -0.200204        -5.4478
  11   2.0000      -0.046580        -1.2675
  12   2.0000      -0.044791        -1.2188
  13   0.0000       0.342820         9.3286
  14   0.0000       0.389516        10.5993
  15   0.0000       0.402076        10.9411
  16   0.0000       0.410877        11.1805
  17   0.0000       0.454407        12.3650

MULLIKEN ATOMIC CHARGES
-----------------------
   0 C :   -0.111772
   1 C :    0.155320
   2 H :   -0.122453
   3 H :   -0.125884
   4 O :   -0.721813
   5 H :   -0.005907
   6 H :   -0.059518
   7 H :   -0.007973
Sum of atomic charges:   -1.0000000

LOEWDIN ATOMIC CHARGES
----------------------
   0 C :   -0.147575
   1 C :   -0.021779
   2 H :   -0.065218
   3 H :   -0.067592
   4 O :   -0.685854
   5 H :    0.003224
   6 H :   -0.017386
   7 H :    0.002180

  Mayer bond orders larger than 0.100000
B(  0-C ,  1-C ) :   0.9836 B(  0-C ,  5-H ) :   0.9720 B(  0-C ,  6-H ) :   0.9490
B(  0-C ,  7-H ) :   0.9739 B(  1-C ,  2-H ) :   0.8996 B(  1-C ,  3-H ) :   0.8987
B(  1-C ,  4-O ) :   1.4985

FINAL SINGLE POINT ENERGY      -153.803875184656

DIPOLE MOMENT
-------------
                                X             Y             Z
Electronic contribution:     -1.77174      -1.92782      -1.49025
Nuclear contribution   :      2.47835       2.80827       2.30058
                        -----------------------------------------
Total Dipole Moment    :      0.70661       0.88045       0.81033
                        -----------------------------------------
Magnitude (a.u.)       :      1.38965
Magnitude (Debye)      :      3.53221

Rotational constants in cm-1:     1.255775     0.327783     0.287473
Rotational constants in MHz : 37647.186859  9826.677683  8618.224821

                             ****ORCA TERMINATED NORMALLY****
TOTAL RUN TIME: 0 days 0 hours 0 minutes 8 seconds 97 msec
