                         Program Version 5.0.0 -  RELEASE  -
|  1> !LC-PBE RIJCOSX def2-SVP def2/J TightSCF
|  2> *xyz 1 1
|  3> C         -2.12050        0.88520        1.78951
|  4> C         -0.77894        0.17197        1.80496
|  5> H         -2.32419        1.47265        2.68608
|  6> H         -2.18770        1.54127        0.91948
|  7> N         -3.17690       -0.15948        1.61070
|  8> H         -4.06474        0.23127        1.28675
|  9> H         -3.34407       -0.67151        2.48493
| 10> H         -2.71686       -0.78189        0.93588
| 11> H         -0.65708       -0.37837        0.89547
| 12> H         -0.74207       -0.50050        2.63642
| 13> H          0.00707        0.89251        1.89389
| 14> *
| 15> %MaxCore 64000
| 16>
| 17> %pal nprocs 4
| 18> end
| 19>
| 20> %scf
| 21>   MaxIter 150
| 22> end
| 23>
| 24>
| 25>                          ****END OF INPUT****

CARTESIAN COORDINATES (ANGSTROEM)
---------------------------------
  C     -2.120500    0.885200    1.789510
  C     -0.778940    0.171970    1.804960
  H     -2.324190    1.472650    2.686080
  H     -2.187700    1.541270    0.919480
  N     -3.176900   -0.159480    1.610700
  H     -4.064740    0.231270    1.286750
  H     -3.344070   -0.671510    2.484930
  H     -2.716860   -0.781890    0.935880
  H     -0.657080   -0.378370    0.895470
  H     -0.742070   -0.500500    2.636420
  H      0.007070    0.892510    1.893890

 Total Charge           Charge          ....    1
 Multiplicity           Mult            ....    1
 Number of Electrons    NEL             ....   26
 Basis Dimension        Dim             ....   82

ORBITAL ENERGIES
----------------

  NO   OCC          E(Eh)            E(eV)
   0   2.0000     -14.565280      -396.3414
   1   2.0000     -10.382608      -282.5251
   2   2.0000     -10.305338      -280.4225
   3   2.0000      -1.385975       -37.7143
   4   2.0000      -1.136607       -30.9286
   5   2.0000      -1.004742       -27.3404
   6   2.0000      -0.955836       -26.0096
   7   2.0000      -0.944162       -25.6920
   8   2.0000      -0.836175       -22.7535
   9   2.0000      -0.786506       -21.4019
  10   2.0000      -0.720384       -19.6027
  11   2.0000      -0.711141       -19.3511
  12   2.0000      -0.686509       -18.6809
  13   0.0000      -0.084190        -2.2909
  14   0.0000      -0.025151        -0.6844
  15   0.0000      -0.022712        -0.6180
  16   0.0000       0.006949         0.1891
  17   0.0000       0.045858         1.2479

MULLIKEN ATOMIC CHARGES
-----------------------
   0 C :   -0.138884
   1 C :   -0.194421
   2 H :    0.158340
   3 H :    0.152706
   4 N :   -0.075286
   5 H :    0.249890
   6 H :    0.245814
   7 H :    0.240057
   8 H :    0.105104
   9 H :    0.110379
  10 H :    0.146300
Sum of atomic charges:    1.0000000

LOEWDIN ATOMIC CHARGES
----------------------
   0 C :    0.029626
   1 C :   -0.081058
   2 H :    0.068006
   3 H :    0.067449
   4 N :    0.275978
   5 H :    0.154429
   6 H :    0.154761
   7 H :    0.151615
   8 H :    0.050008
   9 H :    0.052467
  10 H :    0.076720

  Mayer bond orders larger than 0.100000
B(  0-C ,  1-C ) :   1.0619 B(  0-C ,  2-H ) :   0.9505 B(  0-C ,  3-H ) :   0.9521
B(  0-C ,  4-N ) :   0.9074 B(  1-C ,  8-H ) :   0.9636 B(  1-C ,  9-H ) :   0.9717
B(  1-C , 10-H ) :   0.9566 B(  4-N ,  5-H ) :   0.9211 B(  4-N ,  6-H ) :   0.9249
B(  4-N ,  7-H ) :   0.9259

FINAL SINGLE POINT ENERGY      -134.981259586375

DIPOLE MOMENT
-------------
                                X             Y             Z
Electronic contribution:     -1.89631      -0.18570      -0.06998
Nuclear contribution   :      0.50278      -0.30871      -0.06979
                        -----------------------------------------
Total Dipole Moment    :     -1.39352      -0.49441      -0.13977
                        -----------------------------------------
Magnitude (a.u.)       :      1.48522
Magnitude (Debye)      :      3.77514

Rotational constants in cm-1:     0.963746     0.295157     0.256910
Rotational constants in MHz : 28892.375247  8848.576767  7701.963879

                             ****ORCA TERMINATED NORMALLY****
TOTAL RUN TIME: 0 days 0 hours 0 minutes 9 seconds 829 msec
