                         Program Version 5.0.0 -  RELEASE  -
|  1> !LC-PBE RIJCOSX def2-SVP def2/J TightSCF
|  2> *xyz 0 1
|  3> C         -0.77894        0.17197        1.80496
|  4> C         -0.60249       -0.63071        0.49224
|  5> H          0.31389       -1.24035        0.60350
|  6> H         -0.36383        0.11332       -0.30117
|  7> F         -1.71206       -1.37684        0.20253
|  8> H         -1.65864        0.77733        1.73736
|  9> H          0.07466        0.79896        1.95712
| 10> H         -0.87474       -0.50584        2.62734
| 11> *
| 12> %MaxCore 64000
| 13>
| 14> %pal nprocs 4
| 15> end
| 16>
| 17> %scf
| 18>   MaxIter 150
| 19> end
| 20>
| 21>
| 22>                          ****END OF INPUT****

CARTESIAN COORDINATES (ANGSTROEM)
---------------------------------
  C     -0.778940    0.171970    1.804960
  C     -0.602490   -0.630710    0.492240
  H      0.313890   -1.240350    0.603500
  H     -0.363830    0.113320   -0.301170
  F     -1.712060   -1.376840    0.202530
  H     -1.658640    0.777330    1.737360
  H      0.074660    0.798960    1.957120
  H     -0.874740   -0.505840    2.627340

 Total Charge           Charge          ....    0
 Multiplicity           Mult            ....    1
 Number of Electrons    NEL             ....   26
 Basis Dimension        Dim             ....   67

ORBITAL ENERGIES
----------------

  NO   OCC          E(Eh)            E(eV)
   0   2.0000     -24.471551      -665.9048
   1   2.0000     -10.201658      -277.6012
   2   2.0000     -10.119230      -275.3583
   3   2.0000      -1.325047       -36.0564
   4   2.0000      -0.928284       -25.2599
   5   2.0000      -0.783353       -21.3161
   6   2.0000      -0.648419       -17.6444
   7   2.0000      -0.641937       -17.4680
   8   2.0000      -0.597253       -16.2521
   9   2.0000      -0.539067       -14.6688
  10   2.0000      -0.533709       -14.5230
  11   2.0000      -0.461115       -12.5476
  12   2.0000      -0.456660       -12.4264
  13   0.0000       0.156914         4.2698
  14   0.0000       0.204490         5.5645
  15   0.0000       0.211327         5.7505
  16   0.0000       0.230919         6.2836
  17   0.0000       0.249705         6.7948

MULLIKEN ATOMIC CHARGES
-----------------------
   0 C :   -0.198005
   1 C :    0.119211
   2 H :    0.055944
   3 H :    0.055861
   4 F :   -0.249320
   5 H :    0.076997
   6 H :    0.063995
   7 H :    0.075316
Sum of atomic charges:    0.0000000

LOEWDIN ATOMIC CHARGES
----------------------
   0 C :   -0.111498
   1 C :    0.076302
   2 H :    0.022704
   3 H :    0.023412
   4 F :   -0.127489
   5 H :    0.038612
   6 H :    0.040705
   7 H :    0.037251

  Mayer bond orders larger than 0.100000
B(  0-C ,  1-C ) :   1.0654 B(  0-C ,  5-H ) :   0.9738 B(  0-C ,  6-H ) :   0.9668
B(  0-C ,  7-H ) :   0.9752 B(  1-C ,  2-H ) :   0.9624 B(  1-C ,  3-H ) :   0.9633
B(  1-C ,  4-F ) :   1.0177

FINAL SINGLE POINT ENERGY      -178.421638168856

DIPOLE MOMENT
-------------
                                X             Y             Z
Electronic contribution:     -2.72430      -3.29538      -2.83740
Nuclear contribution   :      3.27800       3.70743       3.04146
                        -----------------------------------------
Total Dipole Moment    :      0.55371       0.41205       0.20405
                        -----------------------------------------
Magnitude (a.u.)       :      0.71973
Magnitude (Debye)      :      1.82942

Rotational constants in cm-1:     1.234437     0.305084     0.268865
Rotational constants in MHz : 37007.496448  9146.194083  8060.380630

                             ****ORCA TERMINATED NORMALLY****
TOTAL RUN TIME: 0 days 0 hours 0 minutes 8 seconds 44 msec
