                         Program Version 5.0.0 -  RELEASE  -
|  1> !LC-PBE RIJCOSX def2-SVP def2/J TightSCF
|  2> *xyz 0 1
|  3> C         -2.12050        0.88520        1.78951
|  4> C         -0.77894        0.17197        1.80496
|  5> H         -2.32419        1.47265        2.68608
|  6> H         -2.18770        1.54127        0.91948
|  7> C         -3.17690       -0.15948        1.61070
|  8> H         -4.06474        0.23127        1.28675
|  9> H         -3.34407       -0.67151        2.48493
| 10> H         -2.71686       -0.78189        0.93588
| 11> H         -0.65708       -0.37837        0.89547
| 12> H         -0.74207       -0.50050        2.63642
| 13> H          0.00707        0.89251        1.89389
| 14> *
| 15> %MaxCore 64000
| 16>
| 17> %pal nprocs 4
| 18> end
| 19>
| 20> %scf
| 21>   MaxIter 150
| 22> end
| 23>
| 24>
| 25>                          ****END OF INPUT****

CARTESIAN COORDINATES (ANGSTROEM)
---------------------------------
  C     -2.120500    0.885200    1.789510
  C     -0.778940    0.171970    1.804960
  H     -2.324190    1.472650    2.686080
  H     -2.187700    1.541270    0.919480
  C     -3.176900   -0.159480    1.610700
  H     -4.064740    0.231270    1.286750
  H     -3.344070   -0.671510    2.484930
  H     -2.716860   -0.781890    0.935880
  H     -0.657080   -0.378370    0.895470
  H     -0.742070   -0.500500    2.636420
  H      0.007070    0.892510    1.893890

 Total Charge           Charge          ....    0
 Multiplicity           Mult            ....    1
 Number of Electrons    NEL             ....   26
 Basis Dimension        Dim             ....   82

ORBITAL ENERGIES
----------------

  NO   OCC          E(Eh)            E(eV)
   0   2.0000     -10.111798      -275.1560
   1   2.0000     -10.103967      -274.9429
   2   2.0000     -10.085346      -274.4362
   3   2.0000      -0.969484       -26.3810
   4   2.0000      -0.848056       -23.0768
   5   2.0000      -0.739494       -20.1227
   6   2.0000      -0.618955       -16.8426
   7   2.0000      -0.597550       -16.2602
   8   2.0000      -0.537236       -14.6189
   9   2.0000      -0.519014       -14.1231
  10   2.0000      -0.469737       -12.7822
  11   2.0000      -0.461192       -12.5497
  12   2.0000      -0.454260       -12.3610
  13   0.0000       0.157387         4.2827
  14   0.0000       0.204435         5.5630
  15   0.0000       0.206488         5.6188
  16   0.0000       0.214002         5.8233
  17   0.0000       0.239989         6.5304

MULLIKEN ATOMIC CHARGES
-----------------------
   0 C :   -0.196816
   1 C :   -0.145651
   2 H :    0.061026
   3 H :    0.059515
   4 C :   -0.067205
   5 H :    0.042046
   6 H :    0.040103
   7 H :    0.029925
   8 H :    0.059496
   9 H :    0.058543
  10 H :    0.059017
Sum of atomic charges:   -0.0000000

LOEWDIN ATOMIC CHARGES
----------------------
   0 C :   -0.067143
   1 C :   -0.089108
   2 H :    0.029963
   3 H :    0.032169
   4 C :   -0.075908
   5 H :    0.023233
   6 H :    0.024622
   7 H :    0.025386
   8 H :    0.032060
   9 H :    0.032714
  10 H :    0.032012

  Mayer bond orders larger than 0.100000
B(  0-C ,  1-C ) :   1.0726 B(  0-C ,  2-H ) :   0.9663 B(  0-C ,  3-H ) :   0.9680
B(  0-C ,  4-C ) :   1.0614 B(  1-C ,  8-H ) :   0.9758 B(  1-C ,  9-H ) :   0.9799
B(  1-C , 10-H ) :   0.9765 B(  4-C ,  5-H ) :   0.9746 B(  4-C ,  6-H ) :   0.9767
B(  4-C ,  7-H ) :   0.9803

FINAL SINGLE POINT ENERGY      -118.603485043893

DIPOLE MOMENT
-------------
                                X             Y             Z
Electronic contribution:     -0.13518       0.46054       0.10969
Nuclear contribution   :      0.13334      -0.45108      -0.10852
                        -----------------------------------------
Total Dipole Moment    :     -0.00184       0.00946       0.00117
                        -----------------------------------------
Magnitude (a.u.)       :      0.00970
Magnitude (Debye)      :      0.02467

Rotational constants in cm-1:     0.972269     0.310387     0.269029
Rotational constants in MHz : 29147.878530  9305.178981  8065.286472

                             ****ORCA TERMINATED NORMALLY****
TOTAL RUN TIME: 0 days 0 hours 0 minutes 9 seconds 579 msec
