                         Program Version 5.0.0 -  RELEASE  -
|  1> !BLYP D3BJ RIJCOSX def2-TZVP def2/J TightSCF
|  2> *xyz -1 1
|  3> C          0.70466        1.44313       -4.50363
|  4> C          1.72854        1.42432       -5.63944
|  5> H          2.64672        1.95379       -5.38105
|  6> H          1.29992        1.93061       -6.50361
|  7> S          2.25263       -0.18811       -6.27184
|  8> O          3.56261       -0.44446       -5.63155
|  9> O          2.34494       -0.03374       -7.69650
| 10> O          1.26606       -1.15918       -5.80536
| 11> H         -0.17385        0.91270       -4.80656
| 12> H          0.44778        2.45562       -4.27173
| 13> H          1.12367        0.97423       -3.63791
| 14> *
| 15>
| 16> %MaxCore 64000
| 17>
| 18> %pal nprocs 4
| 19> end
| 20>
| 21> %scf
| 22>   MaxIter 150
| 23> end
| 24>
| 25>
| 26>                          ****END OF INPUT****

CARTESIAN COORDINATES (ANGSTROEM)
---------------------------------
  C      0.704660    1.443130   -4.503630
  C      1.728540    1.424320   -5.639440
  H      2.646720    1.953790   -5.381050
  H      1.299920    1.930610   -6.503610
  S      2.252630   -0.188110   -6.271840
  O      3.562610   -0.444460   -5.631550
  O      2.344940   -0.033740   -7.696500
  O      1.266060   -1.159180   -5.805360
  H     -0.173850    0.912700   -4.806560
  H      0.447780    2.455620   -4.271730
  H      1.123670    0.974230   -3.637910

 Total Charge           Charge          ....   -1
 Multiplicity           Mult            ....    1
 Number of Electrons    NEL             ....   58
 Basis Dimension        Dim             ....  222

ORBITAL ENERGIES
----------------

  NO   OCC          E(Eh)            E(eV)
   0   2.0000     -88.069411     -2396.4905
   1   2.0000     -18.542849      -504.5766
   2   2.0000     -18.536613      -504.4069
   3   2.0000     -18.527098      -504.1480
   4   2.0000      -9.757059      -265.5031
   5   2.0000      -9.756635      -265.4915
   6   2.0000      -7.600022      -206.8071
   7   2.0000      -5.628708      -153.1649
   8   2.0000      -5.627703      -153.1376
   9   2.0000      -5.627443      -153.1305
  10   2.0000      -0.815538       -22.1919
  11   2.0000      -0.690692       -18.7947
  12   2.0000      -0.668385       -18.1877
  13   2.0000      -0.547463       -14.8972
  14   2.0000      -0.431669       -11.7463
  15   2.0000      -0.310379        -8.4458
  16   2.0000      -0.260016        -7.0754
  17   2.0000      -0.248238        -6.7549
  18   2.0000      -0.214016        -5.8237
  19   2.0000      -0.195365        -5.3161
  20   2.0000      -0.191911        -5.2222
  21   2.0000      -0.171684        -4.6718
  22   2.0000      -0.165360        -4.4997
  23   2.0000      -0.089563        -2.4371
  24   2.0000      -0.087338        -2.3766
  25   2.0000      -0.058964        -1.6045
  26   2.0000      -0.053510        -1.4561
  27   2.0000      -0.040158        -1.0928
  28   2.0000      -0.005132        -0.1397
  29   0.0000       0.152224         4.1422
  30   0.0000       0.198388         5.3984
  31   0.0000       0.209457         5.6996
  32   0.0000       0.215285         5.8582
  33   0.0000       0.236445         6.4340

MULLIKEN ATOMIC CHARGES
-----------------------
   0 C :   -0.258713
   1 C :   -0.211507
   2 H :    0.064383
   3 H :    0.058981
   4 S :    0.739853
   5 O :   -0.561578
   6 O :   -0.509313
   7 O :   -0.534450
   8 H :    0.088593
   9 H :    0.045109
  10 H :    0.078640
Sum of atomic charges:   -1.0000000

LOEWDIN ATOMIC CHARGES
----------------------
   0 C :   -0.338925
   1 C :   -0.429499
   2 H :    0.113058
   3 H :    0.112110
   4 S :    0.383877
   5 O :   -0.416053
   6 O :   -0.356509
   7 O :   -0.380565
   8 H :    0.109417
   9 H :    0.094718
  10 H :    0.108373

  Mayer bond orders larger than 0.100000
B(  0-C ,  1-C ) :   0.9396 B(  0-C ,  8-H ) :   0.9731 B(  0-C ,  9-H ) :   0.9536
B(  0-C , 10-H ) :   0.9756 B(  1-C ,  2-H ) :   0.9593 B(  1-C ,  3-H ) :   0.9522
B(  1-C ,  4-S ) :   0.8583 B(  4-S ,  5-O ) :   1.7833 B(  4-S ,  6-O ) :   1.8354
B(  4-S ,  7-O ) :   1.7873

Dispersion correction           -0.020270714
FINAL SINGLE POINT ENERGY      -703.237685434756

DIPOLE MOMENT
-------------
                                X             Y             Z
Electronic contribution:      3.72417      -5.76514      -4.37178
Nuclear contribution   :     -4.50297       7.24642       5.01775
                        -----------------------------------------
Total Dipole Moment    :     -0.77880       1.48128       0.64597
                        -----------------------------------------
Magnitude (a.u.)       :      1.79388
Magnitude (Debye)      :      4.55968

Rotational constants in cm-1:     0.162459     0.081286     0.079601
Rotational constants in MHz :  4870.394399  2436.893583  2386.374948

                             ****ORCA TERMINATED NORMALLY****
TOTAL RUN TIME: 0 days 0 hours 0 minutes 10 seconds 821 msec
