                         Program Version 5.0.0 -  RELEASE  -
|  1> !BLYP D3BJ RIJCOSX def2-TZVP def2/J TightSCF
|  2> *xyz 1 1
|  3> C          2.91632       -1.24259       -1.54313
|  4> C          3.46659       -1.59097       -2.88908
|  5> N          4.65227       -1.14316       -3.25969
|  6> N          2.75226       -2.29204       -3.72803
|  7> H          1.77836       -2.48960       -3.51274
|  8> H          2.94861       -2.20854       -4.71681
|  9> H          5.14672       -0.51251       -2.63385
| 10> H          4.78303       -1.00720       -4.25350
| 11> C          2.80408        0.29070       -1.35924
| 12> H          1.94047       -1.71653       -1.44116
| 13> H          3.55857       -1.66343       -0.76637
| 14> H          2.17393        0.69633       -2.12297
| 15> H          3.77707        0.73043       -1.42880
| 16> H          2.38369        0.50492       -0.39889
| 17> *
| 18>
| 19> %MaxCore 64000
| 20>
| 21> %pal nprocs 4
| 22> end
| 23>
| 24> %scf
| 25>   MaxIter 150
| 26> end
| 27>
| 28>
| 29>                          ****END OF INPUT****

CARTESIAN COORDINATES (ANGSTROEM)
---------------------------------
  C      2.916320   -1.242590   -1.543130
  C      3.466590   -1.590970   -2.889080
  N      4.652270   -1.143160   -3.259690
  N      2.752260   -2.292040   -3.728030
  H      1.778360   -2.489600   -3.512740
  H      2.948610   -2.208540   -4.716810
  H      5.146720   -0.512510   -2.633850
  H      4.783030   -1.007200   -4.253500
  C      2.804080    0.290700   -1.359240
  H      1.940470   -1.716530   -1.441160
  H      3.558570   -1.663430   -0.766370
  H      2.173930    0.696330   -2.122970
  H      3.777070    0.730430   -1.428800
  H      2.383690    0.504920   -0.398890

 Total Charge           Charge          ....    1
 Multiplicity           Mult            ....    1
 Number of Electrons    NEL             ....   40
 Basis Dimension        Dim             ....  209

ORBITAL ENERGIES
----------------

  NO   OCC          E(Eh)            E(eV)
   0   2.0000     -14.252837      -387.8394
   1   2.0000     -14.247812      -387.7027
   2   2.0000     -10.219537      -278.0877
   3   2.0000     -10.105616      -274.9878
   4   2.0000     -10.065970      -273.9090
   5   2.0000      -1.119679       -30.4680
   6   2.0000      -1.028261       -27.9804
   7   2.0000      -0.892696       -24.2915
   8   2.0000      -0.796657       -21.6781
   9   2.0000      -0.753954       -20.5161
  10   2.0000      -0.712619       -19.3913
  11   2.0000      -0.694949       -18.9105
  12   2.0000      -0.647687       -17.6245
  13   2.0000      -0.610903       -16.6235
  14   2.0000      -0.575125       -15.6500
  15   2.0000      -0.550691       -14.9851
  16   2.0000      -0.507690       -13.8149
  17   2.0000      -0.498105       -13.5541
  18   2.0000      -0.486306       -13.2331
  19   2.0000      -0.455666       -12.3993
  20   0.0000      -0.250182        -6.8078
  21   0.0000      -0.185395        -5.0448
  22   0.0000      -0.142851        -3.8872
  23   0.0000      -0.140757        -3.8302
  24   0.0000      -0.106505        -2.8982

MULLIKEN ATOMIC CHARGES
-----------------------
   0 C :   -0.205175
   1 C :    0.288545
   2 N :   -0.266703
   3 N :   -0.262815
   4 H :    0.277434
   5 H :    0.253305
   6 H :    0.273982
   7 H :    0.254675
   8 C :   -0.301067
   9 H :    0.121623
  10 H :    0.166432
  11 H :    0.130541
  12 H :    0.107466
  13 H :    0.161756
Sum of atomic charges:    1.0000000

LOEWDIN ATOMIC CHARGES
----------------------
   0 C :   -0.209308
   1 C :   -0.303998
   2 N :    0.120557
   3 N :    0.132742
   4 H :    0.206722
   5 H :    0.195834
   6 H :    0.204094
   7 H :    0.196640
   8 C :   -0.249576
   9 H :    0.154947
  10 H :    0.168450
  11 H :    0.126682
  12 H :    0.118044
  13 H :    0.138171

  Mayer bond orders larger than 0.100000
B(  0-C ,  1-C ) :   0.9832 B(  0-C ,  8-C ) :   0.9332 B(  0-C ,  9-H ) :   0.9617
B(  0-C , 10-H ) :   0.9363 B(  1-C ,  2-N ) :   1.4048 B(  1-C ,  3-N ) :   1.4581
B(  2-N ,  6-H ) :   0.8985 B(  2-N ,  7-H ) :   0.8986 B(  3-N ,  4-H ) :   0.8910
B(  3-N ,  5-H ) :   0.8992 B(  8-C , 11-H ) :   0.9619 B(  8-C , 12-H ) :   0.9669
B(  8-C , 13-H ) :   0.9614

Dispersion correction           -0.020755680
FINAL SINGLE POINT ENERGY      -229.026100189255

DIPOLE MOMENT
-------------
                                X             Y             Z
Electronic contribution:      1.31857      -2.85175      -2.78311
Nuclear contribution   :     -1.30215       2.77761       1.84194
                        -----------------------------------------
Total Dipole Moment    :      0.01642      -0.07415      -0.94118
                        -----------------------------------------
Magnitude (a.u.)       :      0.94424
Magnitude (Debye)      :      2.40006

Rotational constants in cm-1:     0.267442     0.127541     0.099068
Rotational constants in MHz :  8017.703171  3823.592522  2969.992494

                             ****ORCA TERMINATED NORMALLY****
TOTAL RUN TIME: 0 days 0 hours 0 minutes 11 seconds 671 msec
