                         Program Version 5.0.0 -  RELEASE  -
|  1> !BLYP D3BJ RIJCOSX def2-TZVP def2/J TightSCF xyzfile
|  2>
|  3> *xyzfile 0 1 B.xyz
|  4>
|  5> %MaxCore 64000
|  6>
|  7> %pal nprocs 18
|  8> end
|  9>
| 10> %scf
| 11>   MaxIter 150
| 12> end
| 13>
| 14>
| 15>                          ****END OF INPUT****

CARTESIAN COORDINATES (ANGSTROEM)
---------------------------------
  C      2.916324   -1.242589   -1.543125
  C      0.704661    1.443129   -4.503630
  C      1.728539    1.424320   -5.639443
  H      2.646718    1.953794   -5.381054
  H      1.299916    1.930613   -6.503614
  S      2.252625   -0.188115   -6.271840
  C      3.466585   -1.590971   -2.889082
  N      4.652275   -1.143164   -3.259692
  N      2.752264   -2.292043   -3.728029
  H      1.778364   -2.489604   -3.512738
  H      2.948612   -2.208544   -4.716813
  H      5.146723   -0.512508   -2.633852
  H      4.783030   -1.007203   -4.253498
  O      3.562607   -0.444464   -5.631552
  O      2.344944   -0.033742   -7.696501
  C      2.804084    0.290698   -1.359243
  C      1.052550    0.695659   -3.214915
  H     -0.232483    1.032925   -4.884449
  H      0.511700    2.495794   -4.267966
  C      2.388380    1.093669   -2.597108
  H      3.763425    0.674718   -0.999889
  H      2.094788    0.461222   -0.545756
  O      1.266058   -1.159177   -5.805365
  H      3.167316    1.013242   -3.359430
  H      2.357690    2.149375   -2.310997
  H      1.039284   -0.368429   -3.449329
  H      0.250787    0.865605   -2.488283
  H      1.940472   -1.716529   -1.441161
  H      3.558569   -1.663433   -0.766371

 Total Charge           Charge          ....    0
 Multiplicity           Mult            ....    1
 Number of Electrons    NEL             ....  112
 Basis Dimension        Dim             ....  505

ORBITAL ENERGIES
----------------

  NO   OCC          E(Eh)            E(eV)
   0   2.0000     -88.230118     -2400.8636
   1   2.0000     -18.707614      -509.0601
   2   2.0000     -18.701004      -508.8802
   3   2.0000     -18.691465      -508.6206
   4   2.0000     -14.075395      -383.0110
   5   2.0000     -14.074393      -382.9837
   6   2.0000     -10.052490      -273.5422
   7   2.0000      -9.965919      -271.1864
   8   2.0000      -9.944983      -270.6167
   9   2.0000      -9.917113      -269.8584
  10   2.0000      -9.904332      -269.5106
  11   2.0000      -9.899843      -269.3884
  12   2.0000      -9.896290      -269.2917
  13   2.0000      -7.761236      -211.1940
  14   2.0000      -5.789959      -157.5528
  15   2.0000      -5.789264      -157.5339
  16   2.0000      -5.788103      -157.5023
  17   2.0000      -0.979630       -26.6571
  18   2.0000      -0.948325       -25.8052
  19   2.0000      -0.857726       -23.3399
  20   2.0000      -0.847295       -23.0561
  21   2.0000      -0.844530       -22.9808
  22   2.0000      -0.764081       -20.7917
  23   2.0000      -0.719104       -19.5678
  24   2.0000      -0.676060       -18.3965
  25   2.0000      -0.628111       -17.0918
  26   2.0000      -0.605854       -16.4861
  27   2.0000      -0.571557       -15.5528
  28   2.0000      -0.542867       -14.7722
  29   2.0000      -0.529290       -14.4027
  30   2.0000      -0.518358       -14.1052
  31   2.0000      -0.481127       -13.0921
  32   2.0000      -0.468894       -12.7593
  33   2.0000      -0.453568       -12.3422
  34   2.0000      -0.442420       -12.0389
  35   2.0000      -0.417550       -11.3621
  36   2.0000      -0.407723       -11.0947
  37   2.0000      -0.390641       -10.6299
  38   2.0000      -0.382101       -10.3975
  39   2.0000      -0.377784       -10.2800
  40   2.0000      -0.371343       -10.1047
  41   2.0000      -0.360813        -9.8182
  42   2.0000      -0.346478        -9.4281
  43   2.0000      -0.337839        -9.1931
  44   2.0000      -0.329431        -8.9643
  45   2.0000      -0.325359        -8.8535
  46   2.0000      -0.300742        -8.1836
  47   2.0000      -0.294435        -8.0120
  48   2.0000      -0.282802        -7.6954
  49   2.0000      -0.281066        -7.6482
  50   2.0000      -0.253880        -6.9084
  51   2.0000      -0.248555        -6.7635
  52   2.0000      -0.217041        -5.9060
  53   2.0000      -0.212840        -5.7917
  54   2.0000      -0.205040        -5.5794
  55   2.0000      -0.173910        -4.7323
  56   0.0000      -0.085554        -2.3280
  57   0.0000      -0.034270        -0.9325
  58   0.0000      -0.005337        -0.1452
  59   0.0000       0.013755         0.3743
  60   0.0000       0.023978         0.6525

MULLIKEN ATOMIC CHARGES
-----------------------
   0 C :   -0.203711
   1 C :   -0.092335
   2 C :   -0.257106
   3 H :    0.093384
   4 H :    0.118128
   5 S :    0.819937
   6 C :    0.247175
   7 N :   -0.290253
   8 N :   -0.233941
   9 H :    0.241666
  10 H :    0.254356
  11 H :    0.234372
  12 H :    0.277037
  13 O :   -0.615286
  14 O :   -0.458942
  15 C :   -0.220312
  16 C :   -0.146580
  17 H :    0.087436
  18 H :    0.069503
  19 C :   -0.142458
  20 H :    0.106358
  21 H :    0.099275
  22 O :   -0.538916
  23 H :    0.106322
  24 H :    0.077863
  25 H :    0.058992
  26 H :    0.066772
  27 H :    0.110846
  28 H :    0.130418
Sum of atomic charges:   -0.0000000

LOEWDIN ATOMIC CHARGES
----------------------
   0 C :   -0.206187
   1 C :   -0.279629
   2 C :   -0.384804
   3 H :    0.123175
   4 H :    0.134553
   5 S :    0.418084
   6 C :   -0.330632
   7 N :    0.099392
   8 N :    0.133636
   9 H :    0.188119
  10 H :    0.179364
  11 H :    0.185488
  12 H :    0.180923
  13 O :   -0.401490
  14 O :   -0.299524
  15 C :   -0.246553
  16 C :   -0.267459
  17 H :    0.141172
  18 H :    0.133822
  19 C :   -0.263449
  20 H :    0.133362
  21 H :    0.142138
  22 O :   -0.351348
  23 H :    0.137678
  24 H :    0.137779
  25 H :    0.128569
  26 H :    0.131432
  27 H :    0.148514
  28 H :    0.153875

  Mayer bond orders larger than 0.100000
B(  0-C ,  6-C ) :   0.9928 B(  0-C , 15-C ) :   0.9209 B(  0-C , 27-H ) :   0.9612
B(  0-C , 28-H ) :   0.9576 B(  1-C ,  2-C ) :   0.9542 B(  1-C , 16-C ) :   0.9832
B(  1-C , 17-H ) :   0.9546 B(  1-C , 18-H ) :   0.9468 B(  2-C ,  3-H ) :   0.9556
B(  2-C ,  4-H ) :   0.9517 B(  2-C ,  5-S ) :   0.8855 B(  5-S , 13-O ) :   1.5147
B(  5-S , 14-O ) :   1.9496 B(  5-S , 22-O ) :   1.6928 B(  6-C ,  7-N ) :   1.3898
B(  6-C ,  8-N ) :   1.4955 B(  7-N , 11-H ) :   0.9187 B(  7-N , 12-H ) :   0.8548
B(  8-N ,  9-H ) :   0.9037 B(  8-N , 10-H ) :   0.8485 B( 15-C , 19-C ) :   0.9344
B( 15-C , 20-H ) :   0.9767 B( 15-C , 21-H ) :   0.9548 B( 16-C , 19-C ) :   0.9457
B( 16-C , 25-H ) :   0.9440 B( 16-C , 26-H ) :   0.9526 B( 19-C , 23-H ) :   0.9667
B( 19-C , 24-H ) :   0.9557

Dispersion correction           -0.074169826
FINAL SINGLE POINT ENERGY     -1009.855303834414

DIPOLE MOMENT
-------------
                                X             Y             Z
Electronic contribution:      2.78406      -6.35872     -13.50577
Nuclear contribution   :     -1.90023       6.18953      17.82209
                        -----------------------------------------
Total Dipole Moment    :      0.88383      -0.16919       4.31632
                        -----------------------------------------
Magnitude (a.u.)       :      4.40912
Magnitude (Debye)      :     11.20710

Rotational constants in cm-1:     0.036337     0.018755     0.015005
Rotational constants in MHz :  1089.341704   562.266628   449.834770

                             ****ORCA TERMINATED NORMALLY****
TOTAL RUN TIME: 0 days 0 hours 0 minutes 24 seconds 37 msec
