                         Program Version 5.0.0 -  RELEASE  -
|  1> !BLYP D3BJ RIJCOSX def2-TZVP def2/J TightSCF
|  2> *xyz 0 1
|  3> C          0.70466        1.44313       -4.50363
|  4> C          1.72854        1.42432       -5.63944
|  5> H          2.64672        1.95379       -5.38105
|  6> H          1.29992        1.93061       -6.50361
|  7> S          2.25263       -0.18811       -6.27184
|  8> F          3.56261       -0.44446       -5.63155
|  9> O          2.34494       -0.03374       -7.69650
| 10> O          1.26606       -1.15918       -5.80536
| 11> H         -0.17385        0.91270       -4.80656
| 12> H          0.44778        2.45562       -4.27173
| 13> H          1.12367        0.97423       -3.63791
| 14> *
| 15>
| 16> %MaxCore 64000
| 17>
| 18> %pal nprocs 4
| 19> end
| 20>
| 21> %scf
| 22>   MaxIter 150
| 23> end
| 24>
| 25>
| 26>                          ****END OF INPUT****

CARTESIAN COORDINATES (ANGSTROEM)
---------------------------------
  C      0.704660    1.443130   -4.503630
  C      1.728540    1.424320   -5.639440
  H      2.646720    1.953790   -5.381050
  H      1.299920    1.930610   -6.503610
  S      2.252630   -0.188110   -6.271840
  F      3.562610   -0.444460   -5.631550
  O      2.344940   -0.033740   -7.696500
  O      1.266060   -1.159180   -5.805360
  H     -0.173850    0.912700   -4.806560
  H      0.447780    2.455620   -4.271730
  H      1.123670    0.974230   -3.637910

 Total Charge           Charge          ....    0
 Multiplicity           Mult            ....    1
 Number of Electrons    NEL             ....   58
 Basis Dimension        Dim             ....  222

ORBITAL ENERGIES
----------------

  NO   OCC          E(Eh)            E(eV)
   0   2.0000     -88.331880     -2403.6327
   1   2.0000     -24.378268      -663.3664
   2   2.0000     -18.782488      -511.0975
   3   2.0000     -18.775665      -510.9118
   4   2.0000      -9.961037      -271.0536
   5   2.0000      -9.920835      -269.9597
   6   2.0000      -7.863257      -213.9701
   7   2.0000      -5.895523      -160.4253
   8   2.0000      -5.888921      -160.2457
   9   2.0000      -5.888484      -160.2338
  10   2.0000      -1.237434       -33.6723
  11   2.0000      -1.012118       -27.5411
  12   2.0000      -0.923497       -25.1296
  13   2.0000      -0.738705       -20.1012
  14   2.0000      -0.649410       -17.6713
  15   2.0000      -0.599011       -16.2999
  16   2.0000      -0.508421       -13.8348
  17   2.0000      -0.491338       -13.3700
  18   2.0000      -0.484092       -13.1728
  19   2.0000      -0.436484       -11.8773
  20   2.0000      -0.421185       -11.4610
  21   2.0000      -0.396432       -10.7875
  22   2.0000      -0.378554       -10.3010
  23   2.0000      -0.354997        -9.6599
  24   2.0000      -0.348543        -9.4843
  25   2.0000      -0.332130        -9.0377
  26   2.0000      -0.286194        -7.7877
  27   2.0000      -0.281623        -7.6633
  28   2.0000      -0.265385        -7.2215
  29   0.0000      -0.009250        -0.2517
  30   0.0000       0.003631         0.0988
  31   0.0000       0.029246         0.7958
  32   0.0000       0.042823         1.1653
  33   0.0000       0.051814         1.4099

MULLIKEN ATOMIC CHARGES
-----------------------
   0 C :   -0.275286
   1 C :   -0.233343
   2 H :    0.116122
   3 H :    0.139735
   4 S :    0.798518
   5 F :   -0.113828
   6 O :   -0.375707
   7 O :   -0.402975
   8 H :    0.129755
   9 H :    0.111266
  10 H :    0.105745
Sum of atomic charges:    0.0000000

LOEWDIN ATOMIC CHARGES
----------------------
   0 C :   -0.303077
   1 C :   -0.392203
   2 H :    0.130342
   3 H :    0.143498
   4 S :    0.508780
   5 F :    0.058144
   6 O :   -0.242107
   7 O :   -0.267032
   8 H :    0.123845
   9 H :    0.121256
  10 H :    0.118554

  Mayer bond orders larger than 0.100000
B(  0-C ,  1-C ) :   0.9541 B(  0-C ,  8-H ) :   0.9680 B(  0-C ,  9-H ) :   0.9535
B(  0-C , 10-H ) :   0.9706 B(  1-C ,  2-H ) :   0.9424 B(  1-C ,  3-H ) :   0.9417
B(  1-C ,  4-S ) :   0.8909 B(  4-S ,  5-F ) :   1.1105 B(  4-S ,  6-O ) :   1.9572
B(  4-S ,  7-O ) :   1.9192

Dispersion correction           -0.019339317
FINAL SINGLE POINT ENERGY      -727.783915411761

DIPOLE MOMENT
-------------
                                X             Y             Z
Electronic contribution:      6.31116      -6.56325      -3.75334
Nuclear contribution   :     -6.09914       7.80989       4.64238
                        -----------------------------------------
Total Dipole Moment    :      0.21202       1.24664       0.88905
                        -----------------------------------------
Magnitude (a.u.)       :      1.54579
Magnitude (Debye)      :      3.92909

Rotational constants in cm-1:     0.154372     0.078826     0.078033
Rotational constants in MHz :  4627.943144  2363.154585  2339.382767

                             ****ORCA TERMINATED NORMALLY****
TOTAL RUN TIME: 0 days 0 hours 0 minutes 11 seconds 934 msec
