                         Program Version 5.0.0 -  RELEASE  -
|  1> !BLYP D3BJ RIJCOSX def2-TZVP def2/J TightSCF
|  2> *xyz 0 1
|  3> C          2.91632       -1.24259       -1.54313
|  4> C          3.46659       -1.59097       -2.88908
|  5> C          4.65227       -1.14316       -3.25969
|  6> N          2.75226       -2.29204       -3.72803
|  7> H          1.77836       -2.48960       -3.51274
|  8> H          2.94861       -2.20854       -4.71681
|  9> H          5.14672       -0.51251       -2.63385
| 10> H          4.78303       -1.00720       -4.25350
| 11> C          2.80408        0.29070       -1.35924
| 12> H          1.94047       -1.71653       -1.44116
| 13> H          3.55857       -1.66343       -0.76637
| 14> H          2.17393        0.69633       -2.12297
| 15> H          3.77707        0.73043       -1.42880
| 16> H          2.38369        0.50492       -0.39889
| 17> *
| 18>
| 19> %MaxCore 64000
| 20>
| 21> %pal nprocs 4
| 22> end
| 23>
| 24> %scf
| 25>   MaxIter 150
| 26> end
| 27>
| 28>
| 29>                          ****END OF INPUT****

CARTESIAN COORDINATES (ANGSTROEM)
---------------------------------
  C      2.916320   -1.242590   -1.543130
  C      3.466590   -1.590970   -2.889080
  C      4.652270   -1.143160   -3.259690
  N      2.752260   -2.292040   -3.728030
  H      1.778360   -2.489600   -3.512740
  H      2.948610   -2.208540   -4.716810
  H      5.146720   -0.512510   -2.633850
  H      4.783030   -1.007200   -4.253500
  C      2.804080    0.290700   -1.359240
  H      1.940470   -1.716530   -1.441160
  H      3.558570   -1.663430   -0.766370
  H      2.173930    0.696330   -2.122970
  H      3.777070    0.730430   -1.428800
  H      2.383690    0.504920   -0.398890

 Total Charge           Charge          ....    0
 Multiplicity           Mult            ....    1
 Number of Electrons    NEL             ....   40
 Basis Dimension        Dim             ....  209

ORBITAL ENERGIES
----------------

  NO   OCC          E(Eh)            E(eV)
   0   2.0000     -14.007615      -381.1666
   1   2.0000      -9.918919      -269.9075
   2   2.0000      -9.905915      -269.5537
   3   2.0000      -9.889671      -269.1116
   4   2.0000      -9.831012      -267.5154
   5   2.0000      -0.848846       -23.0983
   6   2.0000      -0.701601       -19.0915
   7   2.0000      -0.636011       -17.3067
   8   2.0000      -0.574751       -15.6398
   9   2.0000      -0.504820       -13.7368
  10   2.0000      -0.466681       -12.6990
  11   2.0000      -0.423682       -11.5290
  12   2.0000      -0.396845       -10.7987
  13   2.0000      -0.359471        -9.7817
  14   2.0000      -0.340722        -9.2715
  15   2.0000      -0.329119        -8.9558
  16   2.0000      -0.310597        -8.4518
  17   2.0000      -0.298389        -8.1196
  18   2.0000      -0.280198        -7.6246
  19   2.0000      -0.153213        -4.1691
  20   0.0000       0.002748         0.0748
  21   0.0000       0.009438         0.2568
  22   0.0000       0.046135         1.2554
  23   0.0000       0.049814         1.3555
  24   0.0000       0.068536         1.8650

MULLIKEN ATOMIC CHARGES
-----------------------
   0 C :   -0.164643
   1 C :    0.220957
   2 C :   -0.363876
   3 N :   -0.374066
   4 H :    0.198472
   5 H :    0.202443
   6 H :    0.058933
   7 H :    0.052111
   8 C :   -0.276587
   9 H :    0.060246
  10 H :    0.100168
  11 H :    0.091918
  12 H :    0.101175
  13 H :    0.092750
Sum of atomic charges:    0.0000000

LOEWDIN ATOMIC CHARGES
----------------------
   0 C :   -0.229413
   1 C :   -0.372651
   2 C :   -0.278275
   3 N :    0.020752
   4 H :    0.162126
   5 H :    0.168254
   6 H :    0.101747
   7 H :    0.097409
   8 C :   -0.279896
   9 H :    0.127962
  10 H :    0.144222
  11 H :    0.113636
  12 H :    0.114655
  13 H :    0.109471

  Mayer bond orders larger than 0.100000
B(  0-C ,  1-C ) :   0.9492 B(  0-C ,  8-C ) :   0.9520 B(  0-C ,  9-H ) :   0.9702
B(  0-C , 10-H ) :   0.9770 B(  1-C ,  2-C ) :   1.7053 B(  1-C ,  3-N ) :   1.1925
B(  2-C ,  6-H ) :   1.0104 B(  2-C ,  7-H ) :   0.9792 B(  3-N ,  4-H ) :   0.9265
B(  3-N ,  5-H ) :   0.9218 B(  8-C , 11-H ) :   0.9748 B(  8-C , 12-H ) :   0.9754
B(  8-C , 13-H ) :   0.9673

Dispersion correction           -0.021692616
FINAL SINGLE POINT ENERGY      -212.541265583272

DIPOLE MOMENT
-------------
                                X             Y             Z
Electronic contribution:      0.08192      -2.76539      -1.84027
Nuclear contribution   :     -0.99366       2.78648       1.68526
                        -----------------------------------------
Total Dipole Moment    :     -0.91173       0.02109      -0.15501
                        -----------------------------------------
Magnitude (a.u.)       :      0.92506
Magnitude (Debye)      :      2.35131

Rotational constants in cm-1:     0.282898     0.128664     0.101801
Rotational constants in MHz :  8481.061354  3857.240210  3051.924245

                             ****ORCA TERMINATED NORMALLY****
TOTAL RUN TIME: 0 days 0 hours 0 minutes 10 seconds 634 msec
