                         Program Version 5.0.0 -  RELEASE  -
|  1> !BLYP D3BJ RIJCOSX def2-TZVP def2/J TightSCF
|  2> *xyz 0 1
|  3> C          0.70466        1.44313       -4.50363
|  4> C          1.72854        1.42432       -5.63944
|  5> H          2.64672        1.95379       -5.38105
|  6> H          1.29992        1.93061       -6.50361
|  7> S          2.25263       -0.18811       -6.27184
|  8> O          3.56261       -0.44446       -5.63155
|  9> F          2.34494       -0.03374       -7.69650
| 10> O          1.26606       -1.15918       -5.80536
| 11> H         -0.17385        0.91270       -4.80656
| 12> H          0.44778        2.45562       -4.27173
| 13> H          1.12367        0.97423       -3.63791
| 14> *
| 15>
| 16> %MaxCore 64000
| 17>
| 18> %pal nprocs 4
| 19> end
| 20>
| 21> %scf
| 22>   MaxIter 150
| 23> end
| 24>
| 25>
| 26>                          ****END OF INPUT****

CARTESIAN COORDINATES (ANGSTROEM)
---------------------------------
  C      0.704660    1.443130   -4.503630
  C      1.728540    1.424320   -5.639440
  H      2.646720    1.953790   -5.381050
  H      1.299920    1.930610   -6.503610
  S      2.252630   -0.188110   -6.271840
  O      3.562610   -0.444460   -5.631550
  F      2.344940   -0.033740   -7.696500
  O      1.266060   -1.159180   -5.805360
  H     -0.173850    0.912700   -4.806560
  H      0.447780    2.455620   -4.271730
  H      1.123670    0.974230   -3.637910

 Total Charge           Charge          ....    0
 Multiplicity           Mult            ....    1
 Number of Electrons    NEL             ....   58
 Basis Dimension        Dim             ....  222

ORBITAL ENERGIES
----------------

  NO   OCC          E(Eh)            E(eV)
   0   2.0000     -88.334148     -2403.6944
   1   2.0000     -24.400915      -663.9827
   2   2.0000     -18.775719      -510.9133
   3   2.0000     -18.767472      -510.6889
   4   2.0000      -9.961941      -271.0782
   5   2.0000      -9.921477      -269.9771
   6   2.0000      -7.865413      -214.0288
   7   2.0000      -5.897568      -160.4810
   8   2.0000      -5.890997      -160.3022
   9   2.0000      -5.890701      -160.2941
  10   2.0000      -1.274015       -34.6677
  11   2.0000      -0.998248       -27.1637
  12   2.0000      -0.904260       -24.6062
  13   2.0000      -0.739475       -20.1221
  14   2.0000      -0.663319       -18.0498
  15   2.0000      -0.606525       -16.5044
  16   2.0000      -0.521302       -14.1854
  17   2.0000      -0.517706       -14.0875
  18   2.0000      -0.489906       -13.3310
  19   2.0000      -0.437632       -11.9086
  20   2.0000      -0.421776       -11.4771
  21   2.0000      -0.388206       -10.5636
  22   2.0000      -0.375742       -10.2245
  23   2.0000      -0.357078        -9.7166
  24   2.0000      -0.343109        -9.3365
  25   2.0000      -0.327024        -8.8988
  26   2.0000      -0.280078        -7.6213
  27   2.0000      -0.269413        -7.3311
  28   2.0000      -0.249770        -6.7966
  29   0.0000      -0.009022        -0.2455
  30   0.0000      -0.000265        -0.0072
  31   0.0000       0.026736         0.7275
  32   0.0000       0.040108         1.0914
  33   0.0000       0.050099         1.3633

MULLIKEN ATOMIC CHARGES
-----------------------
   0 C :   -0.279794
   1 C :   -0.222976
   2 H :    0.138264
   3 H :    0.105844
   4 S :    0.792686
   5 O :   -0.416398
   6 F :   -0.078821
   7 O :   -0.393788
   8 H :    0.119990
   9 H :    0.112264
  10 H :    0.122731
Sum of atomic charges:    0.0000000

LOEWDIN ATOMIC CHARGES
----------------------
   0 C :   -0.297174
   1 C :   -0.393727
   2 H :    0.138572
   3 H :    0.128442
   4 S :    0.499416
   5 O :   -0.293210
   6 F :    0.113103
   7 O :   -0.263289
   8 H :    0.122146
   9 H :    0.122104
  10 H :    0.123617

  Mayer bond orders larger than 0.100000
B(  0-C ,  1-C ) :   0.9595 B(  0-C ,  8-H ) :   0.9669 B(  0-C ,  9-H ) :   0.9526
B(  0-C , 10-H ) :   0.9712 B(  1-C ,  2-H ) :   0.9390 B(  1-C ,  3-H ) :   0.9364
B(  1-C ,  4-S ) :   0.8934 B(  4-S ,  5-O ) :   1.9108 B(  4-S ,  6-F ) :   1.1532
B(  4-S ,  7-O ) :   1.9222

Dispersion correction           -0.019363624
FINAL SINGLE POINT ENERGY      -727.764991977991

DIPOLE MOMENT
-------------
                                X             Y             Z
Electronic contribution:      4.24694      -5.87691      -7.21495
Nuclear contribution   :     -4.83029       7.38191       6.79413
                        -----------------------------------------
Total Dipole Moment    :     -0.58334       1.50499      -0.42082
                        -----------------------------------------
Magnitude (a.u.)       :      1.66805
Magnitude (Debye)      :      4.23984

Rotational constants in cm-1:     0.156575     0.079070     0.076729
Rotational constants in MHz :  4694.010604  2370.444114  2300.280155

                             ****ORCA TERMINATED NORMALLY****
TOTAL RUN TIME: 0 days 0 hours 0 minutes 11 seconds 416 msec
