                         Program Version 5.0.0 -  RELEASE  -
|  1> !BLYP D3BJ RIJCOSX def2-TZVP def2/J TightSCF
|  2> *xyz 0 1
|  3> C          2.91632       -1.24259       -1.54313
|  4> C          3.46659       -1.59097       -2.88908
|  5> N          4.65227       -1.14316       -3.25969
|  6> C          2.75226       -2.29204       -3.72803
|  7> H          1.77836       -2.48960       -3.51274
|  8> H          2.94861       -2.20854       -4.71681
|  9> H          5.14672       -0.51251       -2.63385
| 10> H          4.78303       -1.00720       -4.25350
| 11> C          2.80408        0.29070       -1.35924
| 12> H          1.94047       -1.71653       -1.44116
| 13> H          3.55857       -1.66343       -0.76637
| 14> H          2.17393        0.69633       -2.12297
| 15> H          3.77707        0.73043       -1.42880
| 16> H          2.38369        0.50492       -0.39889
| 17> *
| 18>
| 19> %MaxCore 64000
| 20>
| 21> %pal nprocs 4
| 22> end
| 23>
| 24> %scf
| 25>   MaxIter 150
| 26> end
| 27>
| 28>
| 29>                          ****END OF INPUT****

CARTESIAN COORDINATES (ANGSTROEM)
---------------------------------
  C      2.916320   -1.242590   -1.543130
  C      3.466590   -1.590970   -2.889080
  N      4.652270   -1.143160   -3.259690
  C      2.752260   -2.292040   -3.728030
  H      1.778360   -2.489600   -3.512740
  H      2.948610   -2.208540   -4.716810
  H      5.146720   -0.512510   -2.633850
  H      4.783030   -1.007200   -4.253500
  C      2.804080    0.290700   -1.359240
  H      1.940470   -1.716530   -1.441160
  H      3.558570   -1.663430   -0.766370
  H      2.173930    0.696330   -2.122970
  H      3.777070    0.730430   -1.428800
  H      2.383690    0.504920   -0.398890

 Total Charge           Charge          ....    0
 Multiplicity           Mult            ....    1
 Number of Electrons    NEL             ....   40
 Basis Dimension        Dim             ....  209

ORBITAL ENERGIES
----------------

  NO   OCC          E(Eh)            E(eV)
   0   2.0000     -14.004209      -381.0739
   1   2.0000      -9.917905      -269.8799
   2   2.0000      -9.904154      -269.5057
   3   2.0000      -9.894734      -269.2494
   4   2.0000      -9.834691      -267.6155
   5   2.0000      -0.844222       -22.9724
   6   2.0000      -0.699499       -19.0343
   7   2.0000      -0.646471       -17.5914
   8   2.0000      -0.567734       -15.4488
   9   2.0000      -0.504399       -13.7254
  10   2.0000      -0.470862       -12.8128
  11   2.0000      -0.420837       -11.4516
  12   2.0000      -0.386558       -10.5188
  13   2.0000      -0.381624       -10.3845
  14   2.0000      -0.338628        -9.2145
  15   2.0000      -0.332892        -9.0585
  16   2.0000      -0.312308        -8.4983
  17   2.0000      -0.296135        -8.0582
  18   2.0000      -0.275360        -7.4929
  19   2.0000      -0.159806        -4.3485
  20   0.0000       0.000516         0.0140
  21   0.0000       0.011759         0.3200
  22   0.0000       0.050716         1.3801
  23   0.0000       0.053544         1.4570
  24   0.0000       0.065984         1.7955

MULLIKEN ATOMIC CHARGES
-----------------------
   0 C :   -0.156650
   1 C :    0.217025
   2 N :   -0.383509
   3 C :   -0.358323
   4 H :    0.065621
   5 H :    0.051295
   6 H :    0.199780
   7 H :    0.206593
   8 C :   -0.295604
   9 H :    0.085511
  10 H :    0.084510
  11 H :    0.104951
  12 H :    0.076050
  13 H :    0.102749
Sum of atomic charges:    0.0000000

LOEWDIN ATOMIC CHARGES
----------------------
   0 C :   -0.229752
   1 C :   -0.370623
   2 N :    0.010644
   3 C :   -0.269230
   4 H :    0.103836
   5 H :    0.097002
   6 H :    0.163029
   7 H :    0.170260
   8 C :   -0.286770
   9 H :    0.142751
  10 H :    0.133947
  11 H :    0.116108
  12 H :    0.105331
  13 H :    0.113467

  Mayer bond orders larger than 0.100000
B(  0-C ,  1-C ) :   0.9799 B(  0-C ,  8-C ) :   0.9335 B(  0-C ,  9-H ) :   0.9690
B(  0-C , 10-H ) :   0.9658 B(  1-C ,  2-N ) :   1.1412 B(  1-C ,  3-C ) :   1.7635
B(  2-N ,  6-H ) :   0.9377 B(  2-N ,  7-H ) :   0.9241 B(  3-C ,  4-H ) :   0.9911
B(  3-C ,  5-H ) :   0.9843 B(  8-C , 11-H ) :   0.9752 B(  8-C , 12-H ) :   0.9732
B(  8-C , 13-H ) :   0.9718

Dispersion correction           -0.021626519
FINAL SINGLE POINT ENERGY      -212.544741777802

DIPOLE MOMENT
-------------
                                X             Y             Z
Electronic contribution:      1.77327      -1.73526      -1.42352
Nuclear contribution   :     -1.43372       2.52039       1.57679
                        -----------------------------------------
Total Dipole Moment    :      0.33955       0.78512       0.15327
                        -----------------------------------------
Magnitude (a.u.)       :      0.86903
Magnitude (Debye)      :      2.20889

Rotational constants in cm-1:     0.274962     0.131786     0.102554
Rotational constants in MHz :  8243.150005  3950.846092  3074.493018

                             ****ORCA TERMINATED NORMALLY****
TOTAL RUN TIME: 0 days 0 hours 0 minutes 11 seconds 434 msec
