                         Program Version 5.0.0 -  RELEASE  -
|  1> !BLYP D3BJ RIJCOSX def2-TZVP def2/J TightSCF
|  2> *xyz 0 1
|  3> C          0.70466        1.44313       -4.50363
|  4> C          1.72854        1.42432       -5.63944
|  5> H          2.64672        1.95379       -5.38105
|  6> H          1.29992        1.93061       -6.50361
|  7> S          2.25263       -0.18811       -6.27184
|  8> O          3.56261       -0.44446       -5.63155
|  9> O          2.34494       -0.03374       -7.69650
| 10> F          1.26606       -1.15918       -5.80536
| 11> H         -0.17385        0.91270       -4.80656
| 12> H          0.44778        2.45562       -4.27173
| 13> H          1.12367        0.97423       -3.63791
| 14> *
| 15>
| 16> %MaxCore 64000
| 17>
| 18> %pal nprocs 4
| 19> end
| 20>
| 21> %scf
| 22>   MaxIter 150
| 23> end
| 24>
| 25>
| 26>                          ****END OF INPUT****

CARTESIAN COORDINATES (ANGSTROEM)
---------------------------------
  C      0.704660    1.443130   -4.503630
  C      1.728540    1.424320   -5.639440
  H      2.646720    1.953790   -5.381050
  H      1.299920    1.930610   -6.503610
  S      2.252630   -0.188110   -6.271840
  O      3.562610   -0.444460   -5.631550
  O      2.344940   -0.033740   -7.696500
  F      1.266060   -1.159180   -5.805360
  H     -0.173850    0.912700   -4.806560
  H      0.447780    2.455620   -4.271730
  H      1.123670    0.974230   -3.637910

 Total Charge           Charge          ....    0
 Multiplicity           Mult            ....    1
 Number of Electrons    NEL             ....   58
 Basis Dimension        Dim             ....  222

ORBITAL ENERGIES
----------------

  NO   OCC          E(Eh)            E(eV)
   0   2.0000     -88.332587     -2403.6519
   1   2.0000     -24.388967      -663.6575
   2   2.0000     -18.782411      -511.0954
   3   2.0000     -18.767055      -510.6775
   4   2.0000      -9.960933      -271.0508
   5   2.0000      -9.928303      -270.1629
   6   2.0000      -7.863936      -213.9886
   7   2.0000      -5.896262      -160.4454
   8   2.0000      -5.889354      -160.2575
   9   2.0000      -5.889301      -160.2560
  10   2.0000      -1.253641       -34.1133
  11   2.0000      -1.007912       -27.4267
  12   2.0000      -0.911910       -24.8143
  13   2.0000      -0.742451       -20.2031
  14   2.0000      -0.653144       -17.7730
  15   2.0000      -0.607421       -16.5288
  16   2.0000      -0.521826       -14.1996
  17   2.0000      -0.503582       -13.7032
  18   2.0000      -0.479177       -13.0391
  19   2.0000      -0.440917       -11.9980
  20   2.0000      -0.416169       -11.3245
  21   2.0000      -0.395500       -10.7621
  22   2.0000      -0.386491       -10.5170
  23   2.0000      -0.363555        -9.8928
  24   2.0000      -0.348553        -9.4846
  25   2.0000      -0.331318        -9.0156
  26   2.0000      -0.286010        -7.7827
  27   2.0000      -0.270101        -7.3498
  28   2.0000      -0.256098        -6.9688
  29   0.0000      -0.021122        -0.5748
  30   0.0000       0.017055         0.4641
  31   0.0000       0.030847         0.8394
  32   0.0000       0.038075         1.0361
  33   0.0000       0.049873         1.3571

MULLIKEN ATOMIC CHARGES
-----------------------
   0 C :   -0.307530
   1 C :   -0.218298
   2 H :    0.142667
   3 H :    0.130759
   4 S :    0.795089
   5 O :   -0.422067
   6 O :   -0.370634
   7 F :   -0.098913
   8 H :    0.110962
   9 H :    0.117349
  10 H :    0.120617
Sum of atomic charges:    0.0000000

LOEWDIN ATOMIC CHARGES
----------------------
   0 C :   -0.310574
   1 C :   -0.385795
   2 H :    0.143497
   3 H :    0.137382
   4 S :    0.505207
   5 O :   -0.296520
   6 O :   -0.239947
   7 F :    0.086615
   8 H :    0.116561
   9 H :    0.123554
  10 H :    0.120019

  Mayer bond orders larger than 0.100000
B(  0-C ,  1-C ) :   0.9497 B(  0-C ,  8-H ) :   0.9680 B(  0-C ,  9-H ) :   0.9587
B(  0-C , 10-H ) :   0.9691 B(  1-C ,  2-H ) :   0.9407 B(  1-C ,  3-H ) :   0.9394
B(  1-C ,  4-S ) :   0.8956 B(  4-S ,  5-O ) :   1.9080 B(  4-S ,  6-O ) :   1.9585
B(  4-S ,  7-F ) :   1.1241

Dispersion correction           -0.019241327
FINAL SINGLE POINT ENERGY      -727.774254859955

DIPOLE MOMENT
-------------
                                X             Y             Z
Electronic contribution:      2.44140      -7.72331      -4.04279
Nuclear contribution   :     -3.70606       8.55465       4.82350
                        -----------------------------------------
Total Dipole Moment    :     -1.26466       0.83134       0.78071
                        -----------------------------------------
Magnitude (a.u.)       :      1.70294
Magnitude (Debye)      :      4.32852

Rotational constants in cm-1:     0.153201     0.080978     0.077494
Rotational constants in MHz :  4592.852844  2427.650814  2323.207507

                             ****ORCA TERMINATED NORMALLY****
TOTAL RUN TIME: 0 days 0 hours 0 minutes 11 seconds 331 msec
