                         Program Version 5.0.0 -  RELEASE  -
|  1> !BLYP D3BJ RIJCOSX def2-TZVP def2/J TightSCF xyzfile
|  2>
|  3> *xyzfile 0 1 D2.xyz
|  4>
|  5> %MaxCore 64000
|  6>
|  7> %pal nprocs 18
|  8> end
|  9>
| 10> %scf
| 11>   MaxIter 150
| 12> end
| 13>
| 14>
| 15>                          ****END OF INPUT****

CARTESIAN COORDINATES (ANGSTROEM)
---------------------------------
  C      2.916324   -1.242589   -1.543125
  C      0.704661    1.443129   -4.503630
  C      1.728539    1.424320   -5.639443
  H      2.646718    1.953794   -5.381054
  H      1.299916    1.930613   -6.503614
  S      2.252625   -0.188115   -6.271840
  C      3.466585   -1.590971   -2.889082
  N      4.652275   -1.143164   -3.259692
  C      2.752264   -2.292043   -3.728029
  H      1.778364   -2.489604   -3.512738
  H      2.948612   -2.208544   -4.716813
  H      5.146723   -0.512508   -2.633852
  H      4.783030   -1.007203   -4.253498
  F      3.562607   -0.444464   -5.631552
  O      2.344944   -0.033742   -7.696501
  C      2.804084    0.290698   -1.359243
  C      1.052550    0.695659   -3.214915
  H     -0.232483    1.032925   -4.884449
  H      0.511700    2.495794   -4.267966
  C      2.388380    1.093669   -2.597108
  H      3.763425    0.674718   -0.999889
  H      2.094788    0.461222   -0.545756
  O      1.266058   -1.159177   -5.805365
  H      3.167316    1.013242   -3.359430
  H      2.357690    2.149375   -2.310997
  H      1.039284   -0.368429   -3.449329
  H      0.250787    0.865605   -2.488283
  H      1.940472   -1.716529   -1.441161
  H      3.558569   -1.663433   -0.766371

 Total Charge           Charge          ....    0
 Multiplicity           Mult            ....    1
 Number of Electrons    NEL             ....  112
 Basis Dimension        Dim             ....  505

ORBITAL ENERGIES
----------------

  NO   OCC          E(Eh)            E(eV)
   0   2.0000     -88.333722     -2403.6828
   1   2.0000     -24.385506      -663.5634
   2   2.0000     -18.785101      -511.1686
   3   2.0000     -18.775935      -510.9192
   4   2.0000     -14.002376      -381.0240
   5   2.0000      -9.959643      -271.0157
   6   2.0000      -9.927081      -270.1296
   7   2.0000      -9.913692      -269.7653
   8   2.0000      -9.910325      -269.6736
   9   2.0000      -9.908443      -269.6224
  10   2.0000      -9.903760      -269.4950
  11   2.0000      -9.903673      -269.4926
  12   2.0000      -9.830048      -267.4892
  13   2.0000      -7.865461      -214.0301
  14   2.0000      -5.897970      -160.4919
  15   2.0000      -5.890881      -160.2990
  16   2.0000      -5.890553      -160.2901
  17   2.0000      -1.247468       -33.9453
  18   2.0000      -1.015152       -27.6237
  19   2.0000      -0.925997       -25.1977
  20   2.0000      -0.844992       -22.9934
  21   2.0000      -0.753946       -20.5159
  22   2.0000      -0.721119       -19.6226
  23   2.0000      -0.683881       -18.6094
  24   2.0000      -0.658067       -17.9069
  25   2.0000      -0.636128       -17.3099
  26   2.0000      -0.608699       -16.5636
  27   2.0000      -0.560562       -15.2537
  28   2.0000      -0.531068       -14.4511
  29   2.0000      -0.507114       -13.7993
  30   2.0000      -0.502876       -13.6840
  31   2.0000      -0.495429       -13.4813
  32   2.0000      -0.486339       -13.2340
  33   2.0000      -0.467490       -12.7210
  34   2.0000      -0.437061       -11.8930
  35   2.0000      -0.435869       -11.8606
  36   2.0000      -0.421566       -11.4714
  37   2.0000      -0.409278       -11.1370
  38   2.0000      -0.398763       -10.8509
  39   2.0000      -0.390877       -10.6363
  40   2.0000      -0.382533       -10.4092
  41   2.0000      -0.367594       -10.0027
  42   2.0000      -0.355198        -9.6654
  43   2.0000      -0.338936        -9.2229
  44   2.0000      -0.336586        -9.1590
  45   2.0000      -0.333580        -9.0772
  46   2.0000      -0.321563        -8.7502
  47   2.0000      -0.310238        -8.4420
  48   2.0000      -0.300933        -8.1888
  49   2.0000      -0.289909        -7.8888
  50   2.0000      -0.284641        -7.7455
  51   2.0000      -0.283484        -7.7140
  52   2.0000      -0.275004        -7.4832
  53   2.0000      -0.270271        -7.3545
  54   2.0000      -0.264386        -7.1943
  55   2.0000      -0.157066        -4.2740
  56   0.0000      -0.017005        -0.4627
  57   0.0000      -0.003264        -0.0888
  58   0.0000       0.005607         0.1526
  59   0.0000       0.009957         0.2709
  60   0.0000       0.028610         0.7785

MULLIKEN ATOMIC CHARGES
-----------------------
   0 C :   -0.164407
   1 C :   -0.093399
   2 C :   -0.281754
   3 H :    0.125681
   4 H :    0.151923
   5 S :    0.837111
   6 C :    0.177055
   7 N :   -0.369934
   8 C :   -0.346450
   9 H :    0.064444
  10 H :    0.052793
  11 H :    0.202217
  12 H :    0.199830
  13 F :   -0.136250
  14 O :   -0.384339
  15 C :   -0.212080
  16 C :   -0.196020
  17 H :    0.102555
  18 H :    0.086077
  19 C :   -0.099384
  20 H :    0.088863
  21 H :    0.082330
  22 O :   -0.400843
  23 H :    0.056154
  24 H :    0.067729
  25 H :    0.129621
  26 H :    0.071494
  27 H :    0.095472
  28 H :    0.093512
Sum of atomic charges:   -0.0000000

LOEWDIN ATOMIC CHARGES
----------------------
   0 C :   -0.210591
   1 C :   -0.273111
   2 C :   -0.366258
   3 H :    0.131679
   4 H :    0.147066
   5 S :    0.524635
   6 C :   -0.387405
   7 N :    0.009740
   8 C :   -0.264877
   9 H :    0.102518
  10 H :    0.087529
  11 H :    0.163179
  12 H :    0.156083
  13 F :    0.064050
  14 O :   -0.238274
  15 C :   -0.253270
  16 C :   -0.263389
  17 H :    0.143971
  18 H :    0.141686
  19 C :   -0.264824
  20 H :    0.129377
  21 H :    0.135181
  22 O :   -0.234508
  23 H :    0.124384
  24 H :    0.132489
  25 H :    0.144261
  26 H :    0.134957
  27 H :    0.145926
  28 H :    0.137796

  Mayer bond orders larger than 0.100000
B(  0-C ,  6-C ) :   0.9581 B(  0-C , 15-C ) :   0.9302 B(  0-C , 27-H ) :   0.9646
B(  0-C , 28-H ) :   0.9741 B(  1-C ,  2-C ) :   0.9440 B(  1-C , 16-C ) :   0.9630
B(  1-C , 17-H ) :   0.9600 B(  1-C , 18-H ) :   0.9393 B(  2-C ,  3-H ) :   0.9421
B(  2-C ,  4-H ) :   0.9462 B(  2-C ,  5-S ) :   0.8945 B(  5-S , 13-F ) :   1.0602
B(  5-S , 14-O ) :   1.9868 B(  5-S , 22-O ) :   1.8792 B(  6-C ,  7-N ) :   1.1315
B(  6-C ,  8-C ) :   1.7003 B(  7-N , 11-H ) :   0.9388 B(  7-N , 12-H ) :   0.9248
B(  8-C ,  9-H ) :   0.9992 B(  8-C , 10-H ) :   1.0246 B( 15-C , 19-C ) :   0.9502
B( 15-C , 20-H ) :   0.9749 B( 15-C , 21-H ) :   0.9574 B( 16-C , 19-C ) :   0.9302
B( 16-C , 25-H ) :   0.9672 B( 16-C , 26-H ) :   0.9535 B( 19-C , 23-H ) :   0.9630
B( 19-C , 24-H ) :   0.9586

Dispersion correction           -0.073941254
FINAL SINGLE POINT ENERGY     -1017.736801199318

DIPOLE MOMENT
-------------
                                X             Y             Z
Electronic contribution:      3.49721      -4.33196     -18.32988
Nuclear contribution   :     -3.13969       6.14743      19.30799
                        -----------------------------------------
Total Dipole Moment    :      0.35752       1.81548       0.97811
                        -----------------------------------------
Magnitude (a.u.)       :      2.09296
Magnitude (Debye)      :      5.31988

Rotational constants in cm-1:     0.036460     0.018762     0.015014
Rotational constants in MHz :  1093.039020   562.475626   450.105862

                             ****ORCA TERMINATED NORMALLY****
TOTAL RUN TIME: 0 days 0 hours 0 minutes 19 seconds 267 msec
