                         Program Version 5.0.0 -  RELEASE  -
|  1> !BLYP D3BJ RIJCOSX def2-TZVP def2/J TightSCF xyzfile
|  2>
|  3> *xyzfile 0 1 D4.xyz
|  4>
|  5> %MaxCore 64000
|  6>
|  7> %pal nprocs 18
|  8> end
|  9>
| 10> %scf
| 11>   MaxIter 150
| 12> end
| 13>
| 14>
| 15>                          ****END OF INPUT****

CARTESIAN COORDINATES (ANGSTROEM)
---------------------------------
  C      2.916324   -1.242589   -1.543125
  C      0.704661    1.443129   -4.503630
  C      1.728539    1.424320   -5.639443
  H      2.646718    1.953794   -5.381054
  H      1.299916    1.930613   -6.503614
  S      2.252625   -0.188115   -6.271840
  C      3.466585   -1.590971   -2.889082
  N      4.652275   -1.143164   -3.259692
  C      2.752264   -2.292043   -3.728029
  H      1.778364   -2.489604   -3.512738
  H      2.948612   -2.208544   -4.716813
  H      5.146723   -0.512508   -2.633852
  H      4.783030   -1.007203   -4.253498
  O      3.562607   -0.444464   -5.631552
  F      2.344944   -0.033742   -7.696501
  C      2.804084    0.290698   -1.359243
  C      1.052550    0.695659   -3.214915
  H     -0.232483    1.032925   -4.884449
  H      0.511700    2.495794   -4.267966
  C      2.388380    1.093669   -2.597108
  H      3.763425    0.674718   -0.999889
  H      2.094788    0.461222   -0.545756
  O      1.266058   -1.159177   -5.805365
  H      3.167316    1.013242   -3.359430
  H      2.357690    2.149375   -2.310997
  H      1.039284   -0.368429   -3.449329
  H      0.250787    0.865605   -2.488283
  H      1.940472   -1.716529   -1.441161
  H      3.558569   -1.663433   -0.766371

 Total Charge           Charge          ....    0
 Multiplicity           Mult            ....    1
 Number of Electrons    NEL             ....  112
 Basis Dimension        Dim             ....  505

ORBITAL ENERGIES
----------------

  NO   OCC          E(Eh)            E(eV)
   0   2.0000     -88.341943     -2403.9065
   1   2.0000     -24.406705      -664.1402
   2   2.0000     -18.781611      -511.0736
   3   2.0000     -18.778315      -510.9839
   4   2.0000     -13.975930      -380.3044
   5   2.0000      -9.963229      -271.1132
   6   2.0000      -9.928687      -270.1733
   7   2.0000      -9.898397      -269.3491
   8   2.0000      -9.897711      -269.3304
   9   2.0000      -9.896750      -269.3043
  10   2.0000      -9.892897      -269.1994
  11   2.0000      -9.888996      -269.0933
  12   2.0000      -9.807327      -266.8709
  13   2.0000      -7.873373      -214.2454
  14   2.0000      -5.905482      -160.6963
  15   2.0000      -5.899035      -160.5209
  16   2.0000      -5.898602      -160.5091
  17   2.0000      -1.279882       -34.8274
  18   2.0000      -1.008616       -27.4458
  19   2.0000      -0.916021       -24.9262
  20   2.0000      -0.819883       -22.3102
  21   2.0000      -0.752999       -20.4901
  22   2.0000      -0.713380       -19.4121
  23   2.0000      -0.680649       -18.5214
  24   2.0000      -0.652108       -17.7448
  25   2.0000      -0.630194       -17.1484
  26   2.0000      -0.598604       -16.2889
  27   2.0000      -0.557589       -15.1728
  28   2.0000      -0.529021       -14.3954
  29   2.0000      -0.523413       -14.2428
  30   2.0000      -0.504225       -13.7206
  31   2.0000      -0.499061       -13.5801
  32   2.0000      -0.474206       -12.9038
  33   2.0000      -0.450231       -12.2514
  34   2.0000      -0.438154       -11.9228
  35   2.0000      -0.436787       -11.8856
  36   2.0000      -0.411989       -11.2108
  37   2.0000      -0.400702       -10.9036
  38   2.0000      -0.393999       -10.7213
  39   2.0000      -0.388367       -10.5680
  40   2.0000      -0.374086       -10.1794
  41   2.0000      -0.357664        -9.7325
  42   2.0000      -0.348316        -9.4782
  43   2.0000      -0.333019        -9.0619
  44   2.0000      -0.328180        -8.9302
  45   2.0000      -0.320470        -8.7204
  46   2.0000      -0.310935        -8.4610
  47   2.0000      -0.303178        -8.2499
  48   2.0000      -0.288917        -7.8618
  49   2.0000      -0.282153        -7.6778
  50   2.0000      -0.277110        -7.5405
  51   2.0000      -0.273714        -7.4481
  52   2.0000      -0.264658        -7.2017
  53   2.0000      -0.256756        -6.9867
  54   2.0000      -0.249974        -6.8021
  55   2.0000      -0.135207        -3.6792
  56   0.0000      -0.016190        -0.4406
  57   0.0000      -0.005414        -0.1473
  58   0.0000       0.012428         0.3382
  59   0.0000       0.020363         0.5541
  60   0.0000       0.030406         0.8274

MULLIKEN ATOMIC CHARGES
-----------------------
   0 C :   -0.166642
   1 C :   -0.108892
   2 C :   -0.265828
   3 H :    0.139272
   4 H :    0.126815
   5 S :    0.834555
   6 C :    0.190025
   7 N :   -0.373913
   8 C :   -0.351402
   9 H :    0.051196
  10 H :    0.070985
  11 H :    0.190111
  12 H :    0.221580
  13 O :   -0.447038
  14 F :   -0.079052
  15 C :   -0.210531
  16 C :   -0.170397
  17 H :    0.096132
  18 H :    0.089239
  19 C :   -0.114725
  20 H :    0.085149
  21 H :    0.074739
  22 O :   -0.392481
  23 H :    0.085322
  24 H :    0.059299
  25 H :    0.122881
  26 H :    0.068276
  27 H :    0.088882
  28 H :    0.086442
Sum of atomic charges:    0.0000000

LOEWDIN ATOMIC CHARGES
----------------------
   0 C :   -0.213781
   1 C :   -0.270519
   2 C :   -0.368083
   3 H :    0.139728
   4 H :    0.133230
   5 S :    0.521659
   6 C :   -0.385889
   7 N :    0.012603
   8 C :   -0.271664
   9 H :    0.097215
  10 H :    0.092329
  11 H :    0.158187
  12 H :    0.162207
  13 O :   -0.280497
  14 F :    0.116471
  15 C :   -0.254825
  16 C :   -0.260020
  17 H :    0.142160
  18 H :    0.143276
  19 C :   -0.264541
  20 H :    0.128830
  21 H :    0.132393
  22 O :   -0.230566
  23 H :    0.132190
  24 H :    0.129652
  25 H :    0.145125
  26 H :    0.134097
  27 H :    0.143491
  28 H :    0.135542

  Mayer bond orders larger than 0.100000
B(  0-C ,  6-C ) :   0.9703 B(  0-C , 15-C ) :   0.9318 B(  0-C , 27-H ) :   0.9641
B(  0-C , 28-H ) :   0.9744 B(  1-C ,  2-C ) :   0.9529 B(  1-C , 16-C ) :   0.9693
B(  1-C , 17-H ) :   0.9608 B(  1-C , 18-H ) :   0.9404 B(  2-C ,  3-H ) :   0.9390
B(  2-C ,  4-H ) :   0.9409 B(  2-C ,  5-S ) :   0.8981 B(  5-S , 13-O ) :   1.8093
B(  5-S , 14-F ) :   1.1621 B(  5-S , 22-O ) :   1.9065 B(  6-C ,  7-N ) :   1.1497
B(  6-C ,  8-C ) :   1.7025 B(  7-N , 11-H ) :   0.9424 B(  7-N , 12-H ) :   0.9104
B(  8-C ,  9-H ) :   0.9981 B(  8-C , 10-H ) :   1.0094 B( 15-C , 19-C ) :   0.9539
B( 15-C , 20-H ) :   0.9733 B( 15-C , 21-H ) :   0.9572 B( 16-C , 19-C ) :   0.9279
B( 16-C , 25-H ) :   0.9633 B( 16-C , 26-H ) :   0.9543 B( 19-C , 23-H ) :   0.9627
B( 19-C , 24-H ) :   0.9555

Dispersion correction           -0.074763614
FINAL SINGLE POINT ENERGY     -1017.723303684536

DIPOLE MOMENT
-------------
                                X             Y             Z
Electronic contribution:      1.40648      -3.55307     -22.23320
Nuclear contribution   :     -1.74760       5.67788      21.66873
                        -----------------------------------------
Total Dipole Moment    :     -0.34112       2.12481      -0.56447
                        -----------------------------------------
Magnitude (a.u.)       :      2.22482
Magnitude (Debye)      :      5.65503

Rotational constants in cm-1:     0.036818     0.018222     0.014682
Rotational constants in MHz :  1103.783048   546.296792   440.157914

                             ****ORCA TERMINATED NORMALLY****
TOTAL RUN TIME: 0 days 0 hours 0 minutes 23 seconds 148 msec
