                         Program Version 5.0.0 -  RELEASE  -
|  1> !BLYP D3BJ RIJCOSX def2-TZVP def2/J TightSCF xyzfile
|  2>
|  3> *xyzfile 0 1 D6.xyz
|  4>
|  5> %MaxCore 64000
|  6>
|  7> %pal nprocs 18
|  8> end
|  9>
| 10> %scf
| 11>   MaxIter 150
| 12> end
| 13>
| 14>
| 15>                          ****END OF INPUT****

CARTESIAN COORDINATES (ANGSTROEM)
---------------------------------
  C      2.916324   -1.242589   -1.543125
  C      0.704661    1.443129   -4.503630
  C      1.728539    1.424320   -5.639443
  H      2.646718    1.953794   -5.381054
  H      1.299916    1.930613   -6.503614
  S      2.252625   -0.188115   -6.271840
  C      3.466585   -1.590971   -2.889082
  N      4.652275   -1.143164   -3.259692
  C      2.752264   -2.292043   -3.728029
  H      1.778364   -2.489604   -3.512738
  H      2.948612   -2.208544   -4.716813
  H      5.146723   -0.512508   -2.633852
  H      4.783030   -1.007203   -4.253498
  O      3.562607   -0.444464   -5.631552
  O      2.344944   -0.033742   -7.696501
  C      2.804084    0.290698   -1.359243
  C      1.052550    0.695659   -3.214915
  H     -0.232483    1.032925   -4.884449
  H      0.511700    2.495794   -4.267966
  C      2.388380    1.093669   -2.597108
  H      3.763425    0.674718   -0.999889
  H      2.094788    0.461222   -0.545756
  F      1.266058   -1.159177   -5.805365
  H      3.167316    1.013242   -3.359430
  H      2.357690    2.149375   -2.310997
  H      1.039284   -0.368429   -3.449329
  H      0.250787    0.865605   -2.488283
  H      1.940472   -1.716529   -1.441161
  H      3.558569   -1.663433   -0.766371

 Total Charge           Charge          ....    0
 Multiplicity           Mult            ....    1
 Number of Electrons    NEL             ....  112
 Basis Dimension        Dim             ....  505

ORBITAL ENERGIES
----------------

  NO   OCC          E(Eh)            E(eV)
   0   2.0000     -88.339232     -2403.8327
   1   2.0000     -24.390603      -663.7020
   2   2.0000     -18.787926      -511.2455
   3   2.0000     -18.774922      -510.8916
   4   2.0000     -13.985146      -380.5552
   5   2.0000      -9.961349      -271.0621
   6   2.0000      -9.933466      -270.3033
   7   2.0000      -9.909343      -269.6469
   8   2.0000      -9.906860      -269.5794
   9   2.0000      -9.906793      -269.5775
  10   2.0000      -9.904846      -269.5246
  11   2.0000      -9.899013      -269.3658
  12   2.0000      -9.822775      -267.2913
  13   2.0000      -7.870611      -214.1702
  14   2.0000      -5.902827      -160.6241
  15   2.0000      -5.896355      -160.4480
  16   2.0000      -5.895753      -160.4316
  17   2.0000      -1.256675       -34.1959
  18   2.0000      -1.014928       -27.6176
  19   2.0000      -0.922656       -25.1067
  20   2.0000      -0.829715       -22.5777
  21   2.0000      -0.758065       -20.6280
  22   2.0000      -0.718851       -19.5609
  23   2.0000      -0.680260       -18.5108
  24   2.0000      -0.654489       -17.8096
  25   2.0000      -0.633798       -17.2465
  26   2.0000      -0.605734       -16.4829
  27   2.0000      -0.563174       -15.3247
  28   2.0000      -0.530776       -14.4432
  29   2.0000      -0.513416       -13.9708
  30   2.0000      -0.506938       -13.7945
  31   2.0000      -0.496587       -13.5128
  32   2.0000      -0.480151       -13.0656
  33   2.0000      -0.452404       -12.3105
  34   2.0000      -0.439300       -11.9539
  35   2.0000      -0.435751       -11.8574
  36   2.0000      -0.417719       -11.3667
  37   2.0000      -0.408182       -11.1072
  38   2.0000      -0.402445       -10.9511
  39   2.0000      -0.389683       -10.6038
  40   2.0000      -0.384612       -10.4658
  41   2.0000      -0.366356        -9.9691
  42   2.0000      -0.354215        -9.6387
  43   2.0000      -0.341788        -9.3005
  44   2.0000      -0.335709        -9.1351
  45   2.0000      -0.333470        -9.0742
  46   2.0000      -0.318706        -8.6724
  47   2.0000      -0.312147        -8.4940
  48   2.0000      -0.301307        -8.1990
  49   2.0000      -0.288015        -7.8373
  50   2.0000      -0.284827        -7.7505
  51   2.0000      -0.281078        -7.6485
  52   2.0000      -0.275679        -7.5016
  53   2.0000      -0.260796        -7.0966
  54   2.0000      -0.255838        -6.9617
  55   2.0000      -0.148598        -4.0436
  56   0.0000      -0.023240        -0.6324
  57   0.0000       0.003011         0.0819
  58   0.0000       0.010595         0.2883
  59   0.0000       0.019278         0.5246
  60   0.0000       0.025217         0.6862

MULLIKEN ATOMIC CHARGES
-----------------------
   0 C :   -0.161502
   1 C :   -0.158431
   2 C :   -0.245310
   3 H :    0.141268
   4 H :    0.145494
   5 S :    0.850760
   6 C :    0.199552
   7 N :   -0.365495
   8 C :   -0.392864
   9 H :    0.056242
  10 H :    0.064075
  11 H :    0.193162
  12 H :    0.229616
  13 O :   -0.452815
  14 O :   -0.378702
  15 C :   -0.217427
  16 C :   -0.171978
  17 H :    0.103355
  18 H :    0.091768
  19 C :   -0.105873
  20 H :    0.089706
  21 H :    0.078082
  22 F :   -0.097099
  23 H :    0.089839
  24 H :    0.065925
  25 H :    0.091852
  26 H :    0.075451
  27 H :    0.089080
  28 H :    0.092270
Sum of atomic charges:    0.0000000

LOEWDIN ATOMIC CHARGES
----------------------
   0 C :   -0.211683
   1 C :   -0.281837
   2 C :   -0.358619
   3 H :    0.144079
   4 H :    0.141956
   5 S :    0.530656
   6 C :   -0.380548
   7 N :    0.020637
   8 C :   -0.287762
   9 H :    0.093911
  10 H :    0.087506
  11 H :    0.160124
  12 H :    0.164861
  13 O :   -0.280114
  14 O :   -0.233787
  15 C :   -0.253589
  16 C :   -0.264603
  17 H :    0.138101
  18 H :    0.143229
  19 C :   -0.263243
  20 H :    0.130288
  21 H :    0.133361
  22 F :    0.108340
  23 H :    0.133831
  24 H :    0.132008
  25 H :    0.136432
  26 H :    0.135394
  27 H :    0.143323
  28 H :    0.137750

  Mayer bond orders larger than 0.100000
B(  0-C ,  6-C ) :   0.9671 B(  0-C , 15-C ) :   0.9311 B(  0-C , 27-H ) :   0.9649
B(  0-C , 28-H ) :   0.9730 B(  1-C ,  2-C ) :   0.9516 B(  1-C , 16-C ) :   0.9454
B(  1-C , 17-H ) :   0.9724 B(  1-C , 18-H ) :   0.9417 B(  2-C ,  3-H ) :   0.9412
B(  2-C ,  4-H ) :   0.9436 B(  2-C ,  5-S ) :   0.9030 B(  5-S , 13-O ) :   1.7839
B(  5-S , 14-O ) :   1.9957 B(  5-S , 22-F ) :   1.1254 B(  6-C ,  7-N ) :   1.1705
B(  6-C ,  8-C ) :   1.6863 B(  7-N , 11-H ) :   0.9403 B(  7-N , 12-H ) :   0.9061
B(  8-C ,  9-H ) :   1.0025 B(  8-C , 10-H ) :   1.0056 B( 15-C , 19-C ) :   0.9499
B( 15-C , 20-H ) :   0.9735 B( 15-C , 21-H ) :   0.9578 B( 16-C , 19-C ) :   0.9106
B( 16-C , 25-H ) :   0.9769 B( 16-C , 26-H ) :   0.9554 B( 19-C , 23-H ) :   0.9636
B( 19-C , 24-H ) :   0.9558

Dispersion correction           -0.074114374
FINAL SINGLE POINT ENERGY     -1017.734355693538

DIPOLE MOMENT
-------------
                                X             Y             Z
Electronic contribution:     -0.34409      -5.40875     -18.74659
Nuclear contribution   :     -0.51418       6.96452      19.50670
                        -----------------------------------------
Total Dipole Moment    :     -0.85827       1.55577       0.76011
                        -----------------------------------------
Magnitude (a.u.)       :      1.93257
Magnitude (Debye)      :      4.91220

Rotational constants in cm-1:     0.036455     0.018603     0.015008
Rotational constants in MHz :  1092.895336   557.693628   449.926016

                             ****ORCA TERMINATED NORMALLY****
TOTAL RUN TIME: 0 days 0 hours 0 minutes 22 seconds 115 msec
