                         Program Version 5.0.0 -  RELEASE  -
|  1> !CAM-B3LYP RIJCOSX def2-SVPD def2/J TightSCF
|  2> *xyz -1 1
|  3> C          2.49556        1.81615       -2.13636
|  4> C          1.87218        0.42790       -2.07750
|  5> H          2.61427       -0.36583       -2.19889
|  6> H          1.38995        0.27309       -1.11236
|  7> S          0.57902        0.14047       -3.29794
|  8> O          0.22886       -1.24687       -3.12787
|  9> O         -0.43927        1.11897       -3.01455
| 10> O          1.24788        0.40347       -4.59565
| 11> H          2.96535        1.95613       -3.08747
| 12> H          3.22581        1.91242       -1.36024
| 13> H          1.73350        2.55528       -2.00274
| 14> *
| 15>
| 16> %MaxCore 64000
| 17>
| 18> %pal nprocs 4
| 19> end
| 20>
| 21> %scf
| 22>   MaxIter 150
| 23> end
| 24>
| 25>
| 26>                          ****END OF INPUT****

CARTESIAN COORDINATES (ANGSTROEM)
---------------------------------
  C      2.495560    1.816150   -2.136360
  C      1.872180    0.427900   -2.077500
  H      2.614270   -0.365830   -2.198890
  H      1.389950    0.273090   -1.112360
  S      0.579020    0.140470   -3.297940
  O      0.228860   -1.246870   -3.127870
  O     -0.439270    1.118970   -3.014550
  O      1.247880    0.403470   -4.595650
  H      2.965350    1.956130   -3.087470
  H      3.225810    1.912420   -1.360240
  H      1.733500    2.555280   -2.002740

 Total Charge           Charge          ....   -1
 Multiplicity           Mult            ....    1
 Number of Electrons    NEL             ....   58
 Basis Dimension        Dim             ....  176

ORBITAL ENERGIES
----------------

  NO   OCC          E(Eh)            E(eV)
   0   2.0000     -88.962465     -2420.7917
   1   2.0000     -18.997790      -516.9562
   2   2.0000     -18.997703      -516.9538
   3   2.0000     -18.983071      -516.5556
   4   2.0000     -10.121119      -275.4096
   5   2.0000     -10.115205      -275.2487
   6   2.0000      -8.015770      -218.1202
   7   2.0000      -5.985719      -162.8797
   8   2.0000      -5.985564      -162.8755
   9   2.0000      -5.985123      -162.8635
  10   2.0000      -1.020080       -27.7578
  11   2.0000      -0.879018       -23.9193
  12   2.0000      -0.851624       -23.1739
  13   2.0000      -0.711740       -19.3674
  14   2.0000      -0.582417       -15.8484
  15   2.0000      -0.456444       -12.4205
  16   2.0000      -0.392953       -10.6928
  17   2.0000      -0.390423       -10.6240
  18   2.0000      -0.350830        -9.5466
  19   2.0000      -0.338970        -9.2239
  20   2.0000      -0.328145        -8.9293
  21   2.0000      -0.300868        -8.1870
  22   2.0000      -0.280631        -7.6364
  23   2.0000      -0.225018        -6.1231
  24   2.0000      -0.223517        -6.0822
  25   2.0000      -0.188076        -5.1178
  26   2.0000      -0.176305        -4.7975
  27   2.0000      -0.167136        -4.5480
  28   2.0000      -0.134193        -3.6516
  29   0.0000       0.170292         4.6339
  30   0.0000       0.194344         5.2884
  31   0.0000       0.201308         5.4779
  32   0.0000       0.206826         5.6280
  33   0.0000       0.228005         6.2043

MULLIKEN ATOMIC CHARGES
-----------------------
   0 C :    0.961811
   1 C :   -0.198382
   2 H :   -0.153073
   3 H :   -0.114508
   4 S :    1.338413
   5 O :   -0.791282
   6 O :   -0.792208
   7 O :   -0.837289
   8 H :   -0.123227
   9 H :   -0.174526
  10 H :   -0.115729
Sum of atomic charges:   -1.0000000

LOEWDIN ATOMIC CHARGES
----------------------
   0 C :    0.102493
   1 C :   -0.137966
   2 H :    0.006106
   3 H :    0.001142
   4 S :    0.853522
   5 O :   -0.577830
   6 O :   -0.575170
   7 O :   -0.597858
   8 H :   -0.021148
   9 H :   -0.034225
  10 H :   -0.019067

  Mayer bond orders larger than 0.100000
B(  0-C ,  1-C ) :   1.2501 B(  0-C ,  8-H ) :   0.7906 B(  0-C ,  9-H ) :   0.6875
B(  0-C , 10-H ) :   0.7726 B(  1-C ,  2-H ) :   0.9853 B(  1-C ,  3-H ) :   0.9518
B(  1-C ,  4-S ) :   0.9243 B(  1-C ,  8-H ) :   0.2071 B(  1-C ,  9-H ) :   0.2438
B(  1-C , 10-H ) :   0.2157 B(  4-S ,  5-O ) :   1.3439 B(  4-S ,  6-O ) :   1.3031
B(  4-S ,  7-O ) :   1.2655

FINAL SINGLE POINT ENERGY      -702.671514640266

DIPOLE MOMENT
-------------
                                X             Y             Z
Electronic contribution:     -5.60309      -3.56106      -4.00428
Nuclear contribution   :      6.89220       4.11756       5.35566
                        -----------------------------------------
Total Dipole Moment    :      1.28911       0.55651       1.35138
                        -----------------------------------------
Magnitude (a.u.)       :      1.94878
Magnitude (Debye)      :      4.95340

Rotational constants in cm-1:     0.162183     0.084017     0.082390
Rotational constants in MHz :  4862.117324  2518.774315  2469.980309

                             ****ORCA TERMINATED NORMALLY****
TOTAL RUN TIME: 0 days 0 hours 0 minutes 23 seconds 584 msec
