                         Program Version 5.0.0 -  RELEASE  -
|  1> !CAM-B3LYP RIJCOSX def2-SVPD def2/J TightSCF
|  2> *xyz 1 1
|  3> C          3.38093        2.08304       -3.35013
|  4> N          4.53592        1.18245       -3.42852
|  5> C          2.49556        1.81615       -2.13636
|  6> C          4.67196        0.12227       -4.22060
|  7> N          5.86602       -0.50785       -4.22428
|  8> N          3.69888       -0.31284       -4.98699
|  9> H          2.73141       -0.05009       -4.84900
| 10> H          3.89005       -1.05517       -5.64373
| 11> H          5.25193        1.30346       -2.72101
| 12> H          6.69516       -0.06232       -3.85160
| 13> H          5.97538       -1.39688       -4.69141
| 14> H          2.80646        1.98651       -4.26848
| 15> H          3.77871        3.09828       -3.30738
| 16> H          2.11090        0.81901       -2.18783
| 17> H          1.68276        2.51198       -2.12786
| 18> H          3.07216        1.93031       -1.24227
| 19> *
| 20>
| 21> %MaxCore 64000
| 22>
| 23> %pal nprocs 4
| 24> end
| 25>
| 26> %scf
| 27>   MaxIter 150
| 28> end
| 29>
| 30>
| 31>                          ****END OF INPUT****

CARTESIAN COORDINATES (ANGSTROEM)
---------------------------------
  C      3.380930    2.083040   -3.350130
  N      4.535920    1.182450   -3.428520
  C      2.495560    1.816150   -2.136360
  C      4.671960    0.122270   -4.220600
  N      5.866020   -0.507850   -4.224280
  N      3.698880   -0.312840   -4.986990
  H      2.731410   -0.050090   -4.849000
  H      3.890050   -1.055170   -5.643730
  H      5.251930    1.303460   -2.721010
  H      6.695160   -0.062320   -3.851600
  H      5.975380   -1.396880   -4.691410
  H      2.806460    1.986510   -4.268480
  H      3.778710    3.098280   -3.307380
  H      2.110900    0.819010   -2.187830
  H      1.682760    2.511980   -2.127860
  H      3.072160    1.930310   -1.242270

 Total Charge           Charge          ....    1
 Multiplicity           Mult            ....    1
 Number of Electrons    NEL             ....   48
 Basis Dimension        Dim             ....  200

ORBITAL ENERGIES
----------------

  NO   OCC          E(Eh)            E(eV)
   0   2.0000     -14.633091      -398.1866
   1   2.0000     -14.627289      -398.0288
   2   2.0000     -14.624746      -397.9596
   3   2.0000     -10.600260      -288.4477
   4   2.0000     -10.464864      -284.7634
   5   2.0000     -10.394279      -282.8427
   6   2.0000      -1.291405       -35.1409
   7   2.0000      -1.179439       -32.0942
   8   2.0000      -1.163795       -31.6685
   9   2.0000      -1.006466       -27.3873
  10   2.0000      -0.914940       -24.8968
  11   2.0000      -0.877068       -23.8662
  12   2.0000      -0.861632       -23.4462
  13   2.0000      -0.815228       -22.1835
  14   2.0000      -0.768024       -20.8990
  15   2.0000      -0.764027       -20.7902
  16   2.0000      -0.713510       -19.4156
  17   2.0000      -0.703998       -19.1568
  18   2.0000      -0.673758       -18.3339
  19   2.0000      -0.626802       -17.0561
  20   2.0000      -0.597128       -16.2487
  21   2.0000      -0.580300       -15.7908
  22   2.0000      -0.544779       -14.8242
  23   2.0000      -0.511546       -13.9199
  24   0.0000      -0.124069        -3.3761
  25   0.0000      -0.117547        -3.1986
  26   0.0000      -0.085219        -2.3189
  27   0.0000      -0.077397        -2.1061
  28   0.0000      -0.053771        -1.4632

MULLIKEN ATOMIC CHARGES
-----------------------
   0 C :    0.473320
   1 N :   -0.376264
   2 C :    0.849194
   3 C :    1.282684
   4 N :    0.047766
   5 N :    0.097173
   6 H :   -0.096291
   7 H :   -0.108438
   8 H :   -0.268214
   9 H :   -0.104119
  10 H :   -0.057610
  11 H :   -0.191888
  12 H :   -0.266995
  13 H :   -0.138404
  14 H :   -0.032221
  15 H :   -0.109695
Sum of atomic charges:    1.0000000

LOEWDIN ATOMIC CHARGES
----------------------
   0 C :    0.043255
   1 N :    0.044077
   2 C :    0.158385
   3 C :   -0.035474
   4 N :    0.260602
   5 N :    0.280213
   6 H :    0.033251
   7 H :    0.042134
   8 H :    0.060673
   9 H :    0.035857
  10 H :    0.032651
  11 H :    0.020772
  12 H :    0.040467
  13 H :   -0.013342
  14 H :    0.003041
  15 H :   -0.006561

  Mayer bond orders larger than 0.100000
B(  0-C ,  1-N ) :   0.9311 B(  0-C ,  2-C ) :   1.2479 B(  0-C ,  8-H ) :  -0.2113
B(  0-C , 11-H ) :   0.8419 B(  0-C , 12-H ) :   0.8666 B(  0-C , 13-H ) :   0.2110
B(  0-C , 14-H ) :   0.1825 B(  0-C , 15-H ) :   0.2336 B(  1-N ,  3-C ) :   1.0311
B(  1-N ,  4-N ) :   0.2361 B(  1-N ,  5-N ) :   0.2368 B(  1-N ,  8-H ) :   1.3382
B(  1-N , 11-H ) :   0.1579 B(  1-N , 12-H ) :   0.1692 B(  2-C , 13-H ) :   0.7871
B(  2-C , 14-H ) :   0.7677 B(  2-C , 15-H ) :   0.7649 B(  3-C ,  4-N ) :   0.8616
B(  3-C ,  5-N ) :   0.9899 B(  3-C ,  6-H ) :  -0.1819 B(  3-C ,  7-H ) :  -0.1549
B(  3-C ,  8-H ) :  -0.2673 B(  3-C ,  9-H ) :  -0.1815 B(  3-C , 10-H ) :  -0.1086
B(  4-N ,  5-N ) :   0.1627 B(  4-N ,  9-H ) :   1.2196 B(  4-N , 10-H ) :   1.1840
B(  5-N ,  6-H ) :   1.1934 B(  5-N ,  7-H ) :   1.2438 B(  6-H ,  7-H ) :  -0.1995
B(  9-H , 10-H ) :  -0.1773

FINAL SINGLE POINT ENERGY      -284.067935167239

DIPOLE MOMENT
-------------
                                X             Y             Z
Electronic contribution:      3.56529      -2.65524      -2.82742
Nuclear contribution   :     -2.93277       1.85779       2.25966
                        -----------------------------------------
Total Dipole Moment    :      0.63252      -0.79745      -0.56776
                        -----------------------------------------
Magnitude (a.u.)       :      1.16549
Magnitude (Debye)      :      2.96244

Rotational constants in cm-1:     0.245511     0.068839     0.059711
Rotational constants in MHz :  7360.233487  2063.743353  1790.088408

                             ****ORCA TERMINATED NORMALLY****
TOTAL RUN TIME: 0 days 0 hours 0 minutes 33 seconds 513 msec
