                         Program Version 5.0.0 -  RELEASE  -
|  1> !CAM-B3LYP RIJCOSX def2-SVPD def2/J TightSCF
|  2> *xyz 0 1
|  3> C          2.49556        1.81615       -2.13636
|  4> C          1.87218        0.42790       -2.07750
|  5> H          2.61427       -0.36583       -2.19889
|  6> H          1.38995        0.27309       -1.11236
|  7> S          0.57902        0.14047       -3.29794
|  8> F          0.22886       -1.24687       -3.12787
|  9> O         -0.43927        1.11897       -3.01455
| 10> O          1.24788        0.40347       -4.59565
| 11> H          2.96535        1.95613       -3.08747
| 12> H          3.22581        1.91242       -1.36024
| 13> H          1.73350        2.55528       -2.00274
| 14> *
| 15>
| 16> %MaxCore 64000
| 17>
| 18> %pal nprocs 4
| 19> end
| 20>
| 21> %scf
| 22>   MaxIter 150
| 23> end
| 24>
| 25>
| 26>                          ****END OF INPUT****

CARTESIAN COORDINATES (ANGSTROEM)
---------------------------------
  C      2.495560    1.816150   -2.136360
  C      1.872180    0.427900   -2.077500
  H      2.614270   -0.365830   -2.198890
  H      1.389950    0.273090   -1.112360
  S      0.579020    0.140470   -3.297940
  F      0.228860   -1.246870   -3.127870
  O     -0.439270    1.118970   -3.014550
  O      1.247880    0.403470   -4.595650
  H      2.965350    1.956130   -3.087470
  H      3.225810    1.912420   -1.360240
  H      1.733500    2.555280   -2.002740

 Total Charge           Charge          ....    0
 Multiplicity           Mult            ....    1
 Number of Electrons    NEL             ....   58
 Basis Dimension        Dim             ....  176

ORBITAL ENERGIES
----------------

  NO   OCC          E(Eh)            E(eV)
   0   2.0000     -89.222597     -2427.8703
   1   2.0000     -24.898530      -677.5235
   2   2.0000     -19.232311      -523.3378
   3   2.0000     -19.217119      -522.9244
   4   2.0000     -10.324250      -280.9371
   5   2.0000     -10.278953      -279.7045
   6   2.0000      -8.276821      -225.2238
   7   2.0000      -6.250916      -170.0961
   8   2.0000      -6.244402      -169.9188
   9   2.0000      -6.242994      -169.8805
  10   2.0000      -1.466825       -39.9143
  11   2.0000      -1.196964       -32.5711
  12   2.0000      -1.087486       -29.5920
  13   2.0000      -0.904388       -24.6096
  14   2.0000      -0.820533       -22.3278
  15   2.0000      -0.756147       -20.5758
  16   2.0000      -0.671793       -18.2804
  17   2.0000      -0.668867       -18.2008
  18   2.0000      -0.633914       -17.2497
  19   2.0000      -0.569664       -15.5013
  20   2.0000      -0.560791       -15.2599
  21   2.0000      -0.518692       -14.1143
  22   2.0000      -0.503247       -13.6940
  23   2.0000      -0.480588       -13.0775
  24   2.0000      -0.459708       -12.5093
  25   2.0000      -0.456780       -12.4296
  26   2.0000      -0.405959       -11.0467
  27   2.0000      -0.391040       -10.6407
  28   2.0000      -0.376499       -10.2450
  29   0.0000       0.024139         0.6569
  30   0.0000       0.050847         1.3836
  31   0.0000       0.061708         1.6792
  32   0.0000       0.063249         1.7211
  33   0.0000       0.088773         2.4156

MULLIKEN ATOMIC CHARGES
-----------------------
   0 C :    0.954708
   1 C :   -0.242595
   2 H :   -0.094356
   3 H :   -0.054250
   4 S :    1.509316
   5 F :   -0.410328
   6 O :   -0.643869
   7 O :   -0.686425
   8 H :   -0.101192
   9 H :   -0.136188
  10 H :   -0.094822
Sum of atomic charges:    0.0000000

LOEWDIN ATOMIC CHARGES
----------------------
   0 C :    0.146335
   1 C :   -0.101075
   2 H :    0.024306
   3 H :    0.019528
   4 S :    1.119590
   5 F :   -0.253701
   6 O :   -0.462855
   7 O :   -0.484612
   8 H :   -0.003076
   9 H :   -0.002981
  10 H :   -0.001461

  Mayer bond orders larger than 0.100000
B(  0-C ,  1-C ) :   1.3161 B(  0-C ,  8-H ) :   0.7893 B(  0-C ,  9-H ) :   0.7042
B(  0-C , 10-H ) :   0.7709 B(  1-C ,  2-H ) :   0.9703 B(  1-C ,  3-H ) :   0.9378
B(  1-C ,  4-S ) :   0.9606 B(  1-C ,  8-H ) :   0.2018 B(  1-C ,  9-H ) :   0.2340
B(  1-C , 10-H ) :   0.2086 B(  4-S ,  5-F ) :   0.6987 B(  4-S ,  6-O ) :   1.5185
B(  4-S ,  7-O ) :   1.4791

FINAL SINGLE POINT ENERGY      -727.154696811019

DIPOLE MOMENT
-------------
                                X             Y             Z
Electronic contribution:     -6.76409      -6.40303      -4.02656
Nuclear contribution   :      7.60530       5.82028       5.38743
                        -----------------------------------------
Total Dipole Moment    :      0.84121      -0.58275       1.36087
                        -----------------------------------------
Magnitude (a.u.)       :      1.70270
Magnitude (Debye)      :      4.32793

Rotational constants in cm-1:     0.157861     0.081452     0.078859
Rotational constants in MHz :  4732.562506  2441.865430  2364.129821

                             ****ORCA TERMINATED NORMALLY****
TOTAL RUN TIME: 0 days 0 hours 0 minutes 25 seconds 757 msec
