                         Program Version 5.0.0 -  RELEASE  -
|  1> !CAM-B3LYP RIJCOSX def2-SVPD def2/J TightSCF
|  2> *xyz 0 1
|  3> C          3.38093        2.08304       -3.35013
|  4> C          4.53592        1.18245       -3.42852
|  5> C          2.49556        1.81615       -2.13636
|  6> C          4.67196        0.12227       -4.22060
|  7> N          5.86602       -0.50785       -4.22428
|  8> N          3.69888       -0.31284       -4.98699
|  9> H          2.73141       -0.05009       -4.84900
| 10> H          3.89005       -1.05517       -5.64373
| 11> H          5.25193        1.30346       -2.72101
| 12> H          6.69516       -0.06232       -3.85160
| 13> H          5.97538       -1.39688       -4.69141
| 14> H          2.80646        1.98651       -4.26848
| 15> H          3.77871        3.09828       -3.30738
| 16> H          2.11090        0.81901       -2.18783
| 17> H          1.68276        2.51198       -2.12786
| 18> H          3.07216        1.93031       -1.24227
| 19> *
| 20>
| 21> %MaxCore 64000
| 22>
| 23> %pal nprocs 4
| 24> end
| 25>
| 26> %scf
| 27>   MaxIter 150
| 28> end
| 29>
| 30>
| 31>                          ****END OF INPUT****

CARTESIAN COORDINATES (ANGSTROEM)
---------------------------------
  C      3.380930    2.083040   -3.350130
  C      4.535920    1.182450   -3.428520
  C      2.495560    1.816150   -2.136360
  C      4.671960    0.122270   -4.220600
  N      5.866020   -0.507850   -4.224280
  N      3.698880   -0.312840   -4.986990
  H      2.731410   -0.050090   -4.849000
  H      3.890050   -1.055170   -5.643730
  H      5.251930    1.303460   -2.721010
  H      6.695160   -0.062320   -3.851600
  H      5.975380   -1.396880   -4.691410
  H      2.806460    1.986510   -4.268480
  H      3.778710    3.098280   -3.307380
  H      2.110900    0.819010   -2.187830
  H      1.682760    2.511980   -2.127860
  H      3.072160    1.930310   -1.242270

 Total Charge           Charge          ....    0
 Multiplicity           Mult            ....    1
 Number of Electrons    NEL             ....   48
 Basis Dimension        Dim             ....  200

ORBITAL ENERGIES
----------------

  NO   OCC          E(Eh)            E(eV)
   0   2.0000     -14.408800      -392.0834
   1   2.0000     -14.400998      -391.8711
   2   2.0000     -10.304081      -280.3883
   3   2.0000     -10.231203      -278.4052
   4   2.0000     -10.223779      -278.2032
   5   2.0000     -10.179753      -277.0052
   6   2.0000      -1.036875       -28.2148
   7   2.0000      -0.941890       -25.6301
   8   2.0000      -0.847259       -23.0551
   9   2.0000      -0.768362       -20.9082
  10   2.0000      -0.689099       -18.7513
  11   2.0000      -0.650853       -17.7106
  12   2.0000      -0.616750       -16.7826
  13   2.0000      -0.577065       -15.7027
  14   2.0000      -0.549998       -14.9662
  15   2.0000      -0.511787       -13.9264
  16   2.0000      -0.485045       -13.1987
  17   2.0000      -0.463746       -12.6192
  18   2.0000      -0.446085       -12.1386
  19   2.0000      -0.417434       -11.3589
  20   2.0000      -0.392023       -10.6675
  21   2.0000      -0.385028       -10.4771
  22   2.0000      -0.331003        -9.0071
  23   2.0000      -0.215937        -5.8759
  24   0.0000       0.045435         1.2364
  25   0.0000       0.069318         1.8862
  26   0.0000       0.082778         2.2525
  27   0.0000       0.095821         2.6074
  28   0.0000       0.110415         3.0045

MULLIKEN ATOMIC CHARGES
-----------------------
   0 C :    0.049896
   1 C :   -0.303137
   2 C :    0.822719
   3 C :    0.927026
   4 N :    0.092990
   5 N :    0.154789
   6 H :   -0.126806
   7 H :   -0.262257
   8 H :   -0.417477
   9 H :   -0.119197
  10 H :   -0.170925
  11 H :   -0.189076
  12 H :   -0.122381
  13 H :   -0.157780
  14 H :   -0.072673
  15 H :   -0.105711
Sum of atomic charges:   -0.0000000

LOEWDIN ATOMIC CHARGES
----------------------
   0 C :   -0.096794
   1 C :   -0.036365
   2 C :    0.114332
   3 C :   -0.225546
   4 N :    0.179778
   5 N :    0.196026
   6 H :    0.001052
   7 H :   -0.007203
   8 H :   -0.049316
   9 H :    0.001673
  10 H :   -0.017890
  11 H :   -0.001070
  12 H :    0.012553
  13 H :   -0.024208
  14 H :   -0.026969
  15 H :   -0.020053

  Mayer bond orders larger than 0.100000
B(  0-C ,  1-C ) :   1.1636 B(  0-C ,  2-C ) :   1.2014 B(  0-C ,  8-H ) :   0.2612
B(  0-C , 11-H ) :   0.8261 B(  0-C , 12-H ) :   0.8167 B(  0-C , 13-H ) :   0.2091
B(  0-C , 14-H ) :   0.1853 B(  0-C , 15-H ) :   0.2271 B(  1-C ,  3-C ) :   1.6073
B(  1-C ,  4-N ) :   0.4501 B(  1-C ,  5-N ) :   0.2839 B(  1-C ,  8-H ) :   0.8173
B(  1-C , 11-H ) :   0.2983 B(  1-C , 12-H ) :   0.1720 B(  2-C , 13-H ) :   0.8128
B(  2-C , 14-H ) :   0.7738 B(  2-C , 15-H ) :   0.7672 B(  3-C ,  4-N ) :   0.7502
B(  3-C ,  5-N ) :   1.0134 B(  3-C ,  7-H ) :  -0.1773 B(  3-C ,  8-H ) :   0.1025
B(  3-C ,  9-H ) :  -0.1515 B(  3-C , 11-H ) :  -0.1177 B(  4-N ,  9-H ) :   1.2258
B(  4-N , 10-H ) :   1.1668 B(  5-N ,  6-H ) :   1.1734 B(  5-N ,  7-H ) :   1.3148
B(  6-H ,  7-H ) :  -0.1921 B(  9-H , 10-H ) :  -0.1670

FINAL SINGLE POINT ENERGY      -267.595686691238

DIPOLE MOMENT
-------------
                                X             Y             Z
Electronic contribution:      2.99050      -2.78014      -2.88732
Nuclear contribution   :     -2.84307       1.95814       2.32378
                        -----------------------------------------
Total Dipole Moment    :      0.14742      -0.82200      -0.56354
                        -----------------------------------------
Magnitude (a.u.)       :      1.00747
Magnitude (Debye)      :      2.56078

Rotational constants in cm-1:     0.248902     0.068887     0.059904
Rotational constants in MHz :  7461.898926  2065.183281  1795.882140

                             ****ORCA TERMINATED NORMALLY****
TOTAL RUN TIME: 0 days 0 hours 0 minutes 34 seconds 771 msec
