                         Program Version 5.0.0 -  RELEASE  -
|  1> !CAM-B3LYP RIJCOSX def2-SVPD def2/J TightSCF
|  2> *xyz 0 1
|  3> C          2.49556        1.81615       -2.13636
|  4> C          1.87218        0.42790       -2.07750
|  5> H          2.61427       -0.36583       -2.19889
|  6> H          1.38995        0.27309       -1.11236
|  7> S          0.57902        0.14047       -3.29794
|  8> O          0.22886       -1.24687       -3.12787
|  9> F         -0.43927        1.11897       -3.01455
| 10> O          1.24788        0.40347       -4.59565
| 11> H          2.96535        1.95613       -3.08747
| 12> H          3.22581        1.91242       -1.36024
| 13> H          1.73350        2.55528       -2.00274
| 14> *
| 15>
| 16> %MaxCore 64000
| 17>
| 18> %pal nprocs 4
| 19> end
| 20>
| 21> %scf
| 22>   MaxIter 150
| 23> end
| 24>
| 25>
| 26>                          ****END OF INPUT****

CARTESIAN COORDINATES (ANGSTROEM)
---------------------------------
  C      2.495560    1.816150   -2.136360
  C      1.872180    0.427900   -2.077500
  H      2.614270   -0.365830   -2.198890
  H      1.389950    0.273090   -1.112360
  S      0.579020    0.140470   -3.297940
  O      0.228860   -1.246870   -3.127870
  F     -0.439270    1.118970   -3.014550
  O      1.247880    0.403470   -4.595650
  H      2.965350    1.956130   -3.087470
  H      3.225810    1.912420   -1.360240
  H      1.733500    2.555280   -2.002740

 Total Charge           Charge          ....    0
 Multiplicity           Mult            ....    1
 Number of Electrons    NEL             ....   58
 Basis Dimension        Dim             ....  176

ORBITAL ENERGIES
----------------

  NO   OCC          E(Eh)            E(eV)
   0   2.0000     -89.222758     -2427.8747
   1   2.0000     -24.898624      -677.5260
   2   2.0000     -19.232585      -523.3452
   3   2.0000     -19.217668      -522.9393
   4   2.0000     -10.324190      -280.9355
   5   2.0000     -10.282323      -279.7962
   6   2.0000      -8.276939      -225.2269
   7   2.0000      -6.251132      -170.1019
   8   2.0000      -6.244449      -169.9201
   9   2.0000      -6.243103      -169.8835
  10   2.0000      -1.467330       -39.9281
  11   2.0000      -1.196353       -32.5544
  12   2.0000      -1.088526       -29.6203
  13   2.0000      -0.907376       -24.6909
  14   2.0000      -0.816791       -22.2260
  15   2.0000      -0.760176       -20.6854
  16   2.0000      -0.680462       -18.5163
  17   2.0000      -0.670371       -18.2417
  18   2.0000      -0.626395       -17.0451
  19   2.0000      -0.569540       -15.4980
  20   2.0000      -0.556802       -15.1514
  21   2.0000      -0.528812       -14.3897
  22   2.0000      -0.507398       -13.8070
  23   2.0000      -0.480571       -13.0770
  24   2.0000      -0.469697       -12.7811
  25   2.0000      -0.450767       -12.2660
  26   2.0000      -0.405374       -11.0308
  27   2.0000      -0.390849       -10.6355
  28   2.0000      -0.378517       -10.3000
  29   0.0000       0.021368         0.5815
  30   0.0000       0.054178         1.4743
  31   0.0000       0.060103         1.6355
  32   0.0000       0.063474         1.7272
  33   0.0000       0.085505         2.3267

MULLIKEN ATOMIC CHARGES
-----------------------
   0 C :    0.982433
   1 C :   -0.218893
   2 H :   -0.100162
   3 H :   -0.069335
   4 S :    1.479786
   5 O :   -0.636884
   6 F :   -0.396516
   7 O :   -0.689471
   8 H :   -0.096905
   9 H :   -0.136469
  10 H :   -0.117585
Sum of atomic charges:   -0.0000000

LOEWDIN ATOMIC CHARGES
----------------------
   0 C :    0.131745
   1 C :   -0.090075
   2 H :    0.038530
   3 H :    0.019955
   4 S :    1.117073
   5 O :   -0.463221
   6 F :   -0.252015
   7 O :   -0.482652
   8 H :   -0.005416
   9 H :   -0.004984
  10 H :   -0.008941

  Mayer bond orders larger than 0.100000
B(  0-C ,  1-C ) :   1.2730 B(  0-C ,  8-H ) :   0.7971 B(  0-C ,  9-H ) :   0.6957
B(  0-C , 10-H ) :   0.7628 B(  1-C ,  2-H ) :   0.9853 B(  1-C ,  3-H ) :   0.9512
B(  1-C ,  4-S ) :   0.9867 B(  1-C ,  8-H ) :   0.2033 B(  1-C ,  9-H ) :   0.2328
B(  1-C , 10-H ) :   0.2059 B(  4-S ,  5-O ) :   1.5625 B(  4-S ,  6-F ) :   0.6799
B(  4-S ,  7-O ) :   1.4930

FINAL SINGLE POINT ENERGY      -727.154690254463

DIPOLE MOMENT
-------------
                                X             Y             Z
Electronic contribution:     -7.88654      -2.37952      -3.82778
Nuclear contribution   :      8.30151       3.35500       5.26935
                        -----------------------------------------
Total Dipole Moment    :      0.41497       0.97548       1.44157
                        -----------------------------------------
Magnitude (a.u.)       :      1.78938
Magnitude (Debye)      :      4.54824

Rotational constants in cm-1:     0.152913     0.083043     0.080351
Rotational constants in MHz :  4584.227971  2489.580280  2408.872860

                             ****ORCA TERMINATED NORMALLY****
TOTAL RUN TIME: 0 days 0 hours 0 minutes 26 seconds 117 msec
