                         Program Version 5.0.0 -  RELEASE  -
|  1> !CAM-B3LYP RIJCOSX def2-SVPD def2/J TightSCF
|  2> *xyz 0 1
|  3> C          3.38093        2.08304       -3.35013
|  4> N          4.53592        1.18245       -3.42852
|  5> C          2.49556        1.81615       -2.13636
|  6> C          4.67196        0.12227       -4.22060
|  7> C          5.86602       -0.50785       -4.22428
|  8> N          3.69888       -0.31284       -4.98699
|  9> H          2.73141       -0.05009       -4.84900
| 10> H          3.89005       -1.05517       -5.64373
| 11> H          5.25193        1.30346       -2.72101
| 12> H          6.69516       -0.06232       -3.85160
| 13> H          5.97538       -1.39688       -4.69141
| 14> H          2.80646        1.98651       -4.26848
| 15> H          3.77871        3.09828       -3.30738
| 16> H          2.11090        0.81901       -2.18783
| 17> H          1.68276        2.51198       -2.12786
| 18> H          3.07216        1.93031       -1.24227
| 19> *
| 20>
| 21> %MaxCore 64000
| 22>
| 23> %pal nprocs 4
| 24> end
| 25>
| 26> %scf
| 27>   MaxIter 150
| 28> end
| 29>
| 30>
| 31>                          ****END OF INPUT****

CARTESIAN COORDINATES (ANGSTROEM)
---------------------------------
  C      3.380930    2.083040   -3.350130
  N      4.535920    1.182450   -3.428520
  C      2.495560    1.816150   -2.136360
  C      4.671960    0.122270   -4.220600
  C      5.866020   -0.507850   -4.224280
  N      3.698880   -0.312840   -4.986990
  H      2.731410   -0.050090   -4.849000
  H      3.890050   -1.055170   -5.643730
  H      5.251930    1.303460   -2.721010
  H      6.695160   -0.062320   -3.851600
  H      5.975380   -1.396880   -4.691410
  H      2.806460    1.986510   -4.268480
  H      3.778710    3.098280   -3.307380
  H      2.110900    0.819010   -2.187830
  H      1.682760    2.511980   -2.127860
  H      3.072160    1.930310   -1.242270

 Total Charge           Charge          ....    0
 Multiplicity           Mult            ....    1
 Number of Electrons    NEL             ....   48
 Basis Dimension        Dim             ....  200

ORBITAL ENERGIES
----------------

  NO   OCC          E(Eh)            E(eV)
   0   2.0000     -14.408388      -392.0722
   1   2.0000     -14.403431      -391.9373
   2   2.0000     -10.308253      -280.5018
   3   2.0000     -10.298925      -280.2480
   4   2.0000     -10.252543      -278.9859
   5   2.0000     -10.165763      -276.6245
   6   2.0000      -1.044259       -28.4157
   7   2.0000      -0.961258       -26.1572
   8   2.0000      -0.847615       -23.0648
   9   2.0000      -0.771063       -20.9817
  10   2.0000      -0.700273       -19.0554
  11   2.0000      -0.676212       -18.4007
  12   2.0000      -0.616791       -16.7837
  13   2.0000      -0.569117       -15.4865
  14   2.0000      -0.551402       -15.0044
  15   2.0000      -0.516061       -14.0427
  16   2.0000      -0.498699       -13.5703
  17   2.0000      -0.471116       -12.8197
  18   2.0000      -0.456553       -12.4234
  19   2.0000      -0.435250       -11.8437
  20   2.0000      -0.429645       -11.6912
  21   2.0000      -0.420093       -11.4313
  22   2.0000      -0.318894        -8.6776
  23   2.0000      -0.215019        -5.8510
  24   0.0000       0.041056         1.1172
  25   0.0000       0.072467         1.9719
  26   0.0000       0.076887         2.0922
  27   0.0000       0.082516         2.2454
  28   0.0000       0.109517         2.9801

MULLIKEN ATOMIC CHARGES
-----------------------
   0 C :    0.472577
   1 N :   -0.258953
   2 C :    0.857815
   3 C :    0.671493
   4 C :    0.579566
   5 N :    0.215099
   6 H :   -0.210784
   7 H :   -0.133447
   8 H :   -0.319321
   9 H :   -0.489740
  10 H :   -0.466942
  11 H :   -0.226261
  12 H :   -0.331072
  13 H :   -0.161808
  14 H :   -0.060632
  15 H :   -0.137591
Sum of atomic charges:   -0.0000000

LOEWDIN ATOMIC CHARGES
----------------------
   0 C :    0.013181
   1 N :   -0.011502
   2 C :    0.129467
   3 C :   -0.239060
   4 C :    0.139538
   5 N :    0.195503
   6 H :   -0.013123
   7 H :    0.010813
   8 H :    0.035471
   9 H :   -0.109469
  10 H :   -0.113423
  11 H :    0.006378
  12 H :    0.015925
  13 H :   -0.020789
  14 H :   -0.019374
  15 H :   -0.019539

  Mayer bond orders larger than 0.100000
B(  0-C ,  1-N ) :   0.9333 B(  0-C ,  2-C ) :   1.2244 B(  0-C ,  8-H ) :  -0.2225
B(  0-C , 11-H ) :   0.8521 B(  0-C , 12-H ) :   0.8604 B(  0-C , 13-H ) :   0.2275
B(  0-C , 14-H ) :   0.1988 B(  0-C , 15-H ) :   0.2470 B(  1-N ,  3-C ) :   1.0433
B(  1-N ,  4-C ) :   0.2262 B(  1-N ,  5-N ) :   0.1750 B(  1-N ,  8-H ) :   1.2855
B(  1-N , 11-H ) :   0.1731 B(  1-N , 12-H ) :   0.1687 B(  2-C , 13-H ) :   0.7922
B(  2-C , 14-H ) :   0.7529 B(  2-C , 15-H ) :   0.7584 B(  3-C ,  4-C ) :   1.3864
B(  3-C ,  5-N ) :   1.0562 B(  3-C ,  6-H ) :  -0.1140 B(  3-C ,  8-H ) :  -0.2426
B(  3-C , 10-H ) :   0.2063 B(  4-C ,  5-N ) :   0.1982 B(  4-C ,  9-H ) :   0.8364
B(  4-C , 10-H ) :   0.6927 B(  5-N ,  6-H ) :   1.1963 B(  5-N ,  7-H ) :   1.2078
B(  6-H ,  7-H ) :  -0.1908

FINAL SINGLE POINT ENERGY      -267.584774135209

DIPOLE MOMENT
-------------
                                X             Y             Z
Electronic contribution:      1.49727      -1.09801      -2.04243
Nuclear contribution   :     -2.56090       1.59955       2.15496
                        -----------------------------------------
Total Dipole Moment    :     -1.06363       0.50154       0.11253
                        -----------------------------------------
Magnitude (a.u.)       :      1.18132
Magnitude (Debye)      :      3.00268

Rotational constants in cm-1:     0.249834     0.071381     0.061833
Rotational constants in MHz :  7489.842787  2139.945635  1853.706310

                             ****ORCA TERMINATED NORMALLY****
TOTAL RUN TIME: 0 days 0 hours 0 minutes 35 seconds 616 msec
