                         Program Version 5.0.0 -  RELEASE  -
|  1> !CAM-B3LYP RIJCOSX def2-SVPD def2/J TightSCF
|  2> *xyz 0 1
|  3> C          2.49556        1.81615       -2.13636
|  4> C          1.87218        0.42790       -2.07750
|  5> H          2.61427       -0.36583       -2.19889
|  6> H          1.38995        0.27309       -1.11236
|  7> S          0.57902        0.14047       -3.29794
|  8> O          0.22886       -1.24687       -3.12787
|  9> O         -0.43927        1.11897       -3.01455
| 10> F          1.24788        0.40347       -4.59565
| 11> H          2.96535        1.95613       -3.08747
| 12> H          3.22581        1.91242       -1.36024
| 13> H          1.73350        2.55528       -2.00274
| 14> *
| 15>
| 16> %MaxCore 64000
| 17>
| 18> %pal nprocs 4
| 19> end
| 20>
| 21> %scf
| 22>   MaxIter 150
| 23> end
| 24>
| 25>
| 26>                          ****END OF INPUT****

CARTESIAN COORDINATES (ANGSTROEM)
---------------------------------
  C      2.495560    1.816150   -2.136360
  C      1.872180    0.427900   -2.077500
  H      2.614270   -0.365830   -2.198890
  H      1.389950    0.273090   -1.112360
  S      0.579020    0.140470   -3.297940
  O      0.228860   -1.246870   -3.127870
  O     -0.439270    1.118970   -3.014550
  F      1.247880    0.403470   -4.595650
  H      2.965350    1.956130   -3.087470
  H      3.225810    1.912420   -1.360240
  H      1.733500    2.555280   -2.002740

 Total Charge           Charge          ....    0
 Multiplicity           Mult            ....    1
 Number of Electrons    NEL             ....   58
 Basis Dimension        Dim             ....  176

ORBITAL ENERGIES
----------------

  NO   OCC          E(Eh)            E(eV)
   0   2.0000     -89.220723     -2427.8193
   1   2.0000     -24.876488      -676.9237
   2   2.0000     -19.232230      -523.3356
   3   2.0000     -19.231994      -523.3292
   4   2.0000     -10.322928      -280.9012
   5   2.0000     -10.282771      -279.8084
   6   2.0000      -8.274771      -225.1680
   7   2.0000      -6.248741      -170.0369
   8   2.0000      -6.242565      -169.8688
   9   2.0000      -6.241126      -169.8297
  10   2.0000      -1.430472       -38.9251
  11   2.0000      -1.206748       -32.8373
  12   2.0000      -1.110248       -30.2114
  13   2.0000      -0.906465       -24.6662
  14   2.0000      -0.802351       -21.8331
  15   2.0000      -0.753087       -20.4925
  16   2.0000      -0.662800       -18.0357
  17   2.0000      -0.645196       -17.5567
  18   2.0000      -0.624309       -16.9883
  19   2.0000      -0.571297       -15.5458
  20   2.0000      -0.553820       -15.0702
  21   2.0000      -0.532464       -14.4891
  22   2.0000      -0.511646       -13.9226
  23   2.0000      -0.481870       -13.1123
  24   2.0000      -0.475208       -12.9311
  25   2.0000      -0.452672       -12.3178
  26   2.0000      -0.414446       -11.2776
  27   2.0000      -0.400278       -10.8921
  28   2.0000      -0.393578       -10.7098
  29   0.0000       0.023843         0.6488
  30   0.0000       0.056402         1.5348
  31   0.0000       0.060701         1.6518
  32   0.0000       0.064248         1.7483
  33   0.0000       0.087497         2.3809

MULLIKEN ATOMIC CHARGES
-----------------------
   0 C :    0.978653
   1 C :   -0.218754
   2 H :   -0.107817
   3 H :   -0.059898
   4 S :    1.485259
   5 O :   -0.649343
   6 O :   -0.659759
   7 F :   -0.417410
   8 H :   -0.123489
   9 H :   -0.138304
  10 H :   -0.089136
Sum of atomic charges:    0.0000000

LOEWDIN ATOMIC CHARGES
----------------------
   0 C :    0.131531
   1 C :   -0.089555
   2 H :    0.026169
   3 H :    0.033465
   4 S :    1.114223
   5 O :   -0.463647
   6 O :   -0.461752
   7 F :   -0.270829
   8 H :   -0.009948
   9 H :   -0.004961
  10 H :   -0.004696

  Mayer bond orders larger than 0.100000
B(  0-C ,  1-C ) :   1.2718 B(  0-C ,  8-H ) :   0.7812 B(  0-C ,  9-H ) :   0.6966
B(  0-C , 10-H ) :   0.7796 B(  1-C ,  2-H ) :   0.9899 B(  1-C ,  3-H ) :   0.9501
B(  1-C ,  4-S ) :   0.9876 B(  1-C ,  8-H ) :   0.1961 B(  1-C ,  9-H ) :   0.2341
B(  1-C , 10-H ) :   0.2099 B(  4-S ,  5-O ) :   1.5581 B(  4-S ,  6-O ) :   1.5266
B(  4-S ,  7-F ) :   0.6353

FINAL SINGLE POINT ENERGY      -727.173780721198

DIPOLE MOMENT
-------------
                                X             Y             Z
Electronic contribution:     -5.01040      -3.58750      -6.53154
Nuclear contribution   :      6.54345       4.10057       6.91691
                        -----------------------------------------
Total Dipole Moment    :      1.53305       0.51307       0.38536
                        -----------------------------------------
Magnitude (a.u.)       :      1.66192
Magnitude (Debye)      :      4.22426

Rotational constants in cm-1:     0.152835     0.082826     0.080611
Rotational constants in MHz :  4581.878371  2483.049050  2416.647141

                             ****ORCA TERMINATED NORMALLY****
TOTAL RUN TIME: 0 days 0 hours 0 minutes 25 seconds 761 msec
