                         Program Version 5.0.0 -  RELEASE  -
|  1> !CAM-B3LYP RIJCOSX def2-SVPD def2/J TightSCF
|  2> *xyz 0 1
|  3> C          3.38093        2.08304       -3.35013
|  4> N          4.53592        1.18245       -3.42852
|  5> C          2.49556        1.81615       -2.13636
|  6> C          4.67196        0.12227       -4.22060
|  7> N          5.86602       -0.50785       -4.22428
|  8> C          3.69888       -0.31284       -4.98699
|  9> H          2.73141       -0.05009       -4.84900
| 10> H          3.89005       -1.05517       -5.64373
| 11> H          5.25193        1.30346       -2.72101
| 12> H          6.69516       -0.06232       -3.85160
| 13> H          5.97538       -1.39688       -4.69141
| 14> H          2.80646        1.98651       -4.26848
| 15> H          3.77871        3.09828       -3.30738
| 16> H          2.11090        0.81901       -2.18783
| 17> H          1.68276        2.51198       -2.12786
| 18> H          3.07216        1.93031       -1.24227
| 19> *
| 20>
| 21> %MaxCore 64000
| 22>
| 23> %pal nprocs 4
| 24> end
| 25>
| 26> %scf
| 27>   MaxIter 150
| 28> end
| 29>
| 30>
| 31>                          ****END OF INPUT****

CARTESIAN COORDINATES (ANGSTROEM)
---------------------------------
  C      3.380930    2.083040   -3.350130
  N      4.535920    1.182450   -3.428520
  C      2.495560    1.816150   -2.136360
  C      4.671960    0.122270   -4.220600
  N      5.866020   -0.507850   -4.224280
  C      3.698880   -0.312840   -4.986990
  H      2.731410   -0.050090   -4.849000
  H      3.890050   -1.055170   -5.643730
  H      5.251930    1.303460   -2.721010
  H      6.695160   -0.062320   -3.851600
  H      5.975380   -1.396880   -4.691410
  H      2.806460    1.986510   -4.268480
  H      3.778710    3.098280   -3.307380
  H      2.110900    0.819010   -2.187830
  H      1.682760    2.511980   -2.127860
  H      3.072160    1.930310   -1.242270

 Total Charge           Charge          ....    0
 Multiplicity           Mult            ....    1
 Number of Electrons    NEL             ....   48
 Basis Dimension        Dim             ....  200

ORBITAL ENERGIES
----------------

  NO   OCC          E(Eh)            E(eV)
   0   2.0000     -14.404046      -391.9540
   1   2.0000     -14.401594      -391.8873
   2   2.0000     -10.305763      -280.4341
   3   2.0000     -10.290546      -280.0200
   4   2.0000     -10.244962      -278.7796
   5   2.0000     -10.171232      -276.7733
   6   2.0000      -1.037806       -28.2401
   7   2.0000      -0.952274       -25.9127
   8   2.0000      -0.832063       -22.6416
   9   2.0000      -0.786602       -21.4045
  10   2.0000      -0.712435       -19.3864
  11   2.0000      -0.636532       -17.3209
  12   2.0000      -0.617123       -16.7928
  13   2.0000      -0.585295       -15.9267
  14   2.0000      -0.528041       -14.3687
  15   2.0000      -0.519450       -14.1350
  16   2.0000      -0.491045       -13.3620
  17   2.0000      -0.471527       -12.8309
  18   2.0000      -0.447682       -12.1821
  19   2.0000      -0.442325       -12.0363
  20   2.0000      -0.420980       -11.4554
  21   2.0000      -0.415725       -11.3125
  22   2.0000      -0.311544        -8.4775
  23   2.0000      -0.228214        -6.2100
  24   0.0000       0.047770         1.2999
  25   0.0000       0.067895         1.8475
  26   0.0000       0.081692         2.2230
  27   0.0000       0.087022         2.3680
  28   0.0000       0.111650         3.0382

MULLIKEN ATOMIC CHARGES
-----------------------
   0 C :    0.441779
   1 N :   -0.325674
   2 C :    0.838719
   3 C :    0.885031
   4 N :    0.146897
   5 C :    0.290278
   6 H :   -0.288482
   7 H :   -0.506961
   8 H :   -0.391351
   9 H :   -0.228662
  10 H :   -0.071049
  11 H :   -0.116275
  12 H :   -0.322558
  13 H :   -0.154417
  14 H :   -0.070181
  15 H :   -0.127093
Sum of atomic charges:    0.0000000

LOEWDIN ATOMIC CHARGES
----------------------
   0 C :    0.021785
   1 N :   -0.021100
   2 C :    0.132776
   3 C :   -0.238752
   4 N :    0.183023
   5 C :    0.149993
   6 H :   -0.103394
   7 H :   -0.099926
   8 H :    0.020823
   9 H :   -0.014213
  10 H :    0.000050
  11 H :    0.012389
  12 H :    0.015974
  13 H :   -0.017445
  14 H :   -0.018919
  15 H :   -0.023064

  Mayer bond orders larger than 0.100000
B(  0-C ,  1-N ) :   0.9202 B(  0-C ,  2-C ) :   1.2219 B(  0-C ,  8-H ) :  -0.2025
B(  0-C , 11-H ) :   0.8556 B(  0-C , 12-H ) :   0.8725 B(  0-C , 13-H ) :   0.2178
B(  0-C , 14-H ) :   0.1993 B(  0-C , 15-H ) :   0.2244 B(  1-N ,  3-C ) :   0.9220
B(  1-N ,  4-N ) :   0.1578 B(  1-N ,  5-C ) :   0.3742 B(  1-N ,  8-H ) :   1.3709
B(  1-N , 11-H ) :   0.1396 B(  1-N , 12-H ) :   0.1630 B(  2-C , 13-H ) :   0.8080
B(  2-C , 14-H ) :   0.7595 B(  2-C , 15-H ) :   0.7743 B(  3-C ,  4-N ) :   0.9269
B(  3-C ,  5-C ) :   1.4874 B(  3-C ,  6-H ) :   0.1182 B(  3-C ,  7-H ) :   0.1601
B(  3-C ,  8-H ) :  -0.2988 B(  3-C ,  9-H ) :  -0.1278 B(  4-N ,  5-C ) :   0.2809
B(  4-N ,  9-H ) :   1.2323 B(  4-N , 10-H ) :   1.1529 B(  5-C ,  6-H ) :   0.6917
B(  5-C ,  7-H ) :   0.8327 B(  9-H , 10-H ) :  -0.1752

FINAL SINGLE POINT ENERGY      -267.589829861333

DIPOLE MOMENT
-------------
                                X             Y             Z
Electronic contribution:      3.65734      -1.32201      -1.35978
Nuclear contribution   :     -3.02065       1.64092       1.99316
                        -----------------------------------------
Total Dipole Moment    :      0.63669       0.31891       0.63338
                        -----------------------------------------
Magnitude (a.u.)       :      0.95303
Magnitude (Debye)      :      2.42240

Rotational constants in cm-1:     0.259304     0.069422     0.060943
Rotational constants in MHz :  7773.747720  2081.225169  1827.013389

                             ****ORCA TERMINATED NORMALLY****
TOTAL RUN TIME: 0 days 0 hours 0 minutes 33 seconds 532 msec
