                         Program Version 5.0.0 -  RELEASE  -
|  1> !CAM-B3LYP RIJCOSX def2-SVPD def2/J TightSCF xyzfile
|  2>
|  3> *xyzfile 0 1 D2.xyz
|  4>
|  5> %MaxCore 64000
|  6>
|  7> %pal nprocs 4
|  8> end
|  9>
| 10> %scf
| 11>   MaxIter 150
| 12> end
| 13>
| 14>
| 15>                          ****END OF INPUT****

CARTESIAN COORDINATES (ANGSTROEM)
---------------------------------
  C      3.380928    2.083045   -3.350127
  N      4.535924    1.182447   -3.428518
  C      2.495557    1.816150   -2.136364
  C      1.872181    0.427903   -2.077497
  H      2.614270   -0.365825   -2.198894
  H      1.389953    0.273087   -1.112360
  S      0.579024    0.140472   -3.297943
  C      4.671956    0.122273   -4.220598
  C      5.866023   -0.507849   -4.224284
  N      3.698881   -0.312844   -4.986988
  H      2.731405   -0.050091   -4.849000
  H      3.890046   -1.055172   -5.643730
  H      5.251933    1.303459   -2.721014
  H      6.695165   -0.062322   -3.851596
  H      5.975383   -1.396884   -4.691414
  F      0.228860   -1.246868   -3.127871
  O     -0.439269    1.118966   -3.014550
  O      1.247881    0.403474   -4.595647
  H      1.697003    2.561969   -2.141109
  H      3.080787    1.987436   -1.225838
  H      2.806463    1.986511   -4.268484
  H      3.778714    3.098282   -3.307383

 Total Charge           Charge          ....    0
 Multiplicity           Mult            ....    1
 Number of Electrons    NEL             ....   96
 Basis Dimension        Dim             ....  324

ORBITAL ENERGIES
----------------

  NO   OCC          E(Eh)            E(eV)
   0   2.0000     -89.246694     -2428.5260
   1   2.0000     -24.916668      -678.0170
   2   2.0000     -19.252427      -523.8852
   3   2.0000     -19.245753      -523.7036
   4   2.0000     -14.405942      -392.0056
   5   2.0000     -14.378705      -391.2644
   6   2.0000     -10.334721      -281.2221
   7   2.0000     -10.302737      -280.3517
   8   2.0000     -10.301405      -280.3155
   9   2.0000     -10.297953      -280.2215
  10   2.0000     -10.159931      -276.4658
  11   2.0000      -8.300058      -225.8561
  12   2.0000      -6.274121      -170.7275
  13   2.0000      -6.267976      -170.5603
  14   2.0000      -6.266120      -170.5098
  15   2.0000      -1.484786       -40.4031
  16   2.0000      -1.221344       -33.2345
  17   2.0000      -1.118655       -30.4402
  18   2.0000      -1.038965       -28.2717
  19   2.0000      -0.956143       -26.0180
  20   2.0000      -0.918194       -24.9853
  21   2.0000      -0.852961       -23.2102
  22   2.0000      -0.807456       -21.9720
  23   2.0000      -0.765902       -20.8413
  24   2.0000      -0.716409       -19.4945
  25   2.0000      -0.691574       -18.8187
  26   2.0000      -0.676171       -18.3996
  27   2.0000      -0.671844       -18.2818
  28   2.0000      -0.658764       -17.9259
  29   2.0000      -0.621675       -16.9166
  30   2.0000      -0.584710       -15.9108
  31   2.0000      -0.567131       -15.4324
  32   2.0000      -0.562204       -15.2983
  33   2.0000      -0.554025       -15.0758
  34   2.0000      -0.538286       -14.6475
  35   2.0000      -0.518961       -14.1217
  36   2.0000      -0.488824       -13.3016
  37   2.0000      -0.481451       -13.1010
  38   2.0000      -0.477449       -12.9920
  39   2.0000      -0.457525       -12.4499
  40   2.0000      -0.453120       -12.3300
  41   2.0000      -0.438595       -11.9348
  42   2.0000      -0.426526       -11.6064
  43   2.0000      -0.415951       -11.3186
  44   2.0000      -0.407596       -11.0913
  45   2.0000      -0.395136       -10.7522
  46   2.0000      -0.313177        -8.5220
  47   2.0000      -0.210202        -5.7199
  48   0.0000       0.016465         0.4480
  49   0.0000       0.038250         1.0408
  50   0.0000       0.051458         1.4002
  51   0.0000       0.054715         1.4889
  52   0.0000       0.071527         1.9463

MULLIKEN ATOMIC CHARGES
-----------------------
   0 C :    1.089549
   1 N :   -0.278503
   2 C :    0.302070
   3 C :    0.232985
   4 H :    0.073935
   5 H :   -0.209751
   6 S :    1.581292
   7 C :    0.437453
   8 C :    0.529627
   9 N :    0.774444
  10 H :   -0.541181
  11 H :   -0.222936
  12 H :   -0.273499
  13 H :   -0.471849
  14 H :   -0.373290
  15 F :   -0.416315
  16 O :   -0.674436
  17 O :   -0.825798
  18 H :   -0.063054
  19 H :   -0.108333
  20 H :   -0.147847
  21 H :   -0.414564
Sum of atomic charges:   -0.0000000

LOEWDIN ATOMIC CHARGES
----------------------
   0 C :    0.074983
   1 N :   -0.002444
   2 C :   -0.007310
   3 C :   -0.038097
   4 H :    0.024941
   5 H :    0.023082
   6 S :    1.173946
   7 C :   -0.241025
   8 C :    0.135145
   9 N :    0.229316
  10 H :   -0.156087
  11 H :    0.015533
  12 H :    0.034822
  13 H :   -0.114155
  14 H :   -0.114168
  15 F :   -0.237811
  16 O :   -0.443598
  17 O :   -0.456571
  18 H :    0.032634
  19 H :    0.037353
  20 H :    0.004466
  21 H :    0.025045

  Mayer bond orders larger than 0.100000
B(  0-C ,  1-N ) :   0.9423 B(  0-C ,  2-C ) :   1.0697 B(  0-C , 12-H ) :  -0.2003
B(  0-C , 18-H ) :   0.1585 B(  0-C , 19-H ) :   0.1491 B(  0-C , 20-H ) :   0.7078
B(  0-C , 21-H ) :   0.7734 B(  1-N ,  7-C ) :   1.0476 B(  1-N ,  8-C ) :   0.2090
B(  1-N ,  9-N ) :   0.1127 B(  1-N , 12-H ) :   1.2436 B(  1-N , 20-H ) :   0.2605
B(  1-N , 21-H ) :   0.1556 B(  2-C ,  3-C ) :   1.2569 B(  2-C ,  4-H ) :   0.1585
B(  2-C ,  5-H ) :   0.1909 B(  2-C , 18-H ) :   0.8111 B(  2-C , 19-H ) :   0.7476
B(  2-C , 20-H ) :   0.1620 B(  3-C ,  4-H ) :   0.9034 B(  3-C ,  5-H ) :   0.7406
B(  3-C ,  6-S ) :   0.9306 B(  3-C , 17-O ) :   0.1505 B(  3-C , 18-H ) :   0.1346
B(  3-C , 19-H ) :   0.1387 B(  6-S , 15-F ) :   0.6633 B(  6-S , 16-O ) :   1.5433
B(  6-S , 17-O ) :   1.3587 B(  7-C ,  8-C ) :   1.4275 B(  7-C ,  9-N ) :   1.1135
B(  7-C , 12-H ) :  -0.2111 B(  7-C , 13-H ) :   0.1276 B(  7-C , 14-H ) :   0.2151
B(  8-C ,  9-N ) :   0.1344 B(  8-C , 13-H ) :   0.6960 B(  8-C , 14-H ) :   0.7293
B(  9-N , 10-H ) :   0.9219 B(  9-N , 11-H ) :   1.1336 B(  9-N , 20-H ) :   0.1186
B( 10-H , 11-H ) :  -0.2218 B( 10-H , 17-O ) :   0.1679 B( 13-H , 14-H ) :   0.1474
B( 20-H , 21-H ) :  -0.1626

FINAL SINGLE POINT ENERGY      -954.285160684320

DIPOLE MOMENT
-------------
                                X             Y             Z
Electronic contribution:    -16.71194      -5.23432      -0.32208
Nuclear contribution   :     16.05479       5.17692       1.74190
                        -----------------------------------------
Total Dipole Moment    :     -0.65715      -0.05740       1.41981
                        -----------------------------------------
Magnitude (a.u.)       :      1.56557
Magnitude (Debye)      :      3.97936

Rotational constants in cm-1:     0.058652     0.021107     0.018077
Rotational constants in MHz :  1758.344290   632.763813   541.920558

                             ****ORCA TERMINATED NORMALLY****
TOTAL RUN TIME: 0 days 0 hours 2 minutes 9 seconds 682 msec
