                         Program Version 5.0.0 -  RELEASE  -
|  1> !CAM-B3LYP RIJCOSX def2-SVPD def2/J TightSCF xyzfile
|  2>
|  3> *xyzfile 0 1 D4.xyz
|  4>
|  5> %MaxCore 64000
|  6>
|  7> %pal nprocs 4
|  8> end
|  9>
| 10> %scf
| 11>   MaxIter 150
| 12> end
| 13>
| 14>
| 15>                          ****END OF INPUT****

CARTESIAN COORDINATES (ANGSTROEM)
---------------------------------
  C      3.380928    2.083045   -3.350127
  C      4.535924    1.182447   -3.428518
  C      2.495557    1.816150   -2.136364
  C      1.872181    0.427903   -2.077497
  H      2.614270   -0.365825   -2.198894
  H      1.389953    0.273087   -1.112360
  S      0.579024    0.140472   -3.297943
  C      4.671956    0.122273   -4.220598
  N      5.866023   -0.507849   -4.224284
  N      3.698881   -0.312844   -4.986988
  H      2.731405   -0.050091   -4.849000
  H      3.890046   -1.055172   -5.643730
  H      5.251933    1.303459   -2.721014
  H      6.695165   -0.062322   -3.851596
  H      5.975383   -1.396884   -4.691414
  O      0.228860   -1.246868   -3.127871
  F     -0.439269    1.118966   -3.014550
  O      1.247881    0.403474   -4.595647
  H      1.697003    2.561969   -2.141109
  H      3.080787    1.987436   -1.225838
  H      2.806463    1.986511   -4.268484
  H      3.778714    3.098282   -3.307383

 Total Charge           Charge          ....    0
 Multiplicity           Mult            ....    1
 Number of Electrons    NEL             ....   96
 Basis Dimension        Dim             ....  324

ORBITAL ENERGIES
----------------

  NO   OCC          E(Eh)            E(eV)
   0   2.0000     -89.233211     -2428.1591
   1   2.0000     -24.905186      -677.7046
   2   2.0000     -19.240101      -523.5498
   3   2.0000     -19.233049      -523.3579
   4   2.0000     -14.398557      -391.8047
   5   2.0000     -14.380935      -391.3251
   6   2.0000     -10.315364      -280.6953
   7   2.0000     -10.302237      -280.3381
   8   2.0000     -10.272787      -279.5367
   9   2.0000     -10.237404      -278.5739
  10   2.0000     -10.179562      -277.0000
  11   2.0000      -8.286620      -225.4904
  12   2.0000      -6.260800      -170.3650
  13   2.0000      -6.254609      -170.1966
  14   2.0000      -6.252440      -170.1375
  15   2.0000      -1.473305       -40.0907
  16   2.0000      -1.208167       -32.8759
  17   2.0000      -1.106339       -30.1050
  18   2.0000      -1.027514       -27.9601
  19   2.0000      -0.932404       -25.3720
  20   2.0000      -0.910443       -24.7744
  21   2.0000      -0.843380       -22.9495
  22   2.0000      -0.807097       -21.9622
  23   2.0000      -0.761846       -20.7309
  24   2.0000      -0.705440       -19.1960
  25   2.0000      -0.684661       -18.6306
  26   2.0000      -0.671986       -18.2857
  27   2.0000      -0.657610       -17.8945
  28   2.0000      -0.624212       -16.9857
  29   2.0000      -0.606678       -16.5085
  30   2.0000      -0.588987       -16.0272
  31   2.0000      -0.561269       -15.2729
  32   2.0000      -0.555989       -15.1292
  33   2.0000      -0.549835       -14.9618
  34   2.0000      -0.527808       -14.3624
  35   2.0000      -0.512978       -13.9589
  36   2.0000      -0.482209       -13.1216
  37   2.0000      -0.472438       -12.8557
  38   2.0000      -0.471252       -12.8234
  39   2.0000      -0.450085       -12.2474
  40   2.0000      -0.428402       -11.6574
  41   2.0000      -0.417509       -11.3610
  42   2.0000      -0.410654       -11.1745
  43   2.0000      -0.402901       -10.9635
  44   2.0000      -0.394516       -10.7353
  45   2.0000      -0.374998       -10.2042
  46   2.0000      -0.319982        -8.7071
  47   2.0000      -0.216875        -5.9015
  48   0.0000       0.024345         0.6625
  49   0.0000       0.053004         1.4423
  50   0.0000       0.054169         1.4740
  51   0.0000       0.063502         1.7280
  52   0.0000       0.076486         2.0813

MULLIKEN ATOMIC CHARGES
-----------------------
   0 C :    0.593091
   1 C :   -0.123622
   2 C :    0.373561
   3 C :    0.219248
   4 H :    0.009276
   5 H :   -0.165871
   6 S :    1.611680
   7 C :    0.823554
   8 N :    0.089247
   9 N :    0.640579
  10 H :   -0.439224
  11 H :   -0.293286
  12 H :   -0.474712
  13 H :   -0.144598
  14 H :   -0.161013
  15 O :   -0.643424
  16 F :   -0.470106
  17 O :   -0.844100
  18 H :   -0.090154
  19 H :   -0.109468
  20 H :   -0.186853
  21 H :   -0.213805
Sum of atomic charges:    0.0000000

LOEWDIN ATOMIC CHARGES
----------------------
   0 C :   -0.040572
   1 C :   -0.030241
   2 C :   -0.032428
   3 C :   -0.031224
   4 H :    0.033458
   5 H :    0.020877
   6 S :    1.169262
   7 C :   -0.213302
   8 N :    0.182957
   9 N :    0.234151
  10 H :   -0.139597
  11 H :    0.001435
  12 H :   -0.053335
  13 H :   -0.000181
  14 H :   -0.015815
  15 O :   -0.449326
  16 F :   -0.240720
  17 O :   -0.462066
  18 H :    0.019596
  19 H :    0.034930
  20 H :   -0.006523
  21 H :    0.018663

  Mayer bond orders larger than 0.100000
B(  0-C ,  1-C ) :   1.0769 B(  0-C ,  2-C ) :   1.1128 B(  0-C , 12-H ) :   0.2477
B(  0-C , 18-H ) :   0.1845 B(  0-C , 19-H ) :   0.1689 B(  0-C , 20-H ) :   0.7352
B(  0-C , 21-H ) :   0.6955 B(  1-C ,  2-C ) :   0.1304 B(  1-C ,  7-C ) :   1.5745
B(  1-C ,  8-N ) :   0.4021 B(  1-C ,  9-N ) :   0.2121 B(  1-C , 10-H ) :  -0.1118
B(  1-C , 12-H ) :   0.7521 B(  1-C , 20-H ) :   0.3300 B(  1-C , 21-H ) :   0.1454
B(  2-C ,  3-C ) :   1.2206 B(  2-C ,  4-H ) :   0.1526 B(  2-C ,  5-H ) :   0.1745
B(  2-C , 18-H ) :   0.7465 B(  2-C , 19-H ) :   0.7305 B(  2-C , 20-H ) :   0.1761
B(  2-C , 21-H ) :   0.1142 B(  3-C ,  4-H ) :   0.9545 B(  3-C ,  5-H ) :   0.7483
B(  3-C ,  6-S ) :   0.9573 B(  3-C , 17-O ) :   0.1288 B(  3-C , 18-H ) :   0.1583
B(  3-C , 19-H ) :   0.1427 B(  5-H ,  6-S ) :   0.1111 B(  6-S , 15-O ) :   1.5412
B(  6-S , 16-F ) :   0.6205 B(  6-S , 17-O ) :   1.3478 B(  7-C ,  8-N ) :   0.7804
B(  7-C ,  9-N ) :   1.0693 B(  7-C , 10-H ) :  -0.1148 B(  7-C , 11-H ) :  -0.1956
B(  7-C , 12-H ) :   0.1103 B(  7-C , 13-H ) :  -0.1879 B(  7-C , 20-H ) :  -0.1494
B(  8-N , 12-H ) :   0.1166 B(  8-N , 13-H ) :   1.2550 B(  8-N , 14-H ) :   1.1626
B(  9-N , 10-H ) :   1.1107 B(  9-N , 11-H ) :   1.1955 B( 10-H , 11-H ) :  -0.2022
B( 10-H , 17-O ) :   0.1711 B( 13-H , 14-H ) :  -0.1699

FINAL SINGLE POINT ENERGY      -954.301217668421

DIPOLE MOMENT
-------------
                                X             Y             Z
Electronic contribution:    -16.36473      -2.62439      -0.91827
Nuclear contribution   :     16.65743       2.74852       1.69529
                        -----------------------------------------
Total Dipole Moment    :      0.29270       0.12413       0.77702
                        -----------------------------------------
Magnitude (a.u.)       :      0.83954
Magnitude (Debye)      :      2.13395

Rotational constants in cm-1:     0.059907     0.020458     0.017675
Rotational constants in MHz :  1795.978106   613.328205   529.885290

                             ****ORCA TERMINATED NORMALLY****
TOTAL RUN TIME: 0 days 0 hours 2 minutes 4 seconds 312 msec
