                         Program Version 5.0.0 -  RELEASE  -
|  1> !CAM-B3LYP RIJCOSX def2-SVPD def2/J TightSCF xyzfile
|  2>
|  3> *xyzfile 0 1 D6.xyz
|  4>
|  5> %MaxCore 64000
|  6>
|  7> %pal nprocs 4
|  8> end
|  9>
| 10> %scf
| 11>   MaxIter 150
| 12> end
| 13>
| 14>
| 15>                          ****END OF INPUT****

CARTESIAN COORDINATES (ANGSTROEM)
---------------------------------
  C      3.380928    2.083045   -3.350127
  N      4.535924    1.182447   -3.428518
  C      2.495557    1.816150   -2.136364
  C      1.872181    0.427903   -2.077497
  H      2.614270   -0.365825   -2.198894
  H      1.389953    0.273087   -1.112360
  S      0.579024    0.140472   -3.297943
  C      4.671956    0.122273   -4.220598
  N      5.866023   -0.507849   -4.224284
  C      3.698881   -0.312844   -4.986988
  H      2.731405   -0.050091   -4.849000
  H      3.890046   -1.055172   -5.643730
  H      5.251933    1.303459   -2.721014
  H      6.695165   -0.062322   -3.851596
  H      5.975383   -1.396884   -4.691414
  O      0.228860   -1.246868   -3.127871
  F     -0.439269    1.118966   -3.014550
  O      1.247881    0.403474   -4.595647
  H      1.697003    2.561969   -2.141109
  H      3.080787    1.987436   -1.225838
  H      2.806463    1.986511   -4.268484
  H      3.778714    3.098282   -3.307383

 Total Charge           Charge          ....    0
 Multiplicity           Mult            ....    1
 Number of Electrons    NEL             ....   96
 Basis Dimension        Dim             ....  324

ORBITAL ENERGIES
----------------

  NO   OCC          E(Eh)            E(eV)
   0   2.0000     -89.223793     -2427.9028
   1   2.0000     -24.897907      -677.5065
   2   2.0000     -19.231851      -523.3253
   3   2.0000     -19.217638      -522.9385
   4   2.0000     -14.407140      -392.0382
   5   2.0000     -14.396124      -391.7384
   6   2.0000     -10.320025      -280.8221
   7   2.0000     -10.298379      -280.2331
   8   2.0000     -10.296688      -280.1871
   9   2.0000     -10.292353      -280.0692
  10   2.0000     -10.148567      -276.1565
  11   2.0000      -8.277138      -225.2324
  12   2.0000      -6.251382      -170.1088
  13   2.0000      -6.244852      -169.9311
  14   2.0000      -6.243243      -169.8873
  15   2.0000      -1.466413       -39.9031
  16   2.0000      -1.197598       -32.5883
  17   2.0000      -1.093630       -29.7592
  18   2.0000      -1.037270       -28.2256
  19   2.0000      -0.954754       -25.9802
  20   2.0000      -0.907334       -24.6898
  21   2.0000      -0.831288       -22.6205
  22   2.0000      -0.797548       -21.7024
  23   2.0000      -0.772860       -21.0306
  24   2.0000      -0.722230       -19.6529
  25   2.0000      -0.679527       -18.4909
  26   2.0000      -0.671433       -18.2706
  27   2.0000      -0.642981       -17.4964
  28   2.0000      -0.629297       -17.1240
  29   2.0000      -0.607441       -16.5293
  30   2.0000      -0.588188       -16.0054
  31   2.0000      -0.569417       -15.4946
  32   2.0000      -0.561176       -15.2704
  33   2.0000      -0.537801       -14.6343
  34   2.0000      -0.524663       -14.2768
  35   2.0000      -0.516914       -14.0660
  36   2.0000      -0.488022       -13.2798
  37   2.0000      -0.470658       -12.8072
  38   2.0000      -0.463711       -12.6182
  39   2.0000      -0.455054       -12.3826
  40   2.0000      -0.444684       -12.1005
  41   2.0000      -0.436626       -11.8812
  42   2.0000      -0.420629       -11.4459
  43   2.0000      -0.391922       -10.6647
  44   2.0000      -0.378946       -10.3117
  45   2.0000      -0.363128        -9.8812
  46   2.0000      -0.313387        -8.5277
  47   2.0000      -0.219737        -5.9793
  48   0.0000       0.024024         0.6537
  49   0.0000       0.044685         1.2160
  50   0.0000       0.057453         1.5634
  51   0.0000       0.059168         1.6100
  52   0.0000       0.074391         2.0243

MULLIKEN ATOMIC CHARGES
-----------------------
   0 C :    1.086643
   1 N :   -0.466155
   2 C :    0.325944
   3 C :    0.312788
   4 H :    0.013711
   5 H :   -0.216833
   6 S :    1.584097
   7 C :    0.883067
   8 N :    0.155423
   9 C :    0.891834
  10 H :   -0.896959
  11 H :   -0.467417
  12 H :   -0.325543
  13 H :   -0.194016
  14 H :   -0.059325
  15 O :   -0.639751
  16 F :   -0.470741
  17 O :   -0.849161
  18 H :   -0.110363
  19 H :   -0.126866
  20 H :   -0.030092
  21 H :   -0.400285
Sum of atomic charges:    0.0000000

LOEWDIN ATOMIC CHARGES
----------------------
   0 C :    0.078430
   1 N :   -0.013182
   2 C :   -0.021711
   3 C :   -0.029480
   4 H :    0.034139
   5 H :    0.020366
   6 S :    1.162047
   7 C :   -0.233246
   8 N :    0.179982
   9 C :    0.191589
  10 H :   -0.205624
  11 H :   -0.082770
  12 H :    0.019702
  13 H :   -0.018188
  14 H :   -0.000442
  15 O :   -0.449020
  16 F :   -0.248736
  17 O :   -0.470670
  18 H :    0.025105
  19 H :    0.030449
  20 H :    0.007206
  21 H :    0.024053

  Mayer bond orders larger than 0.100000
B(  0-C ,  1-N ) :   0.9077 B(  0-C ,  2-C ) :   1.0606 B(  0-C , 12-H ) :  -0.1780
B(  0-C , 18-H ) :   0.1484 B(  0-C , 19-H ) :   0.1271 B(  0-C , 20-H ) :   0.6863
B(  0-C , 21-H ) :   0.8034 B(  1-N ,  7-C ) :   0.8860 B(  1-N ,  8-N ) :   0.1772
B(  1-N ,  9-C ) :   0.3067 B(  1-N , 12-H ) :   1.3973 B(  1-N , 20-H ) :   0.1914
B(  1-N , 21-H ) :   0.1504 B(  2-C ,  3-C ) :   1.1967 B(  2-C ,  4-H ) :   0.1502
B(  2-C ,  5-H ) :   0.1830 B(  2-C , 18-H ) :   0.8060 B(  2-C , 19-H ) :   0.7666
B(  2-C , 20-H ) :   0.1555 B(  3-C ,  4-H ) :   0.9519 B(  3-C ,  5-H ) :   0.7215
B(  3-C ,  6-S ) :   0.9687 B(  3-C , 17-O ) :   0.1292 B(  3-C , 18-H ) :   0.1345
B(  3-C , 19-H ) :   0.1300 B(  6-S , 15-O ) :   1.5295 B(  6-S , 16-F ) :   0.6151
B(  6-S , 17-O ) :   1.3918 B(  7-C ,  8-N ) :   0.9152 B(  7-C ,  9-C ) :   1.7483
B(  7-C , 10-H ) :  -0.1465 B(  7-C , 11-H ) :   0.3884 B(  7-C , 12-H ) :  -0.3079
B(  7-C , 20-H ) :  -0.1055 B(  8-N ,  9-C ) :   0.3649 B(  8-N , 11-H ) :   0.1067
B(  8-N , 13-H ) :   1.1812 B(  8-N , 14-H ) :   1.1505 B(  9-C , 11-H ) :   0.6180
B( 10-H , 17-O ) :   0.2029 B( 10-H , 20-H ) :   0.1056 B( 13-H , 14-H ) :  -0.1782
B( 20-H , 21-H ) :  -0.1925

FINAL SINGLE POINT ENERGY      -954.267675511486

DIPOLE MOMENT
-------------
                                X             Y             Z
Electronic contribution:    -15.78694      -1.39731       0.27734
Nuclear contribution   :     16.57580       2.60270       1.54331
                        -----------------------------------------
Total Dipole Moment    :      0.78886       1.20539       1.82065
                        -----------------------------------------
Magnitude (a.u.)       :      2.32164
Magnitude (Debye)      :      5.90114

Rotational constants in cm-1:     0.060402     0.020377     0.017632
Rotational constants in MHz :  1810.792194   610.900365   528.582827

                             ****ORCA TERMINATED NORMALLY****
TOTAL RUN TIME: 0 days 0 hours 2 minutes 18 seconds 489 msec
