                         Program Version 5.0.0 -  RELEASE  -
|  1> !CAM-B3LYP RIJCOSX def2-SVPD def2/J TightSCF xyzfile
|  2>
|  3> *xyzfile 0 1 D7.xyz
|  4>
|  5> %MaxCore 64000
|  6>
|  7> %pal nprocs 4
|  8> end
|  9>
| 10> %scf
| 11>   MaxIter 150
| 12> end
| 13>
| 14>
| 15>                          ****END OF INPUT****

CARTESIAN COORDINATES (ANGSTROEM)
---------------------------------
  C      3.380928    2.083045   -3.350127
  C      4.535924    1.182447   -3.428518
  C      2.495557    1.816150   -2.136364
  C      1.872181    0.427903   -2.077497
  H      2.614270   -0.365825   -2.198894
  H      1.389953    0.273087   -1.112360
  S      0.579024    0.140472   -3.297943
  C      4.671956    0.122273   -4.220598
  N      5.866023   -0.507849   -4.224284
  N      3.698881   -0.312844   -4.986988
  H      2.731405   -0.050091   -4.849000
  H      3.890046   -1.055172   -5.643730
  H      5.251933    1.303459   -2.721014
  H      6.695165   -0.062322   -3.851596
  H      5.975383   -1.396884   -4.691414
  O      0.228860   -1.246868   -3.127871
  O     -0.439269    1.118966   -3.014550
  F      1.247881    0.403474   -4.595647
  H      1.697003    2.561969   -2.141109
  H      3.080787    1.987436   -1.225838
  H      2.806463    1.986511   -4.268484
  H      3.778714    3.098282   -3.307383

 Total Charge           Charge          ....    0
 Multiplicity           Mult            ....    1
 Number of Electrons    NEL             ....   96
 Basis Dimension        Dim             ....  324

ORBITAL ENERGIES
----------------

  NO   OCC          E(Eh)            E(eV)
   0   2.0000     -89.223153     -2427.8854
   1   2.0000     -24.893054      -677.3744
   2   2.0000     -19.234605      -523.4002
   3   2.0000     -19.233969      -523.3829
   4   2.0000     -14.412315      -392.1790
   5   2.0000     -14.411679      -392.1617
   6   2.0000     -10.318647      -280.7847
   7   2.0000     -10.311728      -280.5964
   8   2.0000     -10.272261      -279.5224
   9   2.0000     -10.252495      -278.9846
  10   2.0000     -10.195123      -277.4234
  11   2.0000      -8.276921      -225.2265
  12   2.0000      -6.251329      -170.1073
  13   2.0000      -6.244602      -169.9243
  14   2.0000      -6.242830      -169.8760
  15   2.0000      -1.450233       -39.4628
  16   2.0000      -1.210515       -32.9398
  17   2.0000      -1.111992       -30.2588
  18   2.0000      -1.048151       -28.5216
  19   2.0000      -0.953467       -25.9451
  20   2.0000      -0.910849       -24.7855
  21   2.0000      -0.847159       -23.0524
  22   2.0000      -0.812385       -22.1061
  23   2.0000      -0.767169       -20.8757
  24   2.0000      -0.723342       -19.6831
  25   2.0000      -0.677926       -18.4473
  26   2.0000      -0.666240       -18.1293
  27   2.0000      -0.651251       -17.7214
  28   2.0000      -0.629109       -17.1189
  29   2.0000      -0.622717       -16.9450
  30   2.0000      -0.587521       -15.9872
  31   2.0000      -0.569863       -15.5068
  32   2.0000      -0.552904       -15.0453
  33   2.0000      -0.547291       -14.8925
  34   2.0000      -0.534418       -14.5422
  35   2.0000      -0.528252       -14.3745
  36   2.0000      -0.485668       -13.2157
  37   2.0000      -0.480438       -13.0734
  38   2.0000      -0.479399       -13.0451
  39   2.0000      -0.459167       -12.4946
  40   2.0000      -0.434024       -11.8104
  41   2.0000      -0.421476       -11.4690
  42   2.0000      -0.413144       -11.2422
  43   2.0000      -0.406951       -11.0737
  44   2.0000      -0.397157       -10.8072
  45   2.0000      -0.390018       -10.6129
  46   2.0000      -0.340523        -9.2661
  47   2.0000      -0.232379        -6.3233
  48   0.0000       0.030711         0.8357
  49   0.0000       0.047634         1.2962
  50   0.0000       0.053709         1.4615
  51   0.0000       0.065021         1.7693
  52   0.0000       0.078958         2.1486

MULLIKEN ATOMIC CHARGES
-----------------------
   0 C :    0.582671
   1 C :   -0.095105
   2 C :    0.363382
   3 C :    0.271185
   4 H :   -0.006016
   5 H :   -0.165597
   6 S :    1.456704
   7 C :    0.843300
   8 N :    0.086991
   9 N :    0.623992
  10 H :   -0.385883
  11 H :   -0.283468
  12 H :   -0.455408
  13 H :   -0.143427
  14 H :   -0.156844
  15 O :   -0.664121
  16 O :   -0.695639
  17 F :   -0.549542
  18 H :   -0.063704
  19 H :   -0.090627
  20 H :   -0.261690
  21 H :   -0.211150
Sum of atomic charges:   -0.0000000

LOEWDIN ATOMIC CHARGES
----------------------
   0 C :   -0.040298
   1 C :   -0.025915
   2 C :   -0.029976
   3 C :   -0.032607
   4 H :    0.021319
   5 H :    0.033859
   6 S :    1.126918
   7 C :   -0.213175
   8 N :    0.186019
   9 N :    0.229682
  10 H :   -0.099989
  11 H :    0.005281
  12 H :   -0.047229
  13 H :    0.003392
  14 H :   -0.013722
  15 O :   -0.455099
  16 O :   -0.449718
  17 F :   -0.278422
  18 H :    0.024664
  19 H :    0.036121
  20 H :   -0.003634
  21 H :    0.022532

  Mayer bond orders larger than 0.100000
B(  0-C ,  1-C ) :   1.0784 B(  0-C ,  2-C ) :   1.1210 B(  0-C , 12-H ) :   0.2423
B(  0-C , 18-H ) :   0.1749 B(  0-C , 19-H ) :   0.1775 B(  0-C , 20-H ) :   0.7172
B(  0-C , 21-H ) :   0.7179 B(  1-C ,  2-C ) :   0.1020 B(  1-C ,  7-C ) :   1.5967
B(  1-C ,  8-N ) :   0.4030 B(  1-C ,  9-N ) :   0.2177 B(  1-C , 10-H ) :  -0.1156
B(  1-C , 12-H ) :   0.7437 B(  1-C , 20-H ) :   0.3211 B(  1-C , 21-H ) :   0.1433
B(  2-C ,  3-C ) :   1.2429 B(  2-C ,  4-H ) :   0.1637 B(  2-C ,  5-H ) :   0.1835
B(  2-C , 18-H ) :   0.7742 B(  2-C , 19-H ) :   0.7143 B(  2-C , 20-H ) :   0.1698
B(  2-C , 21-H ) :   0.1076 B(  3-C ,  4-H ) :   0.9414 B(  3-C ,  5-H ) :   0.7263
B(  3-C ,  6-S ) :   0.9890 B(  3-C , 17-F ) :   0.1063 B(  3-C , 18-H ) :   0.1764
B(  3-C , 19-H ) :   0.1535 B(  5-H ,  6-S ) :   0.1268 B(  6-S , 15-O ) :   1.5300
B(  6-S , 16-O ) :   1.5249 B(  6-S , 17-F ) :   0.6270 B(  7-C ,  8-N ) :   0.7763
B(  7-C ,  9-N ) :   1.0426 B(  7-C , 11-H ) :  -0.2082 B(  7-C , 12-H ) :   0.1183
B(  7-C , 13-H ) :  -0.1912 B(  7-C , 20-H ) :  -0.1594 B(  8-N , 12-H ) :   0.1078
B(  8-N , 13-H ) :   1.2533 B(  8-N , 14-H ) :   1.1625 B(  9-N , 10-H ) :   1.1196
B(  9-N , 11-H ) :   1.2150 B( 10-H , 11-H ) :  -0.1799 B( 10-H , 17-F ) :   0.1030
B( 13-H , 14-H ) :  -0.1702

FINAL SINGLE POINT ENERGY      -954.307990809896

DIPOLE MOMENT
-------------
                                X             Y             Z
Electronic contribution:    -13.14640      -3.81804      -3.62239
Nuclear contribution   :     14.80811       3.53278       3.42836
                        -----------------------------------------
Total Dipole Moment    :      1.66171      -0.28525      -0.19403
                        -----------------------------------------
Magnitude (a.u.)       :      1.69714
Magnitude (Debye)      :      4.31380

Rotational constants in cm-1:     0.059173     0.020923     0.018056
Rotational constants in MHz :  1773.956621   627.264018   541.303397

                             ****ORCA TERMINATED NORMALLY****
TOTAL RUN TIME: 0 days 0 hours 2 minutes 9 seconds 86 msec
