                         Program Version 5.0.0 -  RELEASE  -
|  1> !CAM-B3LYP RIJCOSX def2-SVPD def2/J TightSCF
|  2> *xyz -1 1
|  3> C          3.93993        0.32036       -4.36773
|  4> C          5.10585        0.66802       -5.30546
|  5> O          4.80913        1.15019       -6.41436
|  6> O          6.26737        0.56500       -4.81948
|  7> H          3.01376        0.44480       -4.88890
|  8> H          3.96058        0.96928       -3.51722
|  9> H          4.03331       -0.69517       -4.04388
| 10> *
| 11>
| 12> %MaxCore 64000
| 13>
| 14> %pal nprocs 4
| 15> end
| 16>
| 17> %scf
| 18>   MaxIter 150
| 19> end
| 20>
| 21>
| 22>                          ****END OF INPUT****

CARTESIAN COORDINATES (ANGSTROEM)
---------------------------------
  C      3.939930    0.320360   -4.367730
  C      5.105850    0.668020   -5.305460
  O      4.809130    1.150190   -6.414360
  O      6.267370    0.565000   -4.819480
  H      3.013760    0.444800   -4.888900
  H      3.960580    0.969280   -3.517220
  H      4.033310   -0.695170   -4.043880

 Total Charge           Charge          ....   -1
 Multiplicity           Mult            ....    1
 Number of Electrons    NEL             ....   32
 Basis Dimension        Dim             ....  110

ORBITAL ENERGIES
----------------

  NO   OCC          E(Eh)            E(eV)
   0   2.0000     -18.952491      -515.7235
   1   2.0000     -18.947932      -515.5994
   2   2.0000     -10.148414      -276.1524
   3   2.0000     -10.071253      -274.0527
   4   2.0000      -0.893487       -24.3130
   5   2.0000      -0.798881       -21.7386
   6   2.0000      -0.618033       -16.8175
   7   2.0000      -0.373602       -10.1662
   8   2.0000      -0.330495        -8.9932
   9   2.0000      -0.315145        -8.5755
  10   2.0000      -0.298008        -8.1092
  11   2.0000      -0.256328        -6.9750
  12   2.0000      -0.236574        -6.4375
  13   2.0000      -0.113593        -3.0910
  14   2.0000      -0.107575        -2.9273
  15   2.0000      -0.096174        -2.6170
  16   0.0000       0.199655         5.4329
  17   0.0000       0.238803         6.4982
  18   0.0000       0.257965         7.0196
  19   0.0000       0.269880         7.3438
  20   0.0000       0.294549         8.0151

MULLIKEN ATOMIC CHARGES
-----------------------
   0 C :    0.657891
   1 C :    0.003790
   2 O :   -0.606112
   3 O :   -0.663441
   4 H :   -0.144806
   5 H :   -0.125413
   6 H :   -0.121909
Sum of atomic charges:   -1.0000000

LOEWDIN ATOMIC CHARGES
----------------------
   0 C :    0.143665
   1 C :   -0.341420
   2 O :   -0.331345
   3 O :   -0.349463
   4 H :   -0.045218
   5 H :   -0.035951
   6 H :   -0.040267

  Mayer bond orders larger than 0.100000
B(  0-C ,  1-C ) :   1.1781 B(  0-C ,  4-H ) :   0.8396 B(  0-C ,  5-H ) :   0.8019
B(  0-C ,  6-H ) :   0.7828 B(  1-C ,  2-O ) :   1.5446 B(  1-C ,  3-O ) :   1.5118
B(  1-C ,  4-H ) :   0.2622 B(  1-C ,  5-H ) :   0.1700 B(  1-C ,  6-H ) :   0.1862

FINAL SINGLE POINT ENERGY      -228.282201287289

DIPOLE MOMENT
-------------
                                X             Y             Z
Electronic contribution:      2.68189       0.85036      -2.20397
Nuclear contribution   :     -3.81330      -1.22874       3.01208
                        -----------------------------------------
Total Dipole Moment    :     -1.13141      -0.37839       0.80811
                        -----------------------------------------
Magnitude (a.u.)       :      1.44094
Magnitude (Debye)      :      3.66258

Rotational constants in cm-1:     0.390282     0.335702     0.186718
Rotational constants in MHz : 11700.346989 10064.094211  5597.661196

                             ****ORCA TERMINATED NORMALLY****
TOTAL RUN TIME: 0 days 0 hours 0 minutes 10 seconds 516 msec
