                         Program Version 5.0.0 -  RELEASE  -
|  1> !CAM-B3LYP RIJCOSX def2-SVPD def2/J TightSCF
|  2> *xyz 1 1
|  3> C          3.90595        2.81985       -3.75292
|  4> N          5.29562        3.13151       -4.10533
|  5> C          5.70862        3.46889       -5.32419
|  6> N          6.90470        3.03895       -5.71708
|  7> N          4.98188        4.29357       -6.09746
|  8> H          5.00055        4.10131       -7.08776
|  9> H          4.08469        4.59690       -5.73965
| 10> H          5.96336        2.52611       -3.64239
| 11> H          7.04716        2.06686       -5.47360
| 12> H          7.19815        3.30799       -6.64523
| 13> H          3.24866        3.48801       -4.26909
| 14> H          3.77188        2.93227       -2.69732
| 15> H          3.68381        1.81198       -4.03533
| 16> *
| 17>
| 18> %MaxCore 64000
| 19>
| 20> %pal nprocs 4
| 21> end
| 22>
| 23> %scf
| 24>   MaxIter 150
| 25> end
| 26>
| 27>
| 28>                          ****END OF INPUT****

CARTESIAN COORDINATES (ANGSTROEM)
---------------------------------
  C      3.905950    2.819850   -3.752920
  N      5.295620    3.131510   -4.105330
  C      5.708620    3.468890   -5.324190
  N      6.904700    3.038950   -5.717080
  N      4.981880    4.293570   -6.097460
  H      5.000550    4.101310   -7.087760
  H      4.084690    4.596900   -5.739650
  H      5.963360    2.526110   -3.642390
  H      7.047160    2.066860   -5.473600
  H      7.198150    3.307990   -6.645230
  H      3.248660    3.488010   -4.269090
  H      3.771880    2.932270   -2.697320
  H      3.683810    1.811980   -4.035330

 Total Charge           Charge          ....    1
 Multiplicity           Mult            ....    1
 Number of Electrons    NEL             ....   40
 Basis Dimension        Dim             ....  164

ORBITAL ENERGIES
----------------

  NO   OCC          E(Eh)            E(eV)
   0   2.0000     -14.640648      -398.3923
   1   2.0000     -14.638708      -398.3395
   2   2.0000     -14.638345      -398.3296
   3   2.0000     -10.608234      -288.6647
   4   2.0000     -10.470771      -284.9242
   5   2.0000      -1.305742       -35.5310
   6   2.0000      -1.189238       -32.3608
   7   2.0000      -1.181223       -32.1427
   8   2.0000      -0.987249       -26.8644
   9   2.0000      -0.901864       -24.5410
  10   2.0000      -0.859961       -23.4007
  11   2.0000      -0.833743       -22.6873
  12   2.0000      -0.780577       -21.2406
  13   2.0000      -0.765491       -20.8301
  14   2.0000      -0.721766       -19.6403
  15   2.0000      -0.714561       -19.4442
  16   2.0000      -0.660898       -17.9839
  17   2.0000      -0.652654       -17.7596
  18   2.0000      -0.563028       -15.3208
  19   2.0000      -0.534120       -14.5342
  20   0.0000      -0.155330        -4.2267
  21   0.0000      -0.128397        -3.4939
  22   0.0000      -0.087882        -2.3914
  23   0.0000      -0.081524        -2.2184
  24   0.0000      -0.052700        -1.4340

MULLIKEN ATOMIC CHARGES
-----------------------
   0 C :    1.367265
   1 N :   -0.385209
   2 C :    0.601562
   3 N :    0.131007
   4 N :    0.212429
   5 H :   -0.038534
   6 H :   -0.060753
   7 H :   -0.182400
   8 H :   -0.005412
   9 H :   -0.013938
  10 H :   -0.249492
  11 H :   -0.233835
  12 H :   -0.142690
Sum of atomic charges:    1.0000000

LOEWDIN ATOMIC CHARGES
----------------------
   0 C :    0.265092
   1 N :    0.033157
   2 C :   -0.056227
   3 N :    0.275602
   4 N :    0.287010
   5 H :    0.038513
   6 H :    0.018865
   7 H :    0.051405
   8 H :    0.038853
   9 H :    0.037855
  10 H :   -0.012941
  11 H :    0.013136
  12 H :    0.009678

  Mayer bond orders larger than 0.100000
B(  0-C ,  1-N ) :   0.9135 B(  0-C , 10-H ) :   0.7835 B(  0-C , 11-H ) :   0.7426
B(  0-C , 12-H ) :   0.7595 B(  1-N ,  2-C ) :   1.2279 B(  1-N ,  3-N ) :   0.1649
B(  1-N ,  7-H ) :   1.1627 B(  1-N , 10-H ) :   0.1457 B(  1-N , 11-H ) :   0.2091
B(  1-N , 12-H ) :   0.1310 B(  2-C ,  3-N ) :   1.0778 B(  2-C ,  4-N ) :   1.0799
B(  2-C ,  7-H ) :  -0.1531 B(  3-N ,  4-N ) :   0.1087 B(  3-N ,  8-H ) :   1.0444
B(  3-N ,  9-H ) :   0.9844 B(  4-N ,  5-H ) :   1.1113 B(  4-N ,  6-H ) :   1.0034
B(  5-H ,  6-H ) :  -0.1240

FINAL SINGLE POINT ENERGY      -244.786248993819

DIPOLE MOMENT
-------------
                                X             Y             Z
Electronic contribution:      2.49740       1.07315      -1.19926
Nuclear contribution   :     -2.62204      -1.73043       0.52001
                        -----------------------------------------
Total Dipole Moment    :     -0.12463      -0.65728      -0.67925
                        -----------------------------------------
Magnitude (a.u.)       :      0.95338
Magnitude (Debye)      :      2.42331

Rotational constants in cm-1:     0.299316     0.133886     0.097604
Rotational constants in MHz :  8973.254382  4013.798371  2926.103660

                             ****ORCA TERMINATED NORMALLY****
TOTAL RUN TIME: 0 days 0 hours 0 minutes 22 seconds 742 msec
