                         Program Version 5.0.0 -  RELEASE  -
|  1> !CAM-B3LYP RIJCOSX def2-SVPD def2/J TightSCF xyzfile
|  2>
|  3> *xyzfile 0 1 B.xyz
|  4>
|  5> %MaxCore 64000
|  6>
|  7> %pal nprocs 4
|  8> end
|  9>
| 10> %scf
| 11>   MaxIter 150
| 12> end
| 13>
| 14>
| 15>                          ****END OF INPUT****

CARTESIAN COORDINATES (ANGSTROEM)
---------------------------------
  C      3.905947    2.819855   -3.752920
  N      5.295615    3.131515   -4.105334
  C      3.803511    1.374716   -3.260807
  C      3.939934    0.320362   -4.367729
  H      4.105043   -0.655085   -3.907733
  H      3.022801    0.280517   -4.957117
  C      5.105846    0.668022   -5.305463
  C      5.708619    3.468885   -5.324190
  N      6.904696    3.038954   -5.717084
  N      4.981884    4.293570   -6.097457
  H      5.000546    4.101311   -7.087761
  H      4.084693    4.596899   -5.739652
  H      5.963358    2.526112   -3.642391
  H      7.047164    2.066861   -5.473604
  H      7.198145    3.307994   -6.645225
  H      3.282025    2.949187   -4.640259
  H      3.565254    3.514574   -2.982523
  H      4.574833    1.215157   -2.500443
  H      2.843514    1.260845   -2.751465
  O      4.809132    1.150187   -6.414361
  O      6.267366    0.564999   -4.819481

 Total Charge           Charge          ....    0
 Multiplicity           Mult            ....    1
 Number of Electrons    NEL             ....   78
 Basis Dimension        Dim             ....  294

ORBITAL ENERGIES
----------------

  NO   OCC          E(Eh)            E(eV)
   0   2.0000     -19.134947      -520.6884
   1   2.0000     -19.132466      -520.6209
   2   2.0000     -14.472793      -393.8247
   3   2.0000     -14.463273      -393.5657
   4   2.0000     -14.441497      -392.9731
   5   2.0000     -10.432317      -283.8778
   6   2.0000     -10.324794      -280.9519
   7   2.0000     -10.321997      -280.8758
   8   2.0000     -10.271748      -279.5085
   9   2.0000     -10.238674      -278.6085
  10   2.0000      -1.130634       -30.7661
  11   2.0000      -1.079933       -29.3865
  12   2.0000      -1.020360       -27.7654
  13   2.0000      -1.001350       -27.2481
  14   2.0000      -0.984956       -26.8020
  15   2.0000      -0.875007       -23.8101
  16   2.0000      -0.791332       -21.5332
  17   2.0000      -0.732601       -19.9351
  18   2.0000      -0.700104       -19.0508
  19   2.0000      -0.684023       -18.6132
  20   2.0000      -0.649716       -17.6797
  21   2.0000      -0.610523       -16.6132
  22   2.0000      -0.589797       -16.0492
  23   2.0000      -0.572011       -15.5652
  24   2.0000      -0.552250       -15.0275
  25   2.0000      -0.545835       -14.8529
  26   2.0000      -0.503824       -13.7098
  27   2.0000      -0.495264       -13.4768
  28   2.0000      -0.482250       -13.1227
  29   2.0000      -0.460889       -12.5414
  30   2.0000      -0.453312       -12.3352
  31   2.0000      -0.447902       -12.1880
  32   2.0000      -0.410514       -11.1707
  33   2.0000      -0.404952       -11.0193
  34   2.0000      -0.385321       -10.4851
  35   2.0000      -0.358785        -9.7630
  36   2.0000      -0.301135        -8.1943
  37   2.0000      -0.287376        -7.8199
  38   2.0000      -0.279248        -7.5987
  39   0.0000       0.021113         0.5745
  40   0.0000       0.027791         0.7562
  41   0.0000       0.051012         1.3881
  42   0.0000       0.061933         1.6853
  43   0.0000       0.082768         2.2522

MULLIKEN ATOMIC CHARGES
-----------------------
   0 C :    0.927320
   1 N :   -0.305925
   2 C :    0.207233
   3 C :    0.512797
   4 H :   -0.164666
   5 H :   -0.075671
   6 C :    0.276840
   7 C :    0.659590
   8 N :    0.259501
   9 N :    0.047904
  10 H :   -0.044912
  11 H :   -0.019938
  12 H :   -0.116413
  13 H :   -0.134722
  14 H :   -0.010706
  15 H :   -0.057678
  16 H :   -0.440480
  17 H :   -0.008027
  18 H :   -0.258201
  19 O :   -0.560729
  20 O :   -0.693117
Sum of atomic charges:   -0.0000000

LOEWDIN ATOMIC CHARGES
----------------------
   0 C :    0.072978
   1 N :    0.067121
   2 C :   -0.008308
   3 C :    0.040041
   4 H :    0.026125
   5 H :    0.020380
   6 C :   -0.263523
   7 C :   -0.081621
   8 N :    0.287014
   9 N :    0.267401
  10 H :    0.025105
  11 H :    0.007462
  12 H :    0.023746
  13 H :   -0.063611
  14 H :    0.026848
  15 H :    0.023941
  16 H :    0.019764
  17 H :    0.027716
  18 H :    0.022516
  19 O :   -0.264519
  20 O :   -0.276576

  Mayer bond orders larger than 0.100000
B(  0-C ,  1-N ) :   0.8715 B(  0-C ,  2-C ) :   1.1679 B(  0-C , 15-H ) :   0.7080
B(  0-C , 16-H ) :   0.8113 B(  0-C , 18-H ) :   0.1960 B(  1-N ,  2-C ) :   0.1594
B(  1-N ,  7-C ) :   1.1353 B(  1-N ,  8-N ) :   0.1466 B(  1-N , 12-H ) :   1.1151
B(  1-N , 15-H ) :   0.1272 B(  2-C ,  3-C ) :   1.1854 B(  2-C ,  4-H ) :   0.1888
B(  2-C ,  5-H ) :   0.1390 B(  2-C , 15-H ) :   0.1001 B(  2-C , 17-H ) :   0.8170
B(  2-C , 18-H ) :   0.8837 B(  3-C ,  4-H ) :   0.7578 B(  3-C ,  5-H ) :   0.7940
B(  3-C ,  6-C ) :   0.9999 B(  4-H ,  6-C ) :   0.1402 B(  5-H ,  6-C ) :   0.2853
B(  6-C , 19-O ) :   1.6359 B(  6-C , 20-O ) :   1.3976 B(  7-C ,  8-N ) :   1.0484
B(  7-C ,  9-N ) :   0.9081 B(  7-C , 12-H ) :  -0.2061 B(  8-N ,  9-N ) :   0.1393
B(  8-N , 13-H ) :   0.9577 B(  8-N , 14-H ) :   0.9266 B(  9-N , 10-H ) :   1.1303
B(  9-N , 11-H ) :   0.9505 B( 10-H , 11-H ) :  -0.1241 B( 13-H , 20-O ) :   0.1810
B( 15-H , 16-H ) :  -0.1325

FINAL SINGLE POINT ENERGY      -511.319958726260

DIPOLE MOMENT
-------------
                                X             Y             Z
Electronic contribution:      4.13631       0.42807      -3.39540
Nuclear contribution   :     -4.94498       2.03334       3.78956
                        -----------------------------------------
Total Dipole Moment    :     -0.80867       2.46141       0.39416
                        -----------------------------------------
Magnitude (a.u.)       :      2.62066
Magnitude (Debye)      :      6.66119

Rotational constants in cm-1:     0.062533     0.042832     0.033687
Rotational constants in MHz :  1874.701390  1284.063603  1009.911042

                             ****ORCA TERMINATED NORMALLY****
TOTAL RUN TIME: 0 days 0 hours 1 minutes 38 seconds 213 msec
