                         Program Version 5.0.0 -  RELEASE  -
|  1> !CAM-B3LYP RIJCOSX def2-SVPD def2/J TightSCF
|  2> *xyz 0 1
|  3> C          3.93993        0.32036       -4.36773
|  4> C          5.10585        0.66802       -5.30546
|  5> F          4.80913        1.15019       -6.41436
|  6> O          6.26737        0.56500       -4.81948
|  7> H          3.01376        0.44480       -4.88890
|  8> H          3.96058        0.96928       -3.51722
|  9> H          4.03331       -0.69517       -4.04388
| 10> *
| 11>
| 12> %MaxCore 64000
| 13>
| 14> %pal nprocs 4
| 15> end
| 16>
| 17> %scf
| 18>   MaxIter 150
| 19> end
| 20>
| 21>
| 22>                          ****END OF INPUT****

CARTESIAN COORDINATES (ANGSTROEM)
---------------------------------
  C      3.939930    0.320360   -4.367730
  C      5.105850    0.668020   -5.305460
  F      4.809130    1.150190   -6.414360
  O      6.267370    0.565000   -4.819480
  H      3.013760    0.444800   -4.888900
  H      3.960580    0.969280   -3.517220
  H      4.033310   -0.695170   -4.043880

 Total Charge           Charge          ....    0
 Multiplicity           Mult            ....    1
 Number of Electrons    NEL             ....   32
 Basis Dimension        Dim             ....  110

ORBITAL ENERGIES
----------------

  NO   OCC          E(Eh)            E(eV)
   0   2.0000     -24.855626      -676.3560
   1   2.0000     -19.228238      -523.2269
   2   2.0000     -10.454860      -284.4912
   3   2.0000     -10.288721      -279.9703
   4   2.0000      -1.403768       -38.1985
   5   2.0000      -1.108261       -30.1573
   6   2.0000      -0.850760       -23.1504
   7   2.0000      -0.745036       -20.2735
   8   2.0000      -0.637223       -17.3397
   9   2.0000      -0.631204       -17.1759
  10   2.0000      -0.579401       -15.7663
  11   2.0000      -0.518145       -14.0995
  12   2.0000      -0.505335       -13.7509
  13   2.0000      -0.476917       -12.9776
  14   2.0000      -0.424014       -11.5380
  15   2.0000      -0.367944       -10.0123
  16   0.0000       0.010829         0.2947
  17   0.0000       0.040661         1.1064
  18   0.0000       0.083197         2.2639
  19   0.0000       0.115616         3.1461
  20   0.0000       0.117448         3.1959

MULLIKEN ATOMIC CHARGES
-----------------------
   0 C :    0.587504
   1 C :    0.358017
   2 F :   -0.312151
   3 O :   -0.447596
   4 H :   -0.100548
   5 H :   -0.038348
   6 H :   -0.046879
Sum of atomic charges:   -0.0000000

LOEWDIN ATOMIC CHARGES
----------------------
   0 C :    0.216641
   1 C :   -0.038382
   2 F :   -0.027187
   3 O :   -0.143061
   4 H :   -0.014633
   5 H :    0.004491
   6 H :    0.002131

  Mayer bond orders larger than 0.100000
B(  0-C ,  1-C ) :   1.2271 B(  0-C ,  4-H ) :   0.8572 B(  0-C ,  5-H ) :   0.7985
B(  0-C ,  6-H ) :   0.7785 B(  1-C ,  2-F ) :   0.8545 B(  1-C ,  3-O ) :   1.8444
B(  1-C ,  4-H ) :   0.1679 B(  1-C ,  5-H ) :   0.1433 B(  1-C ,  6-H ) :   0.1660

FINAL SINGLE POINT ENERGY      -252.811733357181

DIPOLE MOMENT
-------------
                                X             Y             Z
Electronic contribution:      2.37682       1.62065      -4.15883
Nuclear contribution   :     -3.58567      -1.71656       4.24175
                        -----------------------------------------
Total Dipole Moment    :     -1.20885      -0.09591       0.08292
                        -----------------------------------------
Magnitude (a.u.)       :      1.21548
Magnitude (Debye)      :      3.08950

Rotational constants in cm-1:     0.365806     0.323297     0.177262
Rotational constants in MHz : 10966.600844  9692.195205  5314.176777

                             ****ORCA TERMINATED NORMALLY****
TOTAL RUN TIME: 0 days 0 hours 0 minutes 10 seconds 749 msec
