                         Program Version 5.0.0 -  RELEASE  -
|  1> !CAM-B3LYP RIJCOSX def2-SVPD def2/J TightSCF
|  2> *xyz 0 1
|  3> C          3.90595        2.81985       -3.75292
|  4> C          5.29562        3.13151       -4.10533
|  5> C          5.70862        3.46889       -5.32419
|  6> N          6.90470        3.03895       -5.71708
|  7> N          4.98188        4.29357       -6.09746
|  8> H          5.00055        4.10131       -7.08776
|  9> H          4.08469        4.59690       -5.73965
| 10> H          5.96336        2.52611       -3.64239
| 11> H          7.04716        2.06686       -5.47360
| 12> H          7.19815        3.30799       -6.64523
| 13> H          3.24866        3.48801       -4.26909
| 14> H          3.77188        2.93227       -2.69732
| 15> H          3.68381        1.81198       -4.03533
| 16> *
| 17>
| 18> %MaxCore 64000
| 19>
| 20> %pal nprocs 4
| 21> end
| 22>
| 23> %scf
| 24>   MaxIter 150
| 25> end
| 26>
| 27>
| 28>                          ****END OF INPUT****

CARTESIAN COORDINATES (ANGSTROEM)
---------------------------------
  C      3.905950    2.819850   -3.752920
  C      5.295620    3.131510   -4.105330
  C      5.708620    3.468890   -5.324190
  N      6.904700    3.038950   -5.717080
  N      4.981880    4.293570   -6.097460
  H      5.000550    4.101310   -7.087760
  H      4.084690    4.596900   -5.739650
  H      5.963360    2.526110   -3.642390
  H      7.047160    2.066860   -5.473600
  H      7.198150    3.307990   -6.645230
  H      3.248660    3.488010   -4.269090
  H      3.771880    2.932270   -2.697320
  H      3.683810    1.811980   -4.035330

 Total Charge           Charge          ....    0
 Multiplicity           Mult            ....    1
 Number of Electrons    NEL             ....   40
 Basis Dimension        Dim             ....  164

ORBITAL ENERGIES
----------------

  NO   OCC          E(Eh)            E(eV)
   0   2.0000     -14.408553      -392.0767
   1   2.0000     -14.406677      -392.0256
   2   2.0000     -10.303774      -280.3799
   3   2.0000     -10.228036      -278.3190
   4   2.0000     -10.186568      -277.1906
   5   2.0000      -1.042151       -28.3584
   6   2.0000      -0.950728       -25.8706
   7   2.0000      -0.831662       -22.6307
   8   2.0000      -0.731777       -19.9127
   9   2.0000      -0.654669       -17.8145
  10   2.0000      -0.610351       -16.6085
  11   2.0000      -0.579068       -15.7572
  12   2.0000      -0.548703       -14.9310
  13   2.0000      -0.500797       -13.6274
  14   2.0000      -0.473329       -12.8799
  15   2.0000      -0.450278       -12.2527
  16   2.0000      -0.422961       -11.5094
  17   2.0000      -0.400340       -10.8938
  18   2.0000      -0.341846        -9.3021
  19   2.0000      -0.227279        -6.1846
  20   0.0000       0.043611         1.1867
  21   0.0000       0.072315         1.9678
  22   0.0000       0.084598         2.3020
  23   0.0000       0.095474         2.5980
  24   0.0000       0.116935         3.1820

MULLIKEN ATOMIC CHARGES
-----------------------
   0 C :    1.051190
   1 C :   -0.342892
   2 C :    0.099562
   3 N :    0.155139
   4 N :    0.172955
   5 H :   -0.113059
   6 H :   -0.063528
   7 H :   -0.284948
   8 H :   -0.021897
   9 H :   -0.116873
  10 H :   -0.320400
  11 H :   -0.061331
  12 H :   -0.153920
Sum of atomic charges:    0.0000000

LOEWDIN ATOMIC CHARGES
----------------------
   0 C :    0.096712
   1 C :   -0.053310
   2 C :   -0.251193
   3 N :    0.189134
   4 N :    0.198933
   5 H :   -0.013151
   6 H :   -0.013709
   7 H :   -0.056284
   8 H :    0.002311
   9 H :   -0.012757
  10 H :   -0.043961
  11 H :   -0.022707
  12 H :   -0.020018

  Mayer bond orders larger than 0.100000
B(  0-C ,  1-C ) :   1.0919 B(  0-C ,  7-H ) :   0.2167 B(  0-C , 10-H ) :   0.6654
B(  0-C , 11-H ) :   0.6474 B(  0-C , 12-H ) :   0.7839 B(  1-C ,  2-C ) :   1.9488
B(  1-C ,  3-N ) :   0.2913 B(  1-C ,  4-N ) :   0.1438 B(  1-C ,  7-H ) :   0.6575
B(  1-C , 10-H ) :   0.3335 B(  1-C , 11-H ) :   0.2542 B(  1-C , 12-H ) :   0.1079
B(  2-C ,  3-N ) :   1.0232 B(  2-C ,  4-N ) :   1.0888 B(  2-C ,  7-H ) :   0.3657
B(  3-N ,  8-H ) :   1.0241 B(  3-N ,  9-H ) :   0.9415 B(  4-N ,  5-H ) :   1.0721
B(  4-N ,  6-H ) :   0.9880 B( 10-H , 11-H ) :   0.1320

FINAL SINGLE POINT ENERGY      -228.323092836020

DIPOLE MOMENT
-------------
                                X             Y             Z
Electronic contribution:      2.50755       1.33876      -1.81166
Nuclear contribution   :     -2.63304      -1.77161       0.70501
                        -----------------------------------------
Total Dipole Moment    :     -0.12550      -0.43285      -1.10665
                        -----------------------------------------
Magnitude (a.u.)       :      1.19490
Magnitude (Debye)      :      3.03719

Rotational constants in cm-1:     0.303572     0.135185     0.098519
Rotational constants in MHz :  9100.846149  4052.756012  2953.539431

                             ****ORCA TERMINATED NORMALLY****
TOTAL RUN TIME: 0 days 0 hours 0 minutes 23 seconds 252 msec
