                         Program Version 5.0.0 -  RELEASE  -
|  1> !CAM-B3LYP RIJCOSX def2-SVPD def2/J TightSCF
|  2> *xyz 0 1
|  3> C          3.93993        0.32036       -4.36773
|  4> C          5.10585        0.66802       -5.30546
|  5> O          4.80913        1.15019       -6.41436
|  6> F          6.26737        0.56500       -4.81948
|  7> H          3.01376        0.44480       -4.88890
|  8> H          3.96058        0.96928       -3.51722
|  9> H          4.03331       -0.69517       -4.04388
| 10> *
| 11>
| 12> %MaxCore 64000
| 13>
| 14> %pal nprocs 4
| 15> end
| 16>
| 17> %scf
| 18>   MaxIter 150
| 19> end
| 20>
| 21>
| 22>                          ****END OF INPUT****

CARTESIAN COORDINATES (ANGSTROEM)
---------------------------------
  C      3.939930    0.320360   -4.367730
  C      5.105850    0.668020   -5.305460
  O      4.809130    1.150190   -6.414360
  F      6.267370    0.565000   -4.819480
  H      3.013760    0.444800   -4.888900
  H      3.960580    0.969280   -3.517220
  H      4.033310   -0.695170   -4.043880

 Total Charge           Charge          ....    0
 Multiplicity           Mult            ....    1
 Number of Electrons    NEL             ....   32
 Basis Dimension        Dim             ....  110

ORBITAL ENERGIES
----------------

  NO   OCC          E(Eh)            E(eV)
   0   2.0000     -24.848792      -676.1700
   1   2.0000     -19.231559      -523.3173
   2   2.0000     -10.453104      -284.4434
   3   2.0000     -10.288357      -279.9604
   4   2.0000      -1.389738       -37.8167
   5   2.0000      -1.120031       -30.4776
   6   2.0000      -0.850019       -23.1302
   7   2.0000      -0.737287       -20.0626
   8   2.0000      -0.629759       -17.1366
   9   2.0000      -0.624176       -16.9847
  10   2.0000      -0.579732       -15.7753
  11   2.0000      -0.516811       -14.0631
  12   2.0000      -0.506638       -13.7863
  13   2.0000      -0.479482       -13.0474
  14   2.0000      -0.433472       -11.7954
  15   2.0000      -0.370280       -10.0758
  16   0.0000       0.015769         0.4291
  17   0.0000       0.041358         1.1254
  18   0.0000       0.083413         2.2698
  19   0.0000       0.112634         3.0649
  20   0.0000       0.120559         3.2806

MULLIKEN ATOMIC CHARGES
-----------------------
   0 C :    0.604012
   1 C :    0.366371
   2 O :   -0.401496
   3 F :   -0.357730
   4 H :   -0.117094
   5 H :   -0.043910
   6 H :   -0.050152
Sum of atomic charges:   -0.0000000

LOEWDIN ATOMIC CHARGES
----------------------
   0 C :    0.216529
   1 C :   -0.039218
   2 O :   -0.130007
   3 F :   -0.039475
   4 H :   -0.001807
   5 H :   -0.000550
   6 H :   -0.005472

  Mayer bond orders larger than 0.100000
B(  0-C ,  1-C ) :   1.2049 B(  0-C ,  4-H ) :   0.8607 B(  0-C ,  5-H ) :   0.7956
B(  0-C ,  6-H ) :   0.7835 B(  1-C ,  2-O ) :   1.8954 B(  1-C ,  3-F ) :   0.7869
B(  1-C ,  4-H ) :   0.2251 B(  1-C ,  5-H ) :   0.1334 B(  1-C ,  6-H ) :   0.1437

FINAL SINGLE POINT ENERGY      -252.817609438504

DIPOLE MOMENT
-------------
                                X             Y             Z
Electronic contribution:      4.75571       0.66569      -1.55500
Nuclear contribution   :     -5.09247      -1.11188       2.59376
                        -----------------------------------------
Total Dipole Moment    :     -0.33675      -0.44619       1.03876
                        -----------------------------------------
Magnitude (a.u.)       :      1.17963
Magnitude (Debye)      :      2.99837

Rotational constants in cm-1:     0.367940     0.321271     0.177147
Rotational constants in MHz : 11030.570495  9631.458923  5310.737691

                             ****ORCA TERMINATED NORMALLY****
TOTAL RUN TIME: 0 days 0 hours 0 minutes 10 seconds 564 msec
