                         Program Version 5.0.0 -  RELEASE  -
|  1> !CAM-B3LYP RIJCOSX def2-SVPD def2/J TightSCF
|  2> *xyz 0 1
|  3> C          3.90595        2.81985       -3.75292
|  4> N          5.29562        3.13151       -4.10533
|  5> C          5.70862        3.46889       -5.32419
|  6> C          6.90470        3.03895       -5.71708
|  7> N          4.98188        4.29357       -6.09746
|  8> H          5.00055        4.10131       -7.08776
|  9> H          4.08469        4.59690       -5.73965
| 10> H          5.96336        2.52611       -3.64239
| 11> H          7.04716        2.06686       -5.47360
| 12> H          7.19815        3.30799       -6.64523
| 13> H          3.24866        3.48801       -4.26909
| 14> H          3.77188        2.93227       -2.69732
| 15> H          3.68381        1.81198       -4.03533
| 16> *
| 17>
| 18> %MaxCore 64000
| 19>
| 20> %pal nprocs 4
| 21> end
| 22>
| 23> %scf
| 24>   MaxIter 150
| 25> end
| 26>
| 27>
| 28>                          ****END OF INPUT****

CARTESIAN COORDINATES (ANGSTROEM)
---------------------------------
  C      3.905950    2.819850   -3.752920
  N      5.295620    3.131510   -4.105330
  C      5.708620    3.468890   -5.324190
  C      6.904700    3.038950   -5.717080
  N      4.981880    4.293570   -6.097460
  H      5.000550    4.101310   -7.087760
  H      4.084690    4.596900   -5.739650
  H      5.963360    2.526110   -3.642390
  H      7.047160    2.066860   -5.473600
  H      7.198150    3.307990   -6.645230
  H      3.248660    3.488010   -4.269090
  H      3.771880    2.932270   -2.697320
  H      3.683810    1.811980   -4.035330

 Total Charge           Charge          ....    0
 Multiplicity           Mult            ....    1
 Number of Electrons    NEL             ....   40
 Basis Dimension        Dim             ....  164

ORBITAL ENERGIES
----------------

  NO   OCC          E(Eh)            E(eV)
   0   2.0000     -14.410407      -392.1271
   1   2.0000     -14.409675      -392.1072
   2   2.0000     -10.310771      -280.5704
   3   2.0000     -10.293900      -280.1113
   4   2.0000     -10.173247      -276.8281
   5   2.0000      -1.048144       -28.5214
   6   2.0000      -0.961735       -26.1701
   7   2.0000      -0.823914       -22.4198
   8   2.0000      -0.748181       -20.3590
   9   2.0000      -0.670808       -18.2536
  10   2.0000      -0.608041       -16.5456
  11   2.0000      -0.564675       -15.3656
  12   2.0000      -0.552313       -15.0292
  13   2.0000      -0.524291       -14.2667
  14   2.0000      -0.476426       -12.9642
  15   2.0000      -0.461511       -12.5583
  16   2.0000      -0.456054       -12.4099
  17   2.0000      -0.413126       -11.2417
  18   2.0000      -0.326605        -8.8874
  19   2.0000      -0.236031        -6.4227
  20   0.0000       0.039978         1.0878
  21   0.0000       0.072693         1.9781
  22   0.0000       0.081387         2.2147
  23   0.0000       0.096744         2.6325
  24   0.0000       0.113939         3.1004

MULLIKEN ATOMIC CHARGES
-----------------------
   0 C :    1.353522
   1 N :   -0.430408
   2 C :    0.054123
   3 C :    0.659813
   4 N :    0.238555
   5 H :   -0.078282
   6 H :   -0.156747
   7 H :   -0.166655
   8 H :   -0.316230
   9 H :   -0.412387
  10 H :   -0.294008
  11 H :   -0.288286
  12 H :   -0.163012
Sum of atomic charges:    0.0000000

LOEWDIN ATOMIC CHARGES
----------------------
   0 C :    0.210127
   1 N :   -0.032438
   2 C :   -0.250680
   3 C :    0.143081
   4 N :    0.205511
   5 H :    0.003501
   6 H :   -0.026526
   7 H :    0.021723
   8 H :   -0.104224
   9 H :   -0.105350
  10 H :   -0.032947
  11 H :   -0.015339
  12 H :   -0.016436

  Mayer bond orders larger than 0.100000
B(  0-C ,  1-N ) :   0.9116 B(  0-C , 10-H ) :   0.7768 B(  0-C , 11-H ) :   0.7199
B(  0-C , 12-H ) :   0.7551 B(  1-N ,  2-C ) :   1.2094 B(  1-N ,  3-C ) :   0.1990
B(  1-N ,  7-H ) :   1.1249 B(  1-N , 10-H ) :   0.1516 B(  1-N , 11-H ) :   0.2158
B(  1-N , 12-H ) :   0.1162 B(  2-C ,  3-C ) :   1.8261 B(  2-C ,  4-N ) :   1.0548
B(  2-C ,  7-H ) :  -0.1062 B(  2-C ,  8-H ) :   0.2560 B(  2-C ,  9-H ) :   0.3657
B(  3-C ,  4-N ) :   0.2078 B(  3-C ,  8-H ) :   0.7732 B(  3-C ,  9-H ) :   0.5094
B(  4-N ,  5-H ) :   1.0874 B(  4-N ,  6-H ) :   0.9778 B(  5-H ,  6-H ) :  -0.1198
B(  8-H ,  9-H ) :   0.2184

FINAL SINGLE POINT ENERGY      -228.310257263072

DIPOLE MOMENT
-------------
                                X             Y             Z
Electronic contribution:      0.93974       1.44265      -0.29295
Nuclear contribution   :     -2.30713      -1.79036       0.37856
                        -----------------------------------------
Total Dipole Moment    :     -1.36739      -0.34772       0.08560
                        -----------------------------------------
Magnitude (a.u.)       :      1.41350
Magnitude (Debye)      :      3.59284

Rotational constants in cm-1:     0.307513     0.139026     0.101190
Rotational constants in MHz :  9218.994719  4167.905268  3033.592538

                             ****ORCA TERMINATED NORMALLY****
TOTAL RUN TIME: 0 days 0 hours 0 minutes 22 seconds 645 msec
