                         Program Version 5.0.0 -  RELEASE  -
|  1> !CAM-B3LYP RIJCOSX def2-SVPD def2/J TightSCF
|  2> *xyz 0 1
|  3> C          3.90595        2.81985       -3.75292
|  4> N          5.29562        3.13151       -4.10533
|  5> C          5.70862        3.46889       -5.32419
|  6> N          6.90470        3.03895       -5.71708
|  7> C          4.98188        4.29357       -6.09746
|  8> H          5.00055        4.10131       -7.08776
|  9> H          4.08469        4.59690       -5.73965
| 10> H          5.96336        2.52611       -3.64239
| 11> H          7.04716        2.06686       -5.47360
| 12> H          7.19815        3.30799       -6.64523
| 13> H          3.24866        3.48801       -4.26909
| 14> H          3.77188        2.93227       -2.69732
| 15> H          3.68381        1.81198       -4.03533
| 16> *
| 17>
| 18> %MaxCore 64000
| 19>
| 20> %pal nprocs 4
| 21> end
| 22>
| 23> %scf
| 24>   MaxIter 150
| 25> end
| 26>
| 27>
| 28>                          ****END OF INPUT****

CARTESIAN COORDINATES (ANGSTROEM)
---------------------------------
  C      3.905950    2.819850   -3.752920
  N      5.295620    3.131510   -4.105330
  C      5.708620    3.468890   -5.324190
  N      6.904700    3.038950   -5.717080
  C      4.981880    4.293570   -6.097460
  H      5.000550    4.101310   -7.087760
  H      4.084690    4.596900   -5.739650
  H      5.963360    2.526110   -3.642390
  H      7.047160    2.066860   -5.473600
  H      7.198150    3.307990   -6.645230
  H      3.248660    3.488010   -4.269090
  H      3.771880    2.932270   -2.697320
  H      3.683810    1.811980   -4.035330

 Total Charge           Charge          ....    0
 Multiplicity           Mult            ....    1
 Number of Electrons    NEL             ....   40
 Basis Dimension        Dim             ....  164

ORBITAL ENERGIES
----------------

  NO   OCC          E(Eh)            E(eV)
   0   2.0000     -14.410987      -392.1429
   1   2.0000     -14.410043      -392.1172
   2   2.0000     -10.310080      -280.5515
   3   2.0000     -10.287385      -279.9340
   4   2.0000     -10.177654      -276.9481
   5   2.0000      -1.053155       -28.6578
   6   2.0000      -0.963527       -26.2189
   7   2.0000      -0.799628       -21.7590
   8   2.0000      -0.773525       -21.0487
   9   2.0000      -0.640433       -17.4271
  10   2.0000      -0.614918       -16.7328
  11   2.0000      -0.594656       -16.1814
  12   2.0000      -0.526348       -14.3227
  13   2.0000      -0.519169       -14.1273
  14   2.0000      -0.488852       -13.3023
  15   2.0000      -0.455630       -12.3983
  16   2.0000      -0.447586       -12.1794
  17   2.0000      -0.416462       -11.3325
  18   2.0000      -0.327601        -8.9145
  19   2.0000      -0.236266        -6.4291
  20   0.0000       0.042855         1.1661
  21   0.0000       0.071063         1.9337
  22   0.0000       0.085569         2.3285
  23   0.0000       0.093295         2.5387
  24   0.0000       0.114288         3.1099

MULLIKEN ATOMIC CHARGES
-----------------------
   0 C :    1.392763
   1 N :   -0.317312
   2 C :   -0.013067
   3 N :    0.095846
   4 C :    0.632968
   5 H :   -0.394095
   6 H :   -0.309473
   7 H :   -0.291375
   8 H :   -0.052790
   9 H :   -0.004623
  10 H :   -0.270291
  11 H :   -0.274283
  12 H :   -0.194269
Sum of atomic charges:    0.0000000

LOEWDIN ATOMIC CHARGES
----------------------
   0 C :    0.218499
   1 N :   -0.033345
   2 C :   -0.261944
   3 N :    0.191630
   4 C :    0.162347
   5 H :   -0.105492
   6 H :   -0.116447
   7 H :    0.010150
   8 H :   -0.009409
   9 H :    0.002529
  10 H :   -0.026907
  11 H :   -0.015390
  12 H :   -0.016221

  Mayer bond orders larger than 0.100000
B(  0-C ,  1-N ) :   0.8912 B(  0-C , 10-H ) :   0.7843 B(  0-C , 11-H ) :   0.7101
B(  0-C , 12-H ) :   0.7446 B(  1-N ,  2-C ) :   1.1929 B(  1-N ,  3-N ) :   0.1273
B(  1-N ,  4-C ) :   0.2034 B(  1-N ,  7-H ) :   1.0874 B(  1-N , 10-H ) :   0.1319
B(  1-N , 11-H ) :   0.2046 B(  1-N , 12-H ) :   0.1509 B(  2-C ,  3-N ) :   1.0754
B(  2-C ,  4-C ) :   1.8927 B(  2-C ,  5-H ) :   0.2354 B(  2-C ,  6-H ) :   0.3064
B(  3-N ,  4-C ) :   0.1493 B(  3-N ,  8-H ) :   0.9738 B(  3-N ,  9-H ) :   0.9758
B(  4-C ,  5-H ) :   0.7307 B(  4-C ,  6-H ) :   0.5016 B(  5-H ,  6-H ) :   0.3148

FINAL SINGLE POINT ENERGY      -228.313678433117

DIPOLE MOMENT
-------------
                                X             Y             Z
Electronic contribution:      2.78042       0.26627      -0.00390
Nuclear contribution   :     -2.69659      -1.53624       0.30152
                        -----------------------------------------
Total Dipole Moment    :      0.08383      -1.26998       0.29761
                        -----------------------------------------
Magnitude (a.u.)       :      1.30707
Magnitude (Debye)      :      3.32232

Rotational constants in cm-1:     0.320409     0.134796     0.100241
Rotational constants in MHz :  9605.632807  4041.079317  3005.150506

                             ****ORCA TERMINATED NORMALLY****
TOTAL RUN TIME: 0 days 0 hours 0 minutes 23 seconds 428 msec
