                         Program Version 5.0.0 -  RELEASE  -
|  1> !CAM-B3LYP RIJCOSX def2-SVPD def2/J TightSCF xyzfile
|  2>
|  3> *xyzfile 0 1 D2.xyz
|  4>
|  5> %MaxCore 64000
|  6>
|  7> %pal nprocs 4
|  8> end
|  9>
| 10> %scf
| 11>   MaxIter 150
| 12> end
| 13>
| 14>
| 15>                          ****END OF INPUT****

CARTESIAN COORDINATES (ANGSTROEM)
---------------------------------
  C      3.905947    2.819855   -3.752920
  N      5.295615    3.131515   -4.105334
  C      3.803511    1.374716   -3.260807
  C      3.939934    0.320362   -4.367729
  H      4.105043   -0.655085   -3.907733
  H      3.022801    0.280517   -4.957117
  C      5.105846    0.668022   -5.305463
  C      5.708619    3.468885   -5.324190
  C      6.904696    3.038954   -5.717084
  N      4.981884    4.293570   -6.097457
  H      5.000546    4.101311   -7.087761
  H      4.084693    4.596899   -5.739652
  H      5.963358    2.526112   -3.642391
  H      7.047164    2.066861   -5.473604
  H      7.198145    3.307994   -6.645225
  H      3.282025    2.949187   -4.640259
  H      3.565254    3.514574   -2.982523
  H      4.574833    1.215157   -2.500443
  H      2.843514    1.260845   -2.751465
  F      4.809132    1.150187   -6.414361
  O      6.267366    0.564999   -4.819481

 Total Charge           Charge          ....    0
 Multiplicity           Mult            ....    1
 Number of Electrons    NEL             ....   78
 Basis Dimension        Dim             ....  294

ORBITAL ENERGIES
----------------

  NO   OCC          E(Eh)            E(eV)
   0   2.0000     -24.857996      -676.4205
   1   2.0000     -19.228555      -523.2356
   2   2.0000     -14.406701      -392.0263
   3   2.0000     -14.405758      -392.0006
   4   2.0000     -10.456086      -284.5246
   5   2.0000     -10.308500      -280.5085
   6   2.0000     -10.301206      -280.3101
   7   2.0000     -10.299948      -280.2758
   8   2.0000     -10.291002      -280.0324
   9   2.0000     -10.154523      -276.3186
  10   2.0000      -1.405787       -38.2534
  11   2.0000      -1.116424       -30.3794
  12   2.0000      -1.047452       -28.5026
  13   2.0000      -0.964816       -26.2540
  14   2.0000      -0.899208       -24.4687
  15   2.0000      -0.822087       -22.3701
  16   2.0000      -0.777801       -21.1650
  17   2.0000      -0.743949       -20.2439
  18   2.0000      -0.698371       -19.0036
  19   2.0000      -0.670496       -18.2451
  20   2.0000      -0.644852       -17.5473
  21   2.0000      -0.626694       -17.0532
  22   2.0000      -0.611677       -16.6446
  23   2.0000      -0.585407       -15.9297
  24   2.0000      -0.570527       -15.5248
  25   2.0000      -0.557319       -15.1654
  26   2.0000      -0.541366       -14.7313
  27   2.0000      -0.514854       -14.0099
  28   2.0000      -0.490888       -13.3577
  29   2.0000      -0.477445       -12.9919
  30   2.0000      -0.467999       -12.7349
  31   2.0000      -0.462990       -12.5986
  32   2.0000      -0.438636       -11.9359
  33   2.0000      -0.435479       -11.8500
  34   2.0000      -0.415488       -11.3060
  35   2.0000      -0.406058       -11.0494
  36   2.0000      -0.354318        -9.6415
  37   2.0000      -0.325092        -8.8462
  38   2.0000      -0.225324        -6.1314
  39   0.0000       0.002533         0.0689
  40   0.0000       0.035558         0.9676
  41   0.0000       0.056790         1.5453
  42   0.0000       0.062721         1.7067
  43   0.0000       0.074320         2.0223

MULLIKEN ATOMIC CHARGES
-----------------------
   0 C :    0.901321
   1 N :   -0.241776
   2 C :    0.253222
   3 C :    0.394390
   4 H :   -0.139892
   5 H :   -0.067089
   6 C :    0.688303
   7 C :   -0.098553
   8 C :    0.984018
   9 N :    0.160521
  10 H :   -0.041084
  11 H :   -0.057069
  12 H :   -0.083398
  13 H :   -0.588379
  14 H :   -0.334117
  15 H :   -0.086554
  16 H :   -0.425159
  17 H :   -0.013775
  18 H :   -0.236886
  19 F :   -0.374041
  20 O :   -0.594004
Sum of atomic charges:    0.0000000

LOEWDIN ATOMIC CHARGES
----------------------
   0 C :    0.056302
   1 N :    0.013678
   2 C :   -0.004913
   3 C :    0.065482
   4 H :    0.039279
   5 H :    0.026725
   6 C :    0.004522
   7 C :   -0.261084
   8 C :    0.167677
   9 N :    0.209058
  10 H :    0.002432
  11 H :   -0.021583
  12 H :    0.013355
  13 H :   -0.155538
  14 H :   -0.091116
  15 H :    0.015067
  16 H :    0.016444
  17 H :    0.032886
  18 H :    0.025680
  19 F :   -0.011290
  20 O :   -0.143060

  Mayer bond orders larger than 0.100000
B(  0-C ,  1-N ) :   0.8614 B(  0-C ,  2-C ) :   1.1650 B(  0-C , 15-H ) :   0.6990
B(  0-C , 16-H ) :   0.7986 B(  0-C , 18-H ) :   0.1945 B(  1-N ,  2-C ) :   0.1404
B(  1-N ,  7-C ) :   1.1710 B(  1-N ,  8-C ) :   0.1798 B(  1-N , 12-H ) :   1.0323
B(  1-N , 15-H ) :   0.1487 B(  2-C ,  3-C ) :   1.1916 B(  2-C ,  4-H ) :   0.1915
B(  2-C ,  5-H ) :   0.1337 B(  2-C , 17-H ) :   0.8132 B(  2-C , 18-H ) :   0.8782
B(  3-C ,  4-H ) :   0.7669 B(  3-C ,  5-H ) :   0.8410 B(  3-C ,  6-C ) :   1.0948
B(  4-H ,  6-C ) :   0.1369 B(  5-H ,  6-C ) :   0.1425 B(  6-C , 19-F ) :   0.7176
B(  6-C , 20-O ) :   1.7525 B(  7-C ,  8-C ) :   1.8822 B(  7-C ,  9-N ) :   0.9330
B(  7-C , 11-H ) :   0.1715 B(  7-C , 12-H ) :  -0.1420 B(  7-C , 13-H ) :   0.2023
B(  7-C , 14-H ) :   0.5125 B(  8-C ,  9-N ) :   0.2615 B(  8-C , 13-H ) :   0.4205
B(  8-C , 14-H ) :   0.2192 B(  9-N , 10-H ) :   1.0516 B(  9-N , 11-H ) :   0.8531
B( 10-H , 11-H ) :  -0.1326 B( 13-H , 14-H ) :   0.1979 B( 13-H , 20-O ) :   0.2168
B( 15-H , 16-H ) :  -0.1437

FINAL SINGLE POINT ENERGY      -519.175200889142

DIPOLE MOMENT
-------------
                                X             Y             Z
Electronic contribution:      2.03959      -3.78888      -5.16223
Nuclear contribution   :     -4.40347       3.21582       5.36161
                        -----------------------------------------
Total Dipole Moment    :     -2.36389      -0.57307       0.19939
                        -----------------------------------------
Magnitude (a.u.)       :      2.44052
Magnitude (Debye)      :      6.20330

Rotational constants in cm-1:     0.061226     0.043199     0.033926
Rotational constants in MHz :  1835.503528  1295.087558  1017.061512

                             ****ORCA TERMINATED NORMALLY****
TOTAL RUN TIME: 0 days 0 hours 1 minutes 53 seconds 523 msec
