                         Program Version 5.0.0 -  RELEASE  -
|  1> !B3LYP D3BJ RIJCOSX def2-SVPD def2/J TightSCF
|  2> *xyz -1 1
|  3> C          4.90646       -3.10282       -5.95484
|  4> C          3.51177       -2.80621       -6.49228
|  5> H          2.73604       -3.37345       -5.97374
|  6> H          3.44490       -3.04083       -7.55528
|  7> S          3.00462       -1.09621       -6.38926
|  8> O          4.12886       -0.32965       -6.95372
|  9> O          1.78128       -1.00078       -7.13640
| 10> C          5.02498       -3.02568       -4.43762
| 11> H          5.20153       -4.10021       -6.29691
| 12> H          5.60592       -2.39782       -6.41337
| 13> O          2.85155       -0.78368       -4.95679
| 14> H          4.73604       -2.05011       -4.10644
| 15> H          6.03776       -3.21492       -4.14890
| 16> H          4.38436       -3.75784       -3.99214
| 17> *
| 18>
| 19> %MaxCore 64000
| 20>
| 21> %pal nprocs 8
| 22> end
| 23>
| 24> %scf
| 25>   MaxIter 150
| 26> end
| 27>
| 28>
| 29>                          ****END OF INPUT****

CARTESIAN COORDINATES (ANGSTROEM)
---------------------------------
  C      4.906460   -3.102820   -5.954840
  C      3.511770   -2.806210   -6.492280
  H      2.736040   -3.373450   -5.973740
  H      3.444900   -3.040830   -7.555280
  S      3.004620   -1.096210   -6.389260
  O      4.128860   -0.329650   -6.953720
  O      1.781280   -1.000780   -7.136400
  C      5.024980   -3.025680   -4.437620
  H      5.201530   -4.100210   -6.296910
  H      5.605920   -2.397820   -6.413370
  O      2.851550   -0.783680   -4.956790
  H      4.736040   -2.050110   -4.106440
  H      6.037760   -3.214920   -4.148900
  H      4.384360   -3.757840   -3.992140

 Total Charge           Charge          ....   -1
 Multiplicity           Mult            ....    1
 Number of Electrons    NEL             ....   66
 Basis Dimension        Dim             ....  212

ORBITAL ENERGIES
----------------

  NO   OCC          E(Eh)            E(eV)
   0   2.0000     -88.882700     -2418.6212
   1   2.0000     -18.924492      -514.9616
   2   2.0000     -18.913624      -514.6659
   3   2.0000     -18.913106      -514.6518
   4   2.0000     -10.052996      -273.5559
   5   2.0000     -10.048857      -273.4433
   6   2.0000     -10.036883      -273.1175
   7   2.0000      -7.936423      -215.9611
   8   2.0000      -5.905382      -160.6936
   9   2.0000      -5.905299      -160.6913
  10   2.0000      -5.904609      -160.6726
  11   2.0000      -0.931223       -25.3399
  12   2.0000      -0.790406       -21.5080
  13   2.0000      -0.770083       -20.9550
  14   2.0000      -0.653880       -17.7930
  15   2.0000      -0.565339       -15.3837
  16   2.0000      -0.469326       -12.7710
  17   2.0000      -0.383230       -10.4282
  18   2.0000      -0.332355        -9.0438
  19   2.0000      -0.323110        -8.7923
  20   2.0000      -0.294780        -8.0214
  21   2.0000      -0.282660        -7.6916
  22   2.0000      -0.264641        -7.2012
  23   2.0000      -0.255348        -6.9484
  24   2.0000      -0.225707        -6.1418
  25   2.0000      -0.217511        -5.9188
  26   2.0000      -0.207266        -5.6400
  27   2.0000      -0.153084        -4.1656
  28   2.0000      -0.152702        -4.1552
  29   2.0000      -0.118007        -3.2111
  30   2.0000      -0.109483        -2.9792
  31   2.0000      -0.103998        -2.8299
  32   2.0000      -0.067348        -1.8326
  33   0.0000       0.134826         3.6688
  34   0.0000       0.160164         4.3583
  35   0.0000       0.165740         4.5100
  36   0.0000       0.178629         4.8607
  37   0.0000       0.194908         5.3037

MULLIKEN ATOMIC CHARGES
-----------------------
   0 C :   -0.051037
   1 C :    0.156984
   2 H :   -0.097402
   3 H :   -0.122911
   4 S :    1.370691
   5 O :   -0.834399
   6 O :   -0.809752
   7 C :    1.047498
   8 H :   -0.234166
   9 H :   -0.090973
  10 O :   -0.845492
  11 H :   -0.244275
  12 H :   -0.155116
  13 H :   -0.089649
Sum of atomic charges:   -1.0000000

LOEWDIN ATOMIC CHARGES
----------------------
   0 C :   -0.085303
   1 C :   -0.093793
   2 H :    0.005982
   3 H :    0.001096
   4 S :    0.865685
   5 O :   -0.585055
   6 O :   -0.570075
   7 C :    0.127282
   8 H :    0.003325
   9 H :    0.011919
  10 O :   -0.583434
  11 H :   -0.037587
  12 H :   -0.034829
  13 H :   -0.025212

  Mayer bond orders larger than 0.100000
B(  0-C ,  1-C ) :   1.1996 B(  0-C ,  2-H ) :   0.1206 B(  0-C ,  3-H ) :   0.1393
B(  0-C ,  7-C ) :   1.2295 B(  0-C ,  8-H ) :   0.8355 B(  0-C ,  9-H ) :   0.8723
B(  0-C , 11-H ) :   0.2769 B(  0-C , 12-H ) :   0.2449 B(  0-C , 13-H ) :   0.2388
B(  1-C ,  2-H ) :   0.9012 B(  1-C ,  3-H ) :   0.9154 B(  1-C ,  4-S ) :   0.9244
B(  1-C ,  8-H ) :   0.1493 B(  1-C ,  9-H ) :   0.1599 B(  4-S ,  5-O ) :   1.2428
B(  4-S ,  6-O ) :   1.3300 B(  4-S , 10-O ) :   1.2360 B(  7-C , 11-H ) :   0.7410
B(  7-C , 12-H ) :   0.6749 B(  7-C , 13-H ) :   0.6931 B( 11-H , 13-H ) :   0.1160

Dispersion correction           -0.022741073
FINAL SINGLE POINT ENERGY      -741.853750879380

DIPOLE MOMENT
-------------
                                X             Y             Z
Electronic contribution:     -6.17896       7.88333      -3.68321
Nuclear contribution   :      7.19636      -9.97366       3.94889
                        -----------------------------------------
Total Dipole Moment    :      1.01740      -2.09033       0.26568
                        -----------------------------------------
Magnitude (a.u.)       :      2.33991
Magnitude (Debye)      :      5.94757

Rotational constants in cm-1:     0.137066     0.054570     0.051980
Rotational constants in MHz :  4109.139955  1635.961703  1558.315282

                             ****ORCA TERMINATED NORMALLY****
TOTAL RUN TIME: 0 days 0 hours 0 minutes 14 seconds 407 msec
