                         Program Version 5.0.0 -  RELEASE  -
|  1> !B3LYP D3BJ RIJCOSX def2-SVPD def2/J TightSCF
|  2> *xyz 1 1
|  3> C          4.49059        1.15590       -2.46929
|  4> N          4.30539        1.22276       -3.90832
|  5> C          4.63192        2.24637       -4.67096
|  6> N          4.54169        2.14399       -5.98714
|  7> N          5.08409        3.39358       -4.11855
|  8> H          4.92067        3.57050       -3.13587
|  9> H          5.25465        4.19739       -4.70696
| 10> H          3.82453        0.44911       -4.35093
| 11> H          4.34337        1.24932       -6.41665
| 12> H          4.67671        2.95662       -6.57411
| 13> C          5.94213        0.93950       -2.03689
| 14> H          3.86431        0.32853       -2.13661
| 15> H          4.07623        2.04999       -1.98901
| 16> C          6.55996       -0.35629       -2.55909
| 17> H          5.96798        0.95257       -0.94244
| 18> H          6.54718        1.78833       -2.36885
| 19> H          6.53022       -0.35990       -3.62867
| 20> H          6.00654       -1.19175       -2.18407
| 21> H          7.57588       -0.42487       -2.23029
| 22> *
| 23>
| 24> %MaxCore 64000
| 25>
| 26> %pal nprocs 8
| 27> end
| 28>
| 29> %scf
| 30>   MaxIter 150
| 31> end
| 32>
| 33>
| 34>                          ****END OF INPUT****

CARTESIAN COORDINATES (ANGSTROEM)
---------------------------------
  C      4.490590    1.155900   -2.469290
  N      4.305390    1.222760   -3.908320
  C      4.631920    2.246370   -4.670960
  N      4.541690    2.143990   -5.987140
  N      5.084090    3.393580   -4.118550
  H      4.920670    3.570500   -3.135870
  H      5.254650    4.197390   -4.706960
  H      3.824530    0.449110   -4.350930
  H      4.343370    1.249320   -6.416650
  H      4.676710    2.956620   -6.574110
  C      5.942130    0.939500   -2.036890
  H      3.864310    0.328530   -2.136610
  H      4.076230    2.049990   -1.989010
  C      6.559960   -0.356290   -2.559090
  H      5.967980    0.952570   -0.942440
  H      6.547180    1.788330   -2.368850
  H      6.530220   -0.359900   -3.628670
  H      6.006540   -1.191750   -2.184070
  H      7.575880   -0.424870   -2.230290

 Total Charge           Charge          ....    1
 Multiplicity           Mult            ....    1
 Number of Electrons    NEL             ....   56
 Basis Dimension        Dim             ....  236

ORBITAL ENERGIES
----------------

  NO   OCC          E(Eh)            E(eV)
   0   2.0000     -14.552945      -396.0058
   1   2.0000     -14.551445      -395.9649
   2   2.0000     -14.549804      -395.9203
   3   2.0000     -10.516137      -286.1586
   4   2.0000     -10.385295      -282.5983
   5   2.0000     -10.323414      -280.9144
   6   2.0000     -10.294394      -280.1247
   7   2.0000      -1.205523       -32.8040
   8   2.0000      -1.096477       -29.8366
   9   2.0000      -1.080953       -29.4142
  10   2.0000      -0.931851       -25.3570
  11   2.0000      -0.859182       -23.3795
  12   2.0000      -0.818988       -22.2858
  13   2.0000      -0.787436       -21.4272
  14   2.0000      -0.763499       -20.7759
  15   2.0000      -0.721503       -19.6331
  16   2.0000      -0.691635       -18.8203
  17   2.0000      -0.689056       -18.7502
  18   2.0000      -0.659274       -17.9398
  19   2.0000      -0.626152       -17.0384
  20   2.0000      -0.597086       -16.2475
  21   2.0000      -0.576460       -15.6863
  22   2.0000      -0.547847       -14.9077
  23   2.0000      -0.503634       -13.7046
  24   2.0000      -0.486764       -13.2455
  25   2.0000      -0.484652       -13.1881
  26   2.0000      -0.470723       -12.8090
  27   2.0000      -0.446805       -12.1582
  28   0.0000      -0.169889        -4.6229
  29   0.0000      -0.155232        -4.2241
  30   0.0000      -0.123367        -3.3570
  31   0.0000      -0.114672        -3.1204
  32   0.0000      -0.093428        -2.5423

MULLIKEN ATOMIC CHARGES
-----------------------
   0 C :    0.908521
   1 N :   -0.485091
   2 C :    1.356644
   3 N :    0.059145
   4 N :    0.117660
   5 H :   -0.049605
   6 H :   -0.211976
   7 H :   -0.189771
   8 H :   -0.094406
   9 H :   -0.089301
  10 C :   -0.190380
  11 H :   -0.382836
  12 H :   -0.104597
  13 C :    0.944219
  14 H :   -0.200676
  15 H :   -0.054202
  16 H :   -0.171320
  17 H :   -0.018030
  18 H :   -0.143997
Sum of atomic charges:    1.0000000

LOEWDIN ATOMIC CHARGES
----------------------
   0 C :    0.073367
   1 N :    0.050259
   2 C :   -0.035970
   3 N :    0.268100
   4 N :    0.288660
   5 H :    0.014999
   6 H :    0.033604
   7 H :    0.061656
   8 H :    0.039898
   9 H :    0.038952
  10 C :   -0.048203
  11 H :    0.040716
  12 H :    0.025751
  13 C :    0.145781
  14 H :    0.034907
  15 H :    0.011138
  16 H :   -0.027467
  17 H :   -0.010300
  18 H :   -0.005845

  Mayer bond orders larger than 0.100000
B(  0-C ,  1-N ) :   0.8996 B(  0-C ,  2-C ) :  -0.1116 B(  0-C ,  7-H ) :  -0.1622
B(  0-C , 10-C ) :   1.1300 B(  0-C , 11-H ) :   0.6792 B(  0-C , 12-H ) :   0.8675
B(  0-C , 15-H ) :   0.1207 B(  1-N ,  2-C ) :   0.9683 B(  1-N ,  3-N ) :   0.3133
B(  1-N ,  4-N ) :   0.2541 B(  1-N ,  7-H ) :   1.2866 B(  1-N , 11-H ) :   0.2537
B(  2-C ,  3-N ) :   0.8341 B(  2-C ,  4-N ) :   0.9458 B(  2-C ,  5-H ) :  -0.1243
B(  2-C ,  6-H ) :  -0.1632 B(  2-C ,  7-H ) :  -0.2535 B(  2-C ,  8-H ) :  -0.1995
B(  2-C ,  9-H ) :  -0.1396 B(  3-N ,  4-N ) :   0.1514 B(  3-N ,  8-H ) :   1.2146
B(  3-N ,  9-H ) :   1.2415 B(  4-N ,  5-H ) :   1.0911 B(  4-N ,  6-H ) :   1.2779
B(  5-H ,  6-H ) :  -0.2124 B(  8-H ,  9-H ) :  -0.1851 B( 10-C , 11-H ) :   0.1323
B( 10-C , 13-C ) :   1.3190 B( 10-C , 14-H ) :   0.9780 B( 10-C , 15-H ) :   0.8639
B( 10-C , 16-H ) :   0.2257 B( 10-C , 17-H ) :   0.2174 B( 10-C , 18-H ) :   0.2488
B( 11-H , 12-H ) :  -0.1307 B( 13-C , 16-H ) :   0.7748 B( 13-C , 17-H ) :   0.7477
B( 13-C , 18-H ) :   0.7433

Dispersion correction           -0.025899193
FINAL SINGLE POINT ENERGY      -323.323493604858

DIPOLE MOMENT
-------------
                                X             Y             Z
Electronic contribution:     -3.25646       3.78780      -4.82815
Nuclear contribution   :      2.46011      -2.82418       3.51638
                        -----------------------------------------
Total Dipole Moment    :     -0.79635       0.96361      -1.31177
                        -----------------------------------------
Magnitude (a.u.)       :      1.81203
Magnitude (Debye)      :      4.60582

Rotational constants in cm-1:     0.152406     0.050160     0.046480
Rotational constants in MHz :  4569.006375  1503.763011  1393.441650

                             ****ORCA TERMINATED NORMALLY****
TOTAL RUN TIME: 0 days 0 hours 0 minutes 18 seconds 91 msec
