                         Program Version 5.0.0 -  RELEASE  -
|  1> !B3LYP D3BJ RIJCOSX def2-SVPD def2/J TightSCF xyzfile
|  2>
|  3> *xyzfile 0 1 B.xyz
|  4>
|  5> %MaxCore 64000
|  6>
|  7> %pal nprocs 4
|  8> end
|  9>
| 10> %scf
| 11>   MaxIter 150
| 12> end
| 13>
| 14>
| 15>                          ****END OF INPUT****

CARTESIAN COORDINATES (ANGSTROEM)
---------------------------------
  C      4.490588    1.155899   -2.469290
  N      4.305394    1.222762   -3.908317
  C      4.906458   -3.102816   -5.954844
  C      3.511771   -2.806215   -6.492283
  H      2.736044   -3.373445   -5.973736
  H      3.444904   -3.040831   -7.555281
  S      3.004618   -1.096206   -6.389259
  C      4.631918    2.246365   -4.670958
  N      4.541686    2.143990   -5.987139
  N      5.084086    3.393584   -4.118545
  H      4.920675    3.570501   -3.135870
  H      5.254652    4.197390   -4.706956
  H      3.824530    0.449113   -4.350926
  H      4.343373    1.249318   -6.416646
  H      4.676712    2.956624   -6.574113
  O      4.128856   -0.329647   -6.953717
  O      1.781285   -1.000779   -7.136399
  C      5.942129    0.939500   -2.036893
  H      3.864305    0.328532   -2.136611
  H      4.076233    2.049994   -1.989010
  C      6.462677   -3.117775   -3.944671
  C      5.024977   -3.025679   -4.437625
  H      4.423321   -3.818693   -3.977648
  H      4.579350   -2.087131   -4.108727
  H      5.201533   -4.100207   -6.296905
  H      5.605922   -2.397822   -6.413368
  C      6.559957   -0.356290   -2.559086
  H      5.967976    0.952567   -0.942444
  H      6.547184    1.788331   -2.368849
  C      6.006283   -1.615917   -1.899301
  H      7.642360   -0.318000   -2.402059
  H      6.414855   -0.403433   -3.642587
  C      6.608718   -2.917014   -2.435655
  H      6.190324   -1.561115   -0.820948
  H      4.919250   -1.651245   -2.016586
  H      7.066975   -2.374258   -4.475514
  H      6.887808   -4.089747   -4.215332
  H      6.135197   -3.755573   -1.915159
  H      7.671142   -2.955503   -2.172291
  O      2.851546   -0.783683   -4.956789

 Total Charge           Charge          ....    0
 Multiplicity           Mult            ....    1
 Number of Electrons    NEL             ....  144
 Basis Dimension        Dim             ....  540

ORBITAL ENERGIES
----------------

  NO   OCC          E(Eh)            E(eV)
   0   2.0000     -89.037351     -2422.8295
   1   2.0000     -19.079217      -519.1719
   2   2.0000     -19.079140      -519.1698
   3   2.0000     -19.065737      -518.8051
   4   2.0000     -14.406367      -392.0172
   5   2.0000     -14.373142      -391.1131
   6   2.0000     -14.371868      -391.0784
   7   2.0000     -10.353296      -281.7275
   8   2.0000     -10.248458      -278.8747
   9   2.0000     -10.202813      -277.6327
  10   2.0000     -10.186632      -277.1923
  11   2.0000     -10.179786      -277.0061
  12   2.0000     -10.175998      -276.9030
  13   2.0000     -10.174594      -276.8648
  14   2.0000     -10.167933      -276.6835
  15   2.0000     -10.167037      -276.6591
  16   2.0000     -10.158906      -276.4379
  17   2.0000      -8.090456      -220.1525
  18   2.0000      -6.060196      -164.9063
  19   2.0000      -6.059357      -164.8835
  20   2.0000      -6.057881      -164.8433
  21   2.0000      -1.088843       -29.6289
  22   2.0000      -1.043755       -28.4020
  23   2.0000      -0.944397       -25.6984
  24   2.0000      -0.942627       -25.6502
  25   2.0000      -0.932924       -25.3862
  26   2.0000      -0.920350       -25.0440
  27   2.0000      -0.817265       -22.2389
  28   2.0000      -0.792359       -21.5612
  29   2.0000      -0.766474       -20.8568
  30   2.0000      -0.730326       -19.8732
  31   2.0000      -0.695422       -18.9234
  32   2.0000      -0.672891       -18.3103
  33   2.0000      -0.644580       -17.5399
  34   2.0000      -0.627098       -17.0642
  35   2.0000      -0.614157       -16.7121
  36   2.0000      -0.592135       -16.1128
  37   2.0000      -0.574550       -15.6343
  38   2.0000      -0.547965       -14.9109
  39   2.0000      -0.544745       -14.8233
  40   2.0000      -0.540253       -14.7010
  41   2.0000      -0.514615       -14.0034
  42   2.0000      -0.504414       -13.7258
  43   2.0000      -0.486124       -13.2281
  44   2.0000      -0.479623       -13.0512
  45   2.0000      -0.464811       -12.6482
  46   2.0000      -0.460835       -12.5400
  47   2.0000      -0.451569       -12.2878
  48   2.0000      -0.436819       -11.8864
  49   2.0000      -0.432464       -11.7680
  50   2.0000      -0.426526       -11.6064
  51   2.0000      -0.417121       -11.3504
  52   2.0000      -0.408469       -11.1150
  53   2.0000      -0.400274       -10.8920
  54   2.0000      -0.390471       -10.6252
  55   2.0000      -0.382291       -10.4027
  56   2.0000      -0.367066        -9.9884
  57   2.0000      -0.359331        -9.7779
  58   2.0000      -0.349880        -9.5207
  59   2.0000      -0.336831        -9.1656
  60   2.0000      -0.327411        -8.9093
  61   2.0000      -0.323652        -8.8070
  62   2.0000      -0.317883        -8.6500
  63   2.0000      -0.314716        -8.5639
  64   2.0000      -0.311608        -8.4793
  65   2.0000      -0.309033        -8.4092
  66   2.0000      -0.303354        -8.2547
  67   2.0000      -0.288040        -7.8380
  68   2.0000      -0.272085        -7.4038
  69   2.0000      -0.264200        -7.1892
  70   2.0000      -0.256139        -6.9699
  71   2.0000      -0.229659        -6.2493
  72   0.0000      -0.023941        -0.6515
  73   0.0000      -0.013755        -0.3743
  74   0.0000       0.006367         0.1732
  75   0.0000       0.024095         0.6557
  76   0.0000       0.028691         0.7807

MULLIKEN ATOMIC CHARGES
-----------------------
   0 C :    1.214202
   1 N :    0.212627
   2 C :    0.401160
   3 C :    0.474430
   4 H :   -0.086383
   5 H :   -0.110976
   6 S :    1.361866
   7 C :    1.122103
   8 N :    0.534408
   9 N :    0.252293
  10 H :   -0.084500
  11 H :   -0.255901
  12 H :   -0.928701
  13 H :   -0.371949
  14 H :   -0.210383
  15 O :   -0.831795
  16 O :   -0.800920
  17 C :    0.502002
  18 H :   -0.361178
  19 H :   -0.278050
  20 C :    0.211480
  21 C :    0.432289
  22 H :   -0.038534
  23 H :   -0.615380
  24 H :   -0.198199
  25 H :   -0.023284
  26 C :    0.303730
  27 H :   -0.199685
  28 H :   -0.138500
  29 C :    0.003642
  30 H :   -0.247992
  31 H :   -0.205521
  32 C :    0.834159
  33 H :   -0.454020
  34 H :    0.094055
  35 H :    0.029991
  36 H :   -0.450613
  37 H :   -0.126299
  38 H :   -0.089442
  39 O :   -0.876232
Sum of atomic charges:    0.0000000

LOEWDIN ATOMIC CHARGES
----------------------
   0 C :    0.085214
   1 N :    0.085149
   2 C :   -0.031876
   3 C :   -0.057908
   4 H :    0.022243
   5 H :    0.017271
   6 S :    0.962257
   7 C :   -0.029892
   8 N :    0.293165
   9 N :    0.257663
  10 H :   -0.003900
  11 H :    0.013311
  12 H :   -0.082931
  13 H :   -0.104227
  14 H :    0.025319
  15 O :   -0.528016
  16 O :   -0.511428
  17 C :   -0.011983
  18 H :    0.029943
  19 H :    0.014416
  20 C :   -0.032478
  21 C :   -0.024876
  22 H :    0.036760
  23 H :   -0.022302
  24 H :    0.024725
  25 H :    0.018909
  26 C :   -0.022688
  27 H :    0.024148
  28 H :    0.005812
  29 C :   -0.030479
  30 H :    0.026316
  31 H :    0.009257
  32 C :   -0.023990
  33 H :    0.020132
  34 H :    0.006546
  35 H :    0.013128
  36 H :    0.020381
  37 H :    0.020039
  38 H :    0.017615
  39 O :   -0.530744

  Mayer bond orders larger than 0.100000
B(  0-C ,  1-N ) :   0.9404 B(  0-C , 12-H ) :  -0.4462 B(  0-C , 17-C ) :   1.0929
B(  0-C , 18-H ) :   0.5804 B(  0-C , 19-H ) :   0.7874 B(  0-C , 26-C ) :   0.1460
B(  0-C , 27-H ) :   0.1220 B(  0-C , 28-H ) :   0.1034 B(  1-N ,  7-C ) :   1.2546
B(  1-N ,  8-N ) :   0.1020 B(  1-N ,  9-N ) :   0.2336 B(  1-N , 12-H ) :   1.0183
B(  1-N , 13-H ) :   0.1642 B(  1-N , 14-H ) :  -0.1146 B(  1-N , 18-H ) :   0.3012
B(  2-C ,  3-C ) :   1.2021 B(  2-C ,  5-H ) :   0.2927 B(  2-C , 20-C ) :   0.1392
B(  2-C , 21-C ) :   1.1334 B(  2-C , 22-H ) :   0.1174 B(  2-C , 24-H ) :   0.7283
B(  2-C , 25-H ) :   0.8117 B(  3-C ,  4-H ) :   0.8679 B(  3-C ,  5-H ) :   0.6635
B(  3-C ,  6-S ) :   0.9761 B(  3-C , 16-O ) :   0.1173 B(  3-C , 21-C ) :   0.1378
B(  3-C , 25-H ) :   0.1157 B(  5-H ,  6-S ) :   0.1123 B(  6-S , 15-O ) :   1.1074
B(  6-S , 16-O ) :   1.3049 B(  6-S , 39-O ) :   1.1412 B(  7-C ,  8-N ) :   0.9590
B(  7-C ,  9-N ) :   0.9302 B(  7-C , 10-H ) :  -0.1253 B(  7-C , 12-H ) :  -0.6706
B(  7-C , 13-H ) :  -0.2982 B(  7-C , 14-H ) :  -0.1290 B(  8-N ,  9-N ) :   0.1172
B(  8-N , 13-H ) :   1.1185 B(  8-N , 14-H ) :   1.2590 B(  9-N , 10-H ) :   1.1071
B(  9-N , 11-H ) :   1.2250 B( 10-H , 11-H ) :  -0.2085 B( 12-H , 39-O ) :   0.2130
B( 13-H , 14-H ) :  -0.2715 B( 13-H , 15-O ) :   0.2171 B( 16-O , 39-O ) :   0.1017
B( 17-C , 18-H ) :   0.1079 B( 17-C , 19-H ) :   0.1307 B( 17-C , 26-C ) :   1.2003
B( 17-C , 27-H ) :   0.8630 B( 17-C , 28-H ) :   0.6465 B( 17-C , 31-H ) :   0.1082
B( 18-H , 19-H ) :  -0.2109 B( 20-C , 21-C ) :   1.1915 B( 20-C , 22-H ) :   0.1257
B( 20-C , 23-H ) :   0.1249 B( 20-C , 29-C ) :   0.1603 B( 20-C , 32-C ) :   1.1136
B( 20-C , 35-H ) :   0.8342 B( 20-C , 36-H ) :   0.8423 B( 20-C , 37-H ) :   0.1222
B( 20-C , 38-H ) :   0.2570 B( 21-C , 22-H ) :   0.6561 B( 21-C , 23-H ) :   0.6704
B( 21-C , 24-H ) :   0.2029 B( 21-C , 25-H ) :   0.1158 B( 21-C , 35-H ) :   0.1197
B( 21-C , 36-H ) :   0.2056 B( 22-H , 23-H ) :   0.1943 B( 23-H , 34-H ) :   0.1179
B( 26-C , 27-H ) :   0.1096 B( 26-C , 28-H ) :   0.2443 B( 26-C , 29-C ) :   1.2222
B( 26-C , 30-H ) :   0.8065 B( 26-C , 31-H ) :   0.8398 B( 26-C , 33-H ) :   0.1480
B( 26-C , 34-H ) :   0.1216 B( 27-H , 28-H ) :  -0.1238 B( 29-C , 30-H ) :   0.1635
B( 29-C , 31-H ) :   0.1427 B( 29-C , 32-C ) :   1.1158 B( 29-C , 33-H ) :   0.9347
B( 29-C , 34-H ) :   0.8162 B( 29-C , 37-H ) :   0.3360 B( 29-C , 38-H ) :   0.1485
B( 32-C , 37-H ) :   0.5824 B( 32-C , 38-H ) :   0.6276 B( 37-H , 38-H ) :  -0.1354

Dispersion correction           -0.079499370
FINAL SINGLE POINT ENERGY     -1181.955465594795

DIPOLE MOMENT
-------------
                                X             Y             Z
Electronic contribution:    -14.49247       8.28332     -15.30671
Nuclear contribution   :     16.79156      -5.47215      17.54258
                        -----------------------------------------
Total Dipole Moment    :      2.29910       2.81117       2.23587
                        -----------------------------------------
Magnitude (a.u.)       :      4.26470
Magnitude (Debye)      :     10.84000

Rotational constants in cm-1:     0.014207     0.012373     0.007472
Rotational constants in MHz :   425.900436   370.942493   224.006604

                             ****ORCA TERMINATED NORMALLY****
TOTAL RUN TIME: 0 days 0 hours 4 minutes 26 seconds 335 msec
