                         Program Version 5.0.0 -  RELEASE  -
|  1> !B3LYP D3BJ RIJCOSX def2-SVPD def2/J TightSCF
|  2> *xyz 0 1
|  3> C          4.90646       -3.10282       -5.95484
|  4> C          3.51177       -2.80621       -6.49228
|  5> H          2.73604       -3.37345       -5.97374
|  6> H          3.44490       -3.04083       -7.55528
|  7> S          3.00462       -1.09621       -6.38926
|  8> F          4.12886       -0.32965       -6.95372
|  9> O          1.78128       -1.00078       -7.13640
| 10> C          5.02498       -3.02568       -4.43762
| 11> H          5.20153       -4.10021       -6.29691
| 12> H          5.60592       -2.39782       -6.41337
| 13> O          2.85155       -0.78368       -4.95679
| 14> H          4.73604       -2.05011       -4.10644
| 15> H          6.03776       -3.21492       -4.14890
| 16> H          4.38436       -3.75784       -3.99214
| 17> *
| 18>
| 19> %MaxCore 64000
| 20>
| 21> %pal nprocs 8
| 22> end
| 23>
| 24> %scf
| 25>   MaxIter 150
| 26> end
| 27>
| 28>
| 29>                          ****END OF INPUT****

CARTESIAN COORDINATES (ANGSTROEM)
---------------------------------
  C      4.906460   -3.102820   -5.954840
  C      3.511770   -2.806210   -6.492280
  H      2.736040   -3.373450   -5.973740
  H      3.444900   -3.040830   -7.555280
  S      3.004620   -1.096210   -6.389260
  F      4.128860   -0.329650   -6.953720
  O      1.781280   -1.000780   -7.136400
  C      5.024980   -3.025680   -4.437620
  H      5.201530   -4.100210   -6.296910
  H      5.605920   -2.397820   -6.413370
  O      2.851550   -0.783680   -4.956790
  H      4.736040   -2.050110   -4.106440
  H      6.037760   -3.214920   -4.148900
  H      4.384360   -3.757840   -3.992140

 Total Charge           Charge          ....    0
 Multiplicity           Mult            ....    1
 Number of Electrons    NEL             ....   66
 Basis Dimension        Dim             ....  212

ORBITAL ENERGIES
----------------

  NO   OCC          E(Eh)            E(eV)
   0   2.0000     -89.137440     -2425.5531
   1   2.0000     -24.802034      -674.8977
   2   2.0000     -19.155595      -521.2502
   3   2.0000     -19.143751      -520.9280
   4   2.0000     -10.247366      -278.8450
   5   2.0000     -10.217092      -278.0212
   6   2.0000     -10.181043      -277.0403
   7   2.0000      -8.191993      -222.9155
   8   2.0000      -6.164953      -167.7569
   9   2.0000      -6.158774      -167.5888
  10   2.0000      -6.157216      -167.5464
  11   2.0000      -1.352608       -36.8063
  12   2.0000      -1.113296       -30.2943
  13   2.0000      -1.011258       -27.5177
  14   2.0000      -0.834871       -22.7180
  15   2.0000      -0.751966       -20.4620
  16   2.0000      -0.702612       -19.1191
  17   2.0000      -0.634207       -17.2576
  18   2.0000      -0.587433       -15.9849
  19   2.0000      -0.573047       -15.5934
  20   2.0000      -0.546207       -14.8630
  21   2.0000      -0.493950       -13.4411
  22   2.0000      -0.489994       -13.3334
  23   2.0000      -0.462616       -12.5884
  24   2.0000      -0.448859       -12.2141
  25   2.0000      -0.439549       -11.9607
  26   2.0000      -0.392587       -10.6828
  27   2.0000      -0.386230       -10.5099
  28   2.0000      -0.380539       -10.3550
  29   2.0000      -0.368745       -10.0340
  30   2.0000      -0.339078        -9.2268
  31   2.0000      -0.325695        -8.8626
  32   2.0000      -0.312437        -8.5018
  33   0.0000      -0.008912        -0.2425
  34   0.0000       0.022653         0.6164
  35   0.0000       0.031285         0.8513
  36   0.0000       0.032616         0.8875
  37   0.0000       0.041701         1.1347

MULLIKEN ATOMIC CHARGES
-----------------------
   0 C :   -0.016106
   1 C :    0.143379
   2 H :   -0.051376
   3 H :   -0.079208
   4 S :    1.510431
   5 F :   -0.422186
   6 O :   -0.666479
   7 C :    1.071027
   8 H :   -0.212536
   9 H :   -0.107641
  10 O :   -0.709387
  11 H :   -0.260056
  12 H :   -0.129410
  13 H :   -0.070451
Sum of atomic charges:    0.0000000

LOEWDIN ATOMIC CHARGES
----------------------
   0 C :   -0.070669
   1 C :   -0.047988
   2 H :    0.037717
   3 H :    0.020534
   4 S :    1.124364
   5 F :   -0.268172
   6 O :   -0.457688
   7 C :    0.147042
   8 H :    0.027964
   9 H :    0.019839
  10 O :   -0.473450
  11 H :   -0.035765
  12 H :   -0.014222
  13 H :   -0.009505

  Mayer bond orders larger than 0.100000
B(  0-C ,  1-C ) :   1.1917 B(  0-C ,  2-H ) :   0.1126 B(  0-C ,  3-H ) :   0.1306
B(  0-C ,  7-C ) :   1.2604 B(  0-C ,  8-H ) :   0.8442 B(  0-C ,  9-H ) :   0.8587
B(  0-C , 11-H ) :   0.2698 B(  0-C , 12-H ) :   0.2337 B(  0-C , 13-H ) :   0.2382
B(  1-C ,  2-H ) :   0.9025 B(  1-C ,  3-H ) :   0.9215 B(  1-C ,  4-S ) :   0.9910
B(  1-C ,  8-H ) :   0.1335 B(  1-C ,  9-H ) :   0.1418 B(  4-S ,  5-F ) :   0.6180
B(  4-S ,  6-O ) :   1.5523 B(  4-S , 10-O ) :   1.4644 B(  7-C , 11-H ) :   0.7422
B(  7-C , 12-H ) :   0.6831 B(  7-C , 13-H ) :   0.6926 B( 11-H , 13-H ) :   0.1148

Dispersion correction           -0.021844959
FINAL SINGLE POINT ENERGY      -766.349296260248

DIPOLE MOMENT
-------------
                                X             Y             Z
Electronic contribution:     -5.28269      10.16411      -5.30794
Nuclear contribution   :      6.51452     -11.35172       4.86721
                        -----------------------------------------
Total Dipole Moment    :      1.23182      -1.18761      -0.44073
                        -----------------------------------------
Magnitude (a.u.)       :      1.76693
Magnitude (Debye)      :      4.49118

Rotational constants in cm-1:     0.130386     0.053203     0.051661
Rotational constants in MHz :  3908.886819  1594.983443  1548.763987

                             ****ORCA TERMINATED NORMALLY****
TOTAL RUN TIME: 0 days 0 hours 0 minutes 13 seconds 398 msec
