                         Program Version 5.0.0 -  RELEASE  -
|  1> !B3LYP D3BJ RIJCOSX def2-SVPD def2/J TightSCF
|  2> *xyz 0 1
|  3> C          4.49059        1.15590       -2.46929
|  4> C          4.30539        1.22276       -3.90832
|  5> C          4.63192        2.24637       -4.67096
|  6> N          4.54169        2.14399       -5.98714
|  7> N          5.08409        3.39358       -4.11855
|  8> H          4.92067        3.57050       -3.13587
|  9> H          5.25465        4.19739       -4.70696
| 10> H          3.82453        0.44911       -4.35093
| 11> H          4.34337        1.24932       -6.41665
| 12> H          4.67671        2.95662       -6.57411
| 13> C          5.94213        0.93950       -2.03689
| 14> H          3.86431        0.32853       -2.13661
| 15> H          4.07623        2.04999       -1.98901
| 16> C          6.55996       -0.35629       -2.55909
| 17> H          5.96798        0.95257       -0.94244
| 18> H          6.54718        1.78833       -2.36885
| 19> H          6.53022       -0.35990       -3.62867
| 20> H          6.00654       -1.19175       -2.18407
| 21> H          7.57588       -0.42487       -2.23029
| 22> *
| 23>
| 24> %MaxCore 64000
| 25>
| 26> %pal nprocs 8
| 27> end
| 28>
| 29> %scf
| 30>   MaxIter 150
| 31> end
| 32>
| 33>
| 34>                          ****END OF INPUT****

CARTESIAN COORDINATES (ANGSTROEM)
---------------------------------
  C      4.490590    1.155900   -2.469290
  C      4.305390    1.222760   -3.908320
  C      4.631920    2.246370   -4.670960
  N      4.541690    2.143990   -5.987140
  N      5.084090    3.393580   -4.118550
  H      4.920670    3.570500   -3.135870
  H      5.254650    4.197390   -4.706960
  H      3.824530    0.449110   -4.350930
  H      4.343370    1.249320   -6.416650
  H      4.676710    2.956620   -6.574110
  C      5.942130    0.939500   -2.036890
  H      3.864310    0.328530   -2.136610
  H      4.076230    2.049990   -1.989010
  C      6.559960   -0.356290   -2.559090
  H      5.967980    0.952570   -0.942440
  H      6.547180    1.788330   -2.368850
  H      6.530220   -0.359900   -3.628670
  H      6.006540   -1.191750   -2.184070
  H      7.575880   -0.424870   -2.230290

 Total Charge           Charge          ....    0
 Multiplicity           Mult            ....    1
 Number of Electrons    NEL             ....   56
 Basis Dimension        Dim             ....  236

ORBITAL ENERGIES
----------------

  NO   OCC          E(Eh)            E(eV)
   0   2.0000     -14.331976      -389.9929
   1   2.0000     -14.330168      -389.9437
   2   2.0000     -10.225418      -278.2478
   3   2.0000     -10.156565      -276.3742
   4   2.0000     -10.154855      -276.3277
   5   2.0000     -10.147163      -276.1183
   6   2.0000     -10.104177      -274.9486
   7   2.0000      -0.951401       -25.8889
   8   2.0000      -0.861836       -23.4518
   9   2.0000      -0.775588       -21.1048
  10   2.0000      -0.713608       -19.4183
  11   2.0000      -0.651912       -17.7394
  12   2.0000      -0.592555       -16.1242
  13   2.0000      -0.565733       -15.3944
  14   2.0000      -0.542222       -14.7546
  15   2.0000      -0.502691       -13.6789
  16   2.0000      -0.477003       -12.9799
  17   2.0000      -0.440503       -11.9867
  18   2.0000      -0.432086       -11.7577
  19   2.0000      -0.413886       -11.2624
  20   2.0000      -0.386029       -10.5044
  21   2.0000      -0.368075       -10.0158
  22   2.0000      -0.358985        -9.7685
  23   2.0000      -0.328850        -8.9485
  24   2.0000      -0.311824        -8.4852
  25   2.0000      -0.309511        -8.4222
  26   2.0000      -0.265136        -7.2147
  27   2.0000      -0.161370        -4.3911
  28   0.0000       0.011119         0.3026
  29   0.0000       0.036573         0.9952
  30   0.0000       0.042908         1.1676
  31   0.0000       0.056991         1.5508
  32   0.0000       0.064494         1.7550

MULLIKEN ATOMIC CHARGES
-----------------------
   0 C :    0.423059
   1 C :   -0.216480
   2 C :    0.960174
   3 N :    0.097635
   4 N :    0.086386
   5 H :   -0.069138
   6 H :   -0.310455
   7 H :   -0.494831
   8 H :   -0.084726
   9 H :   -0.219684
  10 C :   -0.201158
  11 H :   -0.102743
  12 H :   -0.174146
  13 C :    0.972541
  14 H :   -0.183642
  15 H :   -0.136009
  16 H :   -0.159753
  17 H :   -0.045014
  18 H :   -0.142016
Sum of atomic charges:   -0.0000000

LOEWDIN ATOMIC CHARGES
----------------------
   0 C :   -0.062758
   1 C :   -0.033688
   2 C :   -0.215649
   3 N :    0.183170
   4 N :    0.211764
   5 H :   -0.014750
   6 H :   -0.015263
   7 H :   -0.050638
   8 H :    0.006997
   9 H :   -0.011780
  10 C :   -0.074306
  11 H :    0.014324
  12 H :    0.001010
  13 C :    0.126126
  14 H :    0.009237
  15 H :    0.004412
  16 H :   -0.028877
  17 H :   -0.022756
  18 H :   -0.026575

  Mayer bond orders larger than 0.100000
B(  0-C ,  1-C ) :   1.1432 B(  0-C ,  7-H ) :   0.3358 B(  0-C , 10-C ) :   1.1420
B(  0-C , 11-H ) :   0.6391 B(  0-C , 12-H ) :   0.8553 B(  0-C , 14-H ) :   0.1439
B(  0-C , 15-H ) :   0.1596 B(  1-C ,  2-C ) :   1.5533 B(  1-C ,  3-N ) :   0.4009
B(  1-C ,  4-N ) :   0.2545 B(  1-C ,  7-H ) :   0.7971 B(  1-C , 11-H ) :   0.3642
B(  1-C , 12-H ) :   0.1797 B(  2-C ,  3-N ) :   0.8357 B(  2-C ,  4-N ) :   0.9242
B(  2-C ,  6-H ) :  -0.1759 B(  2-C ,  8-H ) :  -0.1103 B(  3-N ,  4-N ) :   0.1140
B(  3-N ,  8-H ) :   1.1902 B(  3-N ,  9-H ) :   1.2457 B(  4-N ,  5-H ) :   1.0752
B(  4-N ,  6-H ) :   1.3248 B(  5-H ,  6-H ) :  -0.1958 B(  8-H ,  9-H ) :  -0.1750
B( 10-C , 11-H ) :   0.1336 B( 10-C , 13-C ) :   1.3161 B( 10-C , 14-H ) :   0.9039
B( 10-C , 15-H ) :   0.8807 B( 10-C , 16-H ) :   0.2650 B( 10-C , 17-H ) :   0.2545
B( 10-C , 18-H ) :   0.2728 B( 13-C , 16-H ) :   0.7614 B( 13-C , 17-H ) :   0.7310
B( 13-C , 18-H ) :   0.6845

Dispersion correction           -0.026950963
FINAL SINGLE POINT ENERGY      -306.852588482029

DIPOLE MOMENT
-------------
                                X             Y             Z
Electronic contribution:     -2.32873       3.66264      -4.18120
Nuclear contribution   :      2.29046      -2.89565       3.47129
                        -----------------------------------------
Total Dipole Moment    :     -0.03827       0.76699      -0.70991
                        -----------------------------------------
Magnitude (a.u.)       :      1.04581
Magnitude (Debye)      :      2.65823

Rotational constants in cm-1:     0.154384     0.050352     0.046525
Rotational constants in MHz :  4628.320816  1509.522910  1394.780903

                             ****ORCA TERMINATED NORMALLY****
TOTAL RUN TIME: 0 days 0 hours 0 minutes 19 seconds 79 msec
