                         Program Version 5.0.0 -  RELEASE  -
|  1> !B3LYP D3BJ RIJCOSX def2-SVPD def2/J TightSCF
|  2> *xyz 0 1
|  3> C          4.90646       -3.10282       -5.95484
|  4> C          3.51177       -2.80621       -6.49228
|  5> H          2.73604       -3.37345       -5.97374
|  6> H          3.44490       -3.04083       -7.55528
|  7> S          3.00462       -1.09621       -6.38926
|  8> O          4.12886       -0.32965       -6.95372
|  9> F          1.78128       -1.00078       -7.13640
| 10> C          5.02498       -3.02568       -4.43762
| 11> H          5.20153       -4.10021       -6.29691
| 12> H          5.60592       -2.39782       -6.41337
| 13> O          2.85155       -0.78368       -4.95679
| 14> H          4.73604       -2.05011       -4.10644
| 15> H          6.03776       -3.21492       -4.14890
| 16> H          4.38436       -3.75784       -3.99214
| 17> *
| 18>
| 19> %MaxCore 64000
| 20>
| 21> %pal nprocs 8
| 22> end
| 23>
| 24> %scf
| 25>   MaxIter 150
| 26> end
| 27>
| 28>
| 29>                          ****END OF INPUT****

CARTESIAN COORDINATES (ANGSTROEM)
---------------------------------
  C      4.906460   -3.102820   -5.954840
  C      3.511770   -2.806210   -6.492280
  H      2.736040   -3.373450   -5.973740
  H      3.444900   -3.040830   -7.555280
  S      3.004620   -1.096210   -6.389260
  O      4.128860   -0.329650   -6.953720
  F      1.781280   -1.000780   -7.136400
  C      5.024980   -3.025680   -4.437620
  H      5.201530   -4.100210   -6.296910
  H      5.605920   -2.397820   -6.413370
  O      2.851550   -0.783680   -4.956790
  H      4.736040   -2.050110   -4.106440
  H      6.037760   -3.214920   -4.148900
  H      4.384360   -3.757840   -3.992140

 Total Charge           Charge          ....    0
 Multiplicity           Mult            ....    1
 Number of Electrons    NEL             ....   66
 Basis Dimension        Dim             ....  212

ORBITAL ENERGIES
----------------

  NO   OCC          E(Eh)            E(eV)
   0   2.0000     -89.139240     -2425.6020
   1   2.0000     -24.819838      -675.3821
   2   2.0000     -19.144303      -520.9430
   3   2.0000     -19.144161      -520.9391
   4   2.0000     -10.248247      -278.8690
   5   2.0000     -10.212259      -277.8897
   6   2.0000     -10.175947      -276.9016
   7   2.0000      -8.193879      -222.9668
   8   2.0000      -6.166902      -167.8099
   9   2.0000      -6.160481      -167.6352
  10   2.0000      -6.159014      -167.5953
  11   2.0000      -1.383390       -37.6440
  12   2.0000      -1.100311       -29.9410
  13   2.0000      -0.997513       -27.1437
  14   2.0000      -0.831060       -22.6143
  15   2.0000      -0.759184       -20.6585
  16   2.0000      -0.710280       -19.3277
  17   2.0000      -0.636042       -17.3076
  18   2.0000      -0.595165       -16.1953
  19   2.0000      -0.584470       -15.9042
  20   2.0000      -0.558493       -15.1974
  21   2.0000      -0.494475       -13.4553
  22   2.0000      -0.489259       -13.3134
  23   2.0000      -0.457522       -12.4498
  24   2.0000      -0.444095       -12.0844
  25   2.0000      -0.431555       -11.7432
  26   2.0000      -0.386479       -10.5166
  27   2.0000      -0.377236       -10.2651
  28   2.0000      -0.374548       -10.1920
  29   2.0000      -0.362858        -9.8739
  30   2.0000      -0.329619        -8.9694
  31   2.0000      -0.322152        -8.7662
  32   2.0000      -0.303611        -8.2617
  33   0.0000      -0.004369        -0.1189
  34   0.0000       0.013400         0.3646
  35   0.0000       0.033217         0.9039
  36   0.0000       0.035604         0.9688
  37   0.0000       0.048306         1.3145

MULLIKEN ATOMIC CHARGES
-----------------------
   0 C :   -0.057847
   1 C :    0.118572
   2 H :   -0.040165
   3 H :   -0.059692
   4 S :    1.552078
   5 O :   -0.688114
   6 F :   -0.434846
   7 C :    1.062606
   8 H :   -0.203714
   9 H :   -0.076883
  10 O :   -0.708687
  11 H :   -0.258515
  12 H :   -0.129540
  13 H :   -0.075254
Sum of atomic charges:    0.0000000

LOEWDIN ATOMIC CHARGES
----------------------
   0 C :   -0.055586
   1 C :   -0.059872
   2 H :    0.023880
   3 H :    0.018118
   4 S :    1.130134
   5 O :   -0.475547
   6 F :   -0.253689
   7 C :    0.149739
   8 H :    0.030630
   9 H :    0.025785
  10 O :   -0.476567
  11 H :   -0.031553
  12 H :   -0.013392
  13 H :   -0.012080

  Mayer bond orders larger than 0.100000
B(  0-C ,  1-C ) :   1.2469 B(  0-C ,  2-H ) :   0.1167 B(  0-C ,  3-H ) :   0.1488
B(  0-C ,  7-C ) :   1.2510 B(  0-C ,  8-H ) :   0.8417 B(  0-C ,  9-H ) :   0.8712
B(  0-C , 11-H ) :   0.2628 B(  0-C , 12-H ) :   0.2359 B(  0-C , 13-H ) :   0.2327
B(  1-C ,  2-H ) :   0.8974 B(  1-C ,  3-H ) :   0.8749 B(  1-C ,  4-S ) :   0.9578
B(  1-C ,  8-H ) :   0.1408 B(  1-C ,  9-H ) :   0.1512 B(  4-S ,  5-O ) :   1.4578
B(  4-S ,  6-F ) :   0.6719 B(  4-S , 10-O ) :   1.4353 B(  7-C , 11-H ) :   0.7475
B(  7-C , 12-H ) :   0.6803 B(  7-C , 13-H ) :   0.6899 B( 11-H , 13-H ) :   0.1160

Dispersion correction           -0.021978883
FINAL SINGLE POINT ENERGY      -766.334417613991

DIPOLE MOMENT
-------------
                                X             Y             Z
Electronic contribution:     -9.31561       9.03898      -5.63442
Nuclear contribution   :      9.03920     -10.62996       5.06367
                        -----------------------------------------
Total Dipole Moment    :     -0.27641      -1.59098      -0.57075
                        -----------------------------------------
Magnitude (a.u.)       :      1.71271
Magnitude (Debye)      :      4.35337

Rotational constants in cm-1:     0.135071     0.052485     0.050188
Rotational constants in MHz :  4049.321380  1573.451279  1504.609887

                             ****ORCA TERMINATED NORMALLY****
TOTAL RUN TIME: 0 days 0 hours 0 minutes 13 seconds 614 msec
