                         Program Version 5.0.0 -  RELEASE  -
|  1> !B3LYP D3BJ RIJCOSX def2-SVPD def2/J TightSCF
|  2> *xyz 0 1
|  3> C          4.49059        1.15590       -2.46929
|  4> N          4.30539        1.22276       -3.90832
|  5> C          4.63192        2.24637       -4.67096
|  6> C          4.54169        2.14399       -5.98714
|  7> N          5.08409        3.39358       -4.11855
|  8> H          4.92067        3.57050       -3.13587
|  9> H          5.25465        4.19739       -4.70696
| 10> H          3.82453        0.44911       -4.35093
| 11> H          4.34337        1.24932       -6.41665
| 12> H          4.67671        2.95662       -6.57411
| 13> C          5.94213        0.93950       -2.03689
| 14> H          3.86431        0.32853       -2.13661
| 15> H          4.07623        2.04999       -1.98901
| 16> C          6.55996       -0.35629       -2.55909
| 17> H          5.96798        0.95257       -0.94244
| 18> H          6.54718        1.78833       -2.36885
| 19> H          6.53022       -0.35990       -3.62867
| 20> H          6.00654       -1.19175       -2.18407
| 21> H          7.57588       -0.42487       -2.23029
| 22> *
| 23>
| 24> %MaxCore 64000
| 25>
| 26> %pal nprocs 8
| 27> end
| 28>
| 29> %scf
| 30>   MaxIter 150
| 31> end
| 32>
| 33>
| 34>                          ****END OF INPUT****

CARTESIAN COORDINATES (ANGSTROEM)
---------------------------------
  C      4.490590    1.155900   -2.469290
  N      4.305390    1.222760   -3.908320
  C      4.631920    2.246370   -4.670960
  C      4.541690    2.143990   -5.987140
  N      5.084090    3.393580   -4.118550
  H      4.920670    3.570500   -3.135870
  H      5.254650    4.197390   -4.706960
  H      3.824530    0.449110   -4.350930
  H      4.343370    1.249320   -6.416650
  H      4.676710    2.956620   -6.574110
  C      5.942130    0.939500   -2.036890
  H      3.864310    0.328530   -2.136610
  H      4.076230    2.049990   -1.989010
  C      6.559960   -0.356290   -2.559090
  H      5.967980    0.952570   -0.942440
  H      6.547180    1.788330   -2.368850
  H      6.530220   -0.359900   -3.628670
  H      6.006540   -1.191750   -2.184070
  H      7.575880   -0.424870   -2.230290

 Total Charge           Charge          ....    0
 Multiplicity           Mult            ....    1
 Number of Electrons    NEL             ....   56
 Basis Dimension        Dim             ....  236

ORBITAL ENERGIES
----------------

  NO   OCC          E(Eh)            E(eV)
   0   2.0000     -14.329075      -389.9140
   1   2.0000     -14.328824      -389.9071
   2   2.0000     -10.226287      -278.2714
   3   2.0000     -10.221050      -278.1289
   4   2.0000     -10.180547      -277.0268
   5   2.0000     -10.166859      -276.6543
   6   2.0000     -10.094070      -274.6736
   7   2.0000      -0.959016       -26.0962
   8   2.0000      -0.872793       -23.7499
   9   2.0000      -0.779975       -21.2242
  10   2.0000      -0.717781       -19.5318
  11   2.0000      -0.662882       -18.0379
  12   2.0000      -0.609745       -16.5920
  13   2.0000      -0.581435       -15.8217
  14   2.0000      -0.532003       -14.4765
  15   2.0000      -0.498058       -13.5529
  16   2.0000      -0.481197       -13.0940
  17   2.0000      -0.459256       -12.4970
  18   2.0000      -0.439437       -11.9577
  19   2.0000      -0.405157       -11.0249
  20   2.0000      -0.394102       -10.7241
  21   2.0000      -0.391788       -10.6611
  22   2.0000      -0.369769       -10.0619
  23   2.0000      -0.349851        -9.5199
  24   2.0000      -0.346937        -9.4406
  25   2.0000      -0.339270        -9.2320
  26   2.0000      -0.254329        -6.9206
  27   2.0000      -0.162188        -4.4134
  28   0.0000       0.010716         0.2916
  29   0.0000       0.031240         0.8501
  30   0.0000       0.040042         1.0896
  31   0.0000       0.046194         1.2570
  32   0.0000       0.072288         1.9671

MULLIKEN ATOMIC CHARGES
-----------------------
   0 C :    0.918449
   1 N :   -0.387072
   2 C :    0.737797
   3 C :    0.483077
   4 N :    0.255130
   5 H :   -0.152686
   6 H :   -0.244450
   7 H :   -0.235733
   8 H :   -0.360641
   9 H :   -0.485244
  10 C :   -0.206146
  11 H :   -0.445783
  12 H :   -0.149396
  13 C :    0.948404
  14 H :   -0.251841
  15 H :   -0.060378
  16 H :   -0.167274
  17 H :   -0.029041
  18 H :   -0.167173
Sum of atomic charges:   -0.0000000

LOEWDIN ATOMIC CHARGES
----------------------
   0 C :    0.044520
   1 N :   -0.010006
   2 C :   -0.235230
   3 C :    0.147852
   4 N :    0.207693
   5 H :   -0.028666
   6 H :    0.002077
   7 H :    0.036886
   8 H :   -0.103443
   9 H :   -0.105977
  10 C :   -0.063942
  11 H :    0.019835
  12 H :    0.005828
  13 C :    0.130427
  14 H :    0.014541
  15 H :    0.006687
  16 H :   -0.024106
  17 H :   -0.022700
  18 H :   -0.022278

  Mayer bond orders larger than 0.100000
B(  0-C ,  1-N ) :   0.9094 B(  0-C ,  2-C ) :  -0.1019 B(  0-C ,  7-H ) :  -0.1763
B(  0-C , 10-C ) :   1.1238 B(  0-C , 11-H ) :   0.6597 B(  0-C , 12-H ) :   0.8678
B(  0-C , 15-H ) :   0.1290 B(  1-N ,  2-C ) :   1.0095 B(  1-N ,  3-C ) :   0.2426
B(  1-N ,  4-N ) :   0.2002 B(  1-N ,  7-H ) :   1.2616 B(  1-N , 11-H ) :   0.2745
B(  1-N , 12-H ) :   0.1010 B(  2-C ,  3-C ) :   1.2769 B(  2-C ,  4-N ) :   0.9632
B(  2-C ,  6-H ) :  -0.1035 B(  2-C ,  7-H ) :  -0.1964 B(  2-C ,  9-H ) :   0.1557
B(  3-C ,  4-N ) :   0.2069 B(  3-C ,  8-H ) :   0.8159 B(  3-C ,  9-H ) :   0.6899
B(  4-N ,  5-H ) :   1.0590 B(  4-N ,  6-H ) :   1.2193 B(  4-N , 12-H ) :   0.1011
B(  5-H ,  6-H ) :  -0.1980 B( 10-C , 11-H ) :   0.1427 B( 10-C , 13-C ) :   1.2884
B( 10-C , 14-H ) :   0.9873 B( 10-C , 15-H ) :   0.8745 B( 10-C , 16-H ) :   0.2407
B( 10-C , 17-H ) :   0.2216 B( 10-C , 18-H ) :   0.2545 B( 11-H , 12-H ) :  -0.1394
B( 13-C , 16-H ) :   0.7771 B( 13-C , 17-H ) :   0.7498 B( 13-C , 18-H ) :   0.7297

Dispersion correction           -0.026610431
FINAL SINGLE POINT ENERGY      -306.845120420816

DIPOLE MOMENT
-------------
                                X             Y             Z
Electronic contribution:     -2.44931       2.74008      -1.99757
Nuclear contribution   :      2.34222      -2.69386       3.01591
                        -----------------------------------------
Total Dipole Moment    :     -0.10709       0.04623       1.01834
                        -----------------------------------------
Magnitude (a.u.)       :      1.02500
Magnitude (Debye)      :      2.60533

Rotational constants in cm-1:     0.155143     0.051710     0.048050
Rotational constants in MHz :  4651.080391  1550.217078  1440.507386

                             ****ORCA TERMINATED NORMALLY****
TOTAL RUN TIME: 0 days 0 hours 0 minutes 18 seconds 201 msec
