                         Program Version 5.0.0 -  RELEASE  -
|  1> !B3LYP D3BJ RIJCOSX def2-SVPD def2/J TightSCF
|  2> *xyz 0 1
|  3> C          4.90646       -3.10282       -5.95484
|  4> C          3.51177       -2.80621       -6.49228
|  5> H          2.73604       -3.37345       -5.97374
|  6> H          3.44490       -3.04083       -7.55528
|  7> S          3.00462       -1.09621       -6.38926
|  8> O          4.12886       -0.32965       -6.95372
|  9> O          1.78128       -1.00078       -7.13640
| 10> C          5.02498       -3.02568       -4.43762
| 11> H          5.20153       -4.10021       -6.29691
| 12> H          5.60592       -2.39782       -6.41337
| 13> F          2.85155       -0.78368       -4.95679
| 14> H          4.73604       -2.05011       -4.10644
| 15> H          6.03776       -3.21492       -4.14890
| 16> H          4.38436       -3.75784       -3.99214
| 17> *
| 18>
| 19> %MaxCore 64000
| 20>
| 21> %pal nprocs 8
| 22> end
| 23>
| 24> %scf
| 25>   MaxIter 150
| 26> end
| 27>
| 28>
| 29>                          ****END OF INPUT****

CARTESIAN COORDINATES (ANGSTROEM)
---------------------------------
  C      4.906460   -3.102820   -5.954840
  C      3.511770   -2.806210   -6.492280
  H      2.736040   -3.373450   -5.973740
  H      3.444900   -3.040830   -7.555280
  S      3.004620   -1.096210   -6.389260
  O      4.128860   -0.329650   -6.953720
  O      1.781280   -1.000780   -7.136400
  C      5.024980   -3.025680   -4.437620
  H      5.201530   -4.100210   -6.296910
  H      5.605920   -2.397820   -6.413370
  F      2.851550   -0.783680   -4.956790
  H      4.736040   -2.050110   -4.106440
  H      6.037760   -3.214920   -4.148900
  H      4.384360   -3.757840   -3.992140

 Total Charge           Charge          ....    0
 Multiplicity           Mult            ....    1
 Number of Electrons    NEL             ....   66
 Basis Dimension        Dim             ....  212

ORBITAL ENERGIES
----------------

  NO   OCC          E(Eh)            E(eV)
   0   2.0000     -89.136983     -2425.5406
   1   2.0000     -24.801009      -674.8698
   2   2.0000     -19.155531      -521.2485
   3   2.0000     -19.144008      -520.9350
   4   2.0000     -10.247207      -278.8407
   5   2.0000     -10.213834      -277.9325
   6   2.0000     -10.190919      -277.3090
   7   2.0000      -8.191549      -222.9034
   8   2.0000      -6.164483      -167.7441
   9   2.0000      -6.158292      -167.5757
  10   2.0000      -6.156832      -167.5359
  11   2.0000      -1.351423       -36.7741
  12   2.0000      -1.112953       -30.2850
  13   2.0000      -1.012178       -27.5428
  14   2.0000      -0.834061       -22.6960
  15   2.0000      -0.753716       -20.5096
  16   2.0000      -0.704134       -19.1605
  17   2.0000      -0.638684       -17.3795
  18   2.0000      -0.579960       -15.7815
  19   2.0000      -0.571379       -15.5480
  20   2.0000      -0.551307       -15.0018
  21   2.0000      -0.495525       -13.4839
  22   2.0000      -0.486932       -13.2501
  23   2.0000      -0.466822       -12.7029
  24   2.0000      -0.454957       -12.3800
  25   2.0000      -0.438178       -11.9234
  26   2.0000      -0.398188       -10.8352
  27   2.0000      -0.389065       -10.5870
  28   2.0000      -0.373493       -10.1633
  29   2.0000      -0.368616       -10.0305
  30   2.0000      -0.338335        -9.2066
  31   2.0000      -0.329994        -8.9796
  32   2.0000      -0.315184        -8.5766
  33   0.0000      -0.005496        -0.1495
  34   0.0000       0.021017         0.5719
  35   0.0000       0.028946         0.7877
  36   0.0000       0.032554         0.8858
  37   0.0000       0.046348         1.2612

MULLIKEN ATOMIC CHARGES
-----------------------
   0 C :   -0.004423
   1 C :    0.124984
   2 H :   -0.042387
   3 H :   -0.068729
   4 S :    1.500862
   5 O :   -0.699026
   6 O :   -0.663192
   7 C :    1.051123
   8 H :   -0.198677
   9 H :   -0.080558
  10 F :   -0.431347
  11 H :   -0.285085
  12 H :   -0.133092
  13 H :   -0.070454
Sum of atomic charges:    0.0000000

LOEWDIN ATOMIC CHARGES
----------------------
   0 C :   -0.067667
   1 C :   -0.049143
   2 H :    0.024086
   3 H :    0.032945
   4 S :    1.120447
   5 O :   -0.473551
   6 O :   -0.458107
   7 C :    0.144847
   8 H :    0.029506
   9 H :    0.023938
  10 F :   -0.271389
  11 H :   -0.032277
  12 H :   -0.011367
  13 H :   -0.012267

  Mayer bond orders larger than 0.100000
B(  0-C ,  1-C ) :   1.2204 B(  0-C ,  2-H ) :   0.1203 B(  0-C ,  3-H ) :   0.1297
B(  0-C ,  7-C ) :   1.2491 B(  0-C ,  8-H ) :   0.8282 B(  0-C ,  9-H ) :   0.8772
B(  0-C , 11-H ) :   0.2567 B(  0-C , 12-H ) :   0.2345 B(  0-C , 13-H ) :   0.2311
B(  1-C ,  2-H ) :   0.9029 B(  1-C ,  3-H ) :   0.8999 B(  1-C ,  4-S ) :   0.9958
B(  1-C ,  8-H ) :   0.1461 B(  1-C ,  9-H ) :   0.1555 B(  4-S ,  5-O ) :   1.4779
B(  4-S ,  6-O ) :   1.5455 B(  4-S , 10-F ) :   0.6114 B(  7-C , 11-H ) :   0.7379
B(  7-C , 12-H ) :   0.6913 B(  7-C , 13-H ) :   0.7025 B( 11-H , 13-H ) :   0.1075

Dispersion correction           -0.021798572
FINAL SINGLE POINT ENERGY      -766.350071401209

DIPOLE MOMENT
-------------
                                X             Y             Z
Electronic contribution:     -7.44203       9.35858      -1.88274
Nuclear contribution   :      7.88819     -10.86344       2.71963
                        -----------------------------------------
Total Dipole Moment    :      0.44616      -1.50486       0.83689
                        -----------------------------------------
Magnitude (a.u.)       :      1.77877
Magnitude (Debye)      :      4.52129

Rotational constants in cm-1:     0.130261     0.054435     0.050898
Rotational constants in MHz :  3905.114465  1631.935083  1525.880669

                             ****ORCA TERMINATED NORMALLY****
TOTAL RUN TIME: 0 days 0 hours 0 minutes 13 seconds 816 msec
