                         Program Version 5.0.0 -  RELEASE  -
|  1> !B3LYP D3BJ RIJCOSX def2-SVPD def2/J TightSCF
|  2> *xyz 0 1
|  3> C          4.49059        1.15590       -2.46929
|  4> N          4.30539        1.22276       -3.90832
|  5> C          4.63192        2.24637       -4.67096
|  6> N          4.54169        2.14399       -5.98714
|  7> C          5.08409        3.39358       -4.11855
|  8> H          4.92067        3.57050       -3.13587
|  9> H          5.25465        4.19739       -4.70696
| 10> H          3.82453        0.44911       -4.35093
| 11> H          4.34337        1.24932       -6.41665
| 12> H          4.67671        2.95662       -6.57411
| 13> C          5.94213        0.93950       -2.03689
| 14> H          3.86431        0.32853       -2.13661
| 15> H          4.07623        2.04999       -1.98901
| 16> C          6.55996       -0.35629       -2.55909
| 17> H          5.96798        0.95257       -0.94244
| 18> H          6.54718        1.78833       -2.36885
| 19> H          6.53022       -0.35990       -3.62867
| 20> H          6.00654       -1.19175       -2.18407
| 21> H          7.57588       -0.42487       -2.23029
| 22> *
| 23>
| 24> %MaxCore 64000
| 25>
| 26> %pal nprocs 8
| 27> end
| 28>
| 29> %scf
| 30>   MaxIter 150
| 31> end
| 32>
| 33>
| 34>                          ****END OF INPUT****

CARTESIAN COORDINATES (ANGSTROEM)
---------------------------------
  C      4.490590    1.155900   -2.469290
  N      4.305390    1.222760   -3.908320
  C      4.631920    2.246370   -4.670960
  N      4.541690    2.143990   -5.987140
  C      5.084090    3.393580   -4.118550
  H      4.920670    3.570500   -3.135870
  H      5.254650    4.197390   -4.706960
  H      3.824530    0.449110   -4.350930
  H      4.343370    1.249320   -6.416650
  H      4.676710    2.956620   -6.574110
  C      5.942130    0.939500   -2.036890
  H      3.864310    0.328530   -2.136610
  H      4.076230    2.049990   -1.989010
  C      6.559960   -0.356290   -2.559090
  H      5.967980    0.952570   -0.942440
  H      6.547180    1.788330   -2.368850
  H      6.530220   -0.359900   -3.628670
  H      6.006540   -1.191750   -2.184070
  H      7.575880   -0.424870   -2.230290

 Total Charge           Charge          ....    0
 Multiplicity           Mult            ....    1
 Number of Electrons    NEL             ....   56
 Basis Dimension        Dim             ....  236

ORBITAL ENERGIES
----------------

  NO   OCC          E(Eh)            E(eV)
   0   2.0000     -14.333449      -390.0330
   1   2.0000     -14.331966      -389.9926
   2   2.0000     -10.229390      -278.3559
   3   2.0000     -10.213322      -277.9186
   4   2.0000     -10.171051      -276.7684
   5   2.0000     -10.162164      -276.5265
   6   2.0000     -10.095383      -274.7093
   7   2.0000      -0.963222       -26.2106
   8   2.0000      -0.880186       -23.9511
   9   2.0000      -0.767637       -20.8885
  10   2.0000      -0.704391       -19.1674
  11   2.0000      -0.681598       -18.5472
  12   2.0000      -0.602304       -16.3895
  13   2.0000      -0.554835       -15.0978
  14   2.0000      -0.548991       -14.9388
  15   2.0000      -0.520622       -14.1668
  16   2.0000      -0.473899       -12.8955
  17   2.0000      -0.449930       -12.2432
  18   2.0000      -0.429761       -11.6944
  19   2.0000      -0.402892       -10.9633
  20   2.0000      -0.390592       -10.6286
  21   2.0000      -0.386727       -10.5234
  22   2.0000      -0.368165       -10.0183
  23   2.0000      -0.346965        -9.4414
  24   2.0000      -0.340303        -9.2601
  25   2.0000      -0.331065        -9.0087
  26   2.0000      -0.250809        -6.8249
  27   2.0000      -0.163750        -4.4559
  28   0.0000       0.009507         0.2587
  29   0.0000       0.033529         0.9124
  30   0.0000       0.041748         1.1360
  31   0.0000       0.049478         1.3464
  32   0.0000       0.065564         1.7841

MULLIKEN ATOMIC CHARGES
-----------------------
   0 C :    0.900084
   1 N :   -0.472012
   2 C :    0.687968
   3 N :    0.190080
   4 C :    0.560041
   5 H :   -0.101772
   6 H :   -0.691702
   7 H :   -0.319513
   8 H :   -0.207110
   9 H :   -0.124886
  10 C :   -0.193680
  11 H :   -0.457682
  12 H :   -0.027769
  13 C :    0.934888
  14 H :   -0.227749
  15 H :   -0.067240
  16 H :   -0.170166
  17 H :   -0.043059
  18 H :   -0.168720
Sum of atomic charges:   -0.0000000

LOEWDIN ATOMIC CHARGES
----------------------
   0 C :    0.051913
   1 N :   -0.014777
   2 C :   -0.234676
   3 N :    0.188373
   4 C :    0.168388
   5 H :   -0.118387
   6 H :   -0.110337
   7 H :    0.022170
   8 H :   -0.009870
   9 H :    0.007472
  10 C :   -0.056231
  11 H :    0.018648
  12 H :    0.014006
  13 C :    0.126591
  14 H :    0.016866
  15 H :    0.007396
  16 H :   -0.029382
  17 H :   -0.025097
  18 H :   -0.023066

  Mayer bond orders larger than 0.100000
B(  0-C ,  1-N ) :   0.9106 B(  0-C ,  2-C ) :  -0.1060 B(  0-C ,  5-H ) :   0.1043
B(  0-C ,  7-H ) :  -0.1775 B(  0-C , 10-C ) :   1.1031 B(  0-C , 11-H ) :   0.7304
B(  0-C , 12-H ) :   0.8512 B(  0-C , 15-H ) :   0.1431 B(  1-N ,  2-C ) :   0.8837
B(  1-N ,  3-N ) :   0.2151 B(  1-N ,  4-C ) :   0.3719 B(  1-N ,  7-H ) :   1.4154
B(  1-N ,  8-H ) :   0.1030 B(  1-N , 11-H ) :   0.2056 B(  2-C ,  3-N ) :   0.9225
B(  2-C ,  4-C ) :   1.6061 B(  2-C ,  5-H ) :   0.2999 B(  2-C ,  6-H ) :   0.2067
B(  2-C ,  7-H ) :  -0.3312 B(  2-C , 11-H ) :   0.1051 B(  3-N ,  4-C ) :   0.2418
B(  3-N ,  8-H ) :   1.1879 B(  3-N ,  9-H ) :   1.2174 B(  4-C ,  5-H ) :   0.6079
B(  4-C ,  6-H ) :   0.7264 B(  5-H , 11-H ) :  -0.1112 B(  5-H , 12-H ) :   0.1037
B(  8-H ,  9-H ) :  -0.1747 B( 10-C , 11-H ) :   0.1513 B( 10-C , 13-C ) :   1.2810
B( 10-C , 14-H ) :   0.9760 B( 10-C , 15-H ) :   0.8891 B( 10-C , 16-H ) :   0.2321
B( 10-C , 17-H ) :   0.2202 B( 10-C , 18-H ) :   0.2530 B( 11-H , 12-H ) :  -0.1779
B( 13-C , 16-H ) :   0.7890 B( 13-C , 17-H ) :   0.7508 B( 13-C , 18-H ) :   0.7340

Dispersion correction           -0.026777429
FINAL SINGLE POINT ENERGY      -306.844611702367

DIPOLE MOMENT
-------------
                                X             Y             Z
Electronic contribution:     -2.92852       1.56699      -3.86963
Nuclear contribution   :      2.46104      -2.42013       3.42523
                        -----------------------------------------
Total Dipole Moment    :     -0.46748      -0.85314      -0.44439
                        -----------------------------------------
Magnitude (a.u.)       :      1.06952
Magnitude (Debye)      :      2.71850

Rotational constants in cm-1:     0.157414     0.050835     0.047338
Rotational constants in MHz :  4719.163414  1524.007825  1419.164399

                             ****ORCA TERMINATED NORMALLY****
TOTAL RUN TIME: 0 days 0 hours 0 minutes 19 seconds 388 msec
