                         Program Version 5.0.0 -  RELEASE  -
|  1> !B3LYP D3BJ RIJCOSX def2-SVPD def2/J TightSCF xyzfile
|  2>
|  3> *xyzfile 0 1 D3.xyz
|  4>
|  5> %MaxCore 64000
|  6>
|  7> %pal nprocs 4
|  8> end
|  9>
| 10> %scf
| 11>   MaxIter 150
| 12> end
| 13>
| 14>
| 15>                          ****END OF INPUT****

CARTESIAN COORDINATES (ANGSTROEM)
---------------------------------
  C      4.490588    1.155899   -2.469290
  N      4.305394    1.222762   -3.908317
  C      4.906458   -3.102816   -5.954844
  C      3.511771   -2.806215   -6.492283
  H      2.736044   -3.373445   -5.973736
  H      3.444904   -3.040831   -7.555281
  S      3.004618   -1.096206   -6.389259
  C      4.631918    2.246365   -4.670958
  N      4.541686    2.143990   -5.987139
  C      5.084086    3.393584   -4.118545
  H      4.920675    3.570501   -3.135870
  H      5.254652    4.197390   -4.706956
  H      3.824530    0.449113   -4.350926
  H      4.343373    1.249318   -6.416646
  H      4.676712    2.956624   -6.574113
  F      4.128856   -0.329647   -6.953717
  O      1.781285   -1.000779   -7.136399
  C      5.942129    0.939500   -2.036893
  H      3.864305    0.328532   -2.136611
  H      4.076233    2.049994   -1.989010
  C      6.462677   -3.117775   -3.944671
  C      5.024977   -3.025679   -4.437625
  H      4.423321   -3.818693   -3.977648
  H      4.579350   -2.087131   -4.108727
  H      5.201533   -4.100207   -6.296905
  H      5.605922   -2.397822   -6.413368
  C      6.559957   -0.356290   -2.559086
  H      5.967976    0.952567   -0.942444
  H      6.547184    1.788331   -2.368849
  C      6.006283   -1.615917   -1.899301
  H      7.642360   -0.318000   -2.402059
  H      6.414855   -0.403433   -3.642587
  C      6.608718   -2.917014   -2.435655
  H      6.190324   -1.561115   -0.820948
  H      4.919250   -1.651245   -2.016586
  H      7.066975   -2.374258   -4.475514
  H      6.887808   -4.089747   -4.215332
  H      6.135197   -3.755573   -1.915159
  H      7.671142   -2.955503   -2.172291
  O      2.851546   -0.783683   -4.956789

 Total Charge           Charge          ....    0
 Multiplicity           Mult            ....    1
 Number of Electrons    NEL             ....  144
 Basis Dimension        Dim             ....  540

ORBITAL ENERGIES
----------------

  NO   OCC          E(Eh)            E(eV)
   0   2.0000     -89.165785     -2426.3244
   1   2.0000     -24.835636      -675.8120
   2   2.0000     -19.179736      -521.9071
   3   2.0000     -19.175358      -521.7880
   4   2.0000     -14.315206      -389.5366
   5   2.0000     -14.301122      -389.1533
   6   2.0000     -10.264451      -279.3099
   7   2.0000     -10.225752      -278.2569
   8   2.0000     -10.211772      -277.8765
   9   2.0000     -10.197313      -277.4830
  10   2.0000     -10.195227      -277.4262
  11   2.0000     -10.188042      -277.2307
  12   2.0000     -10.180918      -277.0369
  13   2.0000     -10.173678      -276.8398
  14   2.0000     -10.167571      -276.6737
  15   2.0000     -10.161244      -276.5015
  16   2.0000     -10.079472      -274.2764
  17   2.0000      -8.219492      -223.6637
  18   2.0000      -6.192671      -168.5111
  19   2.0000      -6.186409      -168.3408
  20   2.0000      -6.184452      -168.2875
  21   2.0000      -1.388179       -37.7743
  22   2.0000      -1.141150       -31.0523
  23   2.0000      -1.042633       -28.3715
  24   2.0000      -0.944491       -25.7009
  25   2.0000      -0.863801       -23.5052
  26   2.0000      -0.854141       -23.2423
  27   2.0000      -0.810558       -22.0564
  28   2.0000      -0.778103       -21.1733
  29   2.0000      -0.754996       -20.5445
  30   2.0000      -0.726647       -19.7731
  31   2.0000      -0.695231       -18.9182
  32   2.0000      -0.683953       -18.6113
  33   2.0000      -0.654518       -17.8103
  34   2.0000      -0.629665       -17.1341
  35   2.0000      -0.618760       -16.8373
  36   2.0000      -0.611241       -16.6327
  37   2.0000      -0.590936       -16.0802
  38   2.0000      -0.581932       -15.8352
  39   2.0000      -0.558817       -15.2062
  40   2.0000      -0.539077       -14.6690
  41   2.0000      -0.528338       -14.3768
  42   2.0000      -0.519539       -14.1374
  43   2.0000      -0.504842       -13.7374
  44   2.0000      -0.497446       -13.5362
  45   2.0000      -0.485432       -13.2093
  46   2.0000      -0.477551       -12.9948
  47   2.0000      -0.468025       -12.7356
  48   2.0000      -0.459031       -12.4909
  49   2.0000      -0.447616       -12.1803
  50   2.0000      -0.438073       -11.9206
  51   2.0000      -0.433886       -11.8066
  52   2.0000      -0.422400       -11.4941
  53   2.0000      -0.411078       -11.1860
  54   2.0000      -0.396777       -10.7968
  55   2.0000      -0.391940       -10.6652
  56   2.0000      -0.387788       -10.5522
  57   2.0000      -0.379734       -10.3331
  58   2.0000      -0.370425       -10.0798
  59   2.0000      -0.368491       -10.0271
  60   2.0000      -0.361676        -9.8417
  61   2.0000      -0.353088        -9.6080
  62   2.0000      -0.352569        -9.5939
  63   2.0000      -0.346097        -9.4178
  64   2.0000      -0.338513        -9.2114
  65   2.0000      -0.334867        -9.1122
  66   2.0000      -0.331723        -9.0266
  67   2.0000      -0.315660        -8.5895
  68   2.0000      -0.314392        -8.5550
  69   2.0000      -0.305673        -8.3178
  70   2.0000      -0.232938        -6.3386
  71   2.0000      -0.148124        -4.0307
  72   0.0000      -0.024043        -0.6543
  73   0.0000       0.008716         0.2372
  74   0.0000       0.013803         0.3756
  75   0.0000       0.017394         0.4733
  76   0.0000       0.024206         0.6587

MULLIKEN ATOMIC CHARGES
-----------------------
   0 C :    1.165687
   1 N :    0.487565
   2 C :    0.444400
   3 C :    0.457965
   4 H :   -0.039312
   5 H :   -0.104991
   6 S :    1.411026
   7 C :    0.536531
   8 N :    0.789535
   9 C :    0.613534
  10 H :    0.031721
  11 H :   -0.784441
  12 H :   -1.285561
  13 H :   -0.506286
  14 H :   -0.244032
  15 F :   -0.482497
  16 O :   -0.687138
  17 C :    0.511240
  18 H :   -0.447775
  19 H :   -0.184770
  20 C :    0.186661
  21 C :    0.468201
  22 H :   -0.028961
  23 H :   -0.624155
  24 H :   -0.199704
  25 H :   -0.051726
  26 C :    0.294862
  27 H :   -0.224660
  28 H :   -0.139292
  29 C :    0.010242
  30 H :   -0.257001
  31 H :   -0.217306
  32 C :    0.837533
  33 H :   -0.442988
  34 H :    0.069161
  35 H :    0.057203
  36 H :   -0.449648
  37 H :   -0.130792
  38 H :   -0.083821
  39 O :   -0.756212
Sum of atomic charges:    0.0000000

LOEWDIN ATOMIC CHARGES
----------------------
   0 C :    0.073226
   1 N :    0.014123
   2 C :   -0.027189
   3 C :   -0.029672
   4 H :    0.042966
   5 H :    0.025015
   6 S :    1.167769
   7 C :   -0.215559
   8 N :    0.215118
   9 C :    0.163033
  10 H :   -0.120719
  11 H :   -0.115271
  12 H :   -0.102192
  13 H :   -0.092754
  14 H :    0.011330
  15 F :   -0.261439
  16 O :   -0.430360
  17 C :   -0.007641
  18 H :    0.013692
  19 H :    0.014794
  20 C :   -0.029309
  21 C :   -0.022022
  22 H :    0.040789
  23 H :   -0.018616
  24 H :    0.036175
  25 H :    0.025042
  26 C :   -0.027222
  27 H :    0.018904
  28 H :    0.008534
  29 C :   -0.032167
  30 H :    0.023297
  31 H :    0.001808
  32 C :   -0.023030
  33 H :    0.022046
  34 H :    0.003144
  35 H :    0.015265
  36 H :    0.020842
  37 H :    0.018677
  38 H :    0.020620
  39 O :   -0.441048

  Mayer bond orders larger than 0.100000
B(  0-C ,  1-N ) :   1.0553 B(  0-C , 10-H ) :   0.1198 B(  0-C , 12-H ) :  -0.5568
B(  0-C , 17-C ) :   1.0727 B(  0-C , 18-H ) :   0.6130 B(  0-C , 19-H ) :   0.7996
B(  0-C , 26-C ) :   0.1558 B(  0-C , 27-H ) :   0.1135 B(  0-C , 28-H ) :   0.1023
B(  1-N ,  7-C ) :   1.0485 B(  1-N ,  9-C ) :   0.2717 B(  1-N , 11-H ) :   0.1338
B(  1-N , 12-H ) :   0.5168 B(  1-N , 13-H ) :   0.1654 B(  1-N , 14-H ) :  -0.1137
B(  1-N , 18-H ) :   0.3121 B(  2-C ,  3-C ) :   1.1710 B(  2-C ,  5-H ) :   0.2763
B(  2-C , 20-C ) :   0.1363 B(  2-C , 21-C ) :   1.1029 B(  2-C , 22-H ) :   0.1150
B(  2-C , 24-H ) :   0.7595 B(  2-C , 25-H ) :   0.7992 B(  3-C ,  4-H ) :   0.8664
B(  3-C ,  5-H ) :   0.6889 B(  3-C ,  6-S ) :   1.0207 B(  3-C , 21-C ) :   0.1228
B(  3-C , 25-H ) :   0.1045 B(  5-H ,  6-S ) :   0.1077 B(  6-S , 15-F ) :   0.5867
B(  6-S , 16-O ) :   1.4830 B(  6-S , 39-O ) :   1.4208 B(  7-C ,  8-N ) :   0.9966
B(  7-C ,  9-C ) :   1.5707 B(  7-C , 10-H ) :   0.3952 B(  7-C , 11-H ) :   0.4068
B(  7-C , 12-H ) :  -0.7548 B(  7-C , 13-H ) :  -0.1758 B(  7-C , 14-H ) :  -0.1000
B(  7-C , 18-H ) :   0.1391 B(  8-N ,  9-C ) :   0.2100 B(  8-N , 13-H ) :   0.8243
B(  8-N , 14-H ) :   1.2260 B(  9-C , 10-H ) :   0.5152 B(  9-C , 11-H ) :   0.5178
B( 10-H , 13-H ) :   0.1676 B( 10-H , 18-H ) :  -0.1179 B( 10-H , 19-H ) :   0.1245
B( 11-H , 12-H ) :  -0.1225 B( 12-H , 39-O ) :   0.1907 B( 13-H , 14-H ) :  -0.2371
B( 13-H , 15-F ) :   0.1941 B( 16-O , 39-O ) :   0.1510 B( 17-C , 18-H ) :   0.1216
B( 17-C , 19-H ) :   0.1069 B( 17-C , 26-C ) :   1.1669 B( 17-C , 27-H ) :   0.8420
B( 17-C , 28-H ) :   0.7036 B( 17-C , 31-H ) :   0.1378 B( 18-H , 19-H ) :  -0.2564
B( 20-C , 21-C ) :   1.2018 B( 20-C , 22-H ) :   0.1263 B( 20-C , 23-H ) :   0.1382
B( 20-C , 29-C ) :   0.1594 B( 20-C , 32-C ) :   1.1223 B( 20-C , 35-H ) :   0.8263
B( 20-C , 36-H ) :   0.8543 B( 20-C , 37-H ) :   0.1227 B( 20-C , 38-H ) :   0.2576
B( 21-C , 22-H ) :   0.6599 B( 21-C , 23-H ) :   0.6524 B( 21-C , 24-H ) :   0.1966
B( 21-C , 25-H ) :   0.1195 B( 21-C , 35-H ) :   0.1187 B( 21-C , 36-H ) :   0.2013
B( 22-H , 23-H ) :   0.1937 B( 23-H , 34-H ) :   0.1230 B( 26-C , 27-H ) :   0.1093
B( 26-C , 28-H ) :   0.2490 B( 26-C , 29-C ) :   1.2115 B( 26-C , 30-H ) :   0.7968
B( 26-C , 31-H ) :   0.8589 B( 26-C , 33-H ) :   0.1533 B( 26-C , 34-H ) :   0.1226
B( 27-H , 28-H ) :  -0.1623 B( 29-C , 30-H ) :   0.1678 B( 29-C , 31-H ) :   0.1472
B( 29-C , 32-C ) :   1.1104 B( 29-C , 33-H ) :   0.9332 B( 29-C , 34-H ) :   0.8296
B( 29-C , 37-H ) :   0.3377 B( 29-C , 38-H ) :   0.1492 B( 32-C , 37-H ) :   0.5827
B( 32-C , 38-H ) :   0.6289 B( 37-H , 38-H ) :  -0.1351

Dispersion correction           -0.079070962
FINAL SINGLE POINT ENERGY     -1189.792303121135

DIPOLE MOMENT
-------------
                                X             Y             Z
Electronic contribution:    -16.86347       2.65632     -21.30292
Nuclear contribution   :     17.35766      -5.13497      20.30937
                        -----------------------------------------
Total Dipole Moment    :      0.49419      -2.47865      -0.99356
                        -----------------------------------------
Magnitude (a.u.)       :      2.71571
Magnitude (Debye)      :      6.90279

Rotational constants in cm-1:     0.014431     0.012329     0.007535
Rotational constants in MHz :   432.628327   369.619539   225.898827

                             ****ORCA TERMINATED NORMALLY****
TOTAL RUN TIME: 0 days 0 hours 5 minutes 18 seconds 710 msec
