                         Program Version 5.0.0 -  RELEASE  -
|  1> !B3LYP D3BJ RIJCOSX def2-SVPD def2/J TightSCF xyzfile
|  2>
|  3> *xyzfile 0 1 D4.xyz
|  4>
|  5> %MaxCore 64000
|  6>
|  7> %pal nprocs 4
|  8> end
|  9>
| 10> %scf
| 11>   MaxIter 150
| 12> end
| 13>
| 14>
| 15>                          ****END OF INPUT****

CARTESIAN COORDINATES (ANGSTROEM)
---------------------------------
  C      4.490588    1.155899   -2.469290
  C      4.305394    1.222762   -3.908317
  C      4.906458   -3.102816   -5.954844
  C      3.511771   -2.806215   -6.492283
  H      2.736044   -3.373445   -5.973736
  H      3.444904   -3.040831   -7.555281
  S      3.004618   -1.096206   -6.389259
  C      4.631918    2.246365   -4.670958
  N      4.541686    2.143990   -5.987139
  N      5.084086    3.393584   -4.118545
  H      4.920675    3.570501   -3.135870
  H      5.254652    4.197390   -4.706956
  H      3.824530    0.449113   -4.350926
  H      4.343373    1.249318   -6.416646
  H      4.676712    2.956624   -6.574113
  O      4.128856   -0.329647   -6.953717
  F      1.781285   -1.000779   -7.136399
  C      5.942129    0.939500   -2.036893
  H      3.864305    0.328532   -2.136611
  H      4.076233    2.049994   -1.989010
  C      6.462677   -3.117775   -3.944671
  C      5.024977   -3.025679   -4.437625
  H      4.423321   -3.818693   -3.977648
  H      4.579350   -2.087131   -4.108727
  H      5.201533   -4.100207   -6.296905
  H      5.605922   -2.397822   -6.413368
  C      6.559957   -0.356290   -2.559086
  H      5.967976    0.952567   -0.942444
  H      6.547184    1.788331   -2.368849
  C      6.006283   -1.615917   -1.899301
  H      7.642360   -0.318000   -2.402059
  H      6.414855   -0.403433   -3.642587
  C      6.608718   -2.917014   -2.435655
  H      6.190324   -1.561115   -0.820948
  H      4.919250   -1.651245   -2.016586
  H      7.066975   -2.374258   -4.475514
  H      6.887808   -4.089747   -4.215332
  H      6.135197   -3.755573   -1.915159
  H      7.671142   -2.955503   -2.172291
  O      2.851546   -0.783683   -4.956789

 Total Charge           Charge          ....    0
 Multiplicity           Mult            ....    1
 Number of Electrons    NEL             ....  144
 Basis Dimension        Dim             ....  540

ORBITAL ENERGIES
----------------

  NO   OCC          E(Eh)            E(eV)
   0   2.0000     -89.155742     -2426.0511
   1   2.0000     -24.831524      -675.7001
   2   2.0000     -19.164453      -521.4913
   3   2.0000     -19.155792      -521.2556
   4   2.0000     -14.307554      -389.3283
   5   2.0000     -14.287583      -388.7849
   6   2.0000     -10.254870      -279.0492
   7   2.0000     -10.211971      -277.8819
   8   2.0000     -10.194385      -277.4033
   9   2.0000     -10.179547      -276.9996
  10   2.0000     -10.173632      -276.8386
  11   2.0000     -10.166987      -276.6578
  12   2.0000     -10.157048      -276.3873
  13   2.0000     -10.147978      -276.1405
  14   2.0000     -10.142133      -275.9815
  15   2.0000     -10.134862      -275.7836
  16   2.0000     -10.064577      -273.8711
  17   2.0000      -8.209114      -223.3813
  18   2.0000      -6.182190      -168.2260
  19   2.0000      -6.175980      -168.0570
  20   2.0000      -6.174221      -168.0091
  21   2.0000      -1.394352       -37.9422
  22   2.0000      -1.119355       -30.4592
  23   2.0000      -1.017301       -27.6822
  24   2.0000      -0.920998       -25.0616
  25   2.0000      -0.840606       -22.8741
  26   2.0000      -0.831078       -22.6148
  27   2.0000      -0.797402       -21.6984
  28   2.0000      -0.769349       -20.9351
  29   2.0000      -0.750638       -20.4259
  30   2.0000      -0.721992       -19.6464
  31   2.0000      -0.694054       -18.8862
  32   2.0000      -0.661231       -17.9930
  33   2.0000      -0.633073       -17.2268
  34   2.0000      -0.610646       -16.6165
  35   2.0000      -0.607790       -16.5388
  36   2.0000      -0.591262       -16.0890
  37   2.0000      -0.584788       -15.9129
  38   2.0000      -0.566672       -15.4199
  39   2.0000      -0.548808       -14.9338
  40   2.0000      -0.532081       -14.4787
  41   2.0000      -0.518478       -14.1085
  42   2.0000      -0.505086       -13.7441
  43   2.0000      -0.498542       -13.5660
  44   2.0000      -0.479456       -13.0467
  45   2.0000      -0.469701       -12.7812
  46   2.0000      -0.467162       -12.7121
  47   2.0000      -0.452580       -12.3153
  48   2.0000      -0.446431       -12.1480
  49   2.0000      -0.433494       -11.7960
  50   2.0000      -0.425412       -11.5761
  51   2.0000      -0.412352       -11.2207
  52   2.0000      -0.411808       -11.2059
  53   2.0000      -0.405748       -11.0410
  54   2.0000      -0.384407       -10.4603
  55   2.0000      -0.378956       -10.3119
  56   2.0000      -0.374566       -10.1924
  57   2.0000      -0.367310        -9.9950
  58   2.0000      -0.353293        -9.6136
  59   2.0000      -0.350351        -9.5335
  60   2.0000      -0.346061        -9.4168
  61   2.0000      -0.337253        -9.1771
  62   2.0000      -0.331048        -9.0083
  63   2.0000      -0.322947        -8.7878
  64   2.0000      -0.319866        -8.7040
  65   2.0000      -0.316625        -8.6158
  66   2.0000      -0.304136        -8.2760
  67   2.0000      -0.295750        -8.0478
  68   2.0000      -0.287345        -7.8191
  69   2.0000      -0.272690        -7.4203
  70   2.0000      -0.236137        -6.4256
  71   2.0000      -0.132047        -3.5932
  72   0.0000      -0.010697        -0.2911
  73   0.0000       0.008469         0.2304
  74   0.0000       0.023811         0.6479
  75   0.0000       0.028675         0.7803
  76   0.0000       0.034099         0.9279

MULLIKEN ATOMIC CHARGES
-----------------------
   0 C :    0.292005
   1 C :    0.324977
   2 C :    0.374954
   3 C :    0.419527
   4 H :   -0.037758
   5 H :   -0.086763
   6 S :    1.648241
   7 C :    0.843160
   8 N :    0.411274
   9 N :    0.127427
  10 H :   -0.090765
  11 H :   -0.326214
  12 H :   -0.732500
  13 H :   -0.334047
  14 H :   -0.279103
  15 O :   -0.685350
  16 F :   -0.519841
  17 C :    0.579315
  18 H :    0.025034
  19 H :   -0.288207
  20 C :    0.196758
  21 C :    0.486719
  22 H :   -0.033748
  23 H :   -0.672331
  24 H :   -0.182502
  25 H :   -0.017158
  26 C :    0.267524
  27 H :   -0.165215
  28 H :   -0.216793
  29 C :    0.083513
  30 H :   -0.212620
  31 H :   -0.155708
  32 C :    0.828548
  33 H :   -0.445844
  34 H :    0.035861
  35 H :    0.056402
  36 H :   -0.454720
  37 H :   -0.133502
  38 H :   -0.087005
  39 O :   -0.843543
Sum of atomic charges:    0.0000000

LOEWDIN ATOMIC CHARGES
----------------------
   0 C :   -0.040230
   1 C :   -0.010566
   2 C :   -0.013213
   3 C :   -0.042977
   4 H :    0.028699
   5 H :    0.019994
   6 S :    1.201192
   7 C :   -0.193066
   8 N :    0.209828
   9 N :    0.205603
  10 H :   -0.020187
  11 H :   -0.020924
  12 H :   -0.142866
  13 H :   -0.119312
  14 H :   -0.013634
  15 O :   -0.441720
  16 F :   -0.240058
  17 C :   -0.025117
  18 H :    0.006875
  19 H :    0.000070
  20 C :   -0.029137
  21 C :   -0.018113
  22 H :    0.037784
  23 H :   -0.012137
  24 H :    0.037054
  25 H :    0.029927
  26 C :   -0.025899
  27 H :    0.010322
  28 H :    0.006697
  29 C :   -0.030397
  30 H :    0.019918
  31 H :    0.005291
  32 C :   -0.025529
  33 H :    0.019774
  34 H :    0.004818
  35 H :    0.016843
  36 H :    0.018619
  37 H :    0.016498
  38 H :    0.018568
  39 O :   -0.449295

  Mayer bond orders larger than 0.100000
B(  0-C ,  1-C ) :   1.1595 B(  0-C , 12-H ) :   0.9146 B(  0-C , 17-C ) :   1.0916
B(  0-C , 18-H ) :   0.6583 B(  0-C , 19-H ) :   0.8327 B(  0-C , 26-C ) :   0.1336
B(  0-C , 27-H ) :   0.2135 B(  0-C , 28-H ) :   0.1449 B(  0-C , 30-H ) :  -0.1217
B(  1-C ,  7-C ) :   1.6497 B(  1-C ,  8-N ) :   0.3228 B(  1-C ,  9-N ) :   0.3294
B(  1-C , 10-H ) :  -0.1021 B(  1-C , 12-H ) :  -0.6016 B(  1-C , 17-C ) :   0.1262
B(  1-C , 18-H ) :   0.4322 B(  1-C , 19-H ) :   0.1838 B(  2-C ,  3-C ) :   1.2322
B(  2-C ,  5-H ) :   0.3143 B(  2-C , 20-C ) :   0.1405 B(  2-C , 21-C ) :   1.1134
B(  2-C , 22-H ) :   0.1137 B(  2-C , 24-H ) :   0.7312 B(  2-C , 25-H ) :   0.8193
B(  3-C ,  4-H ) :   0.8692 B(  3-C ,  5-H ) :   0.6175 B(  3-C ,  6-S ) :   0.9893
B(  3-C , 16-F ) :   0.1013 B(  3-C , 21-C ) :   0.1486 B(  3-C , 25-H ) :   0.1097
B(  6-S , 15-O ) :   1.3498 B(  6-S , 16-F ) :   0.4765 B(  6-S , 39-O ) :   1.4484
B(  7-C ,  8-N ) :   0.8731 B(  7-C ,  9-N ) :   0.8234 B(  7-C , 11-H ) :  -0.1715
B(  7-C , 12-H ) :  -0.1427 B(  7-C , 13-H ) :  -0.2650 B(  7-C , 14-H ) :  -0.1566
B(  8-N , 13-H ) :   1.1873 B(  8-N , 14-H ) :   1.3166 B(  9-N , 10-H ) :   1.0867
B(  9-N , 11-H ) :   1.3205 B( 10-H , 11-H ) :  -0.1999 B( 11-H , 12-H ) :  -0.1056
B( 12-H , 18-H ) :  -0.2106 B( 12-H , 39-O ) :   0.1770 B( 13-H , 14-H ) :  -0.2593
B( 13-H , 15-O ) :   0.1391 B( 16-F , 39-O ) :   0.1111 B( 17-C , 18-H ) :   0.1226
B( 17-C , 26-C ) :   1.2585 B( 17-C , 27-H ) :   0.7252 B( 17-C , 28-H ) :   0.6330
B( 17-C , 30-H ) :   0.1223 B( 17-C , 31-H ) :   0.1781 B( 18-H , 19-H ) :  -0.1309
B( 20-C , 21-C ) :   1.1970 B( 20-C , 22-H ) :   0.1261 B( 20-C , 23-H ) :   0.1468
B( 20-C , 29-C ) :   0.1558 B( 20-C , 32-C ) :   1.1176 B( 20-C , 35-H ) :   0.8224
B( 20-C , 36-H ) :   0.8500 B( 20-C , 37-H ) :   0.1177 B( 20-C , 38-H ) :   0.2592
B( 21-C , 22-H ) :   0.6494 B( 21-C , 23-H ) :   0.6099 B( 21-C , 24-H ) :   0.1994
B( 21-C , 25-H ) :   0.1163 B( 21-C , 35-H ) :   0.1270 B( 21-C , 36-H ) :   0.2037
B( 22-H , 23-H ) :   0.2140 B( 23-H , 34-H ) :   0.1243 B( 26-C , 27-H ) :   0.1377
B( 26-C , 28-H ) :   0.2606 B( 26-C , 29-C ) :   1.2108 B( 26-C , 30-H ) :   0.7531
B( 26-C , 31-H ) :   0.8305 B( 26-C , 33-H ) :   0.1441 B( 26-C , 34-H ) :   0.1170
B( 27-H , 28-H ) :  -0.1516 B( 29-C , 30-H ) :   0.1478 B( 29-C , 31-H ) :   0.1228
B( 29-C , 32-C ) :   1.1010 B( 29-C , 33-H ) :   0.9216 B( 29-C , 34-H ) :   0.8271
B( 29-C , 37-H ) :   0.3358 B( 29-C , 38-H ) :   0.1503 B( 32-C , 37-H ) :   0.5892
B( 32-C , 38-H ) :   0.6250 B( 37-H , 38-H ) :  -0.1318

Dispersion correction           -0.080146369
FINAL SINGLE POINT ENERGY     -1189.780901895794

DIPOLE MOMENT
-------------
                                X             Y             Z
Electronic contribution:    -20.56505       3.46283     -21.97750
Nuclear contribution   :     19.99734      -4.67125      20.55522
                        -----------------------------------------
Total Dipole Moment    :     -0.56771      -1.20842      -1.42228
                        -----------------------------------------
Magnitude (a.u.)       :      1.95076
Magnitude (Debye)      :      4.95843

Rotational constants in cm-1:     0.014213     0.012058     0.007367
Rotational constants in MHz :   426.102180   361.491761   220.844824

                             ****ORCA TERMINATED NORMALLY****
TOTAL RUN TIME: 0 days 0 hours 4 minutes 34 seconds 422 msec
