                         Program Version 5.0.0 -  RELEASE  -
|  1> !B3LYP D3BJ RIJCOSX def2-SVPD def2/J TightSCF xyzfile
|  2>
|  3> *xyzfile 0 1 D7.xyz
|  4>
|  5> %MaxCore 64000
|  6>
|  7> %pal nprocs 4
|  8> end
|  9>
| 10> %scf
| 11>   MaxIter 150
| 12> end
| 13>
| 14>
| 15>                          ****END OF INPUT****

CARTESIAN COORDINATES (ANGSTROEM)
---------------------------------
  C      4.490588    1.155899   -2.469290
  C      4.305394    1.222762   -3.908317
  C      4.906458   -3.102816   -5.954844
  C      3.511771   -2.806215   -6.492283
  H      2.736044   -3.373445   -5.973736
  H      3.444904   -3.040831   -7.555281
  S      3.004618   -1.096206   -6.389259
  C      4.631918    2.246365   -4.670958
  N      4.541686    2.143990   -5.987139
  N      5.084086    3.393584   -4.118545
  H      4.920675    3.570501   -3.135870
  H      5.254652    4.197390   -4.706956
  H      3.824530    0.449113   -4.350926
  H      4.343373    1.249318   -6.416646
  H      4.676712    2.956624   -6.574113
  O      4.128856   -0.329647   -6.953717
  O      1.781285   -1.000779   -7.136399
  C      5.942129    0.939500   -2.036893
  H      3.864305    0.328532   -2.136611
  H      4.076233    2.049994   -1.989010
  C      6.462677   -3.117775   -3.944671
  C      5.024977   -3.025679   -4.437625
  H      4.423321   -3.818693   -3.977648
  H      4.579350   -2.087131   -4.108727
  H      5.201533   -4.100207   -6.296905
  H      5.605922   -2.397822   -6.413368
  C      6.559957   -0.356290   -2.559086
  H      5.967976    0.952567   -0.942444
  H      6.547184    1.788331   -2.368849
  C      6.006283   -1.615917   -1.899301
  H      7.642360   -0.318000   -2.402059
  H      6.414855   -0.403433   -3.642587
  C      6.608718   -2.917014   -2.435655
  H      6.190324   -1.561115   -0.820948
  H      4.919250   -1.651245   -2.016586
  H      7.066975   -2.374258   -4.475514
  H      6.887808   -4.089747   -4.215332
  H      6.135197   -3.755573   -1.915159
  H      7.671142   -2.955503   -2.172291
  F      2.851546   -0.783683   -4.956789

 Total Charge           Charge          ....    0
 Multiplicity           Mult            ....    1
 Number of Electrons    NEL             ....  144
 Basis Dimension        Dim             ....  540

ORBITAL ENERGIES
----------------

  NO   OCC          E(Eh)            E(eV)
   0   2.0000     -89.150463     -2425.9074
   1   2.0000     -24.807772      -675.0538
   2   2.0000     -19.165087      -521.5085
   3   2.0000     -19.160529      -521.3845
   4   2.0000     -14.320400      -389.6779
   5   2.0000     -14.297676      -389.0595
   6   2.0000     -10.251451      -278.9562
   7   2.0000     -10.211349      -277.8649
   8   2.0000     -10.211131      -277.8590
   9   2.0000     -10.191900      -277.3357
  10   2.0000     -10.181815      -277.0613
  11   2.0000     -10.175245      -276.8825
  12   2.0000     -10.167364      -276.6680
  13   2.0000     -10.158440      -276.4252
  14   2.0000     -10.153512      -276.2911
  15   2.0000     -10.150180      -276.2004
  16   2.0000     -10.087191      -274.4864
  17   2.0000      -8.203714      -223.2344
  18   2.0000      -6.176675      -168.0759
  19   2.0000      -6.170778      -167.9154
  20   2.0000      -6.168926      -167.8650
  21   2.0000      -1.361098       -37.0374
  22   2.0000      -1.125544       -30.6276
  23   2.0000      -1.028728       -27.9931
  24   2.0000      -0.933877       -25.4121
  25   2.0000      -0.844471       -22.9792
  26   2.0000      -0.839892       -22.8546
  27   2.0000      -0.803720       -21.8703
  28   2.0000      -0.775402       -21.0998
  29   2.0000      -0.752427       -20.4746
  30   2.0000      -0.719451       -19.5773
  31   2.0000      -0.703985       -19.1564
  32   2.0000      -0.667124       -18.1534
  33   2.0000      -0.640676       -17.4337
  34   2.0000      -0.619583       -16.8597
  35   2.0000      -0.594048       -16.1649
  36   2.0000      -0.589213       -16.0333
  37   2.0000      -0.578492       -15.7416
  38   2.0000      -0.573544       -15.6069
  39   2.0000      -0.553696       -15.0668
  40   2.0000      -0.542443       -14.7606
  41   2.0000      -0.525853       -14.3092
  42   2.0000      -0.501918       -13.6579
  43   2.0000      -0.489564       -13.3217
  44   2.0000      -0.486594       -13.2409
  45   2.0000      -0.480032       -13.0623
  46   2.0000      -0.477732       -12.9998
  47   2.0000      -0.459211       -12.4958
  48   2.0000      -0.451909       -12.2971
  49   2.0000      -0.443383       -12.0651
  50   2.0000      -0.430701       -11.7200
  51   2.0000      -0.424247       -11.5443
  52   2.0000      -0.421654       -11.4738
  53   2.0000      -0.405999       -11.0478
  54   2.0000      -0.397051       -10.8043
  55   2.0000      -0.384182       -10.4541
  56   2.0000      -0.378226       -10.2921
  57   2.0000      -0.373557       -10.1650
  58   2.0000      -0.365361        -9.9420
  59   2.0000      -0.357920        -9.7395
  60   2.0000      -0.349510        -9.5106
  61   2.0000      -0.345817        -9.4101
  62   2.0000      -0.339978        -9.2513
  63   2.0000      -0.332652        -9.0519
  64   2.0000      -0.330263        -8.9869
  65   2.0000      -0.327878        -8.9220
  66   2.0000      -0.322100        -8.7648
  67   2.0000      -0.306759        -8.3473
  68   2.0000      -0.300535        -8.1780
  69   2.0000      -0.295610        -8.0440
  70   2.0000      -0.247240        -6.7277
  71   2.0000      -0.148709        -4.0466
  72   0.0000      -0.006210        -0.1690
  73   0.0000       0.016833         0.4580
  74   0.0000       0.021457         0.5839
  75   0.0000       0.022410         0.6098
  76   0.0000       0.031430         0.8553

MULLIKEN ATOMIC CHARGES
-----------------------
   0 C :    0.309303
   1 C :    0.442030
   2 C :    0.436401
   3 C :    0.436054
   4 H :   -0.063579
   5 H :   -0.083811
   6 S :    1.546898
   7 C :    0.847658
   8 N :    0.405219
   9 N :    0.139937
  10 H :   -0.086335
  11 H :   -0.324004
  12 H :   -0.867474
  13 H :   -0.330843
  14 H :   -0.267532
  15 O :   -0.693505
  16 O :   -0.693064
  17 C :    0.574570
  18 H :    0.020694
  19 H :   -0.288690
  20 C :    0.182617
  21 C :    0.494848
  22 H :   -0.033442
  23 H :   -0.716454
  24 H :   -0.176119
  25 H :   -0.005928
  26 C :    0.271228
  27 H :   -0.162156
  28 H :   -0.211056
  29 C :    0.085196
  30 H :   -0.207527
  31 H :   -0.153409
  32 C :    0.822833
  33 H :   -0.438854
  34 H :    0.023711
  35 H :    0.056297
  36 H :   -0.452714
  37 H :   -0.132127
  38 H :   -0.083794
  39 F :   -0.623076
Sum of atomic charges:   -0.0000000

LOEWDIN ATOMIC CHARGES
----------------------
   0 C :   -0.043519
   1 C :   -0.017690
   2 C :   -0.026320
   3 C :   -0.033262
   4 H :    0.028857
   5 H :    0.034657
   6 S :    1.167093
   7 C :   -0.189478
   8 N :    0.213982
   9 N :    0.211087
  10 H :   -0.017436
  11 H :   -0.015793
  12 H :   -0.119879
  13 H :   -0.117999
  14 H :   -0.007674
  15 O :   -0.440328
  16 O :   -0.438628
  17 C :   -0.023861
  18 H :    0.004570
  19 H :    0.002191
  20 C :   -0.027022
  21 C :   -0.024277
  22 H :    0.037613
  23 H :   -0.013387
  24 H :    0.035486
  25 H :    0.027979
  26 C :   -0.025715
  27 H :    0.012175
  28 H :    0.008158
  29 C :   -0.031631
  30 H :    0.021773
  31 H :    0.004747
  32 C :   -0.024656
  33 H :    0.020915
  34 H :    0.001624
  35 H :    0.017886
  36 H :    0.021486
  37 H :    0.017366
  38 H :    0.019875
  39 F :   -0.270965

  Mayer bond orders larger than 0.100000
B(  0-C ,  1-C ) :   1.0798 B(  0-C , 12-H ) :   0.9215 B(  0-C , 17-C ) :   1.0898
B(  0-C , 18-H ) :   0.6589 B(  0-C , 19-H ) :   0.8327 B(  0-C , 26-C ) :   0.1315
B(  0-C , 27-H ) :   0.2159 B(  0-C , 28-H ) :   0.1586 B(  0-C , 30-H ) :  -0.1263
B(  1-C ,  7-C ) :   1.6336 B(  1-C ,  8-N ) :   0.3173 B(  1-C ,  9-N ) :   0.3199
B(  1-C , 10-H ) :  -0.1067 B(  1-C , 12-H ) :  -0.8218 B(  1-C , 17-C ) :   0.1272
B(  1-C , 18-H ) :   0.4419 B(  1-C , 19-H ) :   0.1793 B(  2-C ,  3-C ) :   1.1977
B(  2-C ,  5-H ) :   0.2848 B(  2-C , 20-C ) :   0.1384 B(  2-C , 21-C ) :   1.1236
B(  2-C , 22-H ) :   0.1143 B(  2-C , 24-H ) :   0.7255 B(  2-C , 25-H ) :   0.8312
B(  3-C ,  4-H ) :   0.8809 B(  3-C ,  5-H ) :   0.6604 B(  3-C ,  6-S ) :   0.9717
B(  3-C , 21-C ) :   0.1464 B(  3-C , 25-H ) :   0.1152 B(  6-S , 15-O ) :   1.3723
B(  6-S , 16-O ) :   1.4488 B(  6-S , 39-F ) :   0.6382 B(  7-C ,  8-N ) :   0.8641
B(  7-C ,  9-N ) :   0.8546 B(  7-C , 11-H ) :  -0.1694 B(  7-C , 12-H ) :  -0.1085
B(  7-C , 13-H ) :  -0.2627 B(  7-C , 14-H ) :  -0.1497 B(  8-N ,  9-N ) :   0.1006
B(  8-N , 13-H ) :   1.1873 B(  8-N , 14-H ) :   1.3055 B(  9-N , 10-H ) :   1.0849
B(  9-N , 11-H ) :   1.3108 B( 10-H , 11-H ) :  -0.2000 B( 12-H , 18-H ) :  -0.2108
B( 12-H , 39-F ) :   0.2413 B( 13-H , 14-H ) :  -0.2589 B( 13-H , 15-O ) :   0.1300
B( 17-C , 18-H ) :   0.1310 B( 17-C , 26-C ) :   1.2603 B( 17-C , 27-H ) :   0.7273
B( 17-C , 28-H ) :   0.6335 B( 17-C , 30-H ) :   0.1220 B( 17-C , 31-H ) :   0.1809
B( 18-H , 19-H ) :  -0.1266 B( 20-C , 21-C ) :   1.2088 B( 20-C , 22-H ) :   0.1245
B( 20-C , 23-H ) :   0.1617 B( 20-C , 29-C ) :   0.1608 B( 20-C , 32-C ) :   1.1160
B( 20-C , 35-H ) :   0.8244 B( 20-C , 36-H ) :   0.8547 B( 20-C , 37-H ) :   0.1157
B( 20-C , 38-H ) :   0.2605 B( 21-C , 22-H ) :   0.6514 B( 21-C , 23-H ) :   0.5417
B( 21-C , 24-H ) :   0.2001 B( 21-C , 25-H ) :   0.1171 B( 21-C , 35-H ) :   0.1246
B( 21-C , 36-H ) :   0.2002 B( 22-H , 23-H ) :   0.2263 B( 23-H , 34-H ) :   0.1290
B( 26-C , 27-H ) :   0.1413 B( 26-C , 28-H ) :   0.2571 B( 26-C , 29-C ) :   1.2087
B( 26-C , 30-H ) :   0.7567 B( 26-C , 31-H ) :   0.8280 B( 26-C , 33-H ) :   0.1449
B( 26-C , 34-H ) :   0.1145 B( 27-H , 28-H ) :  -0.1503 B( 29-C , 30-H ) :   0.1490
B( 29-C , 31-H ) :   0.1218 B( 29-C , 32-C ) :   1.1032 B( 29-C , 33-H ) :   0.9196
B( 29-C , 34-H ) :   0.8253 B( 29-C , 37-H ) :   0.3361 B( 29-C , 38-H ) :   0.1498
B( 32-C , 37-H ) :   0.5903 B( 32-C , 38-H ) :   0.6271 B( 37-H , 38-H ) :  -0.1316

Dispersion correction           -0.079476616
FINAL SINGLE POINT ENERGY     -1189.798995625975

DIPOLE MOMENT
-------------
                                X             Y             Z
Electronic contribution:    -18.40288       3.99308     -18.01500
Nuclear contribution   :     18.74089      -4.92611      17.99644
                        -----------------------------------------
Total Dipole Moment    :      0.33802      -0.93303      -0.01856
                        -----------------------------------------
Magnitude (a.u.)       :      0.99255
Magnitude (Debye)      :      2.52286

Rotational constants in cm-1:     0.014210     0.012324     0.007480
Rotational constants in MHz :   425.991442   369.455467   224.259162

                             ****ORCA TERMINATED NORMALLY****
TOTAL RUN TIME: 0 days 0 hours 4 minutes 29 seconds 706 msec
