                         Program Version 5.0.0 -  RELEASE  -
|  1> !DLPNO-CCSD(T) aug-cc-pVTZ aug-cc-pVTZ/C TightSCF TightPNO RIJCOSX def2/J
|  2> *xyz -1 1
|  3> C         -7.33044       -2.67899       -3.20681
|  4> S         -6.01966       -2.92697       -4.41913
|  5> O         -5.64583       -1.58838       -4.91931
|  6> O         -4.88196       -3.50370       -3.66724
|  7> O         -6.54927       -3.80515       -5.42507
|  8> C         -6.28692       -0.73588       -1.89353
|  9> C         -7.46900       -1.24615       -2.71383
| 10> H         -7.60191       -0.60135       -3.58533
| 11> H         -8.38979       -1.17344       -2.12692
| 12> H         -7.11825       -3.37982       -2.39805
| 13> H         -8.24184       -3.00474       -3.70651
| 14> H         -5.39124       -0.81034       -2.47415
| 15> H         -6.18709       -1.32597       -1.00655
| 16> H         -6.45393        0.28631       -1.62495
| 17> *
| 18> %MaxCore 64000
| 19>
| 20> %pal nprocs 2
| 21> end
| 22>
| 23> %scf
| 24>   MaxIter 150
| 25> end
| 26>
| 27>
| 28>                          ****END OF INPUT****

CARTESIAN COORDINATES (ANGSTROEM)
---------------------------------
  C     -7.330440   -2.678990   -3.206810
  S     -6.019660   -2.926970   -4.419130
  O     -5.645830   -1.588380   -4.919310
  O     -4.881960   -3.503700   -3.667240
  O     -6.549270   -3.805150   -5.425070
  C     -6.286920   -0.735880   -1.893530
  C     -7.469000   -1.246150   -2.713830
  H     -7.601910   -0.601350   -3.585330
  H     -8.389790   -1.173440   -2.126920
  H     -7.118250   -3.379820   -2.398050
  H     -8.241840   -3.004740   -3.706510
  H     -5.391240   -0.810340   -2.474150
  H     -6.187090   -1.325970   -1.006550
  H     -6.453930    0.286310   -1.624950

 Total Charge           Charge          ....   -1
 Multiplicity           Mult            ....    1
 Number of Electrons    NEL             ....   66
 Basis Dimension        Dim             ....  487

ORBITAL ENERGIES
----------------

  NO   OCC          E(Eh)            E(eV)
   0   2.0000     -91.984595     -2503.0281
   1   2.0000     -20.336846      -553.3937
   2   2.0000     -20.325579      -553.0871
   3   2.0000     -20.321911      -552.9873
   4   2.0000     -11.096536      -301.9521
   5   2.0000     -11.095783      -301.9316
   6   2.0000     -11.076971      -301.4197
   7   2.0000      -8.947956      -243.4863
   8   2.0000      -6.633952      -180.5190
   9   2.0000      -6.632805      -180.4878
  10   2.0000      -6.632718      -180.4854
  11   2.0000      -1.270099       -34.5611
  12   2.0000      -1.127011       -30.6675
  13   2.0000      -1.102201       -29.9924
  14   2.0000      -0.937437       -25.5089
  15   2.0000      -0.823307       -22.4033
  16   2.0000      -0.698557       -19.0087
  17   2.0000      -0.596109       -16.2209
  18   2.0000      -0.514120       -13.9899
  19   2.0000      -0.492819       -13.4103
  20   2.0000      -0.465890       -12.6775
  21   2.0000      -0.454152       -12.3581
  22   2.0000      -0.445402       -12.1200
  23   2.0000      -0.423933       -11.5358
  24   2.0000      -0.377207       -10.2643
  25   2.0000      -0.361565        -9.8387
  26   2.0000      -0.352728        -9.5982
  27   2.0000      -0.318138        -8.6570
  28   2.0000      -0.316600        -8.6151
  29   2.0000      -0.276211        -7.5161
  30   2.0000      -0.264877        -7.2077
  31   2.0000      -0.250967        -6.8292
  32   2.0000      -0.228210        -6.2099
  33   0.0000       0.108629         2.9559
  34   0.0000       0.119003         3.2382
  35   0.0000       0.127301         3.4640
  36   0.0000       0.141035         3.8377
  37   0.0000       0.146287         3.9807

MULLIKEN ATOMIC CHARGES
-----------------------
   0 C :   -0.495891
   1 S :    2.241923
   2 O :   -1.059367
   3 O :   -1.060317
   4 O :   -1.039466
   5 C :   -1.014615
   6 C :   -0.466771
   7 H :    0.254077
   8 H :    0.290022
   9 H :    0.211653
  10 H :    0.203258
  11 H :    0.398368
  12 H :    0.278566
  13 H :    0.258561
Sum of atomic charges:   -1.0000000

LOEWDIN ATOMIC CHARGES
----------------------
   0 C :    0.140424
   1 S :   -0.364463
   2 O :   -0.043618
   3 O :   -0.075674
   4 O :   -0.048573
   5 C :    0.570280
   6 C :    0.192795
   7 H :   -0.180358
   8 H :   -0.165320
   9 H :   -0.208489
  10 H :   -0.217969
  11 H :   -0.212762
  12 H :   -0.191588
  13 H :   -0.194683

  Mayer bond orders larger than 0.100000
B(  0-C ,  1-S ) :   0.7675 B(  0-C ,  6-C ) :   0.8945 B(  0-C ,  9-H ) :   0.9616
B(  0-C , 10-H ) :   0.9928 B(  1-S ,  2-O ) :   1.3133 B(  1-S ,  3-O ) :   1.2746
B(  1-S ,  4-O ) :   1.2223 B(  1-S ,  6-C ) :   0.1165 B(  5-C ,  6-C ) :   0.8241
B(  5-C , 11-H ) :   0.8526 B(  5-C , 12-H ) :   0.9617 B(  5-C , 13-H ) :   0.9955
B(  6-C ,  7-H ) :   0.9466 B(  6-C ,  8-H ) :   0.9405

E(0)                                       ...   -739.967304566
E(0)                                       ...   -739.967304566
E(CORR)(strong-pairs)                      ...     -1.491590131
E(CORR)(weak-pairs)                        ...     -0.001615089
E(CORR)(corrected)                         ...     -1.493205220
E(TOT)                                     ...   -741.460509785
E(CCSD(T))                                 ...   -741.524221126
FINAL SINGLE POINT ENERGY      -741.524221125773

DIPOLE MOMENT
-------------
                                X             Y             Z
Electronic contribution:      3.67580      -5.79678      -7.80126
Nuclear contribution   :     -5.28952       6.71955       9.52938
                        -----------------------------------------
Total Dipole Moment    :     -1.61372       0.92277       1.72811
                        -----------------------------------------
Magnitude (a.u.)       :      2.53811
Magnitude (Debye)      :      6.45135

Rotational constants in cm-1:     0.135789     0.055302     0.052251
Rotational constants in MHz :  4070.851802  1657.908940  1566.458563

                             ****ORCA TERMINATED NORMALLY****
TOTAL RUN TIME: 0 days 1 hours 25 minutes 19 seconds 869 msec
