                         Program Version 5.0.0 -  RELEASE  -
|  1> !DLPNO-CCSD(T) aug-cc-pVTZ aug-cc-pVTZ/C TightSCF TightPNO RIJCOSX def2/J
|  2> *xyz 1 1
|  3> C         -2.16038       -1.36949       -3.46710
|  4> N         -3.03011       -1.91086       -4.54107
|  5> C         -2.04772        0.14658       -3.51177
|  6> H         -3.47744       -2.79151       -4.25710
|  7> H         -2.53801       -2.01786       -5.43808
|  8> H         -3.89159       -1.37604       -4.71437
|  9> H         -1.18444       -1.84400       -3.56639
| 10> H         -2.59819       -1.70838       -2.52848
| 11> C         -3.32876        0.87504       -3.10367
| 12> H         -1.74003        0.45234       -4.51713
| 13> H         -1.23261        0.43494       -2.84221
| 14> H         -4.12483        0.59148       -3.76000
| 15> H         -3.17368        1.93185       -3.16688
| 16> H         -3.58415        0.61151       -2.09857
| 17> *
| 18> %MaxCore 64000
| 19>
| 20> %pal nprocs 8
| 21> end
| 22>
| 23> %scf
| 24>   MaxIter 150
| 25> end
| 26>
| 27>
| 28>                          ****END OF INPUT****

CARTESIAN COORDINATES (ANGSTROEM)
---------------------------------
  C     -2.160380   -1.369490   -3.467100
  N     -3.030110   -1.910860   -4.541070
  C     -2.047720    0.146580   -3.511770
  H     -3.477440   -2.791510   -4.257100
  H     -2.538010   -2.017860   -5.438080
  H     -3.891590   -1.376040   -4.714370
  H     -1.184440   -1.844000   -3.566390
  H     -2.598190   -1.708380   -2.528480
  C     -3.328760    0.875040   -3.103670
  H     -1.740030    0.452340   -4.517130
  H     -1.232610    0.434940   -2.842210
  H     -4.124830    0.591480   -3.760000
  H     -3.173680    1.931850   -3.166880
  H     -3.584150    0.611510   -2.098570

 Total Charge           Charge          ....    1
 Multiplicity           Mult            ....    1
 Number of Electrons    NEL             ....   34
 Basis Dimension        Dim             ....  414

ORBITAL ENERGIES
----------------

  NO   OCC          E(Eh)            E(eV)
   0   2.0000     -15.896221      -432.5582
   1   2.0000     -11.473858      -312.2196
   2   2.0000     -11.399457      -310.1950
   3   2.0000     -11.365156      -309.2616
   4   2.0000      -1.517124       -41.2831
   5   2.0000      -1.241722       -33.7890
   6   2.0000      -1.126861       -30.6635
   7   2.0000      -1.005764       -27.3682
   8   2.0000      -0.980711       -26.6865
   9   2.0000      -0.942902       -25.6577
  10   2.0000      -0.859304       -23.3828
  11   2.0000      -0.792741       -21.5716
  12   2.0000      -0.765732       -20.8366
  13   2.0000      -0.738190       -20.0872
  14   2.0000      -0.668867       -18.2008
  15   2.0000      -0.659154       -17.9365
  16   2.0000      -0.656930       -17.8760
  17   0.0000      -0.116167        -3.1611
  18   0.0000      -0.082331        -2.2403
  19   0.0000      -0.079620        -2.1666
  20   0.0000      -0.067386        -1.8337
  21   0.0000      -0.045064        -1.2263

MULLIKEN ATOMIC CHARGES
-----------------------
   0 C :   -0.307473
   1 N :    0.084122
   2 C :   -0.468741
   3 H :    0.124463
   4 H :    0.147744
   5 H :    0.145203
   6 H :    0.346756
   7 H :    0.371618
   8 C :   -0.939791
   9 H :    0.271686
  10 H :    0.308414
  11 H :    0.292711
  12 H :    0.331766
  13 H :    0.291523
Sum of atomic charges:    1.0000000

LOEWDIN ATOMIC CHARGES
----------------------
   0 C :    0.335918
   1 N :    1.100913
   2 C :    0.314692
   3 H :   -0.126085
   4 H :   -0.113104
   5 H :   -0.149383
   6 H :   -0.108024
   7 H :   -0.112972
   8 C :    0.632026
   9 H :   -0.133654
  10 H :   -0.125496
  11 H :   -0.187752
  12 H :   -0.158696
  13 H :   -0.168383

  Mayer bond orders larger than 0.100000
B(  0-C ,  1-N ) :   0.7647 B(  0-C ,  2-C ) :   0.8951 B(  0-C ,  6-H ) :   0.8998
B(  0-C ,  7-H ) :   0.8531 B(  1-N ,  3-H ) :   1.0309 B(  1-N ,  4-H ) :   1.0040
B(  1-N ,  5-H ) :   0.9961 B(  2-C ,  8-C ) :   0.8204 B(  2-C ,  9-H ) :   0.9545
B(  2-C , 10-H ) :   0.9279 B(  8-C , 11-H ) :   0.9373 B(  8-C , 12-H ) :   0.9415
B(  8-C , 13-H ) :   0.9488

E(0)                                       ...   -173.717452687
E(0)                                       ...   -173.717452687
E(CORR)(strong-pairs)                      ...     -0.802714936
E(CORR)(weak-pairs)                        ...     -0.000697536
E(CORR)(corrected)                         ...     -0.803412473
E(TOT)                                     ...   -174.520865160
E(CCSD(T))                                 ...   -174.549344313
FINAL SINGLE POINT ENERGY      -174.549344312823

DIPOLE MOMENT
-------------
                                X             Y             Z
Electronic contribution:      0.31970      -2.15693      -1.09669
Nuclear contribution   :     -0.76147       0.35838       0.01319
                        -----------------------------------------
Total Dipole Moment    :     -0.44177      -1.79854      -1.08350
                        -----------------------------------------
Magnitude (a.u.)       :      2.14567
Magnitude (Debye)      :      5.45385

Rotational constants in cm-1:     0.457188     0.153451     0.133348
Rotational constants in MHz : 13706.154863  4600.337483  3997.673747

                             ****ORCA TERMINATED NORMALLY****
TOTAL RUN TIME: 0 days 0 hours 6 minutes 37 seconds 362 msec
