                         Program Version 5.0.0 -  RELEASE  -
|  1> !DLPNO-CCSD(T) aug-cc-pVTZ aug-cc-pVTZ/C TightSCF TightPNO RIJCOSX def2/J
|  2> *xyz 0 1
|  3> C         -7.33044       -2.67899       -3.20681
|  4> S         -6.01966       -2.92697       -4.41913
|  5> F         -5.64583       -1.58838       -4.91931
|  6> O         -4.88196       -3.50370       -3.66724
|  7> O         -6.54927       -3.80515       -5.42507
|  8> C         -6.28692       -0.73588       -1.89353
|  9> C         -7.46900       -1.24615       -2.71383
| 10> H         -7.60191       -0.60135       -3.58533
| 11> H         -8.38979       -1.17344       -2.12692
| 12> H         -7.11825       -3.37982       -2.39805
| 13> H         -8.24184       -3.00474       -3.70651
| 14> H         -5.39124       -0.81034       -2.47415
| 15> H         -6.18709       -1.32597       -1.00655
| 16> H         -6.45393        0.28631       -1.62495
| 17> *
| 18> %MaxCore 64000
| 19>
| 20> %pal nprocs 2
| 21> end
| 22>
| 23> %scf
| 24>   MaxIter 150
| 25> end
| 26>
| 27>
| 28>                          ****END OF INPUT****

CARTESIAN COORDINATES (ANGSTROEM)
---------------------------------
  C     -7.330440   -2.678990   -3.206810
  S     -6.019660   -2.926970   -4.419130
  F     -5.645830   -1.588380   -4.919310
  O     -4.881960   -3.503700   -3.667240
  O     -6.549270   -3.805150   -5.425070
  C     -6.286920   -0.735880   -1.893530
  C     -7.469000   -1.246150   -2.713830
  H     -7.601910   -0.601350   -3.585330
  H     -8.389790   -1.173440   -2.126920
  H     -7.118250   -3.379820   -2.398050
  H     -8.241840   -3.004740   -3.706510
  H     -5.391240   -0.810340   -2.474150
  H     -6.187090   -1.325970   -1.006550
  H     -6.453930    0.286310   -1.624950

 Total Charge           Charge          ....    0
 Multiplicity           Mult            ....    1
 Number of Electrons    NEL             ....   66
 Basis Dimension        Dim             ....  487

ORBITAL ENERGIES
----------------

  NO   OCC          E(Eh)            E(eV)
   0   2.0000     -92.248640     -2510.2131
   1   2.0000     -26.415873      -718.8124
   2   2.0000     -20.571028      -559.7661
   3   2.0000     -20.554643      -559.3203
   4   2.0000     -11.295663      -307.3706
   5   2.0000     -11.263617      -306.4986
   6   2.0000     -11.230799      -305.6056
   7   2.0000      -9.212004      -250.6714
   8   2.0000      -6.899629      -187.7485
   9   2.0000      -6.895368      -187.6325
  10   2.0000      -6.894741      -187.6154
  11   2.0000      -1.771239       -48.1979
  12   2.0000      -1.455175       -39.5973
  13   2.0000      -1.343969       -36.5713
  14   2.0000      -1.121039       -30.5050
  15   2.0000      -1.013458       -27.5776
  16   2.0000      -0.947064       -25.7709
  17   2.0000      -0.864534       -23.5252
  18   2.0000      -0.814870       -22.1737
  19   2.0000      -0.808729       -22.0066
  20   2.0000      -0.750702       -20.4276
  21   2.0000      -0.674106       -18.3433
  22   2.0000      -0.663445       -18.0533
  23   2.0000      -0.639699       -17.4071
  24   2.0000      -0.626357       -17.0440
  25   2.0000      -0.601381       -16.3644
  26   2.0000      -0.560227       -15.2445
  27   2.0000      -0.545915       -14.8551
  28   2.0000      -0.528040       -14.3687
  29   2.0000      -0.519703       -14.1418
  30   2.0000      -0.493935       -13.4407
  31   2.0000      -0.478275       -13.0145
  32   2.0000      -0.470465       -12.8020
  33   0.0000       0.021734         0.5914
  34   0.0000       0.033203         0.9035
  35   0.0000       0.035986         0.9792
  36   0.0000       0.044374         1.2075
  37   0.0000       0.055817         1.5189

MULLIKEN ATOMIC CHARGES
-----------------------
   0 C :   -0.440633
   1 S :    2.224210
   2 F :   -0.524503
   3 O :   -0.918948
   4 O :   -0.899256
   5 C :   -0.985805
   6 C :   -0.469294
   7 H :    0.257252
   8 H :    0.306862
   9 H :    0.265624
  10 H :    0.251029
  11 H :    0.344199
  12 H :    0.301132
  13 H :    0.288131
Sum of atomic charges:   -0.0000000

LOEWDIN ATOMIC CHARGES
----------------------
   0 C :    0.192243
   1 S :   -0.086570
   2 F :    0.273896
   3 O :    0.008394
   4 O :    0.033930
   5 C :    0.594248
   6 C :    0.221768
   7 H :   -0.166627
   8 H :   -0.141188
   9 H :   -0.178603
  10 H :   -0.195202
  11 H :   -0.203455
  12 H :   -0.176631
  13 H :   -0.176201

  Mayer bond orders larger than 0.100000
B(  0-C ,  1-S ) :   0.8184 B(  0-C ,  6-C ) :   0.9078 B(  0-C ,  9-H ) :   0.9299
B(  0-C , 10-H ) :   0.9548 B(  1-S ,  2-F ) :   0.5879 B(  1-S ,  3-O ) :   1.4629
B(  1-S ,  4-O ) :   1.4163 B(  1-S ,  6-C ) :   0.1207 B(  5-C ,  6-C ) :   0.8415
B(  5-C , 11-H ) :   0.8997 B(  5-C , 12-H ) :   0.9425 B(  5-C , 13-H ) :   0.9687
B(  6-C ,  7-H ) :   0.9529 B(  6-C ,  8-H ) :   0.9243

E(0)                                       ...   -764.476866405
E(0)                                       ...   -764.476866405
E(CORR)(strong-pairs)                      ...     -1.495182659
E(CORR)(weak-pairs)                        ...     -0.001580083
E(CORR)(corrected)                         ...     -1.496762743
E(TOT)                                     ...   -765.973629148
E(CCSD(T))                                 ...   -766.034557949
FINAL SINGLE POINT ENERGY      -766.034557949018

DIPOLE MOMENT
-------------
                                X             Y             Z
Electronic contribution:      4.68919      -4.43258      -9.74235
Nuclear contribution   :     -5.93570       5.78812      10.65621
                        -----------------------------------------
Total Dipole Moment    :     -1.24650       1.35554       0.91385
                        -----------------------------------------
Magnitude (a.u.)       :      2.05582
Magnitude (Debye)      :      5.22548

Rotational constants in cm-1:     0.129417     0.054385     0.051980
Rotational constants in MHz :  3879.823072  1630.427453  1558.324762

                             ****ORCA TERMINATED NORMALLY****
TOTAL RUN TIME: 0 days 1 hours 19 minutes 51 seconds 676 msec
