                         Program Version 5.0.0 -  RELEASE  -
|  1> !DLPNO-CCSD(T) aug-cc-pVTZ aug-cc-pVTZ/C TightSCF TightPNO RIJCOSX def2/J
|  2> *xyz 0 1
|  3> C         -2.16038       -1.36949       -3.46710
|  4> C         -3.03011       -1.91086       -4.54107
|  5> C         -2.04772        0.14658       -3.51177
|  6> H         -3.47744       -2.79151       -4.25710
|  7> H         -2.53801       -2.01786       -5.43808
|  8> H         -3.89159       -1.37604       -4.71437
|  9> H         -1.18444       -1.84400       -3.56639
| 10> H         -2.59819       -1.70838       -2.52848
| 11> C         -3.32876        0.87504       -3.10367
| 12> H         -1.74003        0.45234       -4.51713
| 13> H         -1.23261        0.43494       -2.84221
| 14> H         -4.12483        0.59148       -3.76000
| 15> H         -3.17368        1.93185       -3.16688
| 16> H         -3.58415        0.61151       -2.09857
| 17> *
| 18> %MaxCore 64000
| 19>
| 20> %pal nprocs 8
| 21> end
| 22>
| 23> %scf
| 24>   MaxIter 150
| 25> end
| 26>
| 27>
| 28>                          ****END OF INPUT****

CARTESIAN COORDINATES (ANGSTROEM)
---------------------------------
  C     -2.160380   -1.369490   -3.467100
  C     -3.030110   -1.910860   -4.541070
  C     -2.047720    0.146580   -3.511770
  H     -3.477440   -2.791510   -4.257100
  H     -2.538010   -2.017860   -5.438080
  H     -3.891590   -1.376040   -4.714370
  H     -1.184440   -1.844000   -3.566390
  H     -2.598190   -1.708380   -2.528480
  C     -3.328760    0.875040   -3.103670
  H     -1.740030    0.452340   -4.517130
  H     -1.232610    0.434940   -2.842210
  H     -4.124830    0.591480   -3.760000
  H     -3.173680    1.931850   -3.166880
  H     -3.584150    0.611510   -2.098570

 Total Charge           Charge          ....    0
 Multiplicity           Mult            ....    1
 Number of Electrons    NEL             ....   34
 Basis Dimension        Dim             ....  414

ORBITAL ENERGIES
----------------

  NO   OCC          E(Eh)            E(eV)
   0   2.0000     -11.211095      -305.0694
   1   2.0000     -11.206279      -304.9383
   2   2.0000     -11.200282      -304.7752
   3   2.0000     -11.177244      -304.1483
   4   2.0000      -1.079479       -29.3741
   5   2.0000      -0.989320       -26.9208
   6   2.0000      -0.881500       -23.9868
   7   2.0000      -0.781490       -21.2654
   8   2.0000      -0.635003       -17.2793
   9   2.0000      -0.625812       -17.0292
  10   2.0000      -0.588780       -16.0215
  11   2.0000      -0.538736       -14.6598
  12   2.0000      -0.530028       -14.4228
  13   2.0000      -0.511887       -13.9292
  14   2.0000      -0.462415       -12.5829
  15   2.0000      -0.459802       -12.5118
  16   2.0000      -0.454657       -12.3718
  17   0.0000       0.032895         0.8951
  18   0.0000       0.039105         1.0641
  19   0.0000       0.040157         1.0927
  20   0.0000       0.041445         1.1278
  21   0.0000       0.058783         1.5996

MULLIKEN ATOMIC CHARGES
-----------------------
   0 C :   -0.304642
   1 C :   -1.114032
   2 C :   -0.470856
   3 H :    0.254210
   4 H :    0.265404
   5 H :    0.416652
   6 H :    0.273387
   7 H :    0.251044
   8 C :   -0.967254
   9 H :    0.229130
  10 H :    0.270015
  11 H :    0.337024
  12 H :    0.299404
  13 H :    0.260515
Sum of atomic charges:   -0.0000000

LOEWDIN ATOMIC CHARGES
----------------------
   0 C :    0.272449
   1 C :    0.609883
   2 C :    0.271048
   3 H :   -0.207190
   4 H :   -0.192232
   5 H :   -0.222609
   6 H :   -0.139418
   7 H :   -0.144371
   8 C :    0.603416
   9 H :   -0.141442
  10 H :   -0.151450
  11 H :   -0.195484
  12 H :   -0.182494
  13 H :   -0.180107

  Mayer bond orders larger than 0.100000
B(  0-C ,  1-C ) :   0.7015 B(  0-C ,  2-C ) :   0.8599 B(  0-C ,  6-H ) :   0.9686
B(  0-C ,  7-H ) :   0.9656 B(  1-C ,  2-C ) :   0.1026 B(  1-C ,  3-H ) :   1.0374
B(  1-C ,  4-H ) :   1.0067 B(  1-C ,  5-H ) :   0.8159 B(  2-C ,  8-C ) :   0.8022
B(  2-C ,  9-H ) :   0.9710 B(  2-C , 10-H ) :   0.9572 B(  8-C , 11-H ) :   0.9112
B(  8-C , 12-H ) :   0.9650 B(  8-C , 13-H ) :   0.9805

E(0)                                       ...   -157.339563144
E(0)                                       ...   -157.339563144
E(CORR)(strong-pairs)                      ...     -0.777882348
E(CORR)(weak-pairs)                        ...     -0.000695311
E(CORR)(corrected)                         ...     -0.778577659
E(TOT)                                     ...   -158.118140803
E(CCSD(T))                                 ...   -158.146278681
FINAL SINGLE POINT ENERGY      -158.146278681102

DIPOLE MOMENT
-------------
                                X             Y             Z
Electronic contribution:      0.86036       0.03736       0.25090
Nuclear contribution   :     -0.87438      -0.05339      -0.25605
                        -----------------------------------------
Total Dipole Moment    :     -0.01402      -0.01603      -0.00515
                        -----------------------------------------
Magnitude (a.u.)       :      0.02191
Magnitude (Debye)      :      0.05568

Rotational constants in cm-1:     0.464420     0.160323     0.139078
Rotational constants in MHz : 13922.972952  4806.377145  4169.443621

                             ****ORCA TERMINATED NORMALLY****
TOTAL RUN TIME: 0 days 0 hours 6 minutes 58 seconds 952 msec
