                         Program Version 5.0.0 -  RELEASE  -
|  1> !DLPNO-CCSD(T) aug-cc-pVTZ aug-cc-pVTZ/C TightSCF TightPNO RIJCOSX def2/J
|  2> *xyz 0 1
|  3> C         -7.33044       -2.67899       -3.20681
|  4> S         -6.01966       -2.92697       -4.41913
|  5> O         -5.64583       -1.58838       -4.91931
|  6> F         -4.88196       -3.50370       -3.66724
|  7> O         -6.54927       -3.80515       -5.42507
|  8> C         -6.28692       -0.73588       -1.89353
|  9> C         -7.46900       -1.24615       -2.71383
| 10> H         -7.60191       -0.60135       -3.58533
| 11> H         -8.38979       -1.17344       -2.12692
| 12> H         -7.11825       -3.37982       -2.39805
| 13> H         -8.24184       -3.00474       -3.70651
| 14> H         -5.39124       -0.81034       -2.47415
| 15> H         -6.18709       -1.32597       -1.00655
| 16> H         -6.45393        0.28631       -1.62495
| 17> *
| 18> %MaxCore 64000
| 19>
| 20> %pal nprocs 2
| 21> end
| 22>
| 23> %scf
| 24>   MaxIter 150
| 25> end
| 26>
| 27>
| 28>                          ****END OF INPUT****

CARTESIAN COORDINATES (ANGSTROEM)
---------------------------------
  C     -7.330440   -2.678990   -3.206810
  S     -6.019660   -2.926970   -4.419130
  O     -5.645830   -1.588380   -4.919310
  F     -4.881960   -3.503700   -3.667240
  O     -6.549270   -3.805150   -5.425070
  C     -6.286920   -0.735880   -1.893530
  C     -7.469000   -1.246150   -2.713830
  H     -7.601910   -0.601350   -3.585330
  H     -8.389790   -1.173440   -2.126920
  H     -7.118250   -3.379820   -2.398050
  H     -8.241840   -3.004740   -3.706510
  H     -5.391240   -0.810340   -2.474150
  H     -6.187090   -1.325970   -1.006550
  H     -6.453930    0.286310   -1.624950

 Total Charge           Charge          ....    0
 Multiplicity           Mult            ....    1
 Number of Electrons    NEL             ....   66
 Basis Dimension        Dim             ....  487

ORBITAL ENERGIES
----------------

  NO   OCC          E(Eh)            E(eV)
   0   2.0000     -92.249521     -2510.2371
   1   2.0000     -26.413252      -718.7411
   2   2.0000     -20.571399      -559.7762
   3   2.0000     -20.558271      -559.4190
   4   2.0000     -11.296327      -307.3887
   5   2.0000     -11.254381      -306.2473
   6   2.0000     -11.223716      -305.4128
   7   2.0000      -9.212783      -250.6926
   8   2.0000      -6.900304      -187.7668
   9   2.0000      -6.896399      -187.6606
  10   2.0000      -6.895447      -187.6347
  11   2.0000      -1.767176       -48.0873
  12   2.0000      -1.456983       -39.6465
  13   2.0000      -1.348590       -36.6970
  14   2.0000      -1.114958       -30.3396
  15   2.0000      -1.012418       -27.5493
  16   2.0000      -0.943914       -25.6852
  17   2.0000      -0.859639       -23.3920
  18   2.0000      -0.805674       -21.9235
  19   2.0000      -0.798638       -21.7320
  20   2.0000      -0.760993       -20.7077
  21   2.0000      -0.682388       -18.5687
  22   2.0000      -0.661244       -17.9934
  23   2.0000      -0.633854       -17.2481
  24   2.0000      -0.619650       -16.8615
  25   2.0000      -0.600292       -16.3348
  26   2.0000      -0.561083       -15.2678
  27   2.0000      -0.538273       -14.6472
  28   2.0000      -0.519352       -14.1323
  29   2.0000      -0.512656       -13.9501
  30   2.0000      -0.493904       -13.4398
  31   2.0000      -0.480788       -13.0829
  32   2.0000      -0.476714       -12.9720
  33   0.0000       0.023015         0.6263
  34   0.0000       0.034691         0.9440
  35   0.0000       0.035583         0.9683
  36   0.0000       0.046789         1.2732
  37   0.0000       0.056631         1.5410

MULLIKEN ATOMIC CHARGES
-----------------------
   0 C :   -0.454170
   1 S :    2.219089
   2 O :   -0.911577
   3 F :   -0.519486
   4 O :   -0.903515
   5 C :   -0.991213
   6 C :   -0.457309
   7 H :    0.273485
   8 H :    0.319962
   9 H :    0.246004
  10 H :    0.253043
  11 H :    0.361644
  12 H :    0.282487
  13 H :    0.281558
Sum of atomic charges:    0.0000000

LOEWDIN ATOMIC CHARGES
----------------------
   0 C :    0.194259
   1 S :   -0.075818
   2 O :    0.035386
   3 F :    0.258081
   4 O :    0.033981
   5 C :    0.591318
   6 C :    0.223211
   7 H :   -0.167940
   8 H :   -0.142774
   9 H :   -0.191126
  10 H :   -0.189314
  11 H :   -0.210668
  12 H :   -0.184292
  13 H :   -0.174305

  Mayer bond orders larger than 0.100000
B(  0-C ,  1-S ) :   0.8169 B(  0-C ,  6-C ) :   0.9214 B(  0-C ,  9-H ) :   0.9322
B(  0-C , 10-H ) :   0.9494 B(  1-S ,  2-O ) :   1.5115 B(  1-S ,  3-F ) :   0.5317
B(  1-S ,  4-O ) :   1.4198 B(  1-S ,  6-C ) :   0.1277 B(  5-C ,  6-C ) :   0.8341
B(  5-C , 11-H ) :   0.8797 B(  5-C , 12-H ) :   0.9536 B(  5-C , 13-H ) :   0.9822
B(  6-C ,  7-H ) :   0.9393 B(  6-C ,  8-H ) :   0.9107

E(0)                                       ...   -764.480044661
E(0)                                       ...   -764.480044661
E(CORR)(strong-pairs)                      ...     -1.495562048
E(CORR)(weak-pairs)                        ...     -0.001575294
E(CORR)(corrected)                         ...     -1.497137342
E(TOT)                                     ...   -765.977182004
E(CCSD(T))                                 ...   -766.038214137
FINAL SINGLE POINT ENERGY      -766.038214137079

DIPOLE MOMENT
-------------
                                X             Y             Z
Electronic contribution:      6.10365      -7.88315      -7.55338
Nuclear contribution   :     -6.75719       7.84793       9.30968
                        -----------------------------------------
Total Dipole Moment    :     -0.65355      -0.03522       1.75630
                        -----------------------------------------
Magnitude (a.u.)       :      1.87428
Magnitude (Debye)      :      4.76405

Rotational constants in cm-1:     0.129104     0.054499     0.051192
Rotational constants in MHz :  3870.429564  1633.827608  1534.709243

                             ****ORCA TERMINATED NORMALLY****
TOTAL RUN TIME: 0 days 1 hours 21 minutes 12 seconds 765 msec
