                         Program Version 5.0.0 -  RELEASE  -
|  1> !DLPNO-CCSD(T) aug-cc-pVTZ aug-cc-pVTZ/C TightSCF TightPNO RIJCOSX def2/J
|  2> *xyz 0 1
|  3> C         -7.33044       -2.67899       -3.20681
|  4> S         -6.01966       -2.92697       -4.41913
|  5> O         -5.64583       -1.58838       -4.91931
|  6> O         -4.88196       -3.50370       -3.66724
|  7> F         -6.54927       -3.80515       -5.42507
|  8> C         -6.28692       -0.73588       -1.89353
|  9> C         -7.46900       -1.24615       -2.71383
| 10> H         -7.60191       -0.60135       -3.58533
| 11> H         -8.38979       -1.17344       -2.12692
| 12> H         -7.11825       -3.37982       -2.39805
| 13> H         -8.24184       -3.00474       -3.70651
| 14> H         -5.39124       -0.81034       -2.47415
| 15> H         -6.18709       -1.32597       -1.00655
| 16> H         -6.45393        0.28631       -1.62495
| 17> *
| 18> %MaxCore 64000
| 19>
| 20> %pal nprocs 2
| 21> end
| 22>
| 23> %scf
| 24>   MaxIter 150
| 25> end
| 26>
| 27>
| 28>                          ****END OF INPUT****

CARTESIAN COORDINATES (ANGSTROEM)
---------------------------------
  C     -7.330440   -2.678990   -3.206810
  S     -6.019660   -2.926970   -4.419130
  O     -5.645830   -1.588380   -4.919310
  O     -4.881960   -3.503700   -3.667240
  F     -6.549270   -3.805150   -5.425070
  C     -6.286920   -0.735880   -1.893530
  C     -7.469000   -1.246150   -2.713830
  H     -7.601910   -0.601350   -3.585330
  H     -8.389790   -1.173440   -2.126920
  H     -7.118250   -3.379820   -2.398050
  H     -8.241840   -3.004740   -3.706510
  H     -5.391240   -0.810340   -2.474150
  H     -6.187090   -1.325970   -1.006550
  H     -6.453930    0.286310   -1.624950

 Total Charge           Charge          ....    0
 Multiplicity           Mult            ....    1
 Number of Electrons    NEL             ....   66
 Basis Dimension        Dim             ....  487

ORBITAL ENERGIES
----------------

  NO   OCC          E(Eh)            E(eV)
   0   2.0000     -92.250940     -2510.2757
   1   2.0000     -26.437060      -719.3890
   2   2.0000     -20.559501      -559.4525
   3   2.0000     -20.556526      -559.3715
   4   2.0000     -11.296965      -307.4060
   5   2.0000     -11.253753      -306.2302
   6   2.0000     -11.214680      -305.1670
   7   2.0000      -9.214535      -250.7403
   8   2.0000      -6.901964      -187.8120
   9   2.0000      -6.898004      -187.7042
  10   2.0000      -6.897195      -187.6822
  11   2.0000      -1.807643       -49.1885
  12   2.0000      -1.438349       -39.1395
  13   2.0000      -1.329828       -36.1865
  14   2.0000      -1.113196       -30.2916
  15   2.0000      -1.019210       -27.7341
  16   2.0000      -0.957030       -26.0421
  17   2.0000      -0.865316       -23.5465
  18   2.0000      -0.834068       -22.6961
  19   2.0000      -0.817946       -22.2574
  20   2.0000      -0.760466       -20.6933
  21   2.0000      -0.673705       -18.3324
  22   2.0000      -0.659756       -17.9529
  23   2.0000      -0.631459       -17.1829
  24   2.0000      -0.615217       -16.7409
  25   2.0000      -0.585954       -15.9446
  26   2.0000      -0.550741       -14.9864
  27   2.0000      -0.524289       -14.2666
  28   2.0000      -0.519727       -14.1425
  29   2.0000      -0.503662       -13.7053
  30   2.0000      -0.490875       -13.3574
  31   2.0000      -0.471383       -12.8270
  32   2.0000      -0.466145       -12.6844
  33   0.0000       0.021684         0.5901
  34   0.0000       0.034376         0.9354
  35   0.0000       0.039087         1.0636
  36   0.0000       0.045987         1.2514
  37   0.0000       0.057990         1.5780

MULLIKEN ATOMIC CHARGES
-----------------------
   0 C :   -0.472965
   1 S :    2.148189
   2 O :   -0.905966
   3 O :   -0.906622
   4 F :   -0.478458
   5 C :   -0.991279
   6 C :   -0.446084
   7 H :    0.265732
   8 H :    0.315664
   9 H :    0.254636
  10 H :    0.260185
  11 H :    0.383880
  12 H :    0.289347
  13 H :    0.283740
Sum of atomic charges:    0.0000000

LOEWDIN ATOMIC CHARGES
----------------------
   0 C :    0.190376
   1 S :   -0.079755
   2 O :    0.034138
   3 O :    0.009556
   4 F :    0.291379
   5 C :    0.594839
   6 C :    0.226300
   7 H :   -0.170444
   8 H :   -0.142766
   9 H :   -0.189014
  10 H :   -0.200561
  11 H :   -0.207095
  12 H :   -0.180850
  13 H :   -0.176101

  Mayer bond orders larger than 0.100000
B(  0-C ,  1-S ) :   0.8271 B(  0-C ,  6-C ) :   0.9065 B(  0-C ,  9-H ) :   0.9445
B(  0-C , 10-H ) :   0.9291 B(  1-S ,  2-O ) :   1.5243 B(  1-S ,  3-O ) :   1.4728
B(  1-S ,  4-F ) :   0.4763 B(  1-S ,  6-C ) :   0.1224 B(  5-C ,  6-C ) :   0.8395
B(  5-C , 11-H ) :   0.8728 B(  5-C , 12-H ) :   0.9488 B(  5-C , 13-H ) :   0.9757
B(  6-C ,  7-H ) :   0.9427 B(  6-C ,  8-H ) :   0.9108

E(0)                                       ...   -764.461201722
E(0)                                       ...   -764.461201722
E(CORR)(strong-pairs)                      ...     -1.496654580
E(CORR)(weak-pairs)                        ...     -0.001625563
E(CORR)(corrected)                         ...     -1.498280144
E(TOT)                                     ...   -765.959481865
E(CCSD(T))                                 ...   -766.020845909
FINAL SINGLE POINT ENERGY      -766.020845909225

DIPOLE MOMENT
-------------
                                X             Y             Z
Electronic contribution:      3.11464      -8.43613     -10.74560
Nuclear contribution   :     -4.96410       8.17213      11.20012
                        -----------------------------------------
Total Dipole Moment    :     -1.84946      -0.26400       0.45452
                        -----------------------------------------
Magnitude (a.u.)       :      1.92270
Magnitude (Debye)      :      4.88712

Rotational constants in cm-1:     0.133784     0.053405     0.050278
Rotational constants in MHz :  4010.731548  1601.045142  1507.298018

                             ****ORCA TERMINATED NORMALLY****
TOTAL RUN TIME: 0 days 1 hours 22 minutes 5 seconds 392 msec
