                         Program Version 5.0.0 -  RELEASE  -
|  1> !DLPNO-CCSD(T) aug-cc-pVTZ aug-cc-pVTZ/C TightSCF TightPNO RIJCOSX def2/J
|  2>
|  3> *xyzfile 0 1 D1.xyz
|  4>
|  5> %MaxCore 64000
|  6>
|  7> %pal nprocs 18
|  8> end
|  9>
| 10> %scf
| 11>   MaxIter 150
| 12> end
| 13>
| 14>
| 15>                          ****END OF INPUT****

CARTESIAN COORDINATES (ANGSTROEM)
---------------------------------
  C     -2.160376   -1.369486   -3.467104
  C     -3.030108   -1.910857   -4.541074
  C     -2.047717    0.146583   -3.511774
  C     -7.330440   -2.678991   -3.206811
  S     -6.019659   -2.926965   -4.419128
  H     -3.477443   -2.791513   -4.257096
  H     -2.538013   -2.017860   -5.438075
  H     -3.891589   -1.376039   -4.714365
  F     -5.645830   -1.588384   -4.919307
  O     -4.881961   -3.503697   -3.667235
  H     -1.184438   -1.843997   -3.566393
  H     -2.598195   -1.708376   -2.528477
  O     -6.549267   -3.805150   -5.425071
  C     -3.328755    0.875037   -3.103669
  H     -1.740034    0.452343   -4.517126
  H     -1.232611    0.434938   -2.842208
  C     -3.628487    0.771601   -1.609363
  H     -4.175106    0.490791   -3.682203
  H     -3.237812    1.928663   -3.381480
  C     -4.975718    1.361432   -1.190644
  H     -2.830700    1.276234   -1.054766
  H     -3.594312   -0.275838   -1.294603
  C     -6.184720    0.784347   -1.926464
  H     -4.956292    2.445725   -1.342200
  H     -5.097256    1.205252   -0.114136
  C     -6.286921   -0.735882   -1.893531
  H     -6.163994    1.100199   -2.974250
  H     -7.094530    1.223459   -1.504509
  C     -7.468999   -1.246153   -2.713833
  H     -6.360641   -1.090347   -0.859176
  H     -5.369848   -1.171853   -2.295982
  H     -7.601914   -0.601349   -3.585329
  H     -8.389791   -1.173436   -2.126922
  H     -7.118254   -3.379818   -2.398055
  H     -8.241838   -3.004745   -3.706513

 Total Charge           Charge          ....    0
 Multiplicity           Mult            ....    1
 Number of Electrons    NEL             ....  122
 Basis Dimension        Dim             .... 1131

ORBITAL ENERGIES
----------------

  NO   OCC          E(Eh)            E(eV)
   0   2.0000     -92.254162     -2510.3634
   1   2.0000     -26.419355      -718.9072
   2   2.0000     -20.575847      -559.8973
   3   2.0000     -20.556846      -559.3802
   4   2.0000     -11.298131      -307.4378
   5   2.0000     -11.261810      -306.4494
   6   2.0000     -11.238253      -305.8084
   7   2.0000     -11.229416      -305.5679
   8   2.0000     -11.221707      -305.3582
   9   2.0000     -11.213975      -305.1478
  10   2.0000     -11.211194      -305.0721
  11   2.0000     -11.203177      -304.8539
  12   2.0000     -11.191241      -304.5292
  13   2.0000     -11.138047      -303.0817
  14   2.0000      -9.217676      -250.8257
  15   2.0000      -6.905296      -187.9027
  16   2.0000      -6.900982      -187.7853
  17   2.0000      -6.900439      -187.7705
  18   2.0000      -1.779672       -48.4273
  19   2.0000      -1.462252       -39.7899
  20   2.0000      -1.354643       -36.8617
  21   2.0000      -1.131793       -30.7976
  22   2.0000      -1.096225       -29.8298
  23   2.0000      -1.062075       -28.9005
  24   2.0000      -1.026303       -27.9271
  25   2.0000      -0.977006       -26.5857
  26   2.0000      -0.955815       -26.0091
  27   2.0000      -0.912263       -24.8239
  28   2.0000      -0.868970       -23.6459
  29   2.0000      -0.847408       -23.0591
  30   2.0000      -0.821861       -22.3640
  31   2.0000      -0.818374       -22.2691
  32   2.0000      -0.783941       -21.3321
  33   2.0000      -0.761426       -20.7194
  34   2.0000      -0.751593       -20.4519
  35   2.0000      -0.678661       -18.4673
  36   2.0000      -0.671021       -18.2594
  37   2.0000      -0.657240       -17.8844
  38   2.0000      -0.642699       -17.4887
  39   2.0000      -0.635618       -17.2960
  40   2.0000      -0.621313       -16.9068
  41   2.0000      -0.600113       -16.3299
  42   2.0000      -0.597782       -16.2665
  43   2.0000      -0.587747       -15.9934
  44   2.0000      -0.575092       -15.6490
  45   2.0000      -0.555261       -15.1094
  46   2.0000      -0.549523       -14.9533
  47   2.0000      -0.545082       -14.8324
  48   2.0000      -0.525773       -14.3070
  49   2.0000      -0.514791       -14.0082
  50   2.0000      -0.509553       -13.8656
  51   2.0000      -0.501528       -13.6473
  52   2.0000      -0.491865       -13.3843
  53   2.0000      -0.480398       -13.0723
  54   2.0000      -0.475518       -12.9395
  55   2.0000      -0.468548       -12.7498
  56   2.0000      -0.463192       -12.6041
  57   2.0000      -0.452846       -12.3226
  58   2.0000      -0.439271       -11.9532
  59   2.0000      -0.436155       -11.8684
  60   2.0000      -0.416815       -11.3421
  61   0.0000       0.019891         0.5413
  62   0.0000       0.029198         0.7945
  63   0.0000       0.029936         0.8146
  64   0.0000       0.035046         0.9536
  65   0.0000       0.043542         1.1848

MULLIKEN ATOMIC CHARGES
-----------------------
   0 C :   -0.241023
   1 C :   -1.387544
   2 C :   -0.720437
   3 C :   -0.756881
   4 S :    2.754783
   5 H :    0.462946
   6 H :    0.247873
   7 H :    0.564248
   8 F :   -0.647407
   9 O :   -0.974065
  10 H :    0.365179
  11 H :    0.049313
  12 O :   -1.047528
  13 C :   -0.445707
  14 H :    0.184137
  15 H :    0.169880
  16 C :   -0.143950
  17 H :    0.174429
  18 H :    0.320998
  19 C :   -0.887335
  20 H :    0.586542
  21 H :   -0.005373
  22 C :   -0.276688
  23 H :    0.205794
  24 H :    0.111175
  25 C :   -0.610682
  26 H :    0.057576
  27 H :    0.561515
  28 C :   -0.448139
  29 H :    0.325222
  30 H :    0.501763
  31 H :    0.218372
  32 H :    0.290418
  33 H :    0.210183
  34 H :    0.230416
Sum of atomic charges:   -0.0000000

LOEWDIN ATOMIC CHARGES
----------------------
   0 C :    0.296580
   1 C :    0.565076
   2 C :    0.304052
   3 C :    0.219269
   4 S :    0.065844
   5 H :   -0.505440
   6 H :   -0.176849
   7 H :   -0.409612
   8 F :    0.394382
   9 O :    0.201630
  10 H :   -0.131889
  11 H :   -0.154137
  12 O :    0.058753
  13 C :    0.292046
  14 H :   -0.134983
  15 H :   -0.146648
  16 C :    0.288112
  17 H :   -0.180642
  18 H :   -0.130974
  19 C :    0.304229
  20 H :   -0.131599
  21 H :   -0.167775
  22 C :    0.286857
  23 H :   -0.138379
  24 H :   -0.140447
  25 C :    0.274730
  26 H :   -0.155008
  27 H :   -0.132062
  28 C :    0.252059
  29 H :   -0.117519
  30 H :   -0.192903
  31 H :   -0.164333
  32 H :   -0.131021
  33 H :   -0.170729
  34 H :   -0.190670

  Mayer bond orders larger than 0.100000
B(  0-C ,  1-C ) :   0.6490 B(  0-C ,  2-C ) :   0.8431 B(  0-C , 10-H ) :   0.8817
B(  0-C , 11-H ) :   1.1619 B(  1-C ,  2-C ) :   0.1518 B(  1-C ,  5-H ) :   0.7804
B(  1-C ,  6-H ) :   1.0011 B(  1-C ,  7-H ) :   0.8767 B(  2-C , 13-C ) :   0.9224
B(  2-C , 14-H ) :   1.0892 B(  2-C , 15-H ) :   1.0480 B(  3-C ,  4-S ) :   0.8248
B(  3-C , 12-O ) :   0.1539 B(  3-C , 25-C ) :   0.1104 B(  3-C , 28-C ) :   0.9593
B(  3-C , 33-H ) :   1.0166 B(  3-C , 34-H ) :   0.9837 B(  4-S ,  8-F ) :   0.5679
B(  4-S ,  9-O ) :   1.3823 B(  4-S , 12-O ) :   0.8367 B(  5-H ,  7-H ) :   0.1219
B(  7-H ,  8-F ) :  -0.3247 B(  8-F , 28-C ) :  -0.1080 B( 13-C , 16-C ) :   0.7497
B( 13-C , 17-H ) :   1.1230 B( 13-C , 18-H ) :   0.8936 B( 13-C , 21-H ) :   0.1022
B( 16-C , 19-C ) :   0.8962 B( 16-C , 20-H ) :   0.6699 B( 16-C , 21-H ) :   1.2578
B( 19-C , 21-H ) :   0.1104 B( 19-C , 22-C ) :   0.9091 B( 19-C , 23-H ) :   1.0373
B( 19-C , 24-H ) :   1.1589 B( 22-C , 25-C ) :   0.7690 B( 22-C , 26-H ) :   1.1328
B( 22-C , 27-H ) :   0.6701 B( 25-C , 28-C ) :   0.8551 B( 25-C , 29-H ) :   0.9399
B( 25-C , 30-H ) :   0.9744 B( 28-C , 31-H ) :   1.0021 B( 28-C , 32-H ) :   0.9225

E(0)                                       ...  -1037.742524241
E(0)                                       ...  -1037.742524241
E(CORR)(strong-pairs)                      ...     -2.820477698
E(CORR)(weak-pairs)                        ...     -0.005339956
E(CORR)(corrected)                         ...     -2.825817654
E(TOT)                                     ...  -1040.568341895
E(CCSD(T))                                 ...  -1040.684450391
FINAL SINGLE POINT ENERGY     -1040.684450391029

DIPOLE MOMENT
-------------
                                X             Y             Z
Electronic contribution:    -10.98657     -16.06395     -13.08242
Nuclear contribution   :      9.63012      17.20461      14.03552
                        -----------------------------------------
Total Dipole Moment    :     -1.35645       1.14066       0.95309
                        -----------------------------------------
Magnitude (a.u.)       :      2.01233
Magnitude (Debye)      :      5.11493

Rotational constants in cm-1:     0.025899     0.015189     0.010690
Rotational constants in MHz :   776.424978   455.369614   320.488876

                             ****ORCA TERMINATED NORMALLY****
TOTAL RUN TIME: 0 days 4 hours 29 minutes 11 seconds 400 msec
