                         Program Version 5.0.0 -  RELEASE  -
|  1> !DLPNO-CCSD(T) aug-cc-pVTZ aug-cc-pVTZ/C TightSCF TightPNO RIJCOSX def2/J
|  2>
|  3> *xyzfile 0 1 D3.xyz
|  4>
|  5> %MaxCore 64000
|  6>
|  7> %pal nprocs 18
|  8> end
|  9>
| 10> %scf
| 11>   MaxIter 150
| 12> end
| 13>
| 14>
| 15>                          ****END OF INPUT****

CARTESIAN COORDINATES (ANGSTROEM)
---------------------------------
  C     -2.160376   -1.369486   -3.467104
  C     -3.030108   -1.910857   -4.541074
  C     -2.047717    0.146583   -3.511774
  C     -7.330440   -2.678991   -3.206811
  S     -6.019659   -2.926965   -4.419128
  H     -3.477443   -2.791513   -4.257096
  H     -2.538013   -2.017860   -5.438075
  H     -3.891589   -1.376039   -4.714365
  O     -5.645830   -1.588384   -4.919307
  O     -4.881961   -3.503697   -3.667235
  H     -1.184438   -1.843997   -3.566393
  H     -2.598195   -1.708376   -2.528477
  F     -6.549267   -3.805150   -5.425071
  C     -3.328755    0.875037   -3.103669
  H     -1.740034    0.452343   -4.517126
  H     -1.232611    0.434938   -2.842208
  C     -3.628487    0.771601   -1.609363
  H     -4.175106    0.490791   -3.682203
  H     -3.237812    1.928663   -3.381480
  C     -4.975718    1.361432   -1.190644
  H     -2.830700    1.276234   -1.054766
  H     -3.594312   -0.275838   -1.294603
  C     -6.184720    0.784347   -1.926464
  H     -4.956292    2.445725   -1.342200
  H     -5.097256    1.205252   -0.114136
  C     -6.286921   -0.735882   -1.893531
  H     -6.163994    1.100199   -2.974250
  H     -7.094530    1.223459   -1.504509
  C     -7.468999   -1.246153   -2.713833
  H     -6.360641   -1.090347   -0.859176
  H     -5.369848   -1.171853   -2.295982
  H     -7.601914   -0.601349   -3.585329
  H     -8.389791   -1.173436   -2.126922
  H     -7.118254   -3.379818   -2.398055
  H     -8.241838   -3.004745   -3.706513

 Total Charge           Charge          ....    0
 Multiplicity           Mult            ....    1
 Number of Electrons    NEL             ....  122
 Basis Dimension        Dim             .... 1131

ORBITAL ENERGIES
----------------

  NO   OCC          E(Eh)            E(eV)
   0   2.0000     -92.260385     -2510.5327
   1   2.0000     -26.444528      -719.5922
   2   2.0000     -20.566246      -559.6360
   3   2.0000     -20.562957      -559.5465
   4   2.0000     -11.301509      -307.5297
   5   2.0000     -11.254535      -306.2515
   6   2.0000     -11.225584      -305.4637
   7   2.0000     -11.216927      -305.2281
   8   2.0000     -11.210623      -305.0566
   9   2.0000     -11.201575      -304.8103
  10   2.0000     -11.194862      -304.6277
  11   2.0000     -11.188841      -304.4639
  12   2.0000     -11.175268      -304.0945
  13   2.0000     -11.112694      -302.3918
  14   2.0000      -9.223953      -250.9965
  15   2.0000      -6.911445      -188.0700
  16   2.0000      -6.907338      -187.9582
  17   2.0000      -6.906708      -187.9411
  18   2.0000      -1.815118       -49.3919
  19   2.0000      -1.453141       -39.5420
  20   2.0000      -1.344667       -36.5902
  21   2.0000      -1.124381       -30.5960
  22   2.0000      -1.085511       -29.5383
  23   2.0000      -1.050614       -28.5887
  24   2.0000      -1.022770       -27.8310
  25   2.0000      -0.980536       -26.6817
  26   2.0000      -0.949839       -25.8464
  27   2.0000      -0.903574       -24.5875
  28   2.0000      -0.861555       -23.4441
  29   2.0000      -0.842680       -22.9305
  30   2.0000      -0.835467       -22.7342
  31   2.0000      -0.822351       -22.3773
  32   2.0000      -0.775433       -21.1006
  33   2.0000      -0.769166       -20.9301
  34   2.0000      -0.737008       -20.0550
  35   2.0000      -0.683692       -18.6042
  36   2.0000      -0.669667       -18.2226
  37   2.0000      -0.648174       -17.6377
  38   2.0000      -0.643325       -17.5058
  39   2.0000      -0.626458       -17.0468
  40   2.0000      -0.614051       -16.7092
  41   2.0000      -0.590016       -16.0552
  42   2.0000      -0.580284       -15.7903
  43   2.0000      -0.574708       -15.6386
  44   2.0000      -0.567318       -15.4375
  45   2.0000      -0.541398       -14.7322
  46   2.0000      -0.539913       -14.6918
  47   2.0000      -0.528588       -14.3836
  48   2.0000      -0.515074       -14.0159
  49   2.0000      -0.509528       -13.8650
  50   2.0000      -0.495815       -13.4918
  51   2.0000      -0.491383       -13.3712
  52   2.0000      -0.482681       -13.1344
  53   2.0000      -0.476377       -12.9629
  54   2.0000      -0.465372       -12.6634
  55   2.0000      -0.453207       -12.3324
  56   2.0000      -0.444191       -12.0870
  57   2.0000      -0.439533       -11.9603
  58   2.0000      -0.421689       -11.4747
  59   2.0000      -0.415875       -11.3165
  60   2.0000      -0.401396       -10.9226
  61   0.0000       0.017903         0.4872
  62   0.0000       0.030367         0.8263
  63   0.0000       0.033305         0.9063
  64   0.0000       0.037892         1.0311
  65   0.0000       0.044873         1.2211

MULLIKEN ATOMIC CHARGES
-----------------------
   0 C :   -0.251379
   1 C :   -1.362859
   2 C :   -0.715274
   3 C :   -0.780786
   4 S :    2.475141
   5 H :    0.468421
   6 H :    0.244598
   7 H :    0.571195
   8 O :   -0.994937
   9 O :   -0.980408
  10 H :    0.356531
  11 H :    0.047228
  12 F :   -0.498141
  13 C :   -0.432678
  14 H :    0.191407
  15 H :    0.163720
  16 C :   -0.140492
  17 H :    0.140130
  18 H :    0.328215
  19 C :   -0.900661
  20 H :    0.587205
  21 H :   -0.004118
  22 C :   -0.292948
  23 H :    0.205083
  24 H :    0.106167
  25 C :   -0.606916
  26 H :    0.071364
  27 H :    0.555221
  28 C :   -0.453036
  29 H :    0.360899
  30 H :    0.543145
  31 H :    0.218675
  32 H :    0.328631
  33 H :    0.211497
  34 H :    0.240160
Sum of atomic charges:    0.0000000

LOEWDIN ATOMIC CHARGES
----------------------
   0 C :    0.291385
   1 C :    0.556924
   2 C :    0.302754
   3 C :    0.219158
   4 S :    0.105927
   5 H :   -0.501507
   6 H :   -0.179086
   7 H :   -0.458555
   8 O :    0.194918
   9 O :    0.200279
  10 H :   -0.136261
  11 H :   -0.155887
  12 F :    0.311840
  13 C :    0.294291
  14 H :   -0.135428
  15 H :   -0.149207
  16 C :    0.286744
  17 H :   -0.178706
  18 H :   -0.132182
  19 C :    0.302518
  20 H :   -0.133375
  21 H :   -0.168376
  22 C :    0.288865
  23 H :   -0.139257
  24 H :   -0.142196
  25 C :    0.275597
  26 H :   -0.151896
  27 H :   -0.133955
  28 C :    0.256835
  29 H :   -0.121280
  30 H :   -0.193654
  31 H :   -0.168367
  32 H :   -0.132150
  33 H :   -0.180796
  34 H :   -0.195913

  Mayer bond orders larger than 0.100000
B(  0-C ,  1-C ) :   0.6606 B(  0-C ,  2-C ) :   0.8332 B(  0-C , 10-H ) :   0.8865
B(  0-C , 11-H ) :   1.1615 B(  1-C ,  2-C ) :   0.1418 B(  1-C ,  5-H ) :   0.7867
B(  1-C ,  6-H ) :   1.0119 B(  1-C ,  7-H ) :   0.7998 B(  2-C , 13-C ) :   0.9048
B(  2-C , 14-H ) :   1.0857 B(  2-C , 15-H ) :   1.0551 B(  3-C ,  4-S ) :   0.8008
B(  3-C , 12-F ) :   0.1419 B(  3-C , 25-C ) :   0.1187 B(  3-C , 28-C ) :   0.9643
B(  3-C , 33-H ) :   1.0344 B(  3-C , 34-H ) :   0.9518 B(  4-S ,  8-O ) :   1.5598
B(  4-S ,  9-O ) :   1.4179 B(  4-S , 28-C ) :   0.1314 B(  5-H ,  7-H ) :   0.1386
B(  5-H ,  9-O ) :  -0.1025 B(  7-H ,  8-O ) :  -0.2161 B(  8-O ,  9-O ) :   0.1114
B(  8-O , 30-H ) :  -0.1216 B( 12-F , 34-H ) :   0.1111 B( 13-C , 16-C ) :   0.7424
B( 13-C , 17-H ) :   1.1406 B( 13-C , 18-H ) :   0.8834 B( 13-C , 21-H ) :   0.1049
B( 16-C , 19-C ) :   0.8937 B( 16-C , 20-H ) :   0.6721 B( 16-C , 21-H ) :   1.2564
B( 19-C , 21-H ) :   0.1122 B( 19-C , 22-C ) :   0.9123 B( 19-C , 23-H ) :   1.0368
B( 19-C , 24-H ) :   1.1668 B( 22-C , 25-C ) :   0.7600 B( 22-C , 26-H ) :   1.1213
B( 22-C , 27-H ) :   0.6774 B( 25-C , 28-C ) :   0.8797 B( 25-C , 29-H ) :   0.8744
B( 25-C , 30-H ) :   0.9957 B( 28-C , 31-H ) :   0.9898 B( 28-C , 32-H ) :   0.8813

E(0)                                       ...  -1037.725262140
E(0)                                       ...  -1037.725262140
E(CORR)(strong-pairs)                      ...     -2.823286990
E(CORR)(weak-pairs)                        ...     -0.005166984
E(CORR)(corrected)                         ...     -2.828453975
E(TOT)                                     ...  -1040.553716115
E(CCSD(T))                                 ...  -1040.670520283
FINAL SINGLE POINT ENERGY     -1040.670520283359

DIPOLE MOMENT
-------------
                                X             Y             Z
Electronic contribution:    -12.87275     -20.33019     -14.26789
Nuclear contribution   :     10.70731      19.84772      14.63855
                        -----------------------------------------
Total Dipole Moment    :     -2.16544      -0.48247       0.37066
                        -----------------------------------------
Magnitude (a.u.)       :      2.24929
Magnitude (Debye)      :      5.71723

Rotational constants in cm-1:     0.026014     0.014812     0.010477
Rotational constants in MHz :   779.874765   444.063394   314.081855

                             ****ORCA TERMINATED NORMALLY****
TOTAL RUN TIME: 0 days 4 hours 38 minutes 29 seconds 324 msec
