                         Program Version 5.0.0 -  RELEASE  -
|  1> !BLYP D3BJ RIJCOSX def2-SVPD def2/J TightSCF
|  2> *xyz -1 1
|  3> C          1.87218        0.42790       -2.07750
|  4> S          0.57902        0.14047       -3.29794
|  5> O          0.22886       -1.24687       -3.12787
|  6> O         -0.43927        1.11897       -3.01455
|  7> O          1.24788        0.40347       -4.59565
|  8> H          2.66832       -0.27048       -2.23022
|  9> H          1.46951        0.30034       -1.09440
| 10> H          2.24690        1.42458       -2.18288
| 11> *
| 12>
| 13> %MaxCore 64000
| 14>
| 15> %pal nprocs 8
| 16> end
| 17>
| 18> %scf
| 19>   MaxIter 150
| 20> end
| 21>
| 22>
| 23>                          ****END OF INPUT****

CARTESIAN COORDINATES (ANGSTROEM)
---------------------------------
  C      1.872180    0.427900   -2.077500
  S      0.579020    0.140470   -3.297940
  O      0.228860   -1.246870   -3.127870
  O     -0.439270    1.118970   -3.014550
  O      1.247880    0.403470   -4.595650
  H      2.668320   -0.270480   -2.230220
  H      1.469510    0.300340   -1.094400
  H      2.246900    1.424580   -2.182880

 Total Charge           Charge          ....   -1
 Multiplicity           Mult            ....    1
 Number of Electrons    NEL             ....   50
 Basis Dimension        Dim             ....  140

ORBITAL ENERGIES
----------------

  NO   OCC          E(Eh)            E(eV)
   0   2.0000     -88.128562     -2398.1001
   1   2.0000     -18.570444      -505.3275
   2   2.0000     -18.570398      -505.3262
   3   2.0000     -18.557047      -504.9629
   4   2.0000      -9.769831      -265.8506
   5   2.0000      -7.665161      -208.5796
   6   2.0000      -5.700221      -155.1109
   7   2.0000      -5.700092      -155.1074
   8   2.0000      -5.699602      -155.0941
   9   2.0000      -0.834932       -22.7197
  10   2.0000      -0.702771       -19.1234
  11   2.0000      -0.676764       -18.4157
  12   2.0000      -0.499456       -13.5909
  13   2.0000      -0.320533        -8.7221
  14   2.0000      -0.243642        -6.6298
  15   2.0000      -0.233521        -6.3544
  16   2.0000      -0.232510        -6.3269
  17   2.0000      -0.193871        -5.2755
  18   2.0000      -0.191340        -5.2066
  19   2.0000      -0.099866        -2.7175
  20   2.0000      -0.099416        -2.7052
  21   2.0000      -0.067559        -1.8384
  22   2.0000      -0.064960        -1.7676
  23   2.0000      -0.051785        -1.4091
  24   2.0000      -0.016177        -0.4402
  25   0.0000       0.137085         3.7303
  26   0.0000       0.175163         4.7664
  27   0.0000       0.175791         4.7835
  28   0.0000       0.177419         4.8278
  29   0.0000       0.200406         5.4533

MULLIKEN ATOMIC CHARGES
-----------------------
   0 C :    0.906203
   1 S :    0.916900
   2 O :   -0.699419
   3 O :   -0.695608
   4 O :   -0.747273
   5 H :   -0.222346
   6 H :   -0.231160
   7 H :   -0.227297
Sum of atomic charges:   -1.0000000

LOEWDIN ATOMIC CHARGES
----------------------
   0 C :    0.063402
   1 S :    0.788222
   2 O :   -0.562052
   3 O :   -0.560987
   4 O :   -0.583456
   5 H :   -0.047435
   6 H :   -0.049833
   7 H :   -0.047860

  Mayer bond orders larger than 0.100000
B(  0-C ,  1-S ) :   0.9063 B(  0-C ,  5-H ) :   0.8490 B(  0-C ,  6-H ) :   0.8454
B(  0-C ,  7-H ) :   0.8495 B(  1-S ,  2-O ) :   1.3843 B(  1-S ,  3-O ) :   1.3849
B(  1-S ,  4-O ) :   1.3422 B(  1-S ,  5-H ) :   0.1438 B(  1-S ,  6-H ) :   0.1347
B(  1-S ,  7-H ) :   0.1449

Dispersion correction           -0.013646714
FINAL SINGLE POINT ENERGY      -663.443726286042

DIPOLE MOMENT
-------------
                                X             Y             Z
Electronic contribution:     -3.24000      -0.72980      -2.88379
Nuclear contribution   :      4.08143       0.90272       3.93680
                        -----------------------------------------
Total Dipole Moment    :      0.84143       0.17292       1.05301
                        -----------------------------------------
Magnitude (a.u.)       :      1.35895
Magnitude (Debye)      :      3.45417

Rotational constants in cm-1:     0.171796     0.158241     0.155560
Rotational constants in MHz :  5150.307583  4743.954688  4663.569252

                             ****ORCA TERMINATED NORMALLY****
TOTAL RUN TIME: 0 days 0 hours 0 minutes 3 seconds 492 msec
