                         Program Version 5.0.0 -  RELEASE  -
|  1> !BLYP D3BJ RIJCOSX def2-SVPD def2/J TightSCF
|  2> *xyz 1 1
|  3> C          3.38093        2.08304       -3.35013
|  4> N          4.53592        1.18245       -3.42852
|  5> C          4.67196        0.12227       -4.22060
|  6> N          5.86602       -0.50785       -4.22428
|  7> N          3.69888       -0.31284       -4.98699
|  8> H          2.73141       -0.05009       -4.84900
|  9> H          3.89005       -1.05517       -5.64373
| 10> H          5.25193        1.30346       -2.72101
| 11> H          6.69516       -0.06232       -3.85160
| 12> H          5.97538       -1.39688       -4.69141
| 13> H          2.69962        1.85926       -4.14426
| 14> H          3.71221        3.09654       -3.43937
| 15> H          2.88835        1.95032       -2.40957
| 16> *
| 17>
| 18> %MaxCore 64000
| 19>
| 20> %pal nprocs 8
| 21> end
| 22>
| 23> %scf
| 24>   MaxIter 150
| 25> end
| 26>
| 27>
| 28>                          ****END OF INPUT****

CARTESIAN COORDINATES (ANGSTROEM)
---------------------------------
  C      3.380930    2.083040   -3.350130
  N      4.535920    1.182450   -3.428520
  C      4.671960    0.122270   -4.220600
  N      5.866020   -0.507850   -4.224280
  N      3.698880   -0.312840   -4.986990
  H      2.731410   -0.050090   -4.849000
  H      3.890050   -1.055170   -5.643730
  H      5.251930    1.303460   -2.721010
  H      6.695160   -0.062320   -3.851600
  H      5.975380   -1.396880   -4.691410
  H      2.699620    1.859260   -4.144260
  H      3.712210    3.096540   -3.439370
  H      2.888350    1.950320   -2.409570

 Total Charge           Charge          ....    1
 Multiplicity           Mult            ....    1
 Number of Electrons    NEL             ....   40
 Basis Dimension        Dim             ....  164

ORBITAL ENERGIES
----------------

  NO   OCC          E(Eh)            E(eV)
   0   2.0000     -14.252872      -387.8404
   1   2.0000     -14.251096      -387.7920
   2   2.0000     -14.245116      -387.6293
   3   2.0000     -10.252418      -278.9825
   4   2.0000     -10.129016      -275.6245
   5   2.0000      -1.116679       -30.3864
   6   2.0000      -1.015218       -27.6255
   7   2.0000      -1.000410       -27.2225
   8   2.0000      -0.831259       -22.6197
   9   2.0000      -0.766286       -20.8517
  10   2.0000      -0.731418       -19.9029
  11   2.0000      -0.696490       -18.9525
  12   2.0000      -0.647276       -17.6133
  13   2.0000      -0.645166       -17.5559
  14   2.0000      -0.598882       -16.2964
  15   2.0000      -0.585599       -15.9350
  16   2.0000      -0.542420       -14.7600
  17   2.0000      -0.535394       -14.5688
  18   2.0000      -0.437282       -11.8991
  19   2.0000      -0.413451       -11.2506
  20   0.0000      -0.201678        -5.4879
  21   0.0000      -0.179797        -4.8925
  22   0.0000      -0.146864        -3.9964
  23   0.0000      -0.138342        -3.7645
  24   0.0000      -0.121519        -3.3067

MULLIKEN ATOMIC CHARGES
-----------------------
   0 C :    1.564193
   1 N :   -0.424557
   2 C :    1.059123
   3 N :    0.188980
   4 N :    0.249737
   5 H :   -0.138724
   6 H :   -0.141735
   7 H :   -0.306492
   8 H :   -0.150633
   9 H :   -0.105534
  10 H :   -0.320919
  11 H :   -0.236112
  12 H :   -0.237326
Sum of atomic charges:    1.0000000

LOEWDIN ATOMIC CHARGES
----------------------
   0 C :    0.278545
   1 N :    0.038556
   2 C :   -0.063139
   3 N :    0.279240
   4 N :    0.294834
   5 H :    0.026466
   6 H :    0.038015
   7 H :    0.054371
   8 H :    0.031069
   9 H :    0.028133
  10 H :   -0.018451
  11 H :    0.006773
  12 H :    0.005588

  Mayer bond orders larger than 0.100000
B(  0-C ,  1-N ) :   0.9942 B(  0-C ,  7-H ) :  -0.1829 B(  0-C , 10-H ) :   0.7453
B(  0-C , 11-H ) :   0.6765 B(  0-C , 12-H ) :   0.6999 B(  1-N ,  2-C ) :   1.0728
B(  1-N ,  3-N ) :   0.2594 B(  1-N ,  4-N ) :   0.2729 B(  1-N ,  7-H ) :   1.2963
B(  1-N , 10-H ) :   0.2172 B(  1-N , 11-H ) :   0.2248 B(  1-N , 12-H ) :   0.1963
B(  2-C ,  3-N ) :   0.9067 B(  2-C ,  4-N ) :   1.0767 B(  2-C ,  5-H ) :  -0.1766
B(  2-C ,  6-H ) :  -0.1513 B(  2-C ,  7-H ) :  -0.2492 B(  2-C ,  8-H ) :  -0.1888
B(  2-C ,  9-H ) :  -0.1135 B(  3-N ,  4-N ) :   0.1916 B(  3-N ,  8-H ) :   1.2195
B(  3-N ,  9-H ) :   1.1830 B(  4-N ,  5-H ) :   1.1880 B(  4-N ,  6-H ) :   1.2027
B(  5-H ,  6-H ) :  -0.2028 B(  8-H ,  9-H ) :  -0.1845

Dispersion correction           -0.018307668
FINAL SINGLE POINT ENERGY      -244.838296869300

DIPOLE MOMENT
-------------
                                X             Y             Z
Electronic contribution:      1.68854      -1.96237      -0.71847
Nuclear contribution   :     -1.49827       1.51766       0.59175
                        -----------------------------------------
Total Dipole Moment    :      0.19026      -0.44471      -0.12672
                        -----------------------------------------
Magnitude (a.u.)       :      0.50002
Magnitude (Debye)      :      1.27096

Rotational constants in cm-1:     0.316446     0.130424     0.094259
Rotational constants in MHz :  9486.821695  3910.013387  2825.801764

                             ****ORCA TERMINATED NORMALLY****
TOTAL RUN TIME: 0 days 0 hours 0 minutes 4 seconds 292 msec
