                         Program Version 5.0.0 -  RELEASE  -
|  1> !BLYP D3BJ RIJCOSX def2-SVPD def2/J TightSCF xyzfile
|  2>
|  3> *xyzfile 0 1 B.xyz
|  4>
|  5> %MaxCore 64000
|  6>
|  7> %pal nprocs 4
|  8> end
|  9>
| 10> %scf
| 11>   MaxIter 150
| 12> end
| 13>
| 14>
| 15>                          ****END OF INPUT****

CARTESIAN COORDINATES (ANGSTROEM)
---------------------------------
  C      3.380928    2.083045   -3.350127
  N      4.535924    1.182447   -3.428518
  C      2.495557    1.816150   -2.136364
  C      1.872181    0.427903   -2.077497
  H      2.614270   -0.365825   -2.198894
  H      1.389953    0.273087   -1.112360
  S      0.579024    0.140472   -3.297943
  C      4.671956    0.122273   -4.220598
  N      5.866023   -0.507849   -4.224284
  N      3.698881   -0.312844   -4.986988
  H      2.731405   -0.050091   -4.849000
  H      3.890046   -1.055172   -5.643730
  H      5.251933    1.303459   -2.721014
  H      6.695165   -0.062322   -3.851596
  H      5.975383   -1.396884   -4.691414
  O      0.228860   -1.246868   -3.127871
  O     -0.439269    1.118966   -3.014550
  O      1.247881    0.403474   -4.595647
  H      1.697003    2.561969   -2.141109
  H      3.080787    1.987436   -1.225838
  H      2.806463    1.986511   -4.268484
  H      3.778714    3.098282   -3.307383

 Total Charge           Charge          ....    0
 Multiplicity           Mult            ....    1
 Number of Electrons    NEL             ....   96
 Basis Dimension        Dim             ....  324

ORBITAL ENERGIES
----------------

  NO   OCC          E(Eh)            E(eV)
   0   2.0000     -88.275137     -2402.0886
   1   2.0000     -18.723898      -509.5032
   2   2.0000     -18.709314      -509.1063
   3   2.0000     -18.709159      -509.1021
   4   2.0000     -14.117337      -384.1523
   5   2.0000     -14.111020      -383.9804
   6   2.0000     -14.081335      -383.1726
   7   2.0000     -10.108268      -275.0600
   8   2.0000      -9.985384      -271.7161
   9   2.0000      -9.937999      -270.4267
  10   2.0000      -9.922657      -270.0092
  11   2.0000      -7.811134      -212.5518
  12   2.0000      -5.846861      -159.1012
  13   2.0000      -5.845733      -159.0705
  14   2.0000      -5.845256      -159.0575
  15   2.0000      -0.983200       -26.7542
  16   2.0000      -0.974425       -26.5154
  17   2.0000      -0.874655       -23.8006
  18   2.0000      -0.859538       -23.3892
  19   2.0000      -0.841352       -22.8943
  20   2.0000      -0.838824       -22.8256
  21   2.0000      -0.726909       -19.7802
  22   2.0000      -0.663379       -18.0515
  23   2.0000      -0.618074       -16.8187
  24   2.0000      -0.590997       -16.0818
  25   2.0000      -0.576616       -15.6905
  26   2.0000      -0.544540       -14.8177
  27   2.0000      -0.511132       -13.9086
  28   2.0000      -0.496537       -13.5115
  29   2.0000      -0.471988       -12.8435
  30   2.0000      -0.452973       -12.3260
  31   2.0000      -0.435093       -11.8395
  32   2.0000      -0.420869       -11.4524
  33   2.0000      -0.400799       -10.9063
  34   2.0000      -0.384449       -10.4614
  35   2.0000      -0.365795        -9.9538
  36   2.0000      -0.345800        -9.4097
  37   2.0000      -0.336048        -9.1443
  38   2.0000      -0.328783        -8.9466
  39   2.0000      -0.318030        -8.6540
  40   2.0000      -0.295231        -8.0336
  41   2.0000      -0.271850        -7.3974
  42   2.0000      -0.250721        -6.8225
  43   2.0000      -0.242895        -6.6095
  44   2.0000      -0.216434        -5.8895
  45   2.0000      -0.206009        -5.6058
  46   2.0000      -0.203373        -5.5340
  47   2.0000      -0.167798        -4.5660
  48   0.0000      -0.063606        -1.7308
  49   0.0000      -0.062671        -1.7054
  50   0.0000      -0.028681        -0.7804
  51   0.0000      -0.011400        -0.3102
  52   0.0000       0.015036         0.4091

MULLIKEN ATOMIC CHARGES
-----------------------
   0 C :    1.228763
   1 N :   -0.350047
   2 C :    0.482178
   3 C :    0.456067
   4 H :   -0.092102
   5 H :   -0.362505
   6 S :    1.264372
   7 C :    1.008359
   8 N :    0.221313
   9 N :    0.669392
  10 H :   -0.430424
  11 H :   -0.238568
  12 H :   -0.283503
  13 H :   -0.190099
  14 H :   -0.121157
  15 O :   -0.694741
  16 O :   -0.736348
  17 O :   -0.873666
  18 H :   -0.130371
  19 H :   -0.207283
  20 H :   -0.135257
  21 H :   -0.484373
Sum of atomic charges:    0.0000000

LOEWDIN ATOMIC CHARGES
----------------------
   0 C :    0.090714
   1 N :    0.059354
   2 C :   -0.009882
   3 C :   -0.069859
   4 H :   -0.005659
   5 H :    0.013019
   6 S :    0.892575
   7 C :   -0.069850
   8 N :    0.253573
   9 N :    0.327176
  10 H :   -0.139082
  11 H :    0.031068
  12 H :    0.042012
  13 H :    0.009992
  14 H :    0.012345
  15 O :   -0.505864
  16 O :   -0.497179
  17 O :   -0.512585
  18 H :    0.031515
  19 H :    0.015926
  20 H :    0.005896
  21 H :    0.024794

  Mayer bond orders larger than 0.100000
B(  0-C ,  1-N ) :   0.9759 B(  0-C ,  2-C ) :   1.0646 B(  0-C , 12-H ) :  -0.2030
B(  0-C , 18-H ) :   0.1781 B(  0-C , 19-H ) :   0.1758 B(  0-C , 20-H ) :   0.6308
B(  0-C , 21-H ) :   0.6262 B(  1-N ,  2-C ) :   0.1040 B(  1-N ,  7-C ) :   1.0036
B(  1-N ,  8-N ) :   0.2705 B(  1-N ,  9-N ) :   0.2141 B(  1-N , 12-H ) :   1.2868
B(  1-N , 20-H ) :   0.2340 B(  1-N , 21-H ) :   0.1904 B(  2-C ,  3-C ) :   1.2113
B(  2-C ,  4-H ) :   0.1729 B(  2-C ,  5-H ) :   0.2180 B(  2-C , 18-H ) :   0.7398
B(  2-C , 19-H ) :   0.6274 B(  2-C , 20-H ) :   0.1837 B(  2-C , 21-H ) :   0.1215
B(  3-C ,  4-H ) :   0.8813 B(  3-C ,  5-H ) :   0.6613 B(  3-C ,  6-S ) :   0.8517
B(  3-C , 15-O ) :   0.1076 B(  3-C , 16-O ) :   0.1095 B(  3-C , 17-O ) :   0.1881
B(  3-C , 18-H ) :   0.1973 B(  3-C , 19-H ) :   0.1852 B(  4-H ,  5-H ) :  -0.1001
B(  5-H ,  6-S ) :   0.1301 B(  6-S , 15-O ) :   1.3841 B(  6-S , 16-O ) :   1.3777
B(  6-S , 17-O ) :   1.1415 B(  7-C ,  8-N ) :   0.9025 B(  7-C ,  9-N ) :   1.1708
B(  7-C , 10-H ) :  -0.3115 B(  7-C , 11-H ) :  -0.1775 B(  7-C , 12-H ) :  -0.2598
B(  7-C , 13-H ) :  -0.1862 B(  7-C , 14-H ) :  -0.1027 B(  8-N ,  9-N ) :   0.1808
B(  8-N , 13-H ) :   1.2363 B(  8-N , 14-H ) :   1.1919 B(  9-N , 10-H ) :   1.0916
B(  9-N , 11-H ) :   1.1839 B(  9-N , 20-H ) :   0.1072 B( 10-H , 11-H ) :  -0.2718
B( 10-H , 17-O ) :   0.2373 B( 13-H , 14-H ) :  -0.1935 B( 17-O , 20-H ) :   0.1210
B( 20-H , 21-H ) :  -0.1948

Dispersion correction           -0.051499326
FINAL SINGLE POINT ENERGY      -946.515641448163

DIPOLE MOMENT
-------------
                                X             Y             Z
Electronic contribution:     -7.16744      -3.18286      -2.43460
Nuclear contribution   :     13.40759       3.44219       2.21042
                        -----------------------------------------
Total Dipole Moment    :      6.24015       0.25933      -0.22418
                        -----------------------------------------
Magnitude (a.u.)       :      6.24956
Magnitude (Debye)      :     15.88512

Rotational constants in cm-1:     0.059860     0.020817     0.017914
Rotational constants in MHz :  1794.564877   624.092098   537.039275

                             ****ORCA TERMINATED NORMALLY****
TOTAL RUN TIME: 0 days 0 hours 0 minutes 23 seconds 519 msec
