                         Program Version 5.0.0 -  RELEASE  -
|  1> !BLYP D3BJ RIJCOSX def2-SVPD def2/J TightSCF
|  2> *xyz 0 1
|  3> C          1.87218        0.42790       -2.07750
|  4> S          0.57902        0.14047       -3.29794
|  5> F          0.22886       -1.24687       -3.12787
|  6> O         -0.43927        1.11897       -3.01455
|  7> O          1.24788        0.40347       -4.59565
|  8> H          2.66832       -0.27048       -2.23022
|  9> H          1.46951        0.30034       -1.09440
| 10> H          2.24690        1.42458       -2.18288
| 11> *
| 12>
| 13> %MaxCore 64000
| 14>
| 15> %pal nprocs 8
| 16> end
| 17>
| 18> %scf
| 19>   MaxIter 150
| 20> end
| 21>
| 22>
| 23>                          ****END OF INPUT****

CARTESIAN COORDINATES (ANGSTROEM)
---------------------------------
  C      1.872180    0.427900   -2.077500
  S      0.579020    0.140470   -3.297940
  F      0.228860   -1.246870   -3.127870
  O     -0.439270    1.118970   -3.014550
  O      1.247880    0.403470   -4.595650
  H      2.668320   -0.270480   -2.230220
  H      1.469510    0.300340   -1.094400
  H      2.246900    1.424580   -2.182880

 Total Charge           Charge          ....    0
 Multiplicity           Mult            ....    1
 Number of Electrons    NEL             ....   50
 Basis Dimension        Dim             ....  140

ORBITAL ENERGIES
----------------

  NO   OCC          E(Eh)            E(eV)
   0   2.0000     -88.390320     -2405.2229
   1   2.0000     -24.423649      -664.6013
   2   2.0000     -18.807627      -511.7815
   3   2.0000     -18.793836      -511.4063
   4   2.0000      -9.979070      -271.5443
   5   2.0000      -7.927697      -215.7236
   6   2.0000      -5.967071      -162.3723
   7   2.0000      -5.960460      -162.1924
   8   2.0000      -5.959112      -162.1557
   9   2.0000      -1.271125       -34.5891
  10   2.0000      -1.017713       -27.6934
  11   2.0000      -0.915508       -24.9123
  12   2.0000      -0.722419       -19.6580
  13   2.0000      -0.651026       -17.7153
  14   2.0000      -0.542357       -14.7583
  15   2.0000      -0.524770       -14.2797
  16   2.0000      -0.495810       -13.4917
  17   2.0000      -0.426103       -11.5949
  18   2.0000      -0.425173       -11.5695
  19   2.0000      -0.414590       -11.2816
  20   2.0000      -0.389232       -10.5915
  21   2.0000      -0.339681        -9.2432
  22   2.0000      -0.294897        -8.0245
  23   2.0000      -0.280570        -7.6347
  24   2.0000      -0.260786        -7.0964
  25   0.0000      -0.034469        -0.9380
  26   0.0000       0.006953         0.1892
  27   0.0000       0.007800         0.2123
  28   0.0000       0.030906         0.8410
  29   0.0000       0.031869         0.8672

MULLIKEN ATOMIC CHARGES
-----------------------
   0 C :    0.877124
   1 S :    1.094826
   2 F :   -0.332872
   3 O :   -0.550381
   4 O :   -0.596277
   5 H :   -0.159703
   6 H :   -0.163805
   7 H :   -0.168912
Sum of atomic charges:   -0.0000000

LOEWDIN ATOMIC CHARGES
----------------------
   0 C :    0.130967
   1 S :    1.061375
   2 F :   -0.243851
   3 O :   -0.440743
   4 O :   -0.461026
   5 H :   -0.019755
   6 H :   -0.021039
   7 H :   -0.005928

  Mayer bond orders larger than 0.100000
B(  0-C ,  1-S ) :   0.9664 B(  0-C ,  5-H ) :   0.8534 B(  0-C ,  6-H ) :   0.8507
B(  0-C ,  7-H ) :   0.8495 B(  1-S ,  2-F ) :   0.7691 B(  1-S ,  3-O ) :   1.5830
B(  1-S ,  4-O ) :   1.5414 B(  1-S ,  5-H ) :   0.1157 B(  1-S ,  6-H ) :   0.1082
B(  1-S ,  7-H ) :   0.1435 B(  3-O ,  4-O ) :   0.1021

Dispersion correction           -0.012784030
FINAL SINGLE POINT ENERGY      -687.934211429102

DIPOLE MOMENT
-------------
                                X             Y             Z
Electronic contribution:     -3.80966      -2.99941      -2.56030
Nuclear contribution   :      4.52607       2.31146       3.82544
                        -----------------------------------------
Total Dipole Moment    :      0.71641      -0.68795       1.26515
                        -----------------------------------------
Magnitude (a.u.)       :      1.60845
Magnitude (Debye)      :      4.08836

Rotational constants in cm-1:     0.162724     0.156586     0.147157
Rotational constants in MHz :  4878.333818  4694.318771  4411.658495

                             ****ORCA TERMINATED NORMALLY****
TOTAL RUN TIME: 0 days 0 hours 0 minutes 3 seconds 552 msec
