                         Program Version 5.0.0 -  RELEASE  -
|  1> !BLYP D3BJ RIJCOSX def2-SVPD def2/J TightSCF
|  2> *xyz 0 1
|  3> C          3.38093        2.08304       -3.35013
|  4> C          4.53592        1.18245       -3.42852
|  5> C          4.67196        0.12227       -4.22060
|  6> N          5.86602       -0.50785       -4.22428
|  7> N          3.69888       -0.31284       -4.98699
|  8> H          2.73141       -0.05009       -4.84900
|  9> H          3.89005       -1.05517       -5.64373
| 10> H          5.25193        1.30346       -2.72101
| 11> H          6.69516       -0.06232       -3.85160
| 12> H          5.97538       -1.39688       -4.69141
| 13> H          2.69962        1.85926       -4.14426
| 14> H          3.71221        3.09654       -3.43937
| 15> H          2.88835        1.95032       -2.40957
| 16> *
| 17>
| 18> %MaxCore 64000
| 19>
| 20> %pal nprocs 8
| 21> end
| 22>
| 23> %scf
| 24>   MaxIter 150
| 25> end
| 26>
| 27>
| 28>                          ****END OF INPUT****

CARTESIAN COORDINATES (ANGSTROEM)
---------------------------------
  C      3.380930    2.083040   -3.350130
  C      4.535920    1.182450   -3.428520
  C      4.671960    0.122270   -4.220600
  N      5.866020   -0.507850   -4.224280
  N      3.698880   -0.312840   -4.986990
  H      2.731410   -0.050090   -4.849000
  H      3.890050   -1.055170   -5.643730
  H      5.251930    1.303460   -2.721010
  H      6.695160   -0.062320   -3.851600
  H      5.975380   -1.396880   -4.691410
  H      2.699620    1.859260   -4.144260
  H      3.712210    3.096540   -3.439370
  H      2.888350    1.950320   -2.409570

 Total Charge           Charge          ....    0
 Multiplicity           Mult            ....    1
 Number of Electrons    NEL             ....   40
 Basis Dimension        Dim             ....  164

ORBITAL ENERGIES
----------------

  NO   OCC          E(Eh)            E(eV)
   0   2.0000     -14.026133      -381.6705
   1   2.0000     -14.018451      -381.4615
   2   2.0000      -9.957362      -270.9536
   3   2.0000      -9.887595      -269.0551
   4   2.0000      -9.845561      -267.9113
   5   2.0000      -0.861201       -23.4345
   6   2.0000      -0.776082       -21.1183
   7   2.0000      -0.663239       -18.0477
   8   2.0000      -0.581918       -15.8348
   9   2.0000      -0.522597       -14.2206
  10   2.0000      -0.485640       -13.2149
  11   2.0000      -0.447393       -12.1742
  12   2.0000      -0.427298       -11.6274
  13   2.0000      -0.374465       -10.1897
  14   2.0000      -0.350919        -9.5490
  15   2.0000      -0.321748        -8.7552
  16   2.0000      -0.311904        -8.4873
  17   2.0000      -0.292619        -7.9626
  18   2.0000      -0.216842        -5.9006
  19   2.0000      -0.121275        -3.3001
  20   0.0000      -0.006453        -0.1756
  21   0.0000       0.021829         0.5940
  22   0.0000       0.034850         0.9483
  23   0.0000       0.052522         1.4292
  24   0.0000       0.059860         1.6289

MULLIKEN ATOMIC CHARGES
-----------------------
   0 C :    1.347076
   1 C :   -0.662528
   2 C :    0.842989
   3 N :    0.270912
   4 N :    0.323675
   5 H :   -0.178967
   6 H :   -0.304877
   7 H :   -0.526306
   8 H :   -0.174606
   9 H :   -0.215098
  10 H :   -0.379264
  11 H :   -0.153538
  12 H :   -0.189466
Sum of atomic charges:    0.0000000

LOEWDIN ATOMIC CHARGES
----------------------
   0 C :    0.113579
   1 C :   -0.055829
   2 C :   -0.243521
   3 N :    0.197411
   4 N :    0.210691
   5 H :   -0.008371
   6 H :   -0.015398
   7 H :   -0.058877
   8 H :   -0.005666
   9 H :   -0.027216
  10 H :   -0.048817
  11 H :   -0.029098
  12 H :   -0.028888

  Mayer bond orders larger than 0.100000
B(  0-C ,  1-C ) :   1.1192 B(  0-C ,  7-H ) :   0.2278 B(  0-C , 10-H ) :   0.6035
B(  0-C , 11-H ) :   0.5751 B(  0-C , 12-H ) :   0.6011 B(  1-C ,  2-C ) :   1.4276
B(  1-C ,  3-N ) :   0.5022 B(  1-C ,  4-N ) :   0.3498 B(  1-C ,  7-H ) :   0.8102
B(  1-C , 10-H ) :   0.5257 B(  1-C , 11-H ) :   0.2700 B(  1-C , 12-H ) :   0.2302
B(  2-C ,  3-N ) :   0.8319 B(  2-C ,  4-N ) :   1.1153 B(  2-C ,  6-H ) :  -0.1455
B(  2-C ,  7-H ) :   0.1730 B(  2-C ,  8-H ) :  -0.1452 B(  2-C , 10-H ) :  -0.1598
B(  3-N ,  4-N ) :   0.1249 B(  3-N ,  8-H ) :   1.2194 B(  3-N ,  9-H ) :   1.1322
B(  4-N ,  5-H ) :   1.1722 B(  4-N ,  6-H ) :   1.2559 B(  5-H ,  6-H ) :  -0.1921
B(  8-H ,  9-H ) :  -0.1749 B( 10-H , 11-H ) :   0.1668

Dispersion correction           -0.019258894
FINAL SINGLE POINT ENERGY      -228.361047671069

DIPOLE MOMENT
-------------
                                X             Y             Z
Electronic contribution:      1.57316      -2.44887      -1.21509
Nuclear contribution   :     -1.47697       1.65537       0.71722
                        -----------------------------------------
Total Dipole Moment    :      0.09620      -0.79351      -0.49787
                        -----------------------------------------
Magnitude (a.u.)       :      0.94169
Magnitude (Debye)      :      2.39359

Rotational constants in cm-1:     0.321284     0.131400     0.095192
Rotational constants in MHz :  9631.850868  3939.260061  2853.789421

                             ****ORCA TERMINATED NORMALLY****
TOTAL RUN TIME: 0 days 0 hours 0 minutes 4 seconds 724 msec
