                         Program Version 5.0.0 -  RELEASE  -
|  1> !BLYP D3BJ RIJCOSX def2-SVPD def2/J TightSCF
|  2> *xyz 0 1
|  3> C          1.87218        0.42790       -2.07750
|  4> S          0.57902        0.14047       -3.29794
|  5> O          0.22886       -1.24687       -3.12787
|  6> F         -0.43927        1.11897       -3.01455
|  7> O          1.24788        0.40347       -4.59565
|  8> H          2.66832       -0.27048       -2.23022
|  9> H          1.46951        0.30034       -1.09440
| 10> H          2.24690        1.42458       -2.18288
| 11> *
| 12>
| 13> %MaxCore 64000
| 14>
| 15> %pal nprocs 8
| 16> end
| 17>
| 18> %scf
| 19>   MaxIter 150
| 20> end
| 21>
| 22>
| 23>                          ****END OF INPUT****

CARTESIAN COORDINATES (ANGSTROEM)
---------------------------------
  C      1.872180    0.427900   -2.077500
  S      0.579020    0.140470   -3.297940
  O      0.228860   -1.246870   -3.127870
  F     -0.439270    1.118970   -3.014550
  O      1.247880    0.403470   -4.595650
  H      2.668320   -0.270480   -2.230220
  H      1.469510    0.300340   -1.094400
  H      2.246900    1.424580   -2.182880

 Total Charge           Charge          ....    0
 Multiplicity           Mult            ....    1
 Number of Electrons    NEL             ....   50
 Basis Dimension        Dim             ....  140

ORBITAL ENERGIES
----------------

  NO   OCC          E(Eh)            E(eV)
   0   2.0000     -88.390435     -2405.2260
   1   2.0000     -24.423720      -664.6032
   2   2.0000     -18.807697      -511.7834
   3   2.0000     -18.794002      -511.4108
   4   2.0000      -9.978931      -271.5405
   5   2.0000      -7.927790      -215.7261
   6   2.0000      -5.967173      -162.3750
   7   2.0000      -5.960531      -162.1943
   8   2.0000      -5.959224      -162.1587
   9   2.0000      -1.271376       -34.5959
  10   2.0000      -1.017283       -27.6817
  11   2.0000      -0.916307       -24.9340
  12   2.0000      -0.721664       -19.6375
  13   2.0000      -0.651129       -17.7181
  14   2.0000      -0.542533       -14.7631
  15   2.0000      -0.524552       -14.2738
  16   2.0000      -0.496102       -13.4996
  17   2.0000      -0.425871       -11.5885
  18   2.0000      -0.424774       -11.5587
  19   2.0000      -0.415339       -11.3019
  20   2.0000      -0.389339       -10.5945
  21   2.0000      -0.339107        -9.2276
  22   2.0000      -0.293972        -7.9994
  23   2.0000      -0.280707        -7.6384
  24   2.0000      -0.261878        -7.1261
  25   0.0000      -0.034571        -0.9407
  26   0.0000       0.006388         0.1738
  27   0.0000       0.007394         0.2012
  28   0.0000       0.030963         0.8425
  29   0.0000       0.031950         0.8694

MULLIKEN ATOMIC CHARGES
-----------------------
   0 C :    0.877345
   1 S :    1.097333
   2 O :   -0.554073
   3 F :   -0.330395
   4 O :   -0.597794
   5 H :   -0.164616
   6 H :   -0.165028
   7 H :   -0.162773
Sum of atomic charges:    0.0000000

LOEWDIN ATOMIC CHARGES
----------------------
   0 C :    0.130870
   1 S :    1.061655
   2 O :   -0.441847
   3 F :   -0.242709
   4 O :   -0.461082
   5 H :   -0.005685
   6 H :   -0.021473
   7 H :   -0.019730

  Mayer bond orders larger than 0.100000
B(  0-C ,  1-S ) :   0.9672 B(  0-C ,  5-H ) :   0.8488 B(  0-C ,  6-H ) :   0.8497
B(  0-C ,  7-H ) :   0.8551 B(  1-S ,  2-O ) :   1.5832 B(  1-S ,  3-F ) :   0.7678
B(  1-S ,  4-O ) :   1.5406 B(  1-S ,  5-H ) :   0.1423 B(  1-S ,  6-H ) :   0.1075
B(  1-S ,  7-H ) :   0.1165 B(  2-O ,  4-O ) :   0.1045

Dispersion correction           -0.012786456
FINAL SINGLE POINT ENERGY      -687.934208597796

DIPOLE MOMENT
-------------
                                X             Y             Z
Electronic contribution:     -4.90290       0.86852      -2.37247
Nuclear contribution   :      5.19357      -0.05217       3.71223
                        -----------------------------------------
Total Dipole Moment    :      0.29067       0.81635       1.33976
                        -----------------------------------------
Magnitude (a.u.)       :      1.59558
Magnitude (Debye)      :      4.05564

Rotational constants in cm-1:     0.163837     0.155047     0.147593
Rotational constants in MHz :  4911.724022  4648.196128  4424.713532

                             ****ORCA TERMINATED NORMALLY****
TOTAL RUN TIME: 0 days 0 hours 0 minutes 3 seconds 661 msec
