                         Program Version 5.0.0 -  RELEASE  -
|  1> !BLYP D3BJ RIJCOSX def2-SVPD def2/J TightSCF
|  2> *xyz 0 1
|  3> C          3.38093        2.08304       -3.35013
|  4> N          4.53592        1.18245       -3.42852
|  5> C          4.67196        0.12227       -4.22060
|  6> C          5.86602       -0.50785       -4.22428
|  7> N          3.69888       -0.31284       -4.98699
|  8> H          2.73141       -0.05009       -4.84900
|  9> H          3.89005       -1.05517       -5.64373
| 10> H          5.25193        1.30346       -2.72101
| 11> H          6.69516       -0.06232       -3.85160
| 12> H          5.97538       -1.39688       -4.69141
| 13> H          2.69962        1.85926       -4.14426
| 14> H          3.71221        3.09654       -3.43937
| 15> H          2.88835        1.95032       -2.40957
| 16> *
| 17>
| 18> %MaxCore 64000
| 19>
| 20> %pal nprocs 8
| 21> end
| 22>
| 23> %scf
| 24>   MaxIter 150
| 25> end
| 26>
| 27>
| 28>                          ****END OF INPUT****

CARTESIAN COORDINATES (ANGSTROEM)
---------------------------------
  C      3.380930    2.083040   -3.350130
  N      4.535920    1.182450   -3.428520
  C      4.671960    0.122270   -4.220600
  C      5.866020   -0.507850   -4.224280
  N      3.698880   -0.312840   -4.986990
  H      2.731410   -0.050090   -4.849000
  H      3.890050   -1.055170   -5.643730
  H      5.251930    1.303460   -2.721010
  H      6.695160   -0.062320   -3.851600
  H      5.975380   -1.396880   -4.691410
  H      2.699620    1.859260   -4.144260
  H      3.712210    3.096540   -3.439370
  H      2.888350    1.950320   -2.409570

 Total Charge           Charge          ....    0
 Multiplicity           Mult            ....    1
 Number of Electrons    NEL             ....   40
 Basis Dimension        Dim             ....  164

ORBITAL ENERGIES
----------------

  NO   OCC          E(Eh)            E(eV)
   0   2.0000     -14.027041      -381.6952
   1   2.0000     -14.024000      -381.6124
   2   2.0000      -9.962819      -271.1021
   3   2.0000      -9.955363      -270.8992
   4   2.0000      -9.831927      -267.5403
   5   2.0000      -0.869065       -23.6485
   6   2.0000      -0.793363       -21.5885
   7   2.0000      -0.659026       -17.9330
   8   2.0000      -0.586584       -15.9618
   9   2.0000      -0.539331       -14.6759
  10   2.0000      -0.485745       -13.2178
  11   2.0000      -0.438896       -11.9430
  12   2.0000      -0.425649       -11.5825
  13   2.0000      -0.397757       -10.8235
  14   2.0000      -0.360442        -9.8081
  15   2.0000      -0.342853        -9.3295
  16   2.0000      -0.331093        -9.0095
  17   2.0000      -0.306357        -8.3364
  18   2.0000      -0.209508        -5.7010
  19   2.0000      -0.121689        -3.3113
  20   0.0000      -0.008085        -0.2200
  21   0.0000       0.023589         0.6419
  22   0.0000       0.026849         0.7306
  23   0.0000       0.045703         1.2437
  24   0.0000       0.067427         1.8348

MULLIKEN ATOMIC CHARGES
-----------------------
   0 C :    1.610823
   1 N :   -0.354017
   2 C :    0.598471
   3 C :    0.654588
   4 N :    0.363270
   5 H :   -0.252059
   6 H :   -0.160307
   7 H :   -0.350402
   8 H :   -0.579134
   9 H :   -0.547652
  10 H :   -0.367596
  11 H :   -0.307019
  12 H :   -0.308966
Sum of atomic charges:   -0.0000000

LOEWDIN ATOMIC CHARGES
----------------------
   0 C :    0.224821
   1 N :   -0.016647
   2 C :   -0.254410
   3 C :    0.152877
   4 N :    0.210689
   5 H :   -0.023500
   6 H :    0.005120
   7 H :    0.027528
   8 H :   -0.116294
   9 H :   -0.120156
  10 H :   -0.037931
  11 H :   -0.025632
  12 H :   -0.026466

  Mayer bond orders larger than 0.100000
B(  0-C ,  1-N ) :   0.9508 B(  0-C ,  7-H ) :  -0.1850 B(  0-C , 10-H ) :   0.7372
B(  0-C , 11-H ) :   0.6532 B(  0-C , 12-H ) :   0.6781 B(  1-N ,  2-C ) :   1.0982
B(  1-N ,  3-C ) :   0.2712 B(  1-N ,  4-N ) :   0.2036 B(  1-N ,  7-H ) :   1.2613
B(  1-N , 10-H ) :   0.2425 B(  1-N , 11-H ) :   0.2336 B(  1-N , 12-H ) :   0.2186
B(  2-C ,  3-C ) :   1.1977 B(  2-C ,  4-N ) :   1.1489 B(  2-C ,  5-H ) :  -0.1096
B(  2-C ,  7-H ) :  -0.2289 B(  2-C ,  9-H ) :   0.2074 B(  3-C ,  4-N ) :   0.2469
B(  3-C ,  8-H ) :   0.7573 B(  3-C ,  9-H ) :   0.6520 B(  4-N ,  5-H ) :   1.1784
B(  4-N ,  6-H ) :   1.1675 B(  5-H ,  6-H ) :  -0.1958

Dispersion correction           -0.019088478
FINAL SINGLE POINT ENERGY      -228.347881235571

DIPOLE MOMENT
-------------
                                X             Y             Z
Electronic contribution:      0.18118      -0.81391      -0.46137
Nuclear contribution   :     -1.20756       1.31300       0.55604
                        -----------------------------------------
Total Dipole Moment    :     -1.02639       0.49909       0.09467
                        -----------------------------------------
Magnitude (a.u.)       :      1.14522
Magnitude (Debye)      :      2.91091

Rotational constants in cm-1:     0.323683     0.135884     0.097747
Rotational constants in MHz :  9703.770798  4073.695357  2930.389562

                             ****ORCA TERMINATED NORMALLY****
TOTAL RUN TIME: 0 days 0 hours 0 minutes 4 seconds 653 msec
