                         Program Version 5.0.0 -  RELEASE  -
|  1> !BLYP D3BJ RIJCOSX def2-SVPD def2/J TightSCF
|  2> *xyz 0 1
|  3> C          1.87218        0.42790       -2.07750
|  4> S          0.57902        0.14047       -3.29794
|  5> O          0.22886       -1.24687       -3.12787
|  6> O         -0.43927        1.11897       -3.01455
|  7> F          1.24788        0.40347       -4.59565
|  8> H          2.66832       -0.27048       -2.23022
|  9> H          1.46951        0.30034       -1.09440
| 10> H          2.24690        1.42458       -2.18288
| 11> *
| 12>
| 13> %MaxCore 64000
| 14>
| 15> %pal nprocs 8
| 16> end
| 17>
| 18> %scf
| 19>   MaxIter 150
| 20> end
| 21>
| 22>
| 23>                          ****END OF INPUT****

CARTESIAN COORDINATES (ANGSTROEM)
---------------------------------
  C      1.872180    0.427900   -2.077500
  S      0.579020    0.140470   -3.297940
  O      0.228860   -1.246870   -3.127870
  O     -0.439270    1.118970   -3.014550
  F      1.247880    0.403470   -4.595650
  H      2.668320   -0.270480   -2.230220
  H      1.469510    0.300340   -1.094400
  H      2.246900    1.424580   -2.182880

 Total Charge           Charge          ....    0
 Multiplicity           Mult            ....    1
 Number of Electrons    NEL             ....   50
 Basis Dimension        Dim             ....  140

ORBITAL ENERGIES
----------------

  NO   OCC          E(Eh)            E(eV)
   0   2.0000     -88.388050     -2405.1611
   1   2.0000     -24.403031      -664.0402
   2   2.0000     -18.807306      -511.7728
   3   2.0000     -18.807234      -511.7709
   4   2.0000      -9.977939      -271.5135
   5   2.0000      -7.925420      -215.6617
   6   2.0000      -5.964523      -162.3029
   7   2.0000      -5.958399      -162.1363
   8   2.0000      -5.957085      -162.1005
   9   2.0000      -1.236167       -33.6378
  10   2.0000      -1.026908       -27.9436
  11   2.0000      -0.936986       -25.4967
  12   2.0000      -0.719288       -19.5728
  13   2.0000      -0.634250       -17.2588
  14   2.0000      -0.528016       -14.3680
  15   2.0000      -0.500510       -13.6196
  16   2.0000      -0.491224       -13.3669
  17   2.0000      -0.426282       -11.5997
  18   2.0000      -0.424945       -11.5633
  19   2.0000      -0.413018       -11.2388
  20   2.0000      -0.394672       -10.7396
  21   2.0000      -0.345256        -9.3949
  22   2.0000      -0.297479        -8.0948
  23   2.0000      -0.294783        -8.0215
  24   2.0000      -0.276717        -7.5299
  25   0.0000      -0.032015        -0.8712
  26   0.0000       0.005525         0.1503
  27   0.0000       0.009033         0.2458
  28   0.0000       0.032313         0.8793
  29   0.0000       0.033488         0.9113

MULLIKEN ATOMIC CHARGES
-----------------------
   0 C :    0.875950
   1 S :    1.103849
   2 O :   -0.566465
   3 O :   -0.564088
   4 F :   -0.354182
   5 H :   -0.158475
   6 H :   -0.171113
   7 H :   -0.165476
Sum of atomic charges:   -0.0000000

LOEWDIN ATOMIC CHARGES
----------------------
   0 C :    0.131394
   1 S :    1.059576
   2 O :   -0.442289
   3 O :   -0.441359
   4 F :   -0.260444
   5 H :   -0.019382
   6 H :   -0.007225
   7 H :   -0.020270

  Mayer bond orders larger than 0.100000
B(  0-C ,  1-S ) :   0.9655 B(  0-C ,  5-H ) :   0.8553 B(  0-C ,  6-H ) :   0.8440
B(  0-C ,  7-H ) :   0.8545 B(  1-S ,  2-O ) :   1.5800 B(  1-S ,  3-O ) :   1.5793
B(  1-S ,  4-F ) :   0.7126 B(  1-S ,  5-H ) :   0.1173 B(  1-S ,  6-H ) :   0.1351
B(  1-S ,  7-H ) :   0.1177 B(  2-O ,  3-O ) :   0.1238

Dispersion correction           -0.012786101
FINAL SINGLE POINT ENERGY      -687.952013025649

DIPOLE MOMENT
-------------
                                X             Y             Z
Electronic contribution:     -2.12776      -0.29772      -4.98122
Nuclear contribution   :      3.50800       0.66266       5.29185
                        -----------------------------------------
Total Dipole Moment    :      1.38024       0.36494       0.31064
                        -----------------------------------------
Magnitude (a.u.)       :      1.46108
Magnitude (Debye)      :      3.71376

Rotational constants in cm-1:     0.163942     0.153101     0.149133
Rotational constants in MHz :  4914.860621  4589.839477  4470.901507

                             ****ORCA TERMINATED NORMALLY****
TOTAL RUN TIME: 0 days 0 hours 0 minutes 3 seconds 438 msec
