                         Program Version 5.0.0 -  RELEASE  -
|  1> !BLYP D3BJ RIJCOSX def2-SVPD def2/J TightSCF
|  2> *xyz 0 1
|  3> C          3.38093        2.08304       -3.35013
|  4> N          4.53592        1.18245       -3.42852
|  5> C          4.67196        0.12227       -4.22060
|  6> N          5.86602       -0.50785       -4.22428
|  7> C          3.69888       -0.31284       -4.98699
|  8> H          2.73141       -0.05009       -4.84900
|  9> H          3.89005       -1.05517       -5.64373
| 10> H          5.25193        1.30346       -2.72101
| 11> H          6.69516       -0.06232       -3.85160
| 12> H          5.97538       -1.39688       -4.69141
| 13> H          2.69962        1.85926       -4.14426
| 14> H          3.71221        3.09654       -3.43937
| 15> H          2.88835        1.95032       -2.40957
| 16> *
| 17>
| 18> %MaxCore 64000
| 19>
| 20> %pal nprocs 8
| 21> end
| 22>
| 23> %scf
| 24>   MaxIter 150
| 25> end
| 26>
| 27>
| 28>                          ****END OF INPUT****

CARTESIAN COORDINATES (ANGSTROEM)
---------------------------------
  C      3.380930    2.083040   -3.350130
  N      4.535920    1.182450   -3.428520
  C      4.671960    0.122270   -4.220600
  N      5.866020   -0.507850   -4.224280
  C      3.698880   -0.312840   -4.986990
  H      2.731410   -0.050090   -4.849000
  H      3.890050   -1.055170   -5.643730
  H      5.251930    1.303460   -2.721010
  H      6.695160   -0.062320   -3.851600
  H      5.975380   -1.396880   -4.691410
  H      2.699620    1.859260   -4.144260
  H      3.712210    3.096540   -3.439370
  H      2.888350    1.950320   -2.409570

 Total Charge           Charge          ....    0
 Multiplicity           Mult            ....    1
 Number of Electrons    NEL             ....   40
 Basis Dimension        Dim             ....  164

ORBITAL ENERGIES
----------------

  NO   OCC          E(Eh)            E(eV)
   0   2.0000     -14.024850      -381.6356
   1   2.0000     -14.020726      -381.5234
   2   2.0000      -9.961025      -271.0533
   3   2.0000      -9.947303      -270.6799
   4   2.0000      -9.836452      -267.6635
   5   2.0000      -0.863129       -23.4869
   6   2.0000      -0.784516       -21.3478
   7   2.0000      -0.642118       -17.4729
   8   2.0000      -0.618533       -16.8311
   9   2.0000      -0.504487       -13.7278
  10   2.0000      -0.487884       -13.2760
  11   2.0000      -0.458556       -12.4779
  12   2.0000      -0.401643       -10.9293
  13   2.0000      -0.388914       -10.5829
  14   2.0000      -0.368163       -10.0182
  15   2.0000      -0.338030        -9.1983
  16   2.0000      -0.332225        -9.0403
  17   2.0000      -0.305324        -8.3083
  18   2.0000      -0.202409        -5.5078
  19   2.0000      -0.133657        -3.6370
  20   0.0000      -0.003444        -0.0937
  21   0.0000       0.019377         0.5273
  22   0.0000       0.034144         0.9291
  23   0.0000       0.048247         1.3129
  24   0.0000       0.061708         1.6792

MULLIKEN ATOMIC CHARGES
-----------------------
   0 C :    1.572517
   1 N :   -0.320490
   2 C :    0.781240
   3 N :    0.300474
   4 C :    0.331586
   5 H :   -0.365967
   6 H :   -0.567206
   7 H :   -0.437900
   8 H :   -0.287163
   9 H :   -0.110183
  10 H :   -0.299268
  11 H :   -0.287198
  12 H :   -0.310441
Sum of atomic charges:   -0.0000000

LOEWDIN ATOMIC CHARGES
----------------------
   0 C :    0.233895
   1 N :   -0.027043
   2 C :   -0.254628
   3 N :    0.201208
   4 C :    0.161264
   5 H :   -0.111715
   6 H :   -0.105652
   7 H :    0.010532
   8 H :   -0.023042
   9 H :   -0.006244
  10 H :   -0.032111
  11 H :   -0.023827
  12 H :   -0.022635

  Mayer bond orders larger than 0.100000
B(  0-C ,  1-N ) :   0.9662 B(  0-C ,  7-H ) :  -0.1669 B(  0-C , 10-H ) :   0.7789
B(  0-C , 11-H ) :   0.6427 B(  0-C , 12-H ) :   0.6571 B(  1-N ,  2-C ) :   1.0279
B(  1-N ,  3-N ) :   0.1680 B(  1-N ,  4-C ) :   0.3818 B(  1-N ,  7-H ) :   1.2928
B(  1-N , 10-H ) :   0.1905 B(  1-N , 11-H ) :   0.2389 B(  1-N , 12-H ) :   0.2399
B(  2-C ,  3-N ) :   0.9945 B(  2-C ,  4-C ) :   1.2866 B(  2-C ,  5-H ) :   0.1343
B(  2-C ,  6-H ) :   0.1581 B(  2-C ,  7-H ) :  -0.2350 B(  2-C ,  8-H ) :  -0.1284
B(  3-N ,  4-C ) :   0.3010 B(  3-N ,  8-H ) :   1.2210 B(  3-N ,  9-H ) :   1.1533
B(  4-C ,  5-H ) :   0.6534 B(  4-C ,  6-H ) :   0.8333 B(  8-H ,  9-H ) :  -0.1815

Dispersion correction           -0.019190100
FINAL SINGLE POINT ENERGY      -228.352345872593

DIPOLE MOMENT
-------------
                                X             Y             Z
Electronic contribution:      2.30014      -1.01604       0.22815
Nuclear contribution   :     -1.64651       1.35250       0.40156
                        -----------------------------------------
Total Dipole Moment    :      0.65363       0.33647       0.62971
                        -----------------------------------------
Magnitude (a.u.)       :      0.96798
Magnitude (Debye)      :      2.46040

Rotational constants in cm-1:     0.339624     0.131069     0.096565
Rotational constants in MHz : 10181.679558  3929.342810  2894.941560

                             ****ORCA TERMINATED NORMALLY****
TOTAL RUN TIME: 0 days 0 hours 0 minutes 4 seconds 410 msec
