                         Program Version 5.0.0 -  RELEASE  -
|  1> !BLYP D3BJ RIJCOSX def2-SVPD def2/J TightSCF xyzfile
|  2>
|  3> *xyzfile 0 1 D4.xyz
|  4>
|  5> %MaxCore 64000
|  6>
|  7> %pal nprocs 4
|  8> end
|  9>
| 10> %scf
| 11>   MaxIter 150
| 12> end
| 13>
| 14>
| 15>                          ****END OF INPUT****

CARTESIAN COORDINATES (ANGSTROEM)
---------------------------------
  C      3.380928    2.083045   -3.350127
  C      4.535924    1.182447   -3.428518
  C      2.495557    1.816150   -2.136364
  C      1.872181    0.427903   -2.077497
  H      2.614270   -0.365825   -2.198894
  H      1.389953    0.273087   -1.112360
  S      0.579024    0.140472   -3.297943
  C      4.671956    0.122273   -4.220598
  N      5.866023   -0.507849   -4.224284
  N      3.698881   -0.312844   -4.986988
  H      2.731405   -0.050091   -4.849000
  H      3.890046   -1.055172   -5.643730
  H      5.251933    1.303459   -2.721014
  H      6.695165   -0.062322   -3.851596
  H      5.975383   -1.396884   -4.691414
  O      0.228860   -1.246868   -3.127871
  F     -0.439269    1.118966   -3.014550
  O      1.247881    0.403474   -4.595647
  H      1.697003    2.561969   -2.141109
  H      3.080787    1.987436   -1.225838
  H      2.806463    1.986511   -4.268484
  H      3.778714    3.098282   -3.307383

 Total Charge           Charge          ....    0
 Multiplicity           Mult            ....    1
 Number of Electrons    NEL             ....   96
 Basis Dimension        Dim             ....  324

ORBITAL ENERGIES
----------------

  NO   OCC          E(Eh)            E(eV)
   0   2.0000     -88.392830     -2405.2912
   1   2.0000     -24.426216      -664.6711
   2   2.0000     -18.811255      -511.8803
   3   2.0000     -18.804982      -511.7096
   4   2.0000     -14.018459      -381.4617
   5   2.0000     -14.001782      -381.0079
   6   2.0000      -9.972698      -271.3709
   7   2.0000      -9.958292      -270.9789
   8   2.0000      -9.933745      -270.3109
   9   2.0000      -9.901049      -269.4212
  10   2.0000      -9.845808      -267.9181
  11   2.0000      -7.929899      -215.7835
  12   2.0000      -5.969341      -162.4340
  13   2.0000      -5.963189      -162.2666
  14   2.0000      -5.960634      -162.1971
  15   2.0000      -1.273113       -34.6432
  16   2.0000      -1.024535       -27.8790
  17   2.0000      -0.929461       -25.2919
  18   2.0000      -0.854499       -23.2521
  19   2.0000      -0.769076       -20.9276
  20   2.0000      -0.743524       -20.2323
  21   2.0000      -0.683274       -18.5928
  22   2.0000      -0.651727       -17.7344
  23   2.0000      -0.609935       -16.5972
  24   2.0000      -0.559298       -15.2193
  25   2.0000      -0.536933       -14.6107
  26   2.0000      -0.525580       -14.3018
  27   2.0000      -0.516900       -14.0656
  28   2.0000      -0.488756       -13.2997
  29   2.0000      -0.476446       -12.9647
  30   2.0000      -0.458082       -12.4651
  31   2.0000      -0.434934       -11.8352
  32   2.0000      -0.427902       -11.6438
  33   2.0000      -0.420959       -11.4549
  34   2.0000      -0.402688       -10.9577
  35   2.0000      -0.388616       -10.5748
  36   2.0000      -0.363583        -9.8936
  37   2.0000      -0.352657        -9.5963
  38   2.0000      -0.347215        -9.4482
  39   2.0000      -0.330629        -8.9969
  40   2.0000      -0.311985        -8.4895
  41   2.0000      -0.303289        -8.2529
  42   2.0000      -0.293031        -7.9738
  43   2.0000      -0.290596        -7.9075
  44   2.0000      -0.278435        -7.5766
  45   2.0000      -0.263628        -7.1737
  46   2.0000      -0.209193        -5.6924
  47   2.0000      -0.125778        -3.4226
  48   0.0000      -0.033751        -0.9184
  49   0.0000       0.001998         0.0544
  50   0.0000       0.003980         0.1083
  51   0.0000       0.014328         0.3899
  52   0.0000       0.022315         0.6072

MULLIKEN ATOMIC CHARGES
-----------------------
   0 C :    0.770966
   1 C :   -0.096565
   2 C :    0.511437
   3 C :    0.401699
   4 H :   -0.075236
   5 H :   -0.269949
   6 S :    1.440638
   7 C :    0.714168
   8 N :    0.249312
   9 N :    0.824869
  10 H :   -0.482290
  11 H :   -0.350907
  12 H :   -0.520551
  13 H :   -0.189435
  14 H :   -0.210728
  15 O :   -0.580484
  16 F :   -0.427161
  17 O :   -0.800568
  18 H :   -0.158230
  19 H :   -0.175744
  20 H :   -0.270951
  21 H :   -0.304290
Sum of atomic charges:    0.0000000

LOEWDIN ATOMIC CHARGES
----------------------
   0 C :   -0.032572
   1 C :   -0.018184
   2 C :   -0.025625
   3 C :   -0.030681
   4 H :    0.025767
   5 H :    0.013532
   6 S :    1.126326
   7 C :   -0.224272
   8 N :    0.202404
   9 N :    0.251759
  10 H :   -0.142329
  11 H :   -0.005770
  12 H :   -0.057339
  13 H :   -0.006507
  14 H :   -0.023598
  15 O :   -0.427288
  16 F :   -0.229974
  17 O :   -0.439135
  18 H :    0.013144
  19 H :    0.029449
  20 H :   -0.011358
  21 H :    0.012250

  Mayer bond orders larger than 0.100000
B(  0-C ,  1-C ) :   1.0555 B(  0-C ,  2-C ) :   1.0851 B(  0-C ,  3-C ) :   0.1057
B(  0-C ,  7-C ) :   0.1279 B(  0-C , 12-H ) :   0.2923 B(  0-C , 18-H ) :   0.2149
B(  0-C , 19-H ) :   0.1946 B(  0-C , 20-H ) :   0.6338 B(  0-C , 21-H ) :   0.5638
B(  1-C ,  2-C ) :   0.2054 B(  1-C ,  7-C ) :   1.4439 B(  1-C ,  8-N ) :   0.4375
B(  1-C ,  9-N ) :   0.2557 B(  1-C , 10-H ) :  -0.1364 B(  1-C , 12-H ) :   0.6538
B(  1-C , 20-H ) :   0.3979 B(  1-C , 21-H ) :   0.1670 B(  2-C ,  3-C ) :   1.2235
B(  2-C ,  4-H ) :   0.1818 B(  2-C ,  5-H ) :   0.2028 B(  2-C , 18-H ) :   0.6728
B(  2-C , 19-H ) :   0.6271 B(  2-C , 20-H ) :   0.2069 B(  2-C , 21-H ) :   0.1560
B(  3-C ,  4-H ) :   0.9153 B(  3-C ,  5-H ) :   0.6418 B(  3-C ,  6-S ) :   0.9203
B(  3-C , 17-O ) :   0.1520 B(  3-C , 18-H ) :   0.1895 B(  3-C , 19-H ) :   0.1885
B(  5-H ,  6-S ) :   0.1253 B(  6-S , 15-O ) :   1.5702 B(  6-S , 16-F ) :   0.6693
B(  6-S , 17-O ) :   1.3886 B(  7-C ,  8-N ) :   0.8160 B(  7-C ,  9-N ) :   1.1361
B(  7-C , 10-H ) :  -0.1367 B(  7-C , 11-H ) :  -0.1986 B(  7-C , 12-H ) :   0.1363
B(  7-C , 13-H ) :  -0.1927 B(  7-C , 20-H ) :  -0.1831 B(  8-N ,  9-N ) :   0.1150
B(  8-N , 12-H ) :   0.1316 B(  8-N , 13-H ) :   1.2547 B(  8-N , 14-H ) :   1.1488
B(  9-N , 10-H ) :   1.0375 B(  9-N , 11-H ) :   1.1583 B( 10-H , 11-H ) :  -0.2168
B( 10-H , 17-O ) :   0.1754 B( 13-H , 14-H ) :  -0.1784 B( 18-H , 19-H ) :  -0.1276

Dispersion correction           -0.051826257
FINAL SINGLE POINT ENERGY      -954.388295287342

DIPOLE MOMENT
-------------
                                X             Y             Z
Electronic contribution:    -16.34946      -2.67357      -1.00746
Nuclear contribution   :     16.65743       2.74852       1.69529
                        -----------------------------------------
Total Dipole Moment    :      0.30797       0.07495       0.68782
                        -----------------------------------------
Magnitude (a.u.)       :      0.75734
Magnitude (Debye)      :      1.92500

Rotational constants in cm-1:     0.059907     0.020458     0.017675
Rotational constants in MHz :  1795.978106   613.328205   529.885290

                             ****ORCA TERMINATED NORMALLY****
TOTAL RUN TIME: 0 days 0 hours 0 minutes 23 seconds 748 msec
