                         Program Version 5.0.0 -  RELEASE  -
|  1> !BLYP D3BJ RIJCOSX def2-SVPD def2/J TightSCF xyzfile
|  2>
|  3> *xyzfile 0 1 D5.xyz
|  4>
|  5> %MaxCore 64000
|  6>
|  7> %pal nprocs 4
|  8> end
|  9>
| 10> %scf
| 11>   MaxIter 150
| 12> end
| 13>
| 14>
| 15>                          ****END OF INPUT****

CARTESIAN COORDINATES (ANGSTROEM)
---------------------------------
  C      3.380928    2.083045   -3.350127
  N      4.535924    1.182447   -3.428518
  C      2.495557    1.816150   -2.136364
  C      1.872181    0.427903   -2.077497
  H      2.614270   -0.365825   -2.198894
  H      1.389953    0.273087   -1.112360
  S      0.579024    0.140472   -3.297943
  C      4.671956    0.122273   -4.220598
  C      5.866023   -0.507849   -4.224284
  N      3.698881   -0.312844   -4.986988
  H      2.731405   -0.050091   -4.849000
  H      3.890046   -1.055172   -5.643730
  H      5.251933    1.303459   -2.721014
  H      6.695165   -0.062322   -3.851596
  H      5.975383   -1.396884   -4.691414
  O      0.228860   -1.246868   -3.127871
  F     -0.439269    1.118966   -3.014550
  O      1.247881    0.403474   -4.595647
  H      1.697003    2.561969   -2.141109
  H      3.080787    1.987436   -1.225838
  H      2.806463    1.986511   -4.268484
  H      3.778714    3.098282   -3.307383

 Total Charge           Charge          ....    0
 Multiplicity           Mult            ....    1
 Number of Electrons    NEL             ....   96
 Basis Dimension        Dim             ....  324

ORBITAL ENERGIES
----------------

  NO   OCC          E(Eh)            E(eV)
   0   2.0000     -88.405552     -2405.6374
   1   2.0000     -24.438342      -665.0011
   2   2.0000     -18.822562      -512.1879
   3   2.0000     -18.817018      -512.0371
   4   2.0000     -14.025512      -381.6536
   5   2.0000     -13.997599      -380.8940
   6   2.0000      -9.991378      -271.8792
   7   2.0000      -9.966074      -271.1907
   8   2.0000      -9.961034      -271.0535
   9   2.0000      -9.955277      -270.8969
  10   2.0000      -9.825897      -267.3763
  11   2.0000      -7.942541      -216.1275
  12   2.0000      -5.981935      -162.7767
  13   2.0000      -5.975745      -162.6083
  14   2.0000      -5.973459      -162.5461
  15   2.0000      -1.285381       -34.9770
  16   2.0000      -1.036120       -28.1943
  17   2.0000      -0.941096       -25.6085
  18   2.0000      -0.864361       -23.5205
  19   2.0000      -0.789296       -21.4778
  20   2.0000      -0.754757       -20.5380
  21   2.0000      -0.692090       -18.8327
  22   2.0000      -0.655355       -17.8331
  23   2.0000      -0.613444       -16.6927
  24   2.0000      -0.568404       -15.4671
  25   2.0000      -0.543441       -14.7878
  26   2.0000      -0.542740       -14.7687
  27   2.0000      -0.533241       -14.5102
  28   2.0000      -0.511171       -13.9097
  29   2.0000      -0.482580       -13.1317
  30   2.0000      -0.454171       -12.3586
  31   2.0000      -0.442172       -12.0321
  32   2.0000      -0.435613       -11.8536
  33   2.0000      -0.428453       -11.6588
  34   2.0000      -0.408660       -11.1202
  35   2.0000      -0.402291       -10.9469
  36   2.0000      -0.369709       -10.0603
  37   2.0000      -0.365443        -9.9442
  38   2.0000      -0.356964        -9.7135
  39   2.0000      -0.344601        -9.3771
  40   2.0000      -0.332446        -9.0463
  41   2.0000      -0.320317        -8.7163
  42   2.0000      -0.305267        -8.3067
  43   2.0000      -0.296156        -8.0588
  44   2.0000      -0.292926        -7.9709
  45   2.0000      -0.283053        -7.7023
  46   2.0000      -0.203938        -5.5494
  47   2.0000      -0.116781        -3.1778
  48   0.0000      -0.044830        -1.2199
  49   0.0000      -0.014370        -0.3910
  50   0.0000       0.000549         0.0149
  51   0.0000       0.008392         0.2283
  52   0.0000       0.009019         0.2454

MULLIKEN ATOMIC CHARGES
-----------------------
   0 C :    1.258448
   1 N :   -0.147917
   2 C :    0.490163
   3 C :    0.438821
   4 H :   -0.019808
   5 H :   -0.326146
   6 S :    1.429789
   7 C :    0.330414
   8 C :    0.637218
   9 N :    0.972131
  10 H :   -0.603142
  11 H :   -0.266281
  12 H :   -0.308774
  13 H :   -0.542187
  14 H :   -0.437225
  15 O :   -0.569258
  16 F :   -0.418553
  17 O :   -0.808751
  18 H :   -0.159313
  19 H :   -0.205047
  20 H :   -0.210898
  21 H :   -0.533684
Sum of atomic charges:   -0.0000000

LOEWDIN ATOMIC CHARGES
----------------------
   0 C :    0.073919
   1 N :    0.016966
   2 C :   -0.015573
   3 C :   -0.028015
   4 H :    0.031376
   5 H :    0.016130
   6 S :    1.127915
   7 C :   -0.251851
   8 C :    0.153252
   9 N :    0.249963
  10 H :   -0.151871
  11 H :    0.012273
  12 H :    0.029420
  13 H :   -0.119711
  14 H :   -0.117649
  15 O :   -0.418637
  16 F :   -0.228829
  17 O :   -0.439070
  18 H :    0.019052
  19 H :    0.028630
  20 H :   -0.004381
  21 H :    0.016690

  Mayer bond orders larger than 0.100000
B(  0-C ,  1-N ) :   0.9761 B(  0-C ,  2-C ) :   1.0506 B(  0-C , 12-H ) :  -0.2116
B(  0-C , 18-H ) :   0.1912 B(  0-C , 19-H ) :   0.1718 B(  0-C , 20-H ) :   0.6268
B(  0-C , 21-H ) :   0.6167 B(  1-N ,  2-C ) :   0.1062 B(  1-N ,  7-C ) :   1.0694
B(  1-N ,  8-C ) :   0.2281 B(  1-N ,  9-N ) :   0.1499 B(  1-N , 12-H ) :   1.2028
B(  1-N , 20-H ) :   0.2850 B(  1-N , 21-H ) :   0.1954 B(  2-C ,  3-C ) :   1.2177
B(  2-C ,  4-H ) :   0.1695 B(  2-C ,  5-H ) :   0.2050 B(  2-C , 18-H ) :   0.7254
B(  2-C , 19-H ) :   0.6478 B(  2-C , 20-H ) :   0.1851 B(  2-C , 21-H ) :   0.1346
B(  3-C ,  4-H ) :   0.9005 B(  3-C ,  5-H ) :   0.6388 B(  3-C ,  6-S ) :   0.9243
B(  3-C , 17-O ) :   0.1523 B(  3-C , 18-H ) :   0.1520 B(  3-C , 19-H ) :   0.1675
B(  5-H ,  6-S ) :   0.1134 B(  6-S , 15-O ) :   1.5793 B(  6-S , 16-F ) :   0.6804
B(  6-S , 17-O ) :   1.3907 B(  7-C ,  8-C ) :   1.1948 B(  7-C ,  9-N ) :   1.1663
B(  7-C , 12-H ) :  -0.2143 B(  7-C , 13-H ) :   0.1527 B(  7-C , 14-H ) :   0.2516
B(  8-C ,  9-N ) :   0.1623 B(  8-C , 13-H ) :   0.6052 B(  8-C , 14-H ) :   0.6481
B(  9-N , 10-H ) :   0.7848 B(  9-N , 11-H ) :   1.0990 B(  9-N , 20-H ) :   0.1388
B( 10-H , 11-H ) :  -0.2391 B( 10-H , 17-O ) :   0.1936 B( 13-H , 14-H ) :   0.1652
B( 17-O , 20-H ) :   0.1002 B( 20-H , 21-H ) :  -0.1954

Dispersion correction           -0.051278048
FINAL SINGLE POINT ENERGY      -954.371619924682

DIPOLE MOMENT
-------------
                                X             Y             Z
Electronic contribution:    -17.80435      -1.24202      -0.23176
Nuclear contribution   :     16.78714       2.58368       1.61768
                        -----------------------------------------
Total Dipole Moment    :     -1.01721       1.34166       1.38593
                        -----------------------------------------
Magnitude (a.u.)       :      2.18073
Magnitude (Debye)      :      5.54297

Rotational constants in cm-1:     0.059928     0.020911     0.017993
Rotational constants in MHz :  1796.610847   626.896941   539.414615

                             ****ORCA TERMINATED NORMALLY****
TOTAL RUN TIME: 0 days 0 hours 0 minutes 24 seconds 324 msec
