                         Program Version 5.0.0 -  RELEASE  -
|  1> !BLYP D3BJ RIJCOSX def2-SVPD def2/J TightSCF xyzfile
|  2>
|  3> *xyzfile 0 1 D6.xyz
|  4>
|  5> %MaxCore 64000
|  6>
|  7> %pal nprocs 4
|  8> end
|  9>
| 10> %scf
| 11>   MaxIter 150
| 12> end
| 13>
| 14>
| 15>                          ****END OF INPUT****

CARTESIAN COORDINATES (ANGSTROEM)
---------------------------------
  C      3.380928    2.083045   -3.350127
  N      4.535924    1.182447   -3.428518
  C      2.495557    1.816150   -2.136364
  C      1.872181    0.427903   -2.077497
  H      2.614270   -0.365825   -2.198894
  H      1.389953    0.273087   -1.112360
  S      0.579024    0.140472   -3.297943
  C      4.671956    0.122273   -4.220598
  N      5.866023   -0.507849   -4.224284
  C      3.698881   -0.312844   -4.986988
  H      2.731405   -0.050091   -4.849000
  H      3.890046   -1.055172   -5.643730
  H      5.251933    1.303459   -2.721014
  H      6.695165   -0.062322   -3.851596
  H      5.975383   -1.396884   -4.691414
  O      0.228860   -1.246868   -3.127871
  F     -0.439269    1.118966   -3.014550
  O      1.247881    0.403474   -4.595647
  H      1.697003    2.561969   -2.141109
  H      3.080787    1.987436   -1.225838
  H      2.806463    1.986511   -4.268484
  H      3.778714    3.098282   -3.307383

 Total Charge           Charge          ....    0
 Multiplicity           Mult            ....    1
 Number of Electrons    NEL             ....   96
 Basis Dimension        Dim             ....  324

ORBITAL ENERGIES
----------------

  NO   OCC          E(Eh)            E(eV)
   0   2.0000     -88.383067     -2405.0255
   1   2.0000     -24.418681      -664.4661
   2   2.0000     -18.802892      -511.6527
   3   2.0000     -18.790117      -511.3051
   4   2.0000     -14.026634      -381.6841
   5   2.0000     -14.016280      -381.4024
   6   2.0000      -9.977318      -271.4966
   7   2.0000      -9.960172      -271.0300
   8   2.0000      -9.953876      -270.8587
   9   2.0000      -9.953150      -270.8390
  10   2.0000      -9.816245      -267.1136
  11   2.0000      -7.920151      -215.5183
  12   2.0000      -5.959635      -162.1699
  13   2.0000      -5.953173      -161.9941
  14   2.0000      -5.951167      -161.9395
  15   2.0000      -1.265908       -34.4471
  16   2.0000      -1.013981       -27.5918
  17   2.0000      -0.916938       -24.9512
  18   2.0000      -0.863911       -23.5082
  19   2.0000      -0.788631       -21.4597
  20   2.0000      -0.742320       -20.1996
  21   2.0000      -0.674192       -18.3457
  22   2.0000      -0.643193       -17.5022
  23   2.0000      -0.619371       -16.8539
  24   2.0000      -0.576311       -15.6822
  25   2.0000      -0.532419       -14.4879
  26   2.0000      -0.521725       -14.1969
  27   2.0000      -0.505179       -13.7466
  28   2.0000      -0.494677       -13.4609
  29   2.0000      -0.475778       -12.9466
  30   2.0000      -0.458787       -12.4842
  31   2.0000      -0.440688       -11.9917
  32   2.0000      -0.433247       -11.7892
  33   2.0000      -0.411806       -11.2058
  34   2.0000      -0.398939       -10.8557
  35   2.0000      -0.395848       -10.7716
  36   2.0000      -0.364616        -9.9217
  37   2.0000      -0.349367        -9.5068
  38   2.0000      -0.346889        -9.4393
  39   2.0000      -0.337787        -9.1916
  40   2.0000      -0.329679        -8.9710
  41   2.0000      -0.317919        -8.6510
  42   2.0000      -0.301920        -8.2157
  43   2.0000      -0.278947        -7.5905
  44   2.0000      -0.261159        -7.1065
  45   2.0000      -0.250147        -6.8068
  46   2.0000      -0.204102        -5.5539
  47   2.0000      -0.127761        -3.4766
  48   0.0000      -0.028703        -0.7810
  49   0.0000      -0.010009        -0.2724
  50   0.0000       0.004510         0.1227
  51   0.0000       0.016230         0.4416
  52   0.0000       0.016835         0.4581

MULLIKEN ATOMIC CHARGES
-----------------------
   0 C :    1.258677
   1 N :   -0.359419
   2 C :    0.471064
   3 C :    0.499911
   4 H :   -0.070378
   5 H :   -0.329409
   6 S :    1.409805
   7 C :    0.809142
   8 N :    0.326489
   9 C :    0.988813
  10 H :   -0.953094
  11 H :   -0.542447
  12 H :   -0.367163
  13 H :   -0.248676
  14 H :   -0.097170
  15 O :   -0.576472
  16 F :   -0.427214
  17 O :   -0.801882
  18 H :   -0.184463
  19 H :   -0.204935
  20 H :   -0.090285
  21 H :   -0.510893
Sum of atomic charges:    0.0000000

LOEWDIN ATOMIC CHARGES
----------------------
   0 C :    0.082236
   1 N :    0.005634
   2 C :   -0.014375
   3 C :   -0.028455
   4 H :    0.026627
   5 H :    0.013002
   6 S :    1.118785
   7 C :   -0.242589
   8 N :    0.199714
   9 C :    0.202857
  10 H :   -0.208352
  11 H :   -0.087932
  12 H :    0.013180
  13 H :   -0.026563
  14 H :   -0.006238
  15 O :   -0.427349
  16 F :   -0.238346
  17 O :   -0.445960
  18 H :    0.019108
  19 H :    0.024698
  20 H :    0.002563
  21 H :    0.017755

  Mayer bond orders larger than 0.100000
B(  0-C ,  1-N ) :   0.9429 B(  0-C ,  2-C ) :   1.0378 B(  0-C ,  3-C ) :   0.1078
B(  0-C , 12-H ) :  -0.1851 B(  0-C , 18-H ) :   0.1746 B(  0-C , 19-H ) :   0.1471
B(  0-C , 20-H ) :   0.6166 B(  0-C , 21-H ) :   0.6562 B(  1-N ,  2-C ) :   0.1317
B(  1-N ,  7-C ) :   0.9538 B(  1-N ,  8-N ) :   0.1922 B(  1-N ,  9-C ) :   0.3453
B(  1-N , 12-H ) :   1.3531 B(  1-N , 20-H ) :   0.2083 B(  1-N , 21-H ) :   0.1849
B(  2-C ,  3-C ) :   1.2050 B(  2-C ,  4-H ) :   0.1757 B(  2-C ,  5-H ) :   0.2146
B(  2-C , 18-H ) :   0.7318 B(  2-C , 19-H ) :   0.6693 B(  2-C , 20-H ) :   0.1774
B(  2-C , 21-H ) :   0.1333 B(  3-C ,  4-H ) :   0.9197 B(  3-C ,  5-H ) :   0.5939
B(  3-C ,  6-S ) :   0.9316 B(  3-C , 17-O ) :   0.1519 B(  3-C , 18-H ) :   0.1652
B(  3-C , 19-H ) :   0.1694 B(  5-H ,  6-S ) :   0.1121 B(  6-S , 15-O ) :   1.5585
B(  6-S , 16-F ) :   0.6629 B(  6-S , 17-O ) :   1.4373 B(  7-C ,  8-N ) :   0.9677
B(  7-C ,  9-C ) :   1.5965 B(  7-C , 10-H ) :  -0.1615 B(  7-C , 11-H ) :   0.4570
B(  7-C , 12-H ) :  -0.3025 B(  7-C , 20-H ) :  -0.1214 B(  8-N ,  9-C ) :   0.4140
B(  8-N , 11-H ) :   0.1311 B(  8-N , 13-H ) :   1.1655 B(  8-N , 14-H ) :   1.1460
B(  9-C , 10-H ) :  -0.1954 B(  9-C , 11-H ) :   0.5238 B(  9-C , 20-H ) :   0.1069
B( 10-H , 11-H ) :  -0.1232 B( 10-H , 17-O ) :   0.2141 B( 10-H , 20-H ) :   0.1210
B( 13-H , 14-H ) :  -0.1895 B( 17-O , 20-H ) :   0.1009 B( 20-H , 21-H ) :  -0.2338

Dispersion correction           -0.051786876
FINAL SINGLE POINT ENERGY      -954.356026020025

DIPOLE MOMENT
-------------
                                X             Y             Z
Electronic contribution:    -15.78028      -1.46187       0.17401
Nuclear contribution   :     16.57580       2.60270       1.54331
                        -----------------------------------------
Total Dipole Moment    :      0.79552       1.14083       1.71732
                        -----------------------------------------
Magnitude (a.u.)       :      2.20987
Magnitude (Debye)      :      5.61705

Rotational constants in cm-1:     0.060402     0.020377     0.017632
Rotational constants in MHz :  1810.792194   610.900365   528.582827

                             ****ORCA TERMINATED NORMALLY****
TOTAL RUN TIME: 0 days 0 hours 0 minutes 23 seconds 827 msec
