                         Program Version 5.0.0 -  RELEASE  -
|  1> !BLYP D3BJ RIJCOSX def2-SVPD def2/J TightSCF xyzfile
|  2>
|  3> *xyzfile 0 1 D7.xyz
|  4>
|  5> %MaxCore 64000
|  6>
|  7> %pal nprocs 4
|  8> end
|  9>
| 10> %scf
| 11>   MaxIter 150
| 12> end
| 13>
| 14>
| 15>                          ****END OF INPUT****

CARTESIAN COORDINATES (ANGSTROEM)
---------------------------------
  C      3.380928    2.083045   -3.350127
  C      4.535924    1.182447   -3.428518
  C      2.495557    1.816150   -2.136364
  C      1.872181    0.427903   -2.077497
  H      2.614270   -0.365825   -2.198894
  H      1.389953    0.273087   -1.112360
  S      0.579024    0.140472   -3.297943
  C      4.671956    0.122273   -4.220598
  N      5.866023   -0.507849   -4.224284
  N      3.698881   -0.312844   -4.986988
  H      2.731405   -0.050091   -4.849000
  H      3.890046   -1.055172   -5.643730
  H      5.251933    1.303459   -2.721014
  H      6.695165   -0.062322   -3.851596
  H      5.975383   -1.396884   -4.691414
  O      0.228860   -1.246868   -3.127871
  O     -0.439269    1.118966   -3.014550
  F      1.247881    0.403474   -4.595647
  H      1.697003    2.561969   -2.141109
  H      3.080787    1.987436   -1.225838
  H      2.806463    1.986511   -4.268484
  H      3.778714    3.098282   -3.307383

 Total Charge           Charge          ....    0
 Multiplicity           Mult            ....    1
 Number of Electrons    NEL             ....   96
 Basis Dimension        Dim             ....  324

ORBITAL ENERGIES
----------------

  NO   OCC          E(Eh)            E(eV)
   0   2.0000     -88.382880     -2405.0204
   1   2.0000     -24.414989      -664.3656
   2   2.0000     -18.806200      -511.7427
   3   2.0000     -18.805774      -511.7311
   4   2.0000     -14.031134      -381.8066
   5   2.0000     -14.030045      -381.7769
   6   2.0000      -9.973330      -271.3881
   7   2.0000      -9.969389      -271.2809
   8   2.0000      -9.933359      -270.3004
   9   2.0000      -9.915084      -269.8031
  10   2.0000      -9.859558      -268.2922
  11   2.0000      -7.920470      -215.5269
  12   2.0000      -5.960096      -162.1825
  13   2.0000      -5.953444      -162.0014
  14   2.0000      -5.951312      -161.9434
  15   2.0000      -1.251052       -34.0428
  16   2.0000      -1.026811       -27.9410
  17   2.0000      -0.935131       -25.4462
  18   2.0000      -0.873467       -23.7683
  19   2.0000      -0.788477       -21.4555
  20   2.0000      -0.743722       -20.2377
  21   2.0000      -0.686636       -18.6843
  22   2.0000      -0.657901       -17.9024
  23   2.0000      -0.615151       -16.7391
  24   2.0000      -0.576257       -15.6807
  25   2.0000      -0.533123       -14.5070
  26   2.0000      -0.521828       -14.1997
  27   2.0000      -0.509296       -13.8586
  28   2.0000      -0.496491       -13.5102
  29   2.0000      -0.486409       -13.2359
  30   2.0000      -0.457781       -12.4569
  31   2.0000      -0.440008       -11.9732
  32   2.0000      -0.425909       -11.5896
  33   2.0000      -0.421272       -11.4634
  34   2.0000      -0.407715       -11.0945
  35   2.0000      -0.401425       -10.9233
  36   2.0000      -0.366394        -9.9701
  37   2.0000      -0.359104        -9.7717
  38   2.0000      -0.354966        -9.6591
  39   2.0000      -0.336562        -9.1583
  40   2.0000      -0.319764        -8.7012
  41   2.0000      -0.306620        -8.3435
  42   2.0000      -0.296963        -8.0808
  43   2.0000      -0.292913        -7.9706
  44   2.0000      -0.282480        -7.6867
  45   2.0000      -0.274340        -7.4652
  46   2.0000      -0.227687        -6.1957
  47   2.0000      -0.139547        -3.7973
  48   0.0000      -0.028279        -0.7695
  49   0.0000      -0.007686        -0.2091
  50   0.0000       0.007393         0.2012
  51   0.0000       0.019825         0.5395
  52   0.0000       0.022591         0.6147

MULLIKEN ATOMIC CHARGES
-----------------------
   0 C :    0.753921
   1 C :   -0.068228
   2 C :    0.508577
   3 C :    0.452895
   4 H :   -0.088904
   5 H :   -0.272363
   6 S :    1.293075
   7 C :    0.734195
   8 N :    0.247914
   9 N :    0.811953
  10 H :   -0.434924
  11 H :   -0.341203
  12 H :   -0.502375
  13 H :   -0.188606
  14 H :   -0.207092
  15 O :   -0.601545
  16 O :   -0.634162
  17 F :   -0.526343
  18 H :   -0.136975
  19 H :   -0.155490
  20 H :   -0.342373
  21 H :   -0.301948
Sum of atomic charges:   -0.0000000

LOEWDIN ATOMIC CHARGES
----------------------
   0 C :   -0.032607
   1 C :   -0.015361
   2 C :   -0.022954
   3 C :   -0.031380
   4 H :    0.013779
   5 H :    0.026878
   6 S :    1.086124
   7 C :   -0.224402
   8 N :    0.205319
   9 N :    0.246405
  10 H :   -0.104771
  11 H :   -0.002349
  12 H :   -0.051544
  13 H :   -0.002886
  14 H :   -0.021589
  15 O :   -0.432790
  16 O :   -0.426706
  17 F :   -0.265856
  18 H :    0.018826
  19 H :    0.030689
  20 H :   -0.008912
  21 H :    0.016088

  Mayer bond orders larger than 0.100000
B(  0-C ,  1-C ) :   1.0646 B(  0-C ,  2-C ) :   1.0978 B(  0-C ,  3-C ) :   0.1094
B(  0-C ,  7-C ) :   0.1259 B(  0-C , 12-H ) :   0.2859 B(  0-C , 18-H ) :   0.2051
B(  0-C , 19-H ) :   0.2029 B(  0-C , 20-H ) :   0.6115 B(  0-C , 21-H ) :   0.5904
B(  1-C ,  2-C ) :   0.1699 B(  1-C ,  7-C ) :   1.4649 B(  1-C ,  8-N ) :   0.4382
B(  1-C ,  9-N ) :   0.2600 B(  1-C , 10-H ) :  -0.1396 B(  1-C , 12-H ) :   0.6435
B(  1-C , 20-H ) :   0.3882 B(  1-C , 21-H ) :   0.1645 B(  2-C ,  3-C ) :   1.2427
B(  2-C ,  4-H ) :   0.1924 B(  2-C ,  5-H ) :   0.2135 B(  2-C , 18-H ) :   0.6988
B(  2-C , 19-H ) :   0.6124 B(  2-C , 20-H ) :   0.1983 B(  2-C , 21-H ) :   0.1463
B(  3-C ,  4-H ) :   0.8974 B(  3-C ,  5-H ) :   0.6158 B(  3-C ,  6-S ) :   0.9427
B(  3-C , 17-F ) :   0.1168 B(  3-C , 18-H ) :   0.2077 B(  3-C , 19-H ) :   0.1987
B(  5-H ,  6-S ) :   0.1471 B(  6-S , 15-O ) :   1.5568 B(  6-S , 16-O ) :   1.5527
B(  6-S , 17-F ) :   0.6614 B(  7-C ,  8-N ) :   0.8140 B(  7-C ,  9-N ) :   1.1106
B(  7-C , 10-H ) :  -0.1150 B(  7-C , 11-H ) :  -0.2121 B(  7-C , 12-H ) :   0.1455
B(  7-C , 13-H ) :  -0.1957 B(  7-C , 20-H ) :  -0.1930 B(  8-N ,  9-N ) :   0.1153
B(  8-N , 12-H ) :   0.1211 B(  8-N , 13-H ) :   1.2524 B(  8-N , 14-H ) :   1.1485
B(  9-N , 10-H ) :   1.0445 B(  9-N , 11-H ) :   1.1805 B( 10-H , 11-H ) :  -0.1919
B( 10-H , 17-F ) :   0.1282 B( 13-H , 14-H ) :  -0.1786 B( 15-O , 16-O ) :   0.1311
B( 18-H , 19-H ) :  -0.1303

Dispersion correction           -0.051332528
FINAL SINGLE POINT ENERGY      -954.394076962366

DIPOLE MOMENT
-------------
                                X             Y             Z
Electronic contribution:    -13.21973      -3.83947      -3.64170
Nuclear contribution   :     14.80811       3.53278       3.42836
                        -----------------------------------------
Total Dipole Moment    :      1.58838      -0.30669      -0.21335
                        -----------------------------------------
Magnitude (a.u.)       :      1.63173
Magnitude (Debye)      :      4.14752

Rotational constants in cm-1:     0.059173     0.020923     0.018056
Rotational constants in MHz :  1773.956621   627.264018   541.303397

                             ****ORCA TERMINATED NORMALLY****
TOTAL RUN TIME: 0 days 0 hours 0 minutes 25 seconds 402 msec
