                         Program Version 5.0.0 -  RELEASE  -
|  1> !B3LYP D3BJ RIJCOSX def2-SVPD def2/J TightSCF
|  2> *xyz -1 1
|  3> C          4.26524        2.50052       -0.79589
|  4> C          4.98224        1.65026        0.24742
|  5> O          4.36806        1.38927        1.31371
|  6> O          6.12892        1.23351       -0.04562
|  7> H          4.90412        2.63966       -1.64287
|  8> H          4.02079        3.45265       -0.37328
|  9> H          3.36773        2.00584       -1.10356
| 10> *
| 11> %MaxCore 64000
| 12> %pal nprocs 8
| 13> end
| 14> %scf
| 15>   MaxIter 150
| 16> end
| 17>
| 18>
| 19>                          ****END OF INPUT****

CARTESIAN COORDINATES (ANGSTROEM)
---------------------------------
  C      4.265240    2.500520   -0.795890
  C      4.982240    1.650260    0.247420
  O      4.368060    1.389270    1.313710
  O      6.128920    1.233510   -0.045620
  H      4.904120    2.639660   -1.642870
  H      4.020790    3.452650   -0.373280
  H      3.367730    2.005840   -1.103560

 Total Charge           Charge          ....   -1
 Multiplicity           Mult            ....    1
 Number of Electrons    NEL             ....   32
 Basis Dimension        Dim             ....  110

ORBITAL ENERGIES
----------------

  NO   OCC          E(Eh)            E(eV)
   0   2.0000     -18.874718      -513.6072
   1   2.0000     -18.873626      -513.5775
   2   2.0000     -10.067783      -273.9583
   3   2.0000      -9.996348      -272.0145
   4   2.0000      -0.808126       -21.9902
   5   2.0000      -0.715290       -19.4640
   6   2.0000      -0.537874       -14.6363
   7   2.0000      -0.300842        -8.1863
   8   2.0000      -0.260282        -7.0826
   9   2.0000      -0.245645        -6.6843
  10   2.0000      -0.223865        -6.0917
  11   2.0000      -0.184672        -5.0252
  12   2.0000      -0.165371        -4.5000
  13   2.0000      -0.048267        -1.3134
  14   2.0000      -0.042483        -1.1560
  15   2.0000      -0.025939        -0.7058
  16   0.0000       0.170626         4.6430
  17   0.0000       0.213785         5.8174
  18   0.0000       0.221749         6.0341
  19   0.0000       0.240378         6.5410
  20   0.0000       0.263988         7.1835

MULLIKEN ATOMIC CHARGES
-----------------------
   0 C :    0.700629
   1 C :    0.029310
   2 O :   -0.666556
   3 O :   -0.638684
   4 H :   -0.160379
   5 H :   -0.131801
   6 H :   -0.132520
Sum of atomic charges:   -1.0000000

LOEWDIN ATOMIC CHARGES
----------------------
   0 C :    0.151009
   1 C :   -0.339587
   2 O :   -0.343033
   3 O :   -0.338356
   4 H :   -0.047980
   5 H :   -0.041667
   6 H :   -0.040385

  Mayer bond orders larger than 0.100000
B(  0-C ,  1-C ) :   1.1960 B(  0-C ,  4-H ) :   0.8290 B(  0-C ,  5-H ) :   0.7749
B(  0-C ,  6-H ) :   0.7803 B(  1-C ,  2-O ) :   1.4986 B(  1-C ,  3-O ) :   1.4908
B(  1-C ,  4-H ) :   0.2835 B(  1-C ,  5-H ) :   0.1968 B(  1-C ,  6-H ) :   0.1918

Dispersion correction           -0.006234382
FINAL SINGLE POINT ENERGY      -228.262532315854

DIPOLE MOMENT
-------------
                                X             Y             Z
Electronic contribution:      1.69743      -2.01036       2.44122
Nuclear contribution   :     -2.34880       2.82033      -3.41655
                        -----------------------------------------
Total Dipole Moment    :     -0.65137       0.80997      -0.97534
                        -----------------------------------------
Magnitude (a.u.)       :      1.42535
Magnitude (Debye)      :      3.62294

Rotational constants in cm-1:     0.393413     0.334516     0.186969
Rotational constants in MHz : 11794.232386 10028.538646  5605.197050

                             ****ORCA TERMINATED NORMALLY****
TOTAL RUN TIME: 0 days 0 hours 0 minutes 5 seconds 257 msec
