                         Program Version 5.0.0 -  RELEASE  -
|  1> !B3LYP D3BJ RIJCOSX def2-SVPD def2/J TightSCF
|  2> *xyz 1 1
|  3> C          3.91385       -1.65829        3.01513
|  4> N          5.03927       -0.90115        2.49282
|  5> C          6.21038       -1.41726        2.17824
|  6> N          6.53591       -2.67712        2.55608
|  7> N          7.07675       -0.70082        1.47891
|  8> H          7.95464       -1.12155        1.20755
|  9> H          6.75616        0.10664        0.96028
| 10> H          4.84217        0.01761        2.11519
| 11> H          5.99388       -3.12692        3.28278
| 12> H          7.49844       -2.97548        2.46878
| 13> H          3.08844       -0.99893        3.18495
| 14> H          4.19412       -2.12366        3.93697
| 15> H          3.63051       -2.40965        2.30798
| 16> *
| 17> %MaxCore 64000
| 18> %pal nprocs 8
| 19> end
| 20> %scf
| 21>   MaxIter 150
| 22> end
| 23>
| 24>
| 25>                          ****END OF INPUT****

CARTESIAN COORDINATES (ANGSTROEM)
---------------------------------
  C      3.913850   -1.658290    3.015130
  N      5.039270   -0.901150    2.492820
  C      6.210380   -1.417260    2.178240
  N      6.535910   -2.677120    2.556080
  N      7.076750   -0.700820    1.478910
  H      7.954640   -1.121550    1.207550
  H      6.756160    0.106640    0.960280
  H      4.842170    0.017610    2.115190
  H      5.993880   -3.126920    3.282780
  H      7.498440   -2.975480    2.468780
  H      3.088440   -0.998930    3.184950
  H      4.194120   -2.123660    3.936970
  H      3.630510   -2.409650    2.307980

 Total Charge           Charge          ....    1
 Multiplicity           Mult            ....    1
 Number of Electrons    NEL             ....   40
 Basis Dimension        Dim             ....  164

ORBITAL ENERGIES
----------------

  NO   OCC          E(Eh)            E(eV)
   0   2.0000     -14.562072      -396.2541
   1   2.0000     -14.558462      -396.1559
   2   2.0000     -14.557613      -396.1328
   3   2.0000     -10.523383      -286.3558
   4   2.0000     -10.391147      -282.7575
   5   2.0000      -1.213188       -33.0125
   6   2.0000      -1.104112       -30.0444
   7   2.0000      -1.087888       -29.6030
   8   2.0000      -0.906473       -24.6664
   9   2.0000      -0.828801       -22.5528
  10   2.0000      -0.791568       -21.5397
  11   2.0000      -0.758588       -20.6422
  12   2.0000      -0.698650       -19.0112
  13   2.0000      -0.693340       -18.8667
  14   2.0000      -0.657162       -17.8823
  15   2.0000      -0.649637       -17.6775
  16   2.0000      -0.594931       -16.1889
  17   2.0000      -0.582765       -15.8578
  18   2.0000      -0.484636       -13.1876
  19   2.0000      -0.462214       -12.5775
  20   0.0000      -0.178342        -4.8529
  21   0.0000      -0.161246        -4.3877
  22   0.0000      -0.123234        -3.3534
  23   0.0000      -0.119464        -3.2508
  24   0.0000      -0.094701        -2.5769

MULLIKEN ATOMIC CHARGES
-----------------------
   0 C :    1.300310
   1 N :   -0.435359
   2 C :    1.188839
   3 N :    0.056783
   4 N :    0.078717
   5 H :   -0.072817
   6 H :   -0.079425
   7 H :   -0.248136
   8 H :   -0.084477
   9 H :   -0.127367
  10 H :   -0.391043
  11 H :   -0.108227
  12 H :   -0.077798
Sum of atomic charges:    1.0000000

LOEWDIN ATOMIC CHARGES
----------------------
   0 C :    0.260269
   1 N :    0.022829
   2 C :   -0.042315
   3 N :    0.287656
   4 N :    0.268386
   5 H :    0.038152
   6 H :    0.040043
   7 H :    0.057715
   8 H :    0.016402
   9 H :    0.033735
  10 H :    0.012106
  11 H :   -0.003048
  12 H :    0.008069

  Mayer bond orders larger than 0.100000
B(  0-C ,  1-N ) :   0.9666 B(  0-C ,  7-H ) :  -0.1169 B(  0-C , 10-H ) :   0.7570
B(  0-C , 11-H ) :   0.7874 B(  0-C , 12-H ) :   0.7963 B(  1-N ,  2-C ) :   1.0756
B(  1-N ,  3-N ) :   0.2250 B(  1-N ,  4-N ) :   0.2218 B(  1-N ,  7-H ) :   1.2706
B(  1-N , 10-H ) :   0.1933 B(  1-N , 11-H ) :   0.1693 B(  1-N , 12-H ) :   0.1401
B(  2-C ,  3-N ) :   0.9739 B(  2-C ,  4-N ) :   0.9035 B(  2-C ,  5-H ) :  -0.1101
B(  2-C ,  6-H ) :  -0.1465 B(  2-C ,  7-H ) :  -0.2328 B(  2-C ,  8-H ) :  -0.1388
B(  2-C ,  9-H ) :  -0.1145 B(  3-N ,  4-N ) :   0.1440 B(  3-N ,  8-H ) :   1.1065
B(  3-N ,  9-H ) :   1.2041 B(  4-N ,  5-H ) :   1.1666 B(  4-N ,  6-H ) :   1.1821
B(  5-H ,  6-H ) :  -0.1602 B(  8-H ,  9-H ) :  -0.1727

Dispersion correction           -0.015019252
FINAL SINGLE POINT ENERGY      -244.789978714083

DIPOLE MOMENT
-------------
                                X             Y             Z
Electronic contribution:      2.42510       0.85079      -0.96162
Nuclear contribution   :     -2.01473      -0.74897       0.69347
                        -----------------------------------------
Total Dipole Moment    :      0.41037       0.10182      -0.26815
                        -----------------------------------------
Magnitude (a.u.)       :      0.50068
Magnitude (Debye)      :      1.27262

Rotational constants in cm-1:     0.313249     0.134439     0.096258
Rotational constants in MHz :  9390.961986  4030.377472  2885.728233

                             ****ORCA TERMINATED NORMALLY****
TOTAL RUN TIME: 0 days 0 hours 0 minutes 9 seconds 484 msec
