                         Program Version 5.0.0 -  RELEASE  -
|  1> !B3LYP D3BJ RIJCOSX def2-SVPD def2/J TightSCF
|  2> *xyz 0 1
|  3> C          4.26524        2.50052       -0.79589
|  4> C          4.98224        1.65026        0.24742
|  5> F          4.36806        1.38927        1.31371
|  6> O          6.12892        1.23351       -0.04562
|  7> H          4.90412        2.63966       -1.64287
|  8> H          4.02079        3.45265       -0.37328
|  9> H          3.36773        2.00584       -1.10356
| 10> *
| 11> %MaxCore 64000
| 12> %pal nprocs 8
| 13> end
| 14> %scf
| 15>   MaxIter 150
| 16> end
| 17>
| 18>
| 19>                          ****END OF INPUT****

CARTESIAN COORDINATES (ANGSTROEM)
---------------------------------
  C      4.265240    2.500520   -0.795890
  C      4.982240    1.650260    0.247420
  F      4.368060    1.389270    1.313710
  O      6.128920    1.233510   -0.045620
  H      4.904120    2.639660   -1.642870
  H      4.020790    3.452650   -0.373280
  H      3.367730    2.005840   -1.103560

 Total Charge           Charge          ....    0
 Multiplicity           Mult            ....    1
 Number of Electrons    NEL             ....   32
 Basis Dimension        Dim             ....  110

ORBITAL ENERGIES
----------------

  NO   OCC          E(Eh)            E(eV)
   0   2.0000     -24.772216      -674.0863
   1   2.0000     -19.152054      -521.1539
   2   2.0000     -10.372505      -282.2502
   3   2.0000     -10.213306      -277.9182
   4   2.0000      -1.309332       -35.6287
   5   2.0000      -1.029719       -28.0201
   6   2.0000      -0.769752       -20.9460
   7   2.0000      -0.661848       -18.0098
   8   2.0000      -0.554662       -15.0931
   9   2.0000      -0.549304       -14.9473
  10   2.0000      -0.505569       -13.7572
  11   2.0000      -0.449088       -12.2203
  12   2.0000      -0.437318       -11.9000
  13   2.0000      -0.408793       -11.1238
  14   2.0000      -0.362349        -9.8600
  15   2.0000      -0.299097        -8.1388
  16   0.0000      -0.035771        -0.9734
  17   0.0000       0.009491         0.2583
  18   0.0000       0.056130         1.5274
  19   0.0000       0.081652         2.2219
  20   0.0000       0.089907         2.4465

MULLIKEN ATOMIC CHARGES
-----------------------
   0 C :    0.645984
   1 C :    0.398118
   2 F :   -0.364965
   3 O :   -0.435471
   4 H :   -0.134129
   5 H :   -0.055831
   6 H :   -0.053706
Sum of atomic charges:    0.0000000

LOEWDIN ATOMIC CHARGES
----------------------
   0 C :    0.223146
   1 C :   -0.039157
   2 F :   -0.036322
   3 O :   -0.135701
   4 H :   -0.003151
   5 H :   -0.005130
   6 H :   -0.003684

  Mayer bond orders larger than 0.100000
B(  0-C ,  1-C ) :   1.2213 B(  0-C ,  4-H ) :   0.8492 B(  0-C ,  5-H ) :   0.7723
B(  0-C ,  6-H ) :   0.7758 B(  1-C ,  2-F ) :   0.7722 B(  1-C ,  3-O ) :   1.8467
B(  1-C ,  4-H ) :   0.2437 B(  1-C ,  5-H ) :   0.1515 B(  1-C ,  6-H ) :   0.1483

Dispersion correction           -0.005736074
FINAL SINGLE POINT ENERGY      -252.795178184081

DIPOLE MOMENT
-------------
                                X             Y             Z
Electronic contribution:      0.77114      -2.51396       4.31245
Nuclear contribution   :     -1.76261       3.13449      -4.58927
                        -----------------------------------------
Total Dipole Moment    :     -0.99147       0.62053      -0.27683
                        -----------------------------------------
Magnitude (a.u.)       :      1.20196
Magnitude (Debye)      :      3.05513

Rotational constants in cm-1:     0.370628     0.320375     0.177409
Rotational constants in MHz : 11111.155899  9604.607061  5318.597912

                             ****ORCA TERMINATED NORMALLY****
TOTAL RUN TIME: 0 days 0 hours 0 minutes 5 seconds 20 msec
