                         Program Version 5.0.0 -  RELEASE  -
|  1> !B3LYP D3BJ RIJCOSX def2-SVPD def2/J TightSCF
|  2> *xyz 0 1
|  3> C          3.91385       -1.65829        3.01513
|  4> C          5.03927       -0.90115        2.49282
|  5> C          6.21038       -1.41726        2.17824
|  6> N          6.53591       -2.67712        2.55608
|  7> N          7.07675       -0.70082        1.47891
|  8> H          7.95464       -1.12155        1.20755
|  9> H          6.75616        0.10664        0.96028
| 10> H          4.84217        0.01761        2.11519
| 11> H          5.99388       -3.12692        3.28278
| 12> H          7.49844       -2.97548        2.46878
| 13> H          3.08844       -0.99893        3.18495
| 14> H          4.19412       -2.12366        3.93697
| 15> H          3.63051       -2.40965        2.30798
| 16> *
| 17> %MaxCore 64000
| 18> %pal nprocs 8
| 19> end
| 20> %scf
| 21>   MaxIter 150
| 22> end
| 23>
| 24>
| 25>                          ****END OF INPUT****

CARTESIAN COORDINATES (ANGSTROEM)
---------------------------------
  C      3.913850   -1.658290    3.015130
  C      5.039270   -0.901150    2.492820
  C      6.210380   -1.417260    2.178240
  N      6.535910   -2.677120    2.556080
  N      7.076750   -0.700820    1.478910
  H      7.954640   -1.121550    1.207550
  H      6.756160    0.106640    0.960280
  H      4.842170    0.017610    2.115190
  H      5.993880   -3.126920    3.282780
  H      7.498440   -2.975480    2.468780
  H      3.088440   -0.998930    3.184950
  H      4.194120   -2.123660    3.936970
  H      3.630510   -2.409650    2.307980

 Total Charge           Charge          ....    0
 Multiplicity           Mult            ....    1
 Number of Electrons    NEL             ....   40
 Basis Dimension        Dim             ....  164

ORBITAL ENERGIES
----------------

  NO   OCC          E(Eh)            E(eV)
   0   2.0000     -14.331780      -389.9876
   1   2.0000     -14.327746      -389.8778
   2   2.0000     -10.221775      -278.1486
   3   2.0000     -10.147367      -276.1239
   4   2.0000     -10.105212      -274.9768
   5   2.0000      -0.950033       -25.8517
   6   2.0000      -0.860528       -23.4162
   7   2.0000      -0.746687       -20.3184
   8   2.0000      -0.651600       -17.7309
   9   2.0000      -0.581429       -15.8215
  10   2.0000      -0.538867       -14.6633
  11   2.0000      -0.508157       -13.8277
  12   2.0000      -0.473498       -12.8845
  13   2.0000      -0.425857       -11.5881
  14   2.0000      -0.410165       -11.1612
  15   2.0000      -0.374312       -10.1856
  16   2.0000      -0.360902        -9.8206
  17   2.0000      -0.340307        -9.2602
  18   2.0000      -0.266400        -7.2491
  19   2.0000      -0.159714        -4.3460
  20   0.0000       0.012433         0.3383
  21   0.0000       0.040316         1.0971
  22   0.0000       0.052771         1.4360
  23   0.0000       0.071861         1.9554
  24   0.0000       0.080706         2.1961

MULLIKEN ATOMIC CHARGES
-----------------------
   0 C :    1.054428
   1 C :   -0.613205
   2 C :    0.811789
   3 N :    0.059303
   4 N :    0.164863
   5 H :   -0.199844
   6 H :   -0.098223
   7 H :   -0.400899
   8 H :   -0.091721
   9 H :   -0.280808
  10 H :   -0.186732
  11 H :   -0.087385
  12 H :   -0.131565
Sum of atomic charges:   -0.0000000

LOEWDIN ATOMIC CHARGES
----------------------
   0 C :    0.090763
   1 C :   -0.064279
   2 C :   -0.232712
   3 N :    0.207795
   4 N :    0.179802
   5 H :   -0.014415
   6 H :    0.004265
   7 H :   -0.057298
   8 H :   -0.016153
   9 H :   -0.017678
  10 H :   -0.021935
  11 H :   -0.034792
  12 H :   -0.023363

  Mayer bond orders larger than 0.100000
B(  0-C ,  1-C ) :   1.1669 B(  0-C ,  7-H ) :   0.2247 B(  0-C , 10-H ) :   0.6934
B(  0-C , 11-H ) :   0.6433 B(  0-C , 12-H ) :   0.6891 B(  1-C ,  2-C ) :   1.4903
B(  1-C ,  3-N ) :   0.2798 B(  1-C ,  4-N ) :   0.3269 B(  1-C ,  7-H ) :   0.9751
B(  1-C , 10-H ) :   0.3244 B(  1-C , 11-H ) :   0.3324 B(  1-C , 12-H ) :   0.2026
B(  2-C ,  3-N ) :   0.9171 B(  2-C ,  4-N ) :   0.8904 B(  2-C ,  6-H ) :  -0.1020
B(  2-C ,  7-H ) :   0.1482 B(  2-C ,  9-H ) :  -0.1332 B(  3-N ,  8-H ) :   1.0679
B(  3-N ,  9-H ) :   1.2682 B(  4-N ,  5-H ) :   1.1259 B(  4-N ,  6-H ) :   1.1688
B(  5-H ,  6-H ) :  -0.1533 B(  7-H , 10-H ) :  -0.1109 B(  8-H ,  9-H ) :  -0.1628
B( 10-H , 11-H ) :   0.1080

Dispersion correction           -0.015804248
FINAL SINGLE POINT ENERGY      -228.325075692803

DIPOLE MOMENT
-------------
                                X             Y             Z
Electronic contribution:      2.97006       0.37046      -1.01342
Nuclear contribution   :     -2.16157      -0.63191       0.72436
                        -----------------------------------------
Total Dipole Moment    :      0.80849      -0.26144      -0.28906
                        -----------------------------------------
Magnitude (a.u.)       :      0.89754
Magnitude (Debye)      :      2.28135

Rotational constants in cm-1:     0.318470     0.135474     0.097247
Rotational constants in MHz :  9547.495553  4061.405016  2915.385882

                             ****ORCA TERMINATED NORMALLY****
TOTAL RUN TIME: 0 days 0 hours 0 minutes 10 seconds 967 msec
