                         Program Version 5.0.0 -  RELEASE  -
|  1> !B3LYP D3BJ RIJCOSX def2-SVPD def2/J TightSCF
|  2> *xyz 0 1
|  3> C          4.26524        2.50052       -0.79589
|  4> C          4.98224        1.65026        0.24742
|  5> O          4.36806        1.38927        1.31371
|  6> F          6.12892        1.23351       -0.04562
|  7> H          4.90412        2.63966       -1.64287
|  8> H          4.02079        3.45265       -0.37328
|  9> H          3.36773        2.00584       -1.10356
| 10> *
| 11> %MaxCore 64000
| 12> %pal nprocs 8
| 13> end
| 14> %scf
| 15>   MaxIter 150
| 16> end
| 17>
| 18>
| 19>                          ****END OF INPUT****

CARTESIAN COORDINATES (ANGSTROEM)
---------------------------------
  C      4.265240    2.500520   -0.795890
  C      4.982240    1.650260    0.247420
  O      4.368060    1.389270    1.313710
  F      6.128920    1.233510   -0.045620
  H      4.904120    2.639660   -1.642870
  H      4.020790    3.452650   -0.373280
  H      3.367730    2.005840   -1.103560

 Total Charge           Charge          ....    0
 Multiplicity           Mult            ....    1
 Number of Electrons    NEL             ....   32
 Basis Dimension        Dim             ....  110

ORBITAL ENERGIES
----------------

  NO   OCC          E(Eh)            E(eV)
   0   2.0000     -24.772761      -674.1011
   1   2.0000     -19.151864      -521.1487
   2   2.0000     -10.373105      -282.2665
   3   2.0000     -10.213580      -277.9257
   4   2.0000      -1.311577       -35.6898
   5   2.0000      -1.027591       -27.9622
   6   2.0000      -0.770329       -20.9617
   7   2.0000      -0.663031       -18.0420
   8   2.0000      -0.555353       -15.1119
   9   2.0000      -0.550707       -14.9855
  10   2.0000      -0.505977       -13.7683
  11   2.0000      -0.450028       -12.2459
  12   2.0000      -0.436669       -11.8824
  13   2.0000      -0.408470       -11.1150
  14   2.0000      -0.358602        -9.7581
  15   2.0000      -0.300614        -8.1801
  16   0.0000      -0.039228        -1.0675
  17   0.0000       0.009348         0.2544
  18   0.0000       0.056222         1.5299
  19   0.0000       0.084166         2.2903
  20   0.0000       0.085734         2.3329

MULLIKEN ATOMIC CHARGES
-----------------------
   0 C :    0.630070
   1 C :    0.383949
   2 O :   -0.458397
   3 F :   -0.338447
   4 H :   -0.115652
   5 H :   -0.052064
   6 H :   -0.049459
Sum of atomic charges:    0.0000000

LOEWDIN ATOMIC CHARGES
----------------------
   0 C :    0.223920
   1 C :   -0.037852
   2 O :   -0.137663
   3 F :   -0.036281
   4 H :   -0.016350
   5 H :    0.001761
   6 H :    0.002466

  Mayer bond orders larger than 0.100000
B(  0-C ,  1-C ) :   1.2406 B(  0-C ,  4-H ) :   0.8501 B(  0-C ,  5-H ) :   0.7687
B(  0-C ,  6-H ) :   0.7748 B(  1-C ,  2-O ) :   1.8212 B(  1-C ,  3-F ) :   0.8172
B(  1-C ,  4-H ) :   0.1795 B(  1-C ,  5-H ) :   0.1730 B(  1-C ,  6-H ) :   0.1659

Dispersion correction           -0.005736079
FINAL SINGLE POINT ENERGY      -252.794241833027

DIPOLE MOMENT
-------------
                                X             Y             Z
Electronic contribution:      3.63323      -2.76717       2.10384
Nuclear contribution   :     -3.58210       3.29544      -3.18468
                        -----------------------------------------
Total Dipole Moment    :      0.05113       0.52827      -1.08084
                        -----------------------------------------
Magnitude (a.u.)       :      1.20411
Magnitude (Debye)      :      3.06061

Rotational constants in cm-1:     0.368075     0.322590     0.177495
Rotational constants in MHz : 11034.605942  9670.991558  5321.154504

                             ****ORCA TERMINATED NORMALLY****
TOTAL RUN TIME: 0 days 0 hours 0 minutes 5 seconds 1 msec
