                         Program Version 5.0.0 -  RELEASE  -
|  1> !B3LYP D3BJ RIJCOSX def2-SVPD def2/J TightSCF
|  2> *xyz 0 1
|  3> C          3.91385       -1.65829        3.01513
|  4> N          5.03927       -0.90115        2.49282
|  5> C          6.21038       -1.41726        2.17824
|  6> C          6.53591       -2.67712        2.55608
|  7> N          7.07675       -0.70082        1.47891
|  8> H          7.95464       -1.12155        1.20755
|  9> H          6.75616        0.10664        0.96028
| 10> H          4.84217        0.01761        2.11519
| 11> H          5.99388       -3.12692        3.28278
| 12> H          7.49844       -2.97548        2.46878
| 13> H          3.08844       -0.99893        3.18495
| 14> H          4.19412       -2.12366        3.93697
| 15> H          3.63051       -2.40965        2.30798
| 16> *
| 17> %MaxCore 64000
| 18> %pal nprocs 8
| 19> end
| 20> %scf
| 21>   MaxIter 150
| 22> end
| 23>
| 24>
| 25>                          ****END OF INPUT****

CARTESIAN COORDINATES (ANGSTROEM)
---------------------------------
  C      3.913850   -1.658290    3.015130
  N      5.039270   -0.901150    2.492820
  C      6.210380   -1.417260    2.178240
  C      6.535910   -2.677120    2.556080
  N      7.076750   -0.700820    1.478910
  H      7.954640   -1.121550    1.207550
  H      6.756160    0.106640    0.960280
  H      4.842170    0.017610    2.115190
  H      5.993880   -3.126920    3.282780
  H      7.498440   -2.975480    2.468780
  H      3.088440   -0.998930    3.184950
  H      4.194120   -2.123660    3.936970
  H      3.630510   -2.409650    2.307980

 Total Charge           Charge          ....    0
 Multiplicity           Mult            ....    1
 Number of Electrons    NEL             ....   40
 Basis Dimension        Dim             ....  164

ORBITAL ENERGIES
----------------

  NO   OCC          E(Eh)            E(eV)
   0   2.0000     -14.336102      -390.1052
   1   2.0000     -14.332031      -389.9944
   2   2.0000     -10.229922      -278.3703
   3   2.0000     -10.208665      -277.7919
   4   2.0000     -10.097117      -274.7565
   5   2.0000      -0.964268       -26.2391
   6   2.0000      -0.879455       -23.9312
   7   2.0000      -0.713617       -19.4185
   8   2.0000      -0.690296       -18.7839
   9   2.0000      -0.569302       -15.4915
  10   2.0000      -0.551649       -15.0111
  11   2.0000      -0.520481       -14.1630
  12   2.0000      -0.452150       -12.3036
  13   2.0000      -0.448873       -12.2144
  14   2.0000      -0.416406       -11.3310
  15   2.0000      -0.385996       -10.5035
  16   2.0000      -0.372275       -10.1301
  17   2.0000      -0.364391        -9.9156
  18   2.0000      -0.252801        -6.8791
  19   2.0000      -0.166173        -4.5218
  20   0.0000       0.011695         0.3182
  21   0.0000       0.035303         0.9607
  22   0.0000       0.050656         1.3784
  23   0.0000       0.070226         1.9109
  24   0.0000       0.081778         2.2253

MULLIKEN ATOMIC CHARGES
-----------------------
   0 C :    1.294120
   1 N :   -0.393608
   2 C :    0.557821
   3 C :    0.579464
   4 N :    0.129887
   5 H :   -0.079778
   6 H :   -0.205583
   7 H :   -0.400920
   8 H :   -0.227148
   9 H :   -0.648329
  10 H :   -0.479918
  11 H :   -0.022762
  12 H :   -0.103244
Sum of atomic charges:   -0.0000000

LOEWDIN ATOMIC CHARGES
----------------------
   0 C :    0.212583
   1 N :   -0.045201
   2 C :   -0.245462
   3 C :    0.167039
   4 N :    0.185735
   5 H :    0.005749
   6 H :   -0.010941
   7 H :    0.015455
   8 H :   -0.123900
   9 H :   -0.112709
  10 H :   -0.016471
  11 H :   -0.018715
  12 H :   -0.013159

  Mayer bond orders larger than 0.100000
B(  0-C ,  1-N ) :   0.9581 B(  0-C ,  7-H ) :  -0.1344 B(  0-C , 10-H ) :   0.7647
B(  0-C , 11-H ) :   0.7870 B(  0-C , 12-H ) :   0.7929 B(  1-N ,  2-C ) :   1.0533
B(  1-N ,  3-C ) :   0.3539 B(  1-N ,  4-N ) :   0.1331 B(  1-N ,  7-H ) :   1.3351
B(  1-N , 10-H ) :   0.1799 B(  1-N , 11-H ) :   0.1216 B(  1-N , 12-H ) :   0.1643
B(  2-C ,  3-C ) :   1.6644 B(  2-C ,  4-N ) :   0.9187 B(  2-C ,  7-H ) :  -0.2386
B(  2-C ,  8-H ) :   0.2909 B(  2-C ,  9-H ) :   0.2045 B(  3-C ,  4-N ) :   0.2396
B(  3-C ,  8-H ) :   0.6891 B(  3-C ,  9-H ) :   0.7319 B(  4-N ,  5-H ) :   1.1409
B(  4-N ,  6-H ) :   1.1997 B(  5-H ,  6-H ) :  -0.1542 B(  8-H ,  9-H ) :   0.1013

Dispersion correction           -0.015759640
FINAL SINGLE POINT ENERGY      -228.315625108838

DIPOLE MOMENT
-------------
                                X             Y             Z
Electronic contribution:      1.48724       1.99314      -1.15013
Nuclear contribution   :     -1.85843      -0.99162       0.73717
                        -----------------------------------------
Total Dipole Moment    :     -0.37119       1.00152      -0.41295
                        -----------------------------------------
Magnitude (a.u.)       :      1.14515
Magnitude (Debye)      :      2.91073

Rotational constants in cm-1:     0.336495     0.135025     0.098658
Rotational constants in MHz : 10087.870488  4047.943278  2957.678786

                             ****ORCA TERMINATED NORMALLY****
TOTAL RUN TIME: 0 days 0 hours 0 minutes 10 seconds 261 msec
