                         Program Version 5.0.0 -  RELEASE  -
|  1> !B3LYP D3BJ RIJCOSX def2-SVPD def2/J TightSCF
|  2> *xyz 0 1
|  3> C          3.91385       -1.65829        3.01513
|  4> N          5.03927       -0.90115        2.49282
|  5> C          6.21038       -1.41726        2.17824
|  6> N          6.53591       -2.67712        2.55608
|  7> C          7.07675       -0.70082        1.47891
|  8> H          7.95464       -1.12155        1.20755
|  9> H          6.75616        0.10664        0.96028
| 10> H          4.84217        0.01761        2.11519
| 11> H          5.99388       -3.12692        3.28278
| 12> H          7.49844       -2.97548        2.46878
| 13> H          3.08844       -0.99893        3.18495
| 14> H          4.19412       -2.12366        3.93697
| 15> H          3.63051       -2.40965        2.30798
| 16> *
| 17> %MaxCore 64000
| 18> %pal nprocs 8
| 19> end
| 20> %scf
| 21>   MaxIter 150
| 22> end
| 23>
| 24>
| 25>                          ****END OF INPUT****

CARTESIAN COORDINATES (ANGSTROEM)
---------------------------------
  C      3.913850   -1.658290    3.015130
  N      5.039270   -0.901150    2.492820
  C      6.210380   -1.417260    2.178240
  N      6.535910   -2.677120    2.556080
  C      7.076750   -0.700820    1.478910
  H      7.954640   -1.121550    1.207550
  H      6.756160    0.106640    0.960280
  H      4.842170    0.017610    2.115190
  H      5.993880   -3.126920    3.282780
  H      7.498440   -2.975480    2.468780
  H      3.088440   -0.998930    3.184950
  H      4.194120   -2.123660    3.936970
  H      3.630510   -2.409650    2.307980

 Total Charge           Charge          ....    0
 Multiplicity           Mult            ....    1
 Number of Electrons    NEL             ....   40
 Basis Dimension        Dim             ....  164

ORBITAL ENERGIES
----------------

  NO   OCC          E(Eh)            E(eV)
   0   2.0000     -14.331328      -389.9753
   1   2.0000     -14.330726      -389.9589
   2   2.0000     -10.227221      -278.2968
   3   2.0000     -10.216591      -278.0076
   4   2.0000     -10.093595      -274.6607
   5   2.0000      -0.959086       -26.0980
   6   2.0000      -0.872780       -23.7495
   7   2.0000      -0.739040       -20.1103
   8   2.0000      -0.662427       -18.0255
   9   2.0000      -0.599421       -16.3111
  10   2.0000      -0.533411       -14.5149
  11   2.0000      -0.493004       -13.4153
  12   2.0000      -0.476558       -12.9678
  13   2.0000      -0.457041       -12.4367
  14   2.0000      -0.408341       -11.1115
  15   2.0000      -0.393383       -10.7045
  16   2.0000      -0.380032       -10.3412
  17   2.0000      -0.359892        -9.7932
  18   2.0000      -0.258058        -7.0221
  19   2.0000      -0.162639        -4.4256
  20   0.0000       0.010181         0.2770
  21   0.0000       0.044764         1.2181
  22   0.0000       0.046097         1.2544
  23   0.0000       0.067953         1.8491
  24   0.0000       0.081022         2.2047

MULLIKEN ATOMIC CHARGES
-----------------------
   0 C :    1.312292
   1 N :   -0.393531
   2 C :    0.738022
   3 N :    0.114175
   4 C :    0.447495
   5 H :   -0.446754
   6 H :   -0.405822
   7 H :   -0.301344
   8 H :   -0.203228
   9 H :   -0.131618
  10 H :   -0.446305
  11 H :   -0.169048
  12 H :   -0.114334
Sum of atomic charges:    0.0000000

LOEWDIN ATOMIC CHARGES
----------------------
   0 C :    0.206259
   1 N :   -0.040489
   2 C :   -0.238887
   3 N :    0.205036
   4 C :    0.141600
   5 H :   -0.107625
   6 H :   -0.105834
   7 H :    0.030331
   8 H :   -0.030074
   9 H :    0.001074
  10 H :   -0.014780
  11 H :   -0.027442
  12 H :   -0.019169

  Mayer bond orders larger than 0.100000
B(  0-C ,  1-N ) :   0.9653 B(  0-C ,  7-H ) :  -0.1244 B(  0-C , 10-H ) :   0.7331
B(  0-C , 11-H ) :   0.7808 B(  0-C , 12-H ) :   0.7937 B(  1-N ,  2-C ) :   1.0724
B(  1-N ,  3-N ) :   0.1561 B(  1-N ,  4-C ) :   0.2336 B(  1-N ,  7-H ) :   1.2374
B(  1-N , 10-H ) :   0.1908 B(  1-N , 11-H ) :   0.1921 B(  1-N , 12-H ) :   0.1573
B(  2-C ,  3-N ) :   0.9198 B(  2-C ,  4-C ) :   1.4236 B(  2-C ,  5-H ) :   0.1829
B(  2-C ,  6-H ) :   0.1188 B(  2-C ,  7-H ) :  -0.1782 B(  3-N ,  4-C ) :   0.2182
B(  3-N ,  8-H ) :   1.1030 B(  3-N ,  9-H ) :   1.1718 B(  4-C ,  5-H ) :   0.7309
B(  4-C ,  6-H ) :   0.8065 B(  5-H ,  6-H ) :   0.1091 B(  8-H ,  9-H ) :  -0.1706

Dispersion correction           -0.015669909
FINAL SINGLE POINT ENERGY      -228.313543813114

DIPOLE MOMENT
-------------
                                X             Y             Z
Electronic contribution:      0.95769       0.11088       0.01597
Nuclear contribution   :     -1.74889      -0.59133       0.51900
                        -----------------------------------------
Total Dipole Moment    :     -0.79120      -0.48045       0.53497
                        -----------------------------------------
Magnitude (a.u.)       :      1.06912
Magnitude (Debye)      :      2.71748

Rotational constants in cm-1:     0.319878     0.140238     0.099847
Rotational constants in MHz :  9589.703832  4204.215525  2993.343846

                             ****ORCA TERMINATED NORMALLY****
TOTAL RUN TIME: 0 days 0 hours 0 minutes 9 seconds 306 msec
