                         Program Version 5.0.0 -  RELEASE  -
|  1> !B3LYP D3BJ RIJCOSX def2-SVPD def2/J TightSCF xyzfile
|  2>
|  3> *xyzfile 0 1 D1.xyz
|  4>
|  5> %MaxCore 64000
|  6>
|  7> %pal nprocs 4
|  8> end
|  9>
| 10> %scf
| 11>   MaxIter 150
| 12> end
| 13>
| 14>
| 15>                          ****END OF INPUT****

CARTESIAN COORDINATES (ANGSTROEM)
---------------------------------
  C      3.913853   -1.658291    3.015134
  C      5.039266   -0.901154    2.492821
  C      4.084215    1.742081   -2.114724
  C      4.265245    2.500518   -0.795890
  H      4.868534    3.392674   -0.981134
  H      3.307640    2.824571   -0.387809
  C      4.982240    1.650257    0.247422
  C      6.210384   -1.417261    2.178244
  N      6.535913   -2.677122    2.556078
  N      7.076754   -0.700820    1.478906
  H      7.954643   -1.121554    1.207554
  H      6.756161    0.106637    0.960278
  H      4.842168    0.017609    2.115191
  H      5.993876   -3.126918    3.282784
  H      7.498441   -2.975482    2.468776
  F      4.368065    1.389270    1.313706
  O      6.128919    1.233512   -0.045620
  C      3.139159   -2.376572    1.910609
  H      3.267235   -0.939401    3.520693
  H      4.247195   -2.355095    3.790065
  C      1.997274    0.430918   -1.399218
  C      3.412746    0.376886   -1.965497
  H      4.047407   -0.246590   -1.326706
  H      3.390774   -0.118719   -2.942839
  H      5.068475    1.598504   -2.565728
  H      3.503356    2.363939   -2.804565
  C      2.399946   -1.389579    1.009490
  H      2.440750   -3.087118    2.362976
  H      3.844475   -2.970462    1.318677
  C      2.070177   -1.936705   -0.372401
  H      1.481611   -1.061542    1.509912
  H      3.008628   -0.490001    0.897451
  C      1.322238   -0.935775   -1.256413
  H      1.472747   -2.850902   -0.283997
  H      3.003539   -2.234041   -0.862535
  H      1.376444    1.058920   -2.047420
  H      2.015341    0.929780   -0.426535
  H      0.316648   -0.787213   -0.848278
  H      1.185611   -1.379252   -2.248613

 Total Charge           Charge          ....    0
 Multiplicity           Mult            ....    1
 Number of Electrons    NEL             ....  126
 Basis Dimension        Dim             ....  510

ORBITAL ENERGIES
----------------

  NO   OCC          E(Eh)            E(eV)
   0   2.0000     -24.783484      -674.3929
   1   2.0000     -19.171154      -521.6736
   2   2.0000     -14.315306      -389.5393
   3   2.0000     -14.289366      -388.8334
   4   2.0000     -10.386465      -282.6301
   5   2.0000     -10.221686      -278.1462
   6   2.0000     -10.204974      -277.6915
   7   2.0000     -10.201704      -277.6025
   8   2.0000     -10.185785      -277.1693
   9   2.0000     -10.180491      -277.0252
  10   2.0000     -10.174098      -276.8513
  11   2.0000     -10.166366      -276.6409
  12   2.0000     -10.159692      -276.4593
  13   2.0000     -10.151291      -276.2307
  14   2.0000     -10.146344      -276.0961
  15   2.0000     -10.080864      -274.3143
  16   2.0000      -1.324537       -36.0425
  17   2.0000      -1.054445       -28.6929
  18   2.0000      -0.928445       -25.2643
  19   2.0000      -0.838296       -22.8112
  20   2.0000      -0.825669       -22.4676
  21   2.0000      -0.796508       -21.6741
  22   2.0000      -0.768084       -20.9006
  23   2.0000      -0.740325       -20.1453
  24   2.0000      -0.703207       -19.1352
  25   2.0000      -0.685165       -18.6443
  26   2.0000      -0.658365       -17.9150
  27   2.0000      -0.631298       -17.1785
  28   2.0000      -0.601212       -16.3598
  29   2.0000      -0.585000       -15.9187
  30   2.0000      -0.570245       -15.5171
  31   2.0000      -0.558404       -15.1949
  32   2.0000      -0.557118       -15.1599
  33   2.0000      -0.548506       -14.9256
  34   2.0000      -0.525083       -14.2882
  35   2.0000      -0.515749       -14.0342
  36   2.0000      -0.487965       -13.2782
  37   2.0000      -0.480896       -13.0858
  38   2.0000      -0.477358       -12.9896
  39   2.0000      -0.460544       -12.5320
  40   2.0000      -0.447723       -12.1832
  41   2.0000      -0.438213       -11.9244
  42   2.0000      -0.428610       -11.6631
  43   2.0000      -0.418859       -11.3977
  44   2.0000      -0.416159       -11.3243
  45   2.0000      -0.409316       -11.1381
  46   2.0000      -0.393395       -10.7048
  47   2.0000      -0.389167       -10.5898
  48   2.0000      -0.372434       -10.1344
  49   2.0000      -0.367658       -10.0045
  50   2.0000      -0.363096        -9.8803
  51   2.0000      -0.361125        -9.8267
  52   2.0000      -0.350360        -9.5338
  53   2.0000      -0.339560        -9.2399
  54   2.0000      -0.337402        -9.1812
  55   2.0000      -0.324441        -8.8285
  56   2.0000      -0.314102        -8.5471
  57   2.0000      -0.310038        -8.4366
  58   2.0000      -0.305656        -8.3173
  59   2.0000      -0.300921        -8.1885
  60   2.0000      -0.294567        -8.0156
  61   2.0000      -0.243658        -6.6303
  62   2.0000      -0.143683        -3.9098
  63   0.0000      -0.056462        -1.5364
  64   0.0000       0.012701         0.3456
  65   0.0000       0.026244         0.7141
  66   0.0000       0.029505         0.8029
  67   0.0000       0.032953         0.8967

MULLIKEN ATOMIC CHARGES
-----------------------
   0 C :    0.812406
   1 C :    0.359562
   2 C :    0.596441
   3 C :    0.448632
   4 H :   -0.205727
   5 H :    0.088997
   6 C :    0.491177
   7 C :    0.628040
   8 N :    0.103537
   9 N :    0.488135
  10 H :   -0.228812
  11 H :   -0.442210
  12 H :   -0.821572
  13 H :   -0.073345
  14 H :   -0.330320
  15 F :   -0.518465
  16 O :   -0.433991
  17 C :    0.565784
  18 H :   -0.063815
  19 H :   -0.343765
  20 C :    0.058539
  21 C :    0.064583
  22 H :   -0.109335
  23 H :   -0.241838
  24 H :   -0.065723
  25 H :   -0.202856
  26 C :    0.816375
  27 H :   -0.186457
  28 H :   -0.144858
  29 C :    0.162528
  30 H :   -0.007637
  31 H :   -1.122392
  32 C :    0.871348
  33 H :   -0.519050
  34 H :    0.073123
  35 H :   -0.514186
  36 H :    0.108381
  37 H :   -0.070647
  38 H :   -0.090591
Sum of atomic charges:   -0.0000000

LOEWDIN ATOMIC CHARGES
----------------------
   0 C :   -0.044789
   1 C :   -0.015539
   2 C :   -0.005180
   3 C :    0.065823
   4 H :    0.040939
   5 H :    0.020920
   6 C :    0.055885
   7 C :   -0.198278
   8 N :    0.206394
   9 N :    0.212312
  10 H :   -0.011522
  11 H :   -0.122901
  12 H :   -0.112149
  13 H :   -0.022501
  14 H :   -0.019296
  15 F :   -0.032798
  16 O :   -0.097476
  17 C :   -0.021873
  18 H :    0.014518
  19 H :   -0.004900
  20 C :   -0.030211
  21 C :   -0.020777
  22 H :    0.012832
  23 H :    0.030320
  24 H :    0.026612
  25 H :    0.026866
  26 C :   -0.027488
  27 H :    0.013180
  28 H :    0.016396
  29 C :   -0.032872
  30 H :    0.031776
  31 H :   -0.025611
  32 C :   -0.025209
  33 H :    0.021470
  34 H :    0.015178
  35 H :    0.021742
  36 H :    0.001096
  37 H :    0.019454
  38 H :    0.017660

  Mayer bond orders larger than 0.100000
B(  0-C ,  1-C ) :   0.8225 B(  0-C ,  7-C ) :   0.1342 B(  0-C , 12-H ) :   0.8095
B(  0-C , 17-C ) :   1.0215 B(  0-C , 18-H ) :   0.6356 B(  0-C , 19-H ) :   0.4780
B(  0-C , 28-H ) :   0.1095 B(  1-C ,  7-C ) :   1.7222 B(  1-C ,  8-N ) :   0.2866
B(  1-C ,  9-N ) :   0.2476 B(  1-C , 12-H ) :  -0.5550 B(  1-C , 13-H ) :  -0.1386
B(  1-C , 15-F ) :  -0.1016 B(  1-C , 18-H ) :   0.3459 B(  1-C , 19-H ) :   0.3769
B(  2-C ,  3-C ) :   1.1316 B(  2-C ,  4-H ) :   0.1882 B(  2-C ,  5-H ) :   0.1059
B(  2-C ,  6-C ) :   0.1168 B(  2-C , 21-C ) :   1.2211 B(  2-C , 22-H ) :   0.1266
B(  2-C , 24-H ) :   0.6120 B(  2-C , 25-H ) :   0.7491 B(  3-C ,  4-H ) :   0.5486
B(  3-C ,  5-H ) :   0.7336 B(  3-C ,  6-C ) :   1.2536 B(  3-C , 16-O ) :   0.1010
B(  3-C , 21-C ) :   0.1309 B(  3-C , 24-H ) :   0.1226 B(  3-C , 25-H ) :   0.1725
B(  4-H ,  6-C ) :   0.3244 B(  5-H ,  6-C ) :   0.2322 B(  6-C , 15-F ) :   0.7317
B(  6-C , 16-O ) :   1.6628 B(  7-C ,  8-N ) :   0.8477 B(  7-C ,  9-N ) :   0.8263
B(  7-C , 11-H ) :  -0.2975 B(  7-C , 12-H ) :   0.4639 B(  7-C , 14-H ) :  -0.1666
B(  7-C , 19-H ) :  -0.1203 B(  8-N , 13-H ) :   1.0418 B(  8-N , 14-H ) :   1.2902
B(  9-N , 10-H ) :   1.1271 B(  9-N , 11-H ) :   1.1752 B( 10-H , 11-H ) :  -0.2158
B( 12-H , 15-F ) :   0.2108 B( 12-H , 19-H ) :   0.1011 B( 13-H , 14-H ) :  -0.1959
B( 15-F , 31-H ) :   0.1165 B( 17-C , 19-H ) :   0.1315 B( 17-C , 26-C ) :   1.0909
B( 17-C , 27-H ) :   0.7823 B( 17-C , 28-H ) :   0.8432 B( 17-C , 29-C ) :   0.1002
B( 17-C , 30-H ) :   0.1813 B( 18-H , 19-H ) :  -0.1560 B( 20-C , 21-C ) :   1.2074
B( 20-C , 22-H ) :   0.1209 B( 20-C , 23-H ) :   0.1654 B( 20-C , 29-C ) :   0.1535
B( 20-C , 32-C ) :   1.1161 B( 20-C , 35-H ) :   0.9350 B( 20-C , 36-H ) :   0.8056
B( 20-C , 37-H ) :   0.3254 B( 20-C , 38-H ) :   0.1502 B( 21-C , 22-H ) :   0.8900
B( 21-C , 23-H ) :   0.8015 B( 21-C , 24-H ) :   0.2807 B( 21-C , 25-H ) :   0.1907
B( 21-C , 35-H ) :   0.1150 B( 21-C , 36-H ) :   0.1233 B( 24-H , 25-H ) :  -0.1522
B( 26-C , 27-H ) :   0.1976 B( 26-C , 28-H ) :   0.1528 B( 26-C , 29-C ) :   1.2098
B( 26-C , 30-H ) :   0.5715 B( 26-C , 33-H ) :   0.1167 B( 26-C , 34-H ) :   0.1567
B( 27-H , 31-H ) :   0.1158 B( 28-H , 33-H ) :  -0.1090 B( 29-C , 30-H ) :   0.1100
B( 29-C , 31-H ) :   0.1626 B( 29-C , 32-C ) :   1.0824 B( 29-C , 33-H ) :   0.9272
B( 29-C , 34-H ) :   0.8094 B( 29-C , 37-H ) :   0.1291 B( 29-C , 38-H ) :   0.2821
B( 30-H , 31-H ) :   0.2217 B( 31-H , 36-H ) :   0.1058 B( 32-C , 37-H ) :   0.5841
B( 32-C , 38-H ) :   0.6040 B( 33-H , 34-H ) :  -0.1037 B( 37-H , 38-H ) :  -0.1387

Dispersion correction           -0.072398918
FINAL SINGLE POINT ENERGY      -754.762813148291

DIPOLE MOMENT
-------------
                                X             Y             Z
Electronic contribution:     11.29359       8.97977       5.89699
Nuclear contribution   :    -11.48003      -8.36271      -6.78621
                        -----------------------------------------
Total Dipole Moment    :     -0.18644       0.61706      -0.88922
                        -----------------------------------------
Magnitude (a.u.)       :      1.09829
Magnitude (Debye)      :      2.79162

Rotational constants in cm-1:     0.020055     0.013548     0.009477
Rotational constants in MHz :   601.234832   406.162779   284.104317

                             ****ORCA TERMINATED NORMALLY****
TOTAL RUN TIME: 0 days 0 hours 4 minutes 40 seconds 126 msec
