                         Program Version 5.0.0 -  RELEASE  -
|  1> !B3LYP D3BJ RIJCOSX def2-SVPD def2/J TightSCF xyzfile
|  2>
|  3> *xyzfile 0 1 D3.xyz
|  4>
|  5> %MaxCore 64000
|  6>
|  7> %pal nprocs 4
|  8> end
|  9>
| 10> %scf
| 11>   MaxIter 150
| 12> end
| 13>
| 14>
| 15>                          ****END OF INPUT****

CARTESIAN COORDINATES (ANGSTROEM)
---------------------------------
  C      3.913853   -1.658291    3.015134
  N      5.039266   -0.901154    2.492821
  C      4.084215    1.742081   -2.114724
  C      4.265245    2.500518   -0.795890
  H      4.868534    3.392674   -0.981134
  H      3.307640    2.824571   -0.387809
  C      4.982240    1.650257    0.247422
  C      6.210384   -1.417261    2.178244
  N      6.535913   -2.677122    2.556078
  C      7.076754   -0.700820    1.478906
  H      7.954643   -1.121554    1.207554
  H      6.756161    0.106637    0.960278
  H      4.842168    0.017609    2.115191
  H      5.993876   -3.126918    3.282784
  H      7.498441   -2.975482    2.468776
  F      4.368065    1.389270    1.313706
  O      6.128919    1.233512   -0.045620
  C      3.139159   -2.376572    1.910609
  H      3.267235   -0.939401    3.520693
  H      4.247195   -2.355095    3.790065
  C      1.997274    0.430918   -1.399218
  C      3.412746    0.376886   -1.965497
  H      4.047407   -0.246590   -1.326706
  H      3.390774   -0.118719   -2.942839
  H      5.068475    1.598504   -2.565728
  H      3.503356    2.363939   -2.804565
  C      2.399946   -1.389579    1.009490
  H      2.440750   -3.087118    2.362976
  H      3.844475   -2.970462    1.318677
  C      2.070177   -1.936705   -0.372401
  H      1.481611   -1.061542    1.509912
  H      3.008628   -0.490001    0.897451
  C      1.322238   -0.935775   -1.256413
  H      1.472747   -2.850902   -0.283997
  H      3.003539   -2.234041   -0.862535
  H      1.376444    1.058920   -2.047420
  H      2.015341    0.929780   -0.426535
  H      0.316648   -0.787213   -0.848278
  H      1.185611   -1.379252   -2.248613

 Total Charge           Charge          ....    0
 Multiplicity           Mult            ....    1
 Number of Electrons    NEL             ....  126
 Basis Dimension        Dim             ....  510

ORBITAL ENERGIES
----------------

  NO   OCC          E(Eh)            E(eV)
   0   2.0000     -24.792359      -674.6344
   1   2.0000     -19.156328      -521.2702
   2   2.0000     -14.312293      -389.4573
   3   2.0000     -14.306104      -389.2889
   4   2.0000     -10.376569      -282.3608
   5   2.0000     -10.218650      -278.0636
   6   2.0000     -10.210423      -277.8397
   7   2.0000     -10.203895      -277.6621
   8   2.0000     -10.199699      -277.5479
   9   2.0000     -10.186808      -277.1971
  10   2.0000     -10.184602      -277.1371
  11   2.0000     -10.180864      -277.0354
  12   2.0000     -10.177182      -276.9352
  13   2.0000     -10.176973      -276.9295
  14   2.0000     -10.173251      -276.8282
  15   2.0000     -10.058262      -273.6992
  16   2.0000      -1.331818       -36.2406
  17   2.0000      -1.041203       -28.3326
  18   2.0000      -0.941550       -25.6209
  19   2.0000      -0.857917       -23.3451
  20   2.0000      -0.826540       -22.4913
  21   2.0000      -0.801035       -21.7973
  22   2.0000      -0.772047       -21.0085
  23   2.0000      -0.735433       -20.0122
  24   2.0000      -0.710907       -19.3448
  25   2.0000      -0.688076       -18.7235
  26   2.0000      -0.662910       -18.0387
  27   2.0000      -0.639276       -17.3956
  28   2.0000      -0.606977       -16.5167
  29   2.0000      -0.598026       -16.2731
  30   2.0000      -0.579810       -15.7774
  31   2.0000      -0.572572       -15.5805
  32   2.0000      -0.560166       -15.2429
  33   2.0000      -0.546938       -14.8829
  34   2.0000      -0.529009       -14.3951
  35   2.0000      -0.508854       -13.8466
  36   2.0000      -0.489186       -13.3114
  37   2.0000      -0.482700       -13.1349
  38   2.0000      -0.473518       -12.8851
  39   2.0000      -0.462327       -12.5806
  40   2.0000      -0.459099       -12.4927
  41   2.0000      -0.443559       -12.0699
  42   2.0000      -0.432806       -11.7772
  43   2.0000      -0.429159       -11.6780
  44   2.0000      -0.419157       -11.4059
  45   2.0000      -0.403058       -10.9678
  46   2.0000      -0.397948       -10.8287
  47   2.0000      -0.390538       -10.6271
  48   2.0000      -0.377457       -10.2711
  49   2.0000      -0.370623       -10.0852
  50   2.0000      -0.367805       -10.0085
  51   2.0000      -0.365798        -9.9539
  52   2.0000      -0.356705        -9.7064
  53   2.0000      -0.350045        -9.5252
  54   2.0000      -0.344066        -9.3625
  55   2.0000      -0.338566        -9.2129
  56   2.0000      -0.331477        -9.0200
  57   2.0000      -0.320599        -8.7240
  58   2.0000      -0.318292        -8.6612
  59   2.0000      -0.314987        -8.5712
  60   2.0000      -0.272789        -7.4230
  61   2.0000      -0.239271        -6.5109
  62   2.0000      -0.140565        -3.8250
  63   0.0000      -0.049901        -1.3579
  64   0.0000       0.011313         0.3078
  65   0.0000       0.023403         0.6368
  66   0.0000       0.025359         0.6901
  67   0.0000       0.030479         0.8294

MULLIKEN ATOMIC CHARGES
-----------------------
   0 C :    1.407549
   1 N :    0.368349
   2 C :    0.591161
   3 C :    0.478369
   4 H :   -0.208972
   5 H :    0.082898
   6 C :    0.473267
   7 C :    0.775042
   8 N :    0.240566
   9 C :    1.022559
  10 H :   -0.463111
  11 H :   -0.905664
  12 H :   -1.077540
  13 H :   -0.156014
  14 H :   -0.235883
  15 F :   -0.510561
  16 O :   -0.452817
  17 C :    0.473429
  18 H :   -0.445432
  19 H :   -0.344028
  20 C :    0.072188
  21 C :    0.053036
  22 H :   -0.109627
  23 H :   -0.239906
  24 H :   -0.064593
  25 H :   -0.200564
  26 C :    0.817325
  27 H :   -0.265512
  28 H :   -0.086574
  29 C :    0.195297
  30 H :   -0.073484
  31 H :   -1.053660
  32 C :    0.873524
  33 H :   -0.504326
  34 H :    0.050301
  35 H :   -0.502361
  36 H :    0.097244
  37 H :   -0.073743
  38 H :   -0.097734
Sum of atomic charges:    0.0000000

LOEWDIN ATOMIC CHARGES
----------------------
   0 C :    0.060843
   1 N :    0.012321
   2 C :   -0.004494
   3 C :    0.063262
   4 H :    0.040404
   5 H :    0.017590
   6 C :    0.048277
   7 C :   -0.217489
   8 N :    0.202034
   9 C :    0.181119
  10 H :   -0.099175
  11 H :   -0.200519
  12 H :   -0.051349
  13 H :   -0.038558
  14 H :   -0.002054
  15 F :   -0.029917
  16 O :   -0.100298
  17 C :   -0.012195
  18 H :    0.020187
  19 H :    0.001986
  20 C :   -0.030372
  21 C :   -0.020225
  22 H :    0.013292
  23 H :    0.030698
  24 H :    0.028262
  25 H :    0.026334
  26 C :   -0.030780
  27 H :    0.018386
  28 H :    0.018449
  29 C :   -0.030504
  30 H :    0.032330
  31 H :   -0.026529
  32 C :   -0.023739
  33 H :    0.022668
  34 H :    0.017986
  35 H :    0.022685
  36 H :    0.000087
  37 H :    0.019635
  38 H :    0.019362

  Mayer bond orders larger than 0.100000
B(  0-C ,  1-N ) :   0.9366 B(  0-C , 12-H ) :  -0.4732 B(  0-C , 17-C ) :   1.0297
B(  0-C , 18-H ) :   0.4831 B(  0-C , 19-H ) :   0.6982 B(  0-C , 26-C ) :   0.1726
B(  0-C , 28-H ) :   0.1018 B(  1-N ,  7-C ) :   1.1307 B(  1-N ,  8-N ) :   0.1929
B(  1-N ,  9-C ) :   0.1294 B(  1-N , 12-H ) :   0.7832 B(  1-N , 18-H ) :   0.2325
B(  1-N , 19-H ) :   0.1124 B(  2-C ,  3-C ) :   1.1366 B(  2-C ,  4-H ) :   0.1892
B(  2-C ,  5-H ) :   0.1064 B(  2-C ,  6-C ) :   0.1146 B(  2-C , 21-C ) :   1.2313
B(  2-C , 22-H ) :   0.1202 B(  2-C , 24-H ) :   0.6149 B(  2-C , 25-H ) :   0.7436
B(  3-C ,  4-H ) :   0.5615 B(  3-C ,  5-H ) :   0.7208 B(  3-C ,  6-C ) :   1.2175
B(  3-C , 21-C ) :   0.1373 B(  3-C , 24-H ) :   0.1243 B(  3-C , 25-H ) :   0.1706
B(  4-H ,  6-C ) :   0.3164 B(  5-H ,  6-C ) :   0.2212 B(  6-C , 15-F ) :   0.6556
B(  6-C , 16-O ) :   1.8013 B(  7-C ,  8-N ) :   0.8252 B(  7-C ,  9-C ) :   1.4430
B(  7-C , 10-H ) :   0.3056 B(  7-C , 12-H ) :  -0.6633 B(  7-C , 19-H ) :  -0.1099
B(  8-N ,  9-C ) :   0.2898 B(  8-N , 13-H ) :   0.9995 B(  8-N , 14-H ) :   1.2198
B(  8-N , 19-H ) :   0.1115 B(  9-C , 10-H ) :   0.4068 B(  9-C , 11-H ) :   0.2667
B( 10-H , 11-H ) :   0.2887 B( 12-H , 15-F ) :   0.1909 B( 12-H , 18-H ) :   0.1889
B( 13-H , 14-H ) :  -0.1982 B( 17-C , 19-H ) :   0.1974 B( 17-C , 26-C ) :   1.0789
B( 17-C , 27-H ) :   0.8557 B( 17-C , 28-H ) :   0.8345 B( 17-C , 29-C ) :   0.1072
B( 17-C , 30-H ) :   0.1554 B( 18-H , 19-H ) :  -0.2649 B( 20-C , 21-C ) :   1.2038
B( 20-C , 22-H ) :   0.1163 B( 20-C , 23-H ) :   0.1668 B( 20-C , 29-C ) :   0.1519
B( 20-C , 32-C ) :   1.1298 B( 20-C , 35-H ) :   0.9097 B( 20-C , 36-H ) :   0.8089
B( 20-C , 37-H ) :   0.3240 B( 20-C , 38-H ) :   0.1560 B( 21-C , 22-H ) :   0.8939
B( 21-C , 23-H ) :   0.7987 B( 21-C , 24-H ) :   0.2744 B( 21-C , 25-H ) :   0.1927
B( 21-C , 35-H ) :   0.1243 B( 21-C , 36-H ) :   0.1241 B( 24-H , 25-H ) :  -0.1541
B( 26-C , 27-H ) :   0.1778 B( 26-C , 28-H ) :   0.1049 B( 26-C , 29-C ) :   1.2213
B( 26-C , 30-H ) :   0.5754 B( 26-C , 34-H ) :   0.1834 B( 27-H , 31-H ) :   0.1183
B( 28-H , 33-H ) :  -0.1005 B( 29-C , 30-H ) :   0.1044 B( 29-C , 31-H ) :   0.1647
B( 29-C , 32-C ) :   1.0825 B( 29-C , 33-H ) :   0.9301 B( 29-C , 34-H ) :   0.8014
B( 29-C , 37-H ) :   0.1273 B( 29-C , 38-H ) :   0.2664 B( 30-H , 31-H ) :   0.2393
B( 31-H , 36-H ) :   0.1032 B( 32-C , 37-H ) :   0.5821 B( 32-C , 38-H ) :   0.6238
B( 37-H , 38-H ) :  -0.1410

Dispersion correction           -0.072045341
FINAL SINGLE POINT ENERGY      -754.738950455444

DIPOLE MOMENT
-------------
                                X             Y             Z
Electronic contribution:      9.47338       8.66729       6.70554
Nuclear contribution   :    -11.12616      -8.32792      -6.96231
                        -----------------------------------------
Total Dipole Moment    :     -1.65277       0.33937      -0.25678
                        -----------------------------------------
Magnitude (a.u.)       :      1.70668
Magnitude (Debye)      :      4.33805

Rotational constants in cm-1:     0.020226     0.013574     0.009520
Rotational constants in MHz :   606.360011   406.923773   285.390769

                             ****ORCA TERMINATED NORMALLY****
TOTAL RUN TIME: 0 days 0 hours 4 minutes 46 seconds 244 msec
