                         Program Version 5.0.0 -  RELEASE  -
|  1> !B3LYP D3BJ RIJCOSX def2-SVPD def2/J TightSCF xyzfile
|  2>
|  3> *xyzfile 0 1 D5.xyz
|  4>
|  5> %MaxCore 64000
|  6>
|  7> %pal nprocs 4
|  8> end
|  9>
| 10> %scf
| 11>   MaxIter 150
| 12> end
| 13>
| 14>
| 15>                          ****END OF INPUT****

CARTESIAN COORDINATES (ANGSTROEM)
---------------------------------
  C      3.913853   -1.658291    3.015134
  N      5.039266   -0.901154    2.492821
  C      4.084215    1.742081   -2.114724
  C      4.265245    2.500518   -0.795890
  H      4.868534    3.392674   -0.981134
  H      3.307640    2.824571   -0.387809
  C      4.982240    1.650257    0.247422
  C      6.210384   -1.417261    2.178244
  C      6.535913   -2.677122    2.556078
  N      7.076754   -0.700820    1.478906
  H      7.954643   -1.121554    1.207554
  H      6.756161    0.106637    0.960278
  H      4.842168    0.017609    2.115191
  H      5.993876   -3.126918    3.282784
  H      7.498441   -2.975482    2.468776
  O      4.368065    1.389270    1.313706
  F      6.128919    1.233512   -0.045620
  C      3.139159   -2.376572    1.910609
  H      3.267235   -0.939401    3.520693
  H      4.247195   -2.355095    3.790065
  C      1.997274    0.430918   -1.399218
  C      3.412746    0.376886   -1.965497
  H      4.047407   -0.246590   -1.326706
  H      3.390774   -0.118719   -2.942839
  H      5.068475    1.598504   -2.565728
  H      3.503356    2.363939   -2.804565
  C      2.399946   -1.389579    1.009490
  H      2.440750   -3.087118    2.362976
  H      3.844475   -2.970462    1.318677
  C      2.070177   -1.936705   -0.372401
  H      1.481611   -1.061542    1.509912
  H      3.008628   -0.490001    0.897451
  C      1.322238   -0.935775   -1.256413
  H      1.472747   -2.850902   -0.283997
  H      3.003539   -2.234041   -0.862535
  H      1.376444    1.058920   -2.047420
  H      2.015341    0.929780   -0.426535
  H      0.316648   -0.787213   -0.848278
  H      1.185611   -1.379252   -2.248613

 Total Charge           Charge          ....    0
 Multiplicity           Mult            ....    1
 Number of Electrons    NEL             ....  126
 Basis Dimension        Dim             ....  510

ORBITAL ENERGIES
----------------

  NO   OCC          E(Eh)            E(eV)
   0   2.0000     -24.812248      -675.1756
   1   2.0000     -19.186314      -522.0861
   2   2.0000     -14.307106      -389.3161
   3   2.0000     -14.295579      -389.0025
   4   2.0000     -10.400795      -283.0200
   5   2.0000     -10.233200      -278.4595
   6   2.0000     -10.214546      -277.9519
   7   2.0000     -10.208158      -277.7781
   8   2.0000     -10.196845      -277.4703
   9   2.0000     -10.193726      -277.3854
  10   2.0000     -10.186138      -277.1789
  11   2.0000     -10.179322      -276.9934
  12   2.0000     -10.171814      -276.7891
  13   2.0000     -10.164917      -276.6015
  14   2.0000     -10.159920      -276.4655
  15   2.0000     -10.076241      -274.1885
  16   2.0000      -1.352894       -36.8141
  17   2.0000      -1.067098       -29.0372
  18   2.0000      -0.940395       -25.5894
  19   2.0000      -0.859467       -23.3873
  20   2.0000      -0.838484       -22.8163
  21   2.0000      -0.802074       -21.8255
  22   2.0000      -0.766412       -20.8551
  23   2.0000      -0.737985       -20.0816
  24   2.0000      -0.706122       -19.2146
  25   2.0000      -0.689478       -18.7616
  26   2.0000      -0.676610       -18.4115
  27   2.0000      -0.646104       -17.5814
  28   2.0000      -0.616060       -16.7639
  29   2.0000      -0.594039       -16.1646
  30   2.0000      -0.592613       -16.1258
  31   2.0000      -0.588998       -16.0274
  32   2.0000      -0.553065       -15.0497
  33   2.0000      -0.550301       -14.9745
  34   2.0000      -0.533683       -14.5223
  35   2.0000      -0.507423       -13.8077
  36   2.0000      -0.501378       -13.6432
  37   2.0000      -0.490830       -13.3562
  38   2.0000      -0.487039       -13.2530
  39   2.0000      -0.467074       -12.7097
  40   2.0000      -0.452111       -12.3026
  41   2.0000      -0.445963       -12.1353
  42   2.0000      -0.433983       -11.8093
  43   2.0000      -0.422868       -11.5068
  44   2.0000      -0.416685       -11.3386
  45   2.0000      -0.414600       -11.2818
  46   2.0000      -0.403772       -10.9872
  47   2.0000      -0.392362       -10.6767
  48   2.0000      -0.388698       -10.5770
  49   2.0000      -0.379241       -10.3197
  50   2.0000      -0.368936       -10.0392
  51   2.0000      -0.362067        -9.8524
  52   2.0000      -0.357333        -9.7235
  53   2.0000      -0.350554        -9.5391
  54   2.0000      -0.343654        -9.3513
  55   2.0000      -0.340612        -9.2685
  56   2.0000      -0.326766        -8.8918
  57   2.0000      -0.318845        -8.6762
  58   2.0000      -0.314128        -8.5479
  59   2.0000      -0.310777        -8.4567
  60   2.0000      -0.305869        -8.3231
  61   2.0000      -0.228480        -6.2173
  62   2.0000      -0.144904        -3.9430
  63   0.0000      -0.069405        -1.8886
  64   0.0000      -0.000394        -0.0107
  65   0.0000       0.022444         0.6107
  66   0.0000       0.024409         0.6642
  67   0.0000       0.030627         0.8334

MULLIKEN ATOMIC CHARGES
-----------------------
   0 C :    1.362804
   1 N :    0.373136
   2 C :    0.591714
   3 C :    0.457662
   4 H :   -0.193314
   5 H :    0.050790
   6 C :    0.634777
   7 C :    0.550372
   8 C :    0.731284
   9 N :    0.647876
  10 H :   -0.139715
  11 H :   -0.579773
  12 H :   -1.209188
  13 H :   -0.144310
  14 H :   -0.743766
  15 O :   -0.608482
  16 F :   -0.460329
  17 C :    0.497148
  18 H :   -0.454973
  19 H :   -0.235780
  20 C :    0.057291
  21 C :    0.070985
  22 H :   -0.107322
  23 H :   -0.250303
  24 H :   -0.102938
  25 H :   -0.200325
  26 C :    0.855099
  27 H :   -0.233613
  28 H :   -0.111021
  29 C :    0.203292
  30 H :   -0.114355
  31 H :   -1.050936
  32 C :    0.888289
  33 H :   -0.519982
  34 H :    0.055336
  35 H :   -0.504623
  36 H :    0.110095
  37 H :   -0.068756
  38 H :   -0.104147
Sum of atomic charges:    0.0000000

LOEWDIN ATOMIC CHARGES
----------------------
   0 C :    0.071218
   1 N :    0.017946
   2 C :   -0.010749
   3 C :    0.070803
   4 H :    0.037946
   5 H :    0.032109
   6 C :    0.049479
   7 C :   -0.220076
   8 C :    0.159953
   9 N :    0.216471
  10 H :    0.007550
  11 H :   -0.093764
  12 H :   -0.097373
  13 H :   -0.128299
  14 H :   -0.117117
  15 O :   -0.106010
  16 F :   -0.016857
  17 C :   -0.006063
  18 H :    0.022212
  19 H :    0.007587
  20 C :   -0.025697
  21 C :   -0.021554
  22 H :    0.011488
  23 H :    0.030998
  24 H :    0.022598
  25 H :    0.028362
  26 C :   -0.029313
  27 H :    0.019605
  28 H :    0.014803
  29 C :   -0.031792
  30 H :    0.032062
  31 H :   -0.029960
  32 C :   -0.023595
  33 H :    0.022601
  34 H :    0.015723
  35 H :    0.022802
  36 H :    0.005254
  37 H :    0.020613
  38 H :    0.018037

  Mayer bond orders larger than 0.100000
B(  0-C ,  1-N ) :   0.9458 B(  0-C , 12-H ) :  -0.5312 B(  0-C , 17-C ) :   1.0153
B(  0-C , 18-H ) :   0.5781 B(  0-C , 19-H ) :   0.6790 B(  0-C , 26-C ) :   0.1715
B(  1-N ,  7-C ) :   0.9024 B(  1-N ,  8-C ) :   0.4358 B(  1-N , 12-H ) :   0.7330
B(  1-N , 18-H ) :   0.2366 B(  2-C ,  3-C ) :   1.1466 B(  2-C ,  4-H ) :   0.1914
B(  2-C ,  6-C ) :   0.1147 B(  2-C , 21-C ) :   1.2084 B(  2-C , 22-H ) :   0.1096
B(  2-C , 24-H ) :   0.6117 B(  2-C , 25-H ) :   0.7615 B(  3-C ,  4-H ) :   0.5920
B(  3-C ,  5-H ) :   0.7443 B(  3-C ,  6-C ) :   1.1688 B(  3-C , 21-C ) :   0.1122
B(  3-C , 24-H ) :   0.1157 B(  3-C , 25-H ) :   0.1671 B(  4-H ,  6-C ) :   0.2800
B(  5-H ,  6-C ) :   0.2202 B(  6-C , 15-O ) :   1.6993 B(  6-C , 16-F ) :   0.5136
B(  7-C ,  8-C ) :   1.5253 B(  7-C ,  9-N ) :   0.9390 B(  7-C , 11-H ) :  -0.1217
B(  7-C , 12-H ) :  -0.5724 B(  7-C , 13-H ) :   0.3878 B(  7-C , 14-H ) :   0.4180
B(  8-C ,  9-N ) :   0.2589 B(  8-C , 12-H ) :  -0.1019 B(  8-C , 13-H ) :   0.5463
B(  8-C , 14-H ) :   0.4507 B(  9-N , 10-H ) :   1.1346 B(  9-N , 11-H ) :   0.9556
B( 10-H , 11-H ) :  -0.2402 B( 11-H , 12-H ) :   0.1161 B( 11-H , 16-F ) :   0.1313
B( 12-H , 15-O ) :   0.2246 B( 12-H , 18-H ) :   0.1485 B( 13-H , 18-H ) :  -0.1037
B( 13-H , 19-H ) :   0.1445 B( 15-O , 16-F ) :   0.1160 B( 17-C , 19-H ) :   0.1741
B( 17-C , 26-C ) :   1.1149 B( 17-C , 27-H ) :   0.8401 B( 17-C , 28-H ) :   0.8716
B( 17-C , 29-C ) :   0.1086 B( 17-C , 30-H ) :   0.1495 B( 18-H , 19-H ) :  -0.3077
B( 20-C , 21-C ) :   1.2210 B( 20-C , 22-H ) :   0.1336 B( 20-C , 23-H ) :   0.1611
B( 20-C , 29-C ) :   0.1482 B( 20-C , 32-C ) :   1.1258 B( 20-C , 35-H ) :   0.9122
B( 20-C , 36-H ) :   0.8081 B( 20-C , 37-H ) :   0.3222 B( 20-C , 38-H ) :   0.1554
B( 21-C , 22-H ) :   0.8735 B( 21-C , 23-H ) :   0.8174 B( 21-C , 24-H ) :   0.2820
B( 21-C , 25-H ) :   0.1818 B( 21-C , 35-H ) :   0.1230 B( 21-C , 36-H ) :   0.1283
B( 24-H , 25-H ) :  -0.1504 B( 26-C , 27-H ) :   0.1881 B( 26-C , 28-H ) :   0.1100
B( 26-C , 29-C ) :   1.2249 B( 26-C , 30-H ) :   0.5187 B( 26-C , 31-H ) :  -0.1039
B( 26-C , 34-H ) :   0.1801 B( 27-H , 31-H ) :   0.1195 B( 28-H , 33-H ) :  -0.1071
B( 29-C , 30-H ) :   0.1024 B( 29-C , 31-H ) :   0.1593 B( 29-C , 32-C ) :   1.0855
B( 29-C , 33-H ) :   0.9306 B( 29-C , 34-H ) :   0.7991 B( 29-C , 37-H ) :   0.1282
B( 29-C , 38-H ) :   0.2675 B( 30-H , 31-H ) :   0.3314 B( 31-H , 36-H ) :   0.1086
B( 32-C , 37-H ) :   0.5860 B( 32-C , 38-H ) :   0.6139 B( 33-H , 34-H ) :  -0.1136
B( 37-H , 38-H ) :  -0.1444

Dispersion correction           -0.072173780
FINAL SINGLE POINT ENERGY      -754.759671481492

DIPOLE MOMENT
-------------
                                X             Y             Z
Electronic contribution:     12.78162      10.34491       3.26762
Nuclear contribution   :    -13.35170      -8.48261      -5.12969
                        -----------------------------------------
Total Dipole Moment    :     -0.57008       1.86230      -1.86207
                        -----------------------------------------
Magnitude (a.u.)       :      2.69452
Magnitude (Debye)      :      6.84893

Rotational constants in cm-1:     0.019886     0.013843     0.009504
Rotational constants in MHz :   596.157485   415.004628   284.931121

                             ****ORCA TERMINATED NORMALLY****
TOTAL RUN TIME: 0 days 0 hours 4 minutes 15 seconds 822 msec
