                         Program Version 5.0.0 -  RELEASE  -
|  1> !B3LYP D3BJ RIJCOSX def2-SVPD def2/J TightSCF xyzfile
|  2>
|  3> *xyzfile 0 1 D6.xyz
|  4>
|  5> %MaxCore 64000
|  6>
|  7> %pal nprocs 4
|  8> end
|  9>
| 10> %scf
| 11>   MaxIter 150
| 12> end
| 13>
| 14>
| 15>                          ****END OF INPUT****

CARTESIAN COORDINATES (ANGSTROEM)
---------------------------------
  C      3.913853   -1.658291    3.015134
  N      5.039266   -0.901154    2.492821
  C      4.084215    1.742081   -2.114724
  C      4.265245    2.500518   -0.795890
  H      4.868534    3.392674   -0.981134
  H      3.307640    2.824571   -0.387809
  C      4.982240    1.650257    0.247422
  C      6.210384   -1.417261    2.178244
  N      6.535913   -2.677122    2.556078
  C      7.076754   -0.700820    1.478906
  H      7.954643   -1.121554    1.207554
  H      6.756161    0.106637    0.960278
  H      4.842168    0.017609    2.115191
  H      5.993876   -3.126918    3.282784
  H      7.498441   -2.975482    2.468776
  O      4.368065    1.389270    1.313706
  F      6.128919    1.233512   -0.045620
  C      3.139159   -2.376572    1.910609
  H      3.267235   -0.939401    3.520693
  H      4.247195   -2.355095    3.790065
  C      1.997274    0.430918   -1.399218
  C      3.412746    0.376886   -1.965497
  H      4.047407   -0.246590   -1.326706
  H      3.390774   -0.118719   -2.942839
  H      5.068475    1.598504   -2.565728
  H      3.503356    2.363939   -2.804565
  C      2.399946   -1.389579    1.009490
  H      2.440750   -3.087118    2.362976
  H      3.844475   -2.970462    1.318677
  C      2.070177   -1.936705   -0.372401
  H      1.481611   -1.061542    1.509912
  H      3.008628   -0.490001    0.897451
  C      1.322238   -0.935775   -1.256413
  H      1.472747   -2.850902   -0.283997
  H      3.003539   -2.234041   -0.862535
  H      1.376444    1.058920   -2.047420
  H      2.015341    0.929780   -0.426535
  H      0.316648   -0.787213   -0.848278
  H      1.185611   -1.379252   -2.248613

 Total Charge           Charge          ....    0
 Multiplicity           Mult            ....    1
 Number of Electrons    NEL             ....  126
 Basis Dimension        Dim             ....  510

ORBITAL ENERGIES
----------------

  NO   OCC          E(Eh)            E(eV)
   0   2.0000     -24.782189      -674.3576
   1   2.0000     -19.170526      -521.6565
   2   2.0000     -14.312768      -389.4702
   3   2.0000     -14.292030      -388.9059
   4   2.0000     -10.385916      -282.6151
   5   2.0000     -10.221854      -278.1508
   6   2.0000     -10.206243      -277.7260
   7   2.0000     -10.205797      -277.7139
   8   2.0000     -10.201599      -277.5996
   9   2.0000     -10.189940      -277.2824
  10   2.0000     -10.181803      -277.0609
  11   2.0000     -10.177590      -276.9463
  12   2.0000     -10.172118      -276.7974
  13   2.0000     -10.166897      -276.6553
  14   2.0000     -10.166415      -276.6422
  15   2.0000     -10.068229      -273.9705
  16   2.0000      -1.324754       -36.0484
  17   2.0000      -1.051674       -28.6175
  18   2.0000      -0.936039       -25.4709
  19   2.0000      -0.853502       -23.2250
  20   2.0000      -0.829776       -22.5793
  21   2.0000      -0.798619       -21.7315
  22   2.0000      -0.768360       -20.9081
  23   2.0000      -0.732778       -19.9399
  24   2.0000      -0.708446       -19.2778
  25   2.0000      -0.676062       -18.3966
  26   2.0000      -0.668204       -18.1828
  27   2.0000      -0.634681       -17.2705
  28   2.0000      -0.606851       -16.5132
  29   2.0000      -0.591934       -16.1073
  30   2.0000      -0.573355       -15.6018
  31   2.0000      -0.567394       -15.4396
  32   2.0000      -0.565623       -15.3914
  33   2.0000      -0.548735       -14.9318
  34   2.0000      -0.522964       -14.2306
  35   2.0000      -0.508563       -13.8387
  36   2.0000      -0.486360       -13.2345
  37   2.0000      -0.484328       -13.1792
  38   2.0000      -0.474416       -12.9095
  39   2.0000      -0.463219       -12.6048
  40   2.0000      -0.455546       -12.3960
  41   2.0000      -0.437331       -11.9004
  42   2.0000      -0.432899       -11.7798
  43   2.0000      -0.423554       -11.5255
  44   2.0000      -0.418402       -11.3853
  45   2.0000      -0.411340       -11.1931
  46   2.0000      -0.396033       -10.7766
  47   2.0000      -0.386679       -10.5221
  48   2.0000      -0.383297       -10.4300
  49   2.0000      -0.377089       -10.2611
  50   2.0000      -0.367714       -10.0060
  51   2.0000      -0.356363        -9.6971
  52   2.0000      -0.354788        -9.6543
  53   2.0000      -0.344495        -9.3742
  54   2.0000      -0.341780        -9.3003
  55   2.0000      -0.335714        -9.1352
  56   2.0000      -0.327113        -8.9012
  57   2.0000      -0.315920        -8.5966
  58   2.0000      -0.314345        -8.5538
  59   2.0000      -0.310050        -8.4369
  60   2.0000      -0.302662        -8.2358
  61   2.0000      -0.233981        -6.3669
  62   2.0000      -0.143270        -3.8986
  63   0.0000      -0.054024        -1.4701
  64   0.0000       0.010603         0.2885
  65   0.0000       0.025864         0.7038
  66   0.0000       0.028680         0.7804
  67   0.0000       0.029618         0.8060

MULLIKEN ATOMIC CHARGES
-----------------------
   0 C :    1.409701
   1 N :    0.325425
   2 C :    0.593591
   3 C :    0.463354
   4 H :   -0.191409
   5 H :    0.055779
   6 C :    0.614303
   7 C :    0.743646
   8 N :    0.247768
   9 C :    1.210861
  10 H :   -0.396686
  11 H :   -1.082773
  12 H :   -1.063178
  13 H :   -0.155805
  14 H :   -0.238621
  15 O :   -0.580110
  16 F :   -0.511935
  17 C :    0.475040
  18 H :   -0.427918
  19 H :   -0.356662
  20 C :    0.056610
  21 C :    0.065724
  22 H :   -0.106379
  23 H :   -0.249413
  24 H :   -0.100602
  25 H :   -0.203070
  26 C :    0.854579
  27 H :   -0.272133
  28 H :   -0.094446
  29 C :    0.202454
  30 H :   -0.094369
  31 H :   -1.056274
  32 C :    0.891567
  33 H :   -0.519460
  34 H :    0.052272
  35 H :   -0.505549
  36 H :    0.117505
  37 H :   -0.068604
  38 H :   -0.104784
Sum of atomic charges:    0.0000000

LOEWDIN ATOMIC CHARGES
----------------------
   0 C :    0.063225
   1 N :    0.018130
   2 C :   -0.010529
   3 C :    0.069017
   4 H :    0.037460
   5 H :    0.029856
   6 C :    0.055529
   7 C :   -0.215333
   8 N :    0.204715
   9 C :    0.172181
  10 H :   -0.104422
  11 H :   -0.172006
  12 H :   -0.088153
  13 H :   -0.036243
  14 H :   -0.002906
  15 O :   -0.110142
  16 F :   -0.025883
  17 C :   -0.012825
  18 H :    0.022765
  19 H :   -0.000306
  20 C :   -0.025929
  21 C :   -0.021241
  22 H :    0.012824
  23 H :    0.030016
  24 H :    0.023496
  25 H :    0.026885
  26 C :   -0.026752
  27 H :    0.016796
  28 H :    0.016326
  29 C :   -0.032146
  30 H :    0.033249
  31 H :   -0.027100
  32 C :   -0.023809
  33 H :    0.021397
  34 H :    0.015934
  35 H :    0.022483
  36 H :    0.005385
  37 H :    0.020075
  38 H :    0.017982

  Mayer bond orders larger than 0.100000
B(  0-C ,  1-N ) :   0.9246 B(  0-C , 12-H ) :  -0.4892 B(  0-C , 17-C ) :   1.0264
B(  0-C , 18-H ) :   0.4913 B(  0-C , 19-H ) :   0.6948 B(  0-C , 26-C ) :   0.1745
B(  1-N ,  7-C ) :   1.1183 B(  1-N ,  8-N ) :   0.1843 B(  1-N ,  9-C ) :   0.1145
B(  1-N , 12-H ) :   0.8662 B(  1-N , 18-H ) :   0.2361 B(  1-N , 19-H ) :   0.1137
B(  2-C ,  3-C ) :   1.1432 B(  2-C ,  4-H ) :   0.1904 B(  2-C ,  6-C ) :   0.1191
B(  2-C , 21-C ) :   1.2141 B(  2-C , 22-H ) :   0.1123 B(  2-C , 24-H ) :   0.6099
B(  2-C , 25-H ) :   0.7567 B(  3-C ,  4-H ) :   0.5778 B(  3-C ,  5-H ) :   0.7237
B(  3-C ,  6-C ) :   1.2001 B(  3-C , 21-C ) :   0.1202 B(  3-C , 24-H ) :   0.1222
B(  3-C , 25-H ) :   0.1691 B(  4-H ,  6-C ) :   0.3010 B(  5-H ,  6-C ) :   0.2355
B(  6-C , 15-O ) :   1.6904 B(  6-C , 16-F ) :   0.5663 B(  7-C ,  8-N ) :   0.8520
B(  7-C ,  9-C ) :   1.4810 B(  7-C , 10-H ) :   0.3322 B(  7-C , 12-H ) :  -0.6629
B(  7-C , 19-H ) :  -0.1117 B(  8-N ,  9-C ) :   0.2741 B(  8-N , 13-H ) :   0.9983
B(  8-N , 14-H ) :   1.2193 B(  8-N , 19-H ) :   0.1115 B(  9-C , 10-H ) :   0.3674
B( 10-H , 11-H ) :   0.3059 B( 11-H , 16-F ) :   0.2802 B( 12-H , 15-O ) :   0.1488
B( 12-H , 18-H ) :   0.1866 B( 13-H , 14-H ) :  -0.1958 B( 15-O , 16-F ) :   0.1347
B( 17-C , 19-H ) :   0.1995 B( 17-C , 26-C ) :   1.0866 B( 17-C , 27-H ) :   0.8524
B( 17-C , 28-H ) :   0.8342 B( 17-C , 29-C ) :   0.1061 B( 17-C , 30-H ) :   0.1567
B( 18-H , 19-H ) :  -0.2639 B( 20-C , 21-C ) :   1.2201 B( 20-C , 22-H ) :   0.1288
B( 20-C , 23-H ) :   0.1613 B( 20-C , 29-C ) :   0.1492 B( 20-C , 32-C ) :   1.1223
B( 20-C , 35-H ) :   0.9119 B( 20-C , 36-H ) :   0.8084 B( 20-C , 37-H ) :   0.3206
B( 20-C , 38-H ) :   0.1553 B( 21-C , 22-H ) :   0.8737 B( 21-C , 23-H ) :   0.8119
B( 21-C , 24-H ) :   0.2811 B( 21-C , 25-H ) :   0.1824 B( 21-C , 35-H ) :   0.1254
B( 21-C , 36-H ) :   0.1279 B( 24-H , 25-H ) :  -0.1503 B( 26-C , 27-H ) :   0.1831
B( 26-C , 28-H ) :   0.1016 B( 26-C , 29-C ) :   1.2223 B( 26-C , 30-H ) :   0.5447
B( 26-C , 34-H ) :   0.1836 B( 27-H , 31-H ) :   0.1140 B( 28-H , 33-H ) :  -0.1049
B( 29-C , 30-H ) :   0.1024 B( 29-C , 31-H ) :   0.1584 B( 29-C , 32-C ) :   1.0842
B( 29-C , 33-H ) :   0.9307 B( 29-C , 34-H ) :   0.7977 B( 29-C , 37-H ) :   0.1286
B( 29-C , 38-H ) :   0.2650 B( 30-H , 31-H ) :   0.2819 B( 31-H , 36-H ) :   0.1042
B( 32-C , 37-H ) :   0.5868 B( 32-C , 38-H ) :   0.6157 B( 33-H , 34-H ) :  -0.1097
B( 37-H , 38-H ) :  -0.1447

Dispersion correction           -0.072239955
FINAL SINGLE POINT ENERGY      -754.752290455962

DIPOLE MOMENT
-------------
                                X             Y             Z
Electronic contribution:     12.39286       8.54372       4.38707
Nuclear contribution   :    -13.25777      -8.13937      -5.31678
                        -----------------------------------------
Total Dipole Moment    :     -0.86491       0.40435      -0.92971
                        -----------------------------------------
Magnitude (a.u.)       :      1.33264
Magnitude (Debye)      :      3.38730

Rotational constants in cm-1:     0.020021     0.013636     0.009443
Rotational constants in MHz :   600.208195   408.782966   283.102361

                             ****ORCA TERMINATED NORMALLY****
TOTAL RUN TIME: 0 days 0 hours 4 minutes 27 seconds 891 msec
