                         Program Version 5.0.0 -  RELEASE  -
|  1> !PBE D3BJ RIJCOSX def2-TZVPD def2/J TightSCF
|  2> *xyz -1 1
|  3> C          4.08422        1.74208       -2.11472
|  4> C          4.26524        2.50052       -0.79589
|  5> H          4.86853        3.39267       -0.98113
|  6> H          3.30764        2.82457       -0.38781
|  7> C          4.98224        1.65026        0.24742
|  8> O          4.36806        1.38927        1.31371
|  9> O          6.12892        1.23351       -0.04562
| 10> H          3.57911        2.36849       -2.81997
| 11> H          3.50424        0.85965       -1.94198
| 12> H          5.04288        1.46841       -2.50327
| 13> *
| 14> %MaxCore 64000
| 15> %pal nprocs 8
| 16> end
| 17> %scf
| 18>   MaxIter 150
| 19> end
| 20>
| 21>
| 22>                          ****END OF INPUT****

CARTESIAN COORDINATES (ANGSTROEM)
---------------------------------
  C      4.084220    1.742080   -2.114720
  C      4.265240    2.500520   -0.795890
  H      4.868530    3.392670   -0.981130
  H      3.307640    2.824570   -0.387810
  C      4.982240    1.650260    0.247420
  O      4.368060    1.389270    1.313710
  O      6.128920    1.233510   -0.045620
  H      3.579110    2.368490   -2.819970
  H      3.504240    0.859650   -1.941980
  H      5.042880    1.468410   -2.503270

 Total Charge           Charge          ....   -1
 Multiplicity           Mult            ....    1
 Number of Electrons    NEL             ....   40
 Basis Dimension        Dim             ....  236

ORBITAL ENERGIES
----------------

  NO   OCC          E(Eh)            E(eV)
   0   2.0000     -18.488223      -503.0901
   1   2.0000     -18.487838      -503.0796
   2   2.0000      -9.753949      -265.4184
   3   2.0000      -9.716128      -264.3893
   4   2.0000      -9.705874      -264.1102
   5   2.0000      -0.733303       -19.9542
   6   2.0000      -0.644893       -17.5484
   7   2.0000      -0.533550       -14.5186
   8   2.0000      -0.409941       -11.1551
   9   2.0000      -0.267786        -7.2868
  10   2.0000      -0.242972        -6.6116
  11   2.0000      -0.209436        -5.6990
  12   2.0000      -0.183881        -5.0037
  13   2.0000      -0.166598        -4.5334
  14   2.0000      -0.159437        -4.3385
  15   2.0000      -0.130949        -3.5633
  16   2.0000      -0.119161        -3.2425
  17   2.0000      -0.012365        -0.3365
  18   2.0000       0.001546         0.0421
  19   2.0000       0.018529         0.5042
  20   0.0000       0.120304         3.2736
  21   0.0000       0.146549         3.9878
  22   0.0000       0.159373         4.3368
  23   0.0000       0.168377         4.5818
  24   0.0000       0.192697         5.2436

MULLIKEN ATOMIC CHARGES
-----------------------
   0 C :   -0.872240
   1 C :    0.061229
   2 H :    0.119517
   3 H :    0.125757
   4 C :    0.264315
   5 O :   -0.668366
   6 O :   -0.671961
   7 H :    0.199328
   8 H :    0.231794
   9 H :    0.210627
Sum of atomic charges:   -1.0000000

LOEWDIN ATOMIC CHARGES
----------------------
   0 C :   -0.133977
   1 C :   -0.218698
   2 H :    0.091437
   3 H :    0.084106
   4 C :   -0.800142
   5 O :   -0.092601
   6 O :   -0.083343
   7 H :    0.039700
   8 H :    0.060125
   9 H :    0.053393

  Mayer bond orders larger than 0.100000
B(  0-C ,  1-C ) :   0.6882 B(  0-C ,  4-C ) :   0.1809 B(  0-C ,  7-H ) :   0.9695
B(  0-C ,  8-H ) :   0.9746 B(  0-C ,  9-H ) :   1.0226 B(  1-C ,  2-H ) :   0.9475
B(  1-C ,  3-H ) :   1.0217 B(  1-C ,  4-C ) :   0.9470 B(  4-C ,  5-O ) :   1.4502
B(  4-C ,  6-O ) :   1.4666

Dispersion correction           -0.006551424
FINAL SINGLE POINT ENERGY      -267.643111565088

DIPOLE MOMENT
-------------
                                X             Y             Z
Electronic contribution:      2.48660      -1.51880       5.19122
Nuclear contribution   :     -3.31311       2.28398      -6.76358
                        -----------------------------------------
Total Dipole Moment    :     -0.82652       0.76519      -1.57236
                        -----------------------------------------
Magnitude (a.u.)       :      1.93416
Magnitude (Debye)      :      4.91624

Rotational constants in cm-1:     0.309287     0.135287     0.107346
Rotational constants in MHz :  9272.201029  4055.789113  3218.155789

                             ****ORCA TERMINATED NORMALLY****
TOTAL RUN TIME: 0 days 0 hours 0 minutes 6 seconds 206 msec
