                         Program Version 5.0.0 -  RELEASE  -
|  1> !PBE D3BJ RIJCOSX def2-TZVPD def2/J TightSCF
|  2> *xyz 1 1
|  3> C          3.91385       -1.65829        3.01513
|  4> N          5.03927       -0.90115        2.49282
|  5> C          6.21038       -1.41726        2.17824
|  6> N          6.53591       -2.67712        2.55608
|  7> N          7.07675       -0.70082        1.47891
|  8> H          7.95464       -1.12155        1.20755
|  9> H          6.75616        0.10664        0.96028
| 10> H          4.84217        0.01761        2.11519
| 11> H          5.99388       -3.12692        3.28278
| 12> C          3.13916       -2.37657        1.91061
| 13> H          3.26723       -0.93940        3.52069
| 14> H          4.24720       -2.35509        3.79006
| 15> H          7.49844       -2.97548        2.46878
| 16> H          2.82969       -1.66654        1.17238
| 17> H          2.27790       -2.85264        2.33072
| 18> H          3.76754       -3.11338        1.45548
| 19> *
| 20> %MaxCore 64000
| 21> %pal nprocs 8
| 22> end
| 23> %scf
| 24>   MaxIter 150
| 25> end
| 26>
| 27>
| 28>                          ****END OF INPUT****

CARTESIAN COORDINATES (ANGSTROEM)
---------------------------------
  C      3.913850   -1.658290    3.015130
  N      5.039270   -0.901150    2.492820
  C      6.210380   -1.417260    2.178240
  N      6.535910   -2.677120    2.556080
  N      7.076750   -0.700820    1.478910
  H      7.954640   -1.121550    1.207550
  H      6.756160    0.106640    0.960280
  H      4.842170    0.017610    2.115190
  H      5.993880   -3.126920    3.282780
  C      3.139160   -2.376570    1.910610
  H      3.267230   -0.939400    3.520690
  H      4.247200   -2.355090    3.790060
  H      7.498440   -2.975480    2.468780
  H      2.829690   -1.666540    1.172380
  H      2.277900   -2.852640    2.330720
  H      3.767540   -3.113380    1.455480

 Total Charge           Charge          ....    1
 Multiplicity           Mult            ....    1
 Number of Electrons    NEL             ....   48
 Basis Dimension        Dim             ....  312

ORBITAL ENERGIES
----------------

  NO   OCC          E(Eh)            E(eV)
   0   2.0000     -14.210633      -386.6910
   1   2.0000     -14.206708      -386.5842
   2   2.0000     -14.204838      -386.5333
   3   2.0000     -10.203780      -277.6590
   4   2.0000     -10.089963      -274.5619
   5   2.0000     -10.016457      -272.5617
   6   2.0000      -1.131692       -30.7949
   7   2.0000      -1.029870       -28.0242
   8   2.0000      -1.014094       -27.5949
   9   2.0000      -0.863381       -23.4938
  10   2.0000      -0.782102       -21.2821
  11   2.0000      -0.744567       -20.2607
  12   2.0000      -0.732133       -19.9224
  13   2.0000      -0.690837       -18.7986
  14   2.0000      -0.643140       -17.5007
  15   2.0000      -0.637881       -17.3576
  16   2.0000      -0.606912       -16.5149
  17   2.0000      -0.582083       -15.8393
  18   2.0000      -0.555782       -15.1236
  19   2.0000      -0.518992       -14.1225
  20   2.0000      -0.489495       -13.3198
  21   2.0000      -0.470892       -12.8136
  22   2.0000      -0.437160       -11.8957
  23   2.0000      -0.413348       -11.2478
  24   0.0000      -0.203983        -5.5507
  25   0.0000      -0.183952        -5.0056
  26   0.0000      -0.152921        -4.1612
  27   0.0000      -0.143594        -3.9074
  28   0.0000      -0.123289        -3.3549

MULLIKEN ATOMIC CHARGES
-----------------------
   0 C :   -0.387940
   1 N :   -0.004888
   2 C :    0.448386
   3 N :   -0.189108
   4 N :   -0.187839
   5 H :    0.174269
   6 H :    0.183419
   7 H :    0.189937
   8 H :    0.157917
   9 C :   -0.784546
  10 H :    0.214535
  11 H :    0.239908
  12 H :    0.173068
  13 H :    0.250783
  14 H :    0.263412
  15 H :    0.258687
Sum of atomic charges:    1.0000000

LOEWDIN ATOMIC CHARGES
----------------------
   0 C :   -0.207454
   1 N :    0.094722
   2 C :   -0.456579
   3 N :    0.224390
   4 N :    0.218603
   5 H :    0.136525
   6 H :    0.138996
   7 H :    0.169222
   8 H :    0.118799
   9 C :   -0.053799
  10 H :    0.132213
  11 H :    0.118065
  12 H :    0.133388
  13 H :    0.078327
  14 H :    0.083317
  15 H :    0.071265

  Mayer bond orders larger than 0.100000
B(  0-C ,  1-N ) :   0.9714 B(  0-C ,  9-C ) :   0.8654 B(  0-C , 10-H ) :   0.9625
B(  0-C , 11-H ) :   0.8960 B(  1-N ,  2-C ) :   1.2593 B(  1-N ,  4-N ) :   0.1150
B(  1-N ,  7-H ) :   0.9674 B(  2-C ,  3-N ) :   1.1999 B(  2-C ,  4-N ) :   1.2008
B(  3-N ,  8-H ) :   0.9537 B(  3-N , 12-H ) :   1.0028 B(  4-N ,  5-H ) :   0.9868
B(  4-N ,  6-H ) :   0.9722 B(  9-C , 13-H ) :   0.9804 B(  9-C , 14-H ) :   0.9703
B(  9-C , 15-H ) :   0.9741

Dispersion correction           -0.012423308
FINAL SINGLE POINT ENERGY      -284.157550586306

DIPOLE MOMENT
-------------
                                X             Y             Z
Electronic contribution:      4.66737       1.89571       0.07749
Nuclear contribution   :     -3.67981      -1.62355      -0.28562
                        -----------------------------------------
Total Dipole Moment    :      0.98756       0.27216      -0.20813
                        -----------------------------------------
Magnitude (a.u.)       :      1.04531
Magnitude (Debye)      :      2.65697

Rotational constants in cm-1:     0.222027     0.074735     0.065694
Rotational constants in MHz :  6656.200457  2240.503315  1969.451902

                             ****ORCA TERMINATED NORMALLY****
TOTAL RUN TIME: 0 days 0 hours 0 minutes 9 seconds 690 msec
