                         Program Version 5.0.0 -  RELEASE  -
|  1> !PBE D3BJ RIJCOSX def2-TZVPD def2/J TightSCF xyzfile
|  2>
|  3> *xyzfile 0 1 B.xyz
|  4>
|  5> %MaxCore 64000
|  6>
|  7> %pal nprocs 4
|  8> end
|  9>
| 10> %scf
| 11>   MaxIter 150
| 12> end
| 13>
| 14>
| 15>                          ****END OF INPUT****

CARTESIAN COORDINATES (ANGSTROEM)
---------------------------------
  C      3.913853   -1.658291    3.015134
  N      5.039266   -0.901154    2.492821
  C      4.084215    1.742081   -2.114724
  C      4.265245    2.500518   -0.795890
  H      4.868534    3.392674   -0.981134
  H      3.307640    2.824571   -0.387809
  C      4.982240    1.650257    0.247422
  C      6.210384   -1.417261    2.178244
  N      6.535913   -2.677122    2.556078
  N      7.076754   -0.700820    1.478906
  H      7.954643   -1.121554    1.207554
  H      6.756161    0.106637    0.960278
  H      4.842168    0.017609    2.115191
  H      5.993876   -3.126918    3.282784
  H      7.498441   -2.975482    2.468776
  O      4.368065    1.389270    1.313706
  O      6.128919    1.233512   -0.045620
  C      3.139159   -2.376572    1.910609
  H      3.267235   -0.939401    3.520693
  H      4.247195   -2.355095    3.790065
  C      1.997274    0.430918   -1.399218
  C      3.412746    0.376886   -1.965497
  H      4.047407   -0.246590   -1.326706
  H      3.390774   -0.118719   -2.942839
  H      5.068475    1.598504   -2.565728
  H      3.503356    2.363939   -2.804565
  C      2.399946   -1.389579    1.009490
  H      2.440750   -3.087118    2.362976
  H      3.844475   -2.970462    1.318677
  C      2.070177   -1.936705   -0.372401
  H      1.481611   -1.061542    1.509912
  H      3.008628   -0.490001    0.897451
  C      1.322238   -0.935775   -1.256413
  H      1.472747   -2.850902   -0.283997
  H      3.003539   -2.234041   -0.862535
  H      1.376444    1.058920   -2.047420
  H      2.015341    0.929780   -0.426535
  H      0.316648   -0.787213   -0.848278
  H      1.185611   -1.379252   -2.248613

 Total Charge           Charge          ....    0
 Multiplicity           Mult            ....    1
 Number of Electrons    NEL             ....  126
 Basis Dimension        Dim             ....  805

ORBITAL ENERGIES
----------------

  NO   OCC          E(Eh)            E(eV)
   0   2.0000     -18.673060      -508.1198
   1   2.0000     -18.672054      -508.0924
   2   2.0000     -14.048427      -382.2771
   3   2.0000     -14.017197      -381.4273
   4   2.0000     -14.009560      -381.2195
   5   2.0000     -10.027706      -272.8678
   6   2.0000      -9.938169      -270.4313
   7   2.0000      -9.932226      -270.2696
   8   2.0000      -9.890004      -269.1207
   9   2.0000      -9.868237      -268.5284
  10   2.0000      -9.867986      -268.5215
  11   2.0000      -9.863938      -268.4114
  12   2.0000      -9.854960      -268.1671
  13   2.0000      -9.853345      -268.1232
  14   2.0000      -9.852484      -268.0997
  15   2.0000      -9.843229      -267.8479
  16   2.0000      -0.956436       -26.0259
  17   2.0000      -0.921773       -25.0827
  18   2.0000      -0.856405       -23.3040
  19   2.0000      -0.842283       -22.9197
  20   2.0000      -0.830455       -22.5978
  21   2.0000      -0.738063       -20.0837
  22   2.0000      -0.714750       -19.4493
  23   2.0000      -0.687627       -18.7113
  24   2.0000      -0.651274       -17.7221
  25   2.0000      -0.615707       -16.7543
  26   2.0000      -0.601444       -16.3661
  27   2.0000      -0.571484       -15.5509
  28   2.0000      -0.559367       -15.2211
  29   2.0000      -0.545074       -14.8322
  30   2.0000      -0.519499       -14.1363
  31   2.0000      -0.512881       -13.9562
  32   2.0000      -0.482255       -13.1228
  33   2.0000      -0.474170       -12.9028
  34   2.0000      -0.466332       -12.6895
  35   2.0000      -0.448498       -12.2043
  36   2.0000      -0.421928       -11.4813
  37   2.0000      -0.414845       -11.2885
  38   2.0000      -0.410288       -11.1645
  39   2.0000      -0.405705       -11.0398
  40   2.0000      -0.393053       -10.6955
  41   2.0000      -0.375808       -10.2263
  42   2.0000      -0.373108       -10.1528
  43   2.0000      -0.370157       -10.0725
  44   2.0000      -0.362366        -9.8605
  45   2.0000      -0.349594        -9.5129
  46   2.0000      -0.336826        -9.1655
  47   2.0000      -0.327090        -8.9006
  48   2.0000      -0.322041        -8.7632
  49   2.0000      -0.312183        -8.4949
  50   2.0000      -0.305619        -8.3163
  51   2.0000      -0.297968        -8.1081
  52   2.0000      -0.286336        -7.7916
  53   2.0000      -0.278911        -7.5895
  54   2.0000      -0.273022        -7.4293
  55   2.0000      -0.268604        -7.3091
  56   2.0000      -0.259933        -7.0731
  57   2.0000      -0.255940        -6.9645
  58   2.0000      -0.248834        -6.7711
  59   2.0000      -0.239011        -6.5038
  60   2.0000      -0.196705        -5.3526
  61   2.0000      -0.181745        -4.9455
  62   2.0000      -0.171703        -4.6723
  63   0.0000      -0.046957        -1.2778
  64   0.0000      -0.034651        -0.9429
  65   0.0000      -0.017588        -0.4786
  66   0.0000       0.000338         0.0092
  67   0.0000       0.006376         0.1735

MULLIKEN ATOMIC CHARGES
-----------------------
   0 C :   -0.803900
   1 N :    0.067756
   2 C :   -0.363183
   3 C :   -0.157251
   4 H :    0.140247
   5 H :    0.176053
   6 C :    0.524956
   7 C :    0.285301
   8 N :   -0.184904
   9 N :   -0.066997
  10 H :    0.168923
  11 H :    0.149294
  12 H :    0.178280
  13 H :    0.144462
  14 H :    0.153393
  15 O :   -0.795351
  16 O :   -0.824313
  17 C :   -0.152234
  18 H :    0.232599
  19 H :    0.240332
  20 C :   -0.286579
  21 C :   -0.255877
  22 H :    0.166235
  23 H :    0.125957
  24 H :    0.143951
  25 H :    0.133538
  26 C :    0.295658
  27 H :    0.175404
  28 H :    0.170328
  29 C :   -0.321835
  30 H :    0.192757
  31 H :   -0.285786
  32 C :   -0.379250
  33 H :    0.101342
  34 H :    0.275301
  35 H :    0.115705
  36 H :    0.203072
  37 H :    0.160565
  38 H :    0.156049
Sum of atomic charges:   -0.0000000

LOEWDIN ATOMIC CHARGES
----------------------
   0 C :   -0.172891
   1 N :    0.110821
   2 C :   -0.205320
   3 C :   -0.128732
   4 H :    0.114917
   5 H :    0.104639
   6 C :   -0.673483
   7 C :   -0.464026
   8 N :    0.185673
   9 N :    0.216302
  10 H :    0.120736
  11 H :    0.035149
  12 H :    0.068807
  13 H :    0.099183
  14 H :    0.112728
  15 O :   -0.026016
  16 O :   -0.013022
  17 C :   -0.184657
  18 H :    0.132401
  19 H :    0.105598
  20 C :   -0.215979
  21 C :   -0.212037
  22 H :    0.105331
  23 H :    0.116444
  24 H :    0.107808
  25 H :    0.108294
  26 C :   -0.213000
  27 H :    0.115131
  28 H :    0.111726
  29 C :   -0.220756
  30 H :    0.128872
  31 H :    0.085812
  32 C :   -0.213337
  33 H :    0.111769
  34 H :    0.109001
  35 H :    0.116078
  36 H :    0.103630
  37 H :    0.108460
  38 H :    0.107946

  Mayer bond orders larger than 0.100000
B(  0-C ,  1-N ) :   1.0166 B(  0-C ,  7-C ) :  -0.1493 B(  0-C , 17-C ) :   0.9158
B(  0-C , 18-H ) :   0.8502 B(  0-C , 19-H ) :   0.9280 B(  0-C , 26-C ) :   0.1762
B(  0-C , 27-H ) :  -0.1049 B(  0-C , 31-H ) :   0.1295 B(  1-N ,  7-C ) :   1.2377
B(  1-N , 12-H ) :   0.7863 B(  1-N , 15-O ) :  -0.1107 B(  2-C ,  3-C ) :   0.8766
B(  2-C ,  6-C ) :   0.2163 B(  2-C , 20-C ) :   0.2430 B(  2-C , 21-C ) :   1.1208
B(  2-C , 24-H ) :   0.9063 B(  2-C , 25-H ) :   0.9092 B(  3-C ,  4-H ) :   0.8738
B(  3-C ,  5-H ) :   0.9644 B(  3-C ,  6-C ) :   1.0244 B(  3-C , 20-C ) :   0.1586
B(  6-C , 15-O ) :   1.3407 B(  6-C , 16-O ) :   1.1822 B(  7-C ,  8-N ) :   1.1359
B(  7-C ,  9-N ) :   1.2290 B(  7-C , 12-H ) :  -0.1483 B(  8-N , 13-H ) :   0.9608
B(  8-N , 14-H ) :   1.0000 B(  9-N , 10-H ) :   0.9643 B(  9-N , 11-H ) :   0.8643
B( 11-H , 16-O ) :   0.1342 B( 12-H , 15-O ) :   0.1379 B( 15-O , 16-O ) :   0.1578
B( 17-C , 26-C ) :   0.7570 B( 17-C , 27-H ) :   1.0039 B( 17-C , 28-H ) :   0.8045
B( 17-C , 29-C ) :   0.5272 B( 17-C , 30-H ) :  -0.1410 B( 20-C , 21-C ) :   0.5358
B( 20-C , 32-C ) :   1.0388 B( 20-C , 35-H ) :   0.9329 B( 20-C , 36-H ) :   0.9634
B( 21-C , 22-H ) :   1.0074 B( 21-C , 23-H ) :   0.9080 B( 21-C , 29-C ) :   0.2213
B( 21-C , 32-C ) :   0.1798 B( 26-C , 29-C ) :   0.6371 B( 26-C , 30-H ) :   0.7063
B( 26-C , 31-H ) :   1.7288 B( 26-C , 32-C ) :   0.2229 B( 29-C , 31-H ) :  -0.2108
B( 29-C , 32-C ) :   1.0265 B( 29-C , 33-H ) :   0.9664 B( 29-C , 34-H ) :   0.8646
B( 30-H , 31-H ) :   0.1847 B( 32-C , 37-H ) :   0.9212 B( 32-C , 38-H ) :   0.9296

Dispersion correction           -0.044850905
FINAL SINGLE POINT ENERGY      -747.171158868624

DIPOLE MOMENT
-------------
                                X             Y             Z
Electronic contribution:     12.27541       3.38504       7.65491
Nuclear contribution   :    -11.44764      -6.21818      -6.18483
                        -----------------------------------------
Total Dipole Moment    :      0.82777      -2.83313       1.47009
                        -----------------------------------------
Magnitude (a.u.)       :      3.29742
Magnitude (Debye)      :      8.38139

Rotational constants in cm-1:     0.020281     0.013510     0.009451
Rotational constants in MHz :   608.005987   405.034308   283.324538

                             ****ORCA TERMINATED NORMALLY****
TOTAL RUN TIME: 0 days 0 hours 2 minutes 29 seconds 899 msec
