                         Program Version 5.0.0 -  RELEASE  -
|  1> !PBE D3BJ RIJCOSX def2-TZVPD def2/J TightSCF
|  2> *xyz 0 1
|  3> C          4.08422        1.74208       -2.11472
|  4> C          4.26524        2.50052       -0.79589
|  5> H          4.86853        3.39267       -0.98113
|  6> H          3.30764        2.82457       -0.38781
|  7> C          4.98224        1.65026        0.24742
|  8> F          4.36806        1.38927        1.31371
|  9> O          6.12892        1.23351       -0.04562
| 10> H          3.57911        2.36849       -2.81997
| 11> H          3.50424        0.85965       -1.94198
| 12> H          5.04288        1.46841       -2.50327
| 13> *
| 14> %MaxCore 64000
| 15> %pal nprocs 8
| 16> end
| 17> %scf
| 18>   MaxIter 150
| 19> end
| 20>
| 21>
| 22>                          ****END OF INPUT****

CARTESIAN COORDINATES (ANGSTROEM)
---------------------------------
  C      4.084220    1.742080   -2.114720
  C      4.265240    2.500520   -0.795890
  H      4.868530    3.392670   -0.981130
  H      3.307640    2.824570   -0.387810
  C      4.982240    1.650260    0.247420
  F      4.368060    1.389270    1.313710
  O      6.128920    1.233510   -0.045620
  H      3.579110    2.368490   -2.819970
  H      3.504240    0.859650   -1.941980
  H      5.042880    1.468410   -2.503270

 Total Charge           Charge          ....    0
 Multiplicity           Mult            ....    1
 Number of Electrons    NEL             ....   40
 Basis Dimension        Dim             ....  236

ORBITAL ENERGIES
----------------

  NO   OCC          E(Eh)            E(eV)
   0   2.0000     -24.326055      -661.9456
   1   2.0000     -18.754149      -510.3263
   2   2.0000     -10.047618      -273.4096
   3   2.0000      -9.912590      -269.7353
   4   2.0000      -9.885438      -268.9964
   5   2.0000      -1.214286       -33.0424
   6   2.0000      -0.946486       -25.7552
   7   2.0000      -0.729060       -19.8387
   8   2.0000      -0.623856       -16.9760
   9   2.0000      -0.576202       -15.6793
  10   2.0000      -0.488742       -13.2993
  11   2.0000      -0.473806       -12.8929
  12   2.0000      -0.451597       -12.2886
  13   2.0000      -0.416188       -11.3251
  14   2.0000      -0.385080       -10.4785
  15   2.0000      -0.355922        -9.6851
  16   2.0000      -0.334106        -9.0915
  17   2.0000      -0.329320        -8.9612
  18   2.0000      -0.307220        -8.3599
  19   2.0000      -0.245085        -6.6691
  20   0.0000      -0.068921        -1.8754
  21   0.0000      -0.013271        -0.3611
  22   0.0000       0.014517         0.3950
  23   0.0000       0.024794         0.6747
  24   0.0000       0.033407         0.9090

MULLIKEN ATOMIC CHARGES
-----------------------
   0 C :   -0.861974
   1 C :    0.072738
   2 H :    0.145561
   3 H :    0.155923
   4 C :    0.366566
   5 F :   -0.149487
   6 O :   -0.433388
   7 H :    0.201331
   8 H :    0.261881
   9 H :    0.240850
Sum of atomic charges:   -0.0000000

LOEWDIN ATOMIC CHARGES
----------------------
   0 C :   -0.086303
   1 C :   -0.161859
   2 H :    0.121318
   3 H :    0.106854
   4 C :   -0.519679
   5 F :    0.224124
   6 O :    0.099909
   7 H :    0.068718
   8 H :    0.074335
   9 H :    0.072583

  Mayer bond orders larger than 0.100000
B(  0-C ,  1-C ) :   0.7650 B(  0-C ,  4-C ) :   0.1712 B(  0-C ,  7-H ) :   0.9772
B(  0-C ,  8-H ) :   0.9374 B(  0-C ,  9-H ) :   1.0029 B(  1-C ,  2-H ) :   0.9309
B(  1-C ,  3-H ) :   0.9768 B(  1-C ,  4-C ) :   0.9292 B(  4-C ,  5-F ) :   1.0686
B(  4-C ,  6-O ) :   1.7971

Dispersion correction           -0.006226004
FINAL SINGLE POINT ENERGY      -292.194298786401

DIPOLE MOMENT
-------------
                                X             Y             Z
Electronic contribution:      1.95489      -2.06798       8.15115
Nuclear contribution   :     -2.87511       2.61564      -8.50037
                        -----------------------------------------
Total Dipole Moment    :     -0.92022       0.54766      -0.34922
                        -----------------------------------------
Magnitude (a.u.)       :      1.12636
Magnitude (Debye)      :      2.86298

Rotational constants in cm-1:     0.297822     0.128965     0.102219
Rotational constants in MHz :  8928.481997  3866.271686  3064.463504

                             ****ORCA TERMINATED NORMALLY****
TOTAL RUN TIME: 0 days 0 hours 0 minutes 7 seconds 857 msec
