                         Program Version 5.0.0 -  RELEASE  -
|  1> !PBE D3BJ RIJCOSX def2-TZVPD def2/J TightSCF
|  2> *xyz 0 1
|  3> C          3.91385       -1.65829        3.01513
|  4> C          5.03927       -0.90115        2.49282
|  5> C          6.21038       -1.41726        2.17824
|  6> N          6.53591       -2.67712        2.55608
|  7> N          7.07675       -0.70082        1.47891
|  8> H          7.95464       -1.12155        1.20755
|  9> H          6.75616        0.10664        0.96028
| 10> H          4.84217        0.01761        2.11519
| 11> H          5.99388       -3.12692        3.28278
| 12> C          3.13916       -2.37657        1.91061
| 13> H          3.26723       -0.93940        3.52069
| 14> H          4.24720       -2.35509        3.79006
| 15> H          7.49844       -2.97548        2.46878
| 16> H          2.82969       -1.66654        1.17238
| 17> H          2.27790       -2.85264        2.33072
| 18> H          3.76754       -3.11338        1.45548
| 19> *
| 20> %MaxCore 64000
| 21> %pal nprocs 8
| 22> end
| 23> %scf
| 24>   MaxIter 150
| 25> end
| 26>
| 27>
| 28>                          ****END OF INPUT****

CARTESIAN COORDINATES (ANGSTROEM)
---------------------------------
  C      3.913850   -1.658290    3.015130
  C      5.039270   -0.901150    2.492820
  C      6.210380   -1.417260    2.178240
  N      6.535910   -2.677120    2.556080
  N      7.076750   -0.700820    1.478910
  H      7.954640   -1.121550    1.207550
  H      6.756160    0.106640    0.960280
  H      4.842170    0.017610    2.115190
  H      5.993880   -3.126920    3.282780
  C      3.139160   -2.376570    1.910610
  H      3.267230   -0.939400    3.520690
  H      4.247200   -2.355090    3.790060
  H      7.498440   -2.975480    2.468780
  H      2.829690   -1.666540    1.172380
  H      2.277900   -2.852640    2.330720
  H      3.767540   -3.113380    1.455480

 Total Charge           Charge          ....    0
 Multiplicity           Mult            ....    1
 Number of Electrons    NEL             ....   48
 Basis Dimension        Dim             ....  312

ORBITAL ENERGIES
----------------

  NO   OCC          E(Eh)            E(eV)
   0   2.0000     -13.986732      -380.5983
   1   2.0000     -13.985029      -380.5520
   2   2.0000      -9.917751      -269.8757
   3   2.0000      -9.857542      -268.2374
   4   2.0000      -9.843715      -267.8611
   5   2.0000      -9.805758      -266.8282
   6   2.0000      -0.879254       -23.9257
   7   2.0000      -0.795351       -21.6426
   8   2.0000      -0.702061       -19.1041
   9   2.0000      -0.627181       -17.0665
  10   2.0000      -0.557115       -15.1599
  11   2.0000      -0.521892       -14.2014
  12   2.0000      -0.489299       -13.3145
  13   2.0000      -0.459173       -12.4947
  14   2.0000      -0.426489       -11.6054
  15   2.0000      -0.390939       -10.6380
  16   2.0000      -0.371526       -10.1097
  17   2.0000      -0.341903        -9.3037
  18   2.0000      -0.336965        -9.1693
  19   2.0000      -0.312473        -8.5028
  20   2.0000      -0.286583        -7.7983
  21   2.0000      -0.278011        -7.5651
  22   2.0000      -0.224987        -6.1222
  23   2.0000      -0.132326        -3.6008
  24   0.0000      -0.020562        -0.5595
  25   0.0000       0.006700         0.1823
  26   0.0000       0.012239         0.3330
  27   0.0000       0.025112         0.6833
  28   0.0000       0.038848         1.0571

MULLIKEN ATOMIC CHARGES
-----------------------
   0 C :   -0.281264
   1 C :   -0.496118
   2 C :    0.284871
   3 N :   -0.248260
   4 N :   -0.256899
   5 H :    0.113899
   6 H :    0.154840
   7 H :    0.278111
   8 H :    0.135961
   9 C :   -0.867657
  10 H :    0.108149
  11 H :    0.247937
  12 H :    0.112711
  13 H :    0.259876
  14 H :    0.217371
  15 H :    0.236472
Sum of atomic charges:    0.0000000

LOEWDIN ATOMIC CHARGES
----------------------
   0 C :   -0.286229
   1 C :   -0.149506
   2 C :   -0.556520
   3 N :    0.138332
   4 N :    0.120809
   5 H :    0.094074
   6 H :    0.108914
   7 H :    0.070303
   8 H :    0.091610
   9 C :   -0.103181
  10 H :    0.102685
  11 H :    0.093628
  12 H :    0.091777
  13 H :    0.065669
  14 H :    0.056147
  15 H :    0.061487

  Mayer bond orders larger than 0.100000
B(  0-C ,  1-C ) :   0.9420 B(  0-C ,  2-C ) :   0.1680 B(  0-C ,  9-C ) :   0.6800
B(  0-C , 10-H ) :   1.0985 B(  0-C , 11-H ) :   0.9150 B(  1-C ,  2-C ) :   1.4117
B(  1-C ,  7-H ) :   0.9503 B(  1-C ,  9-C ) :   0.2158 B(  2-C ,  3-N ) :   1.0550
B(  2-C ,  4-N ) :   1.1083 B(  2-C ,  7-H ) :  -0.1240 B(  3-N ,  8-H ) :   0.9626
B(  3-N , 12-H ) :   1.0553 B(  4-N ,  5-H ) :   1.0406 B(  4-N ,  6-H ) :   0.9865
B(  9-C , 13-H ) :   0.9893 B(  9-C , 14-H ) :   0.9780 B(  9-C , 15-H ) :   0.9924

Dispersion correction           -0.012882584
FINAL SINGLE POINT ENERGY      -267.678797024081

DIPOLE MOMENT
-------------
                                X             Y             Z
Electronic contribution:      4.61210       1.24758      -0.03473
Nuclear contribution   :     -3.74303      -1.46908      -0.23637
                        -----------------------------------------
Total Dipole Moment    :      0.86908      -0.22150      -0.27110
                        -----------------------------------------
Magnitude (a.u.)       :      0.93694
Magnitude (Debye)      :      2.38151

Rotational constants in cm-1:     0.225937     0.074877     0.065953
Rotational constants in MHz :  6773.424301  2244.750632  1977.214101

                             ****ORCA TERMINATED NORMALLY****
TOTAL RUN TIME: 0 days 0 hours 0 minutes 10 seconds 948 msec
