                         Program Version 5.0.0 -  RELEASE  -
|  1> !PBE D3BJ RIJCOSX def2-TZVPD def2/J TightSCF
|  2> *xyz 0 1
|  3> C          4.08422        1.74208       -2.11472
|  4> C          4.26524        2.50052       -0.79589
|  5> H          4.86853        3.39267       -0.98113
|  6> H          3.30764        2.82457       -0.38781
|  7> C          4.98224        1.65026        0.24742
|  8> O          4.36806        1.38927        1.31371
|  9> F          6.12892        1.23351       -0.04562
| 10> H          3.57911        2.36849       -2.81997
| 11> H          3.50424        0.85965       -1.94198
| 12> H          5.04288        1.46841       -2.50327
| 13> *
| 14> %MaxCore 64000
| 15> %pal nprocs 8
| 16> end
| 17> %scf
| 18>   MaxIter 150
| 19> end
| 20>
| 21>
| 22>                          ****END OF INPUT****

CARTESIAN COORDINATES (ANGSTROEM)
---------------------------------
  C      4.084220    1.742080   -2.114720
  C      4.265240    2.500520   -0.795890
  H      4.868530    3.392670   -0.981130
  H      3.307640    2.824570   -0.387810
  C      4.982240    1.650260    0.247420
  O      4.368060    1.389270    1.313710
  F      6.128920    1.233510   -0.045620
  H      3.579110    2.368490   -2.819970
  H      3.504240    0.859650   -1.941980
  H      5.042880    1.468410   -2.503270

 Total Charge           Charge          ....    0
 Multiplicity           Mult            ....    1
 Number of Electrons    NEL             ....   40
 Basis Dimension        Dim             ....  236

ORBITAL ENERGIES
----------------

  NO   OCC          E(Eh)            E(eV)
   0   2.0000     -24.327088      -661.9737
   1   2.0000     -18.753366      -510.3050
   2   2.0000     -10.047285      -273.4005
   3   2.0000      -9.912288      -269.7271
   4   2.0000      -9.889858      -269.1167
   5   2.0000      -1.216758       -33.1097
   6   2.0000      -0.943429       -25.6720
   7   2.0000      -0.732879       -19.9427
   8   2.0000      -0.621688       -16.9170
   9   2.0000      -0.581238       -15.8163
  10   2.0000      -0.491410       -13.3720
  11   2.0000      -0.478536       -13.0216
  12   2.0000      -0.446676       -12.1547
  13   2.0000      -0.416130       -11.3235
  14   2.0000      -0.386681       -10.5221
  15   2.0000      -0.358520        -9.7558
  16   2.0000      -0.336787        -9.1645
  17   2.0000      -0.332754        -9.0547
  18   2.0000      -0.310861        -8.4590
  19   2.0000      -0.240193        -6.5360
  20   0.0000      -0.066368        -1.8060
  21   0.0000      -0.015245        -0.4148
  22   0.0000       0.014609         0.3975
  23   0.0000       0.023990         0.6528
  24   0.0000       0.033528         0.9123

MULLIKEN ATOMIC CHARGES
-----------------------
   0 C :   -0.887140
   1 C :    0.110007
   2 H :    0.166673
   3 H :    0.126005
   4 C :    0.362310
   5 O :   -0.429462
   6 F :   -0.162931
   7 H :    0.198165
   8 H :    0.269042
   9 H :    0.247331
Sum of atomic charges:    0.0000000

LOEWDIN ATOMIC CHARGES
----------------------
   0 C :   -0.089205
   1 C :   -0.157664
   2 H :    0.117486
   3 H :    0.116642
   4 C :   -0.525633
   5 O :    0.095927
   6 F :    0.228724
   7 H :    0.069058
   8 H :    0.075852
   9 H :    0.068812

  Mayer bond orders larger than 0.100000
B(  0-C ,  1-C ) :   0.7139 B(  0-C ,  4-C ) :   0.1705 B(  0-C ,  7-H ) :   0.9881
B(  0-C ,  8-H ) :   0.9639 B(  0-C ,  9-H ) :   0.9755 B(  1-C ,  2-H ) :   0.9233
B(  1-C ,  3-H ) :   1.0026 B(  1-C ,  4-C ) :   0.9320 B(  4-C ,  5-O ) :   1.7794
B(  4-C ,  6-F ) :   1.0615

Dispersion correction           -0.006190232
FINAL SINGLE POINT ENERGY      -292.193538348000

DIPOLE MOMENT
-------------
                                X             Y             Z
Electronic contribution:      4.84599      -2.31188       5.88562
Nuclear contribution   :     -4.79499       2.78546      -7.01827
                        -----------------------------------------
Total Dipole Moment    :      0.05100       0.47358      -1.13266
                        -----------------------------------------
Magnitude (a.u.)       :      1.22873
Magnitude (Debye)      :      3.12320

Rotational constants in cm-1:     0.286098     0.133492     0.103343
Rotational constants in MHz :  8577.003657  4001.981591  3098.148068

                             ****ORCA TERMINATED NORMALLY****
TOTAL RUN TIME: 0 days 0 hours 0 minutes 5 seconds 620 msec
