                         Program Version 5.0.0 -  RELEASE  -
|  1> !PBE D3BJ RIJCOSX def2-TZVPD def2/J TightSCF
|  2> *xyz 0 1
|  3> C          3.91385       -1.65829        3.01513
|  4> N          5.03927       -0.90115        2.49282
|  5> C          6.21038       -1.41726        2.17824
|  6> C          6.53591       -2.67712        2.55608
|  7> N          7.07675       -0.70082        1.47891
|  8> H          7.95464       -1.12155        1.20755
|  9> H          6.75616        0.10664        0.96028
| 10> H          4.84217        0.01761        2.11519
| 11> H          5.99388       -3.12692        3.28278
| 12> C          3.13916       -2.37657        1.91061
| 13> H          3.26723       -0.93940        3.52069
| 14> H          4.24720       -2.35509        3.79006
| 15> H          7.49844       -2.97548        2.46878
| 16> H          2.82969       -1.66654        1.17238
| 17> H          2.27790       -2.85264        2.33072
| 18> H          3.76754       -3.11338        1.45548
| 19> *
| 20> %MaxCore 64000
| 21> %pal nprocs 8
| 22> end
| 23> %scf
| 24>   MaxIter 150
| 25> end
| 26>
| 27>
| 28>                          ****END OF INPUT****

CARTESIAN COORDINATES (ANGSTROEM)
---------------------------------
  C      3.913850   -1.658290    3.015130
  N      5.039270   -0.901150    2.492820
  C      6.210380   -1.417260    2.178240
  C      6.535910   -2.677120    2.556080
  N      7.076750   -0.700820    1.478910
  H      7.954640   -1.121550    1.207550
  H      6.756160    0.106640    0.960280
  H      4.842170    0.017610    2.115190
  H      5.993880   -3.126920    3.282780
  C      3.139160   -2.376570    1.910610
  H      3.267230   -0.939400    3.520690
  H      4.247200   -2.355090    3.790060
  H      7.498440   -2.975480    2.468780
  H      2.829690   -1.666540    1.172380
  H      2.277900   -2.852640    2.330720
  H      3.767540   -3.113380    1.455480

 Total Charge           Charge          ....    0
 Multiplicity           Mult            ....    1
 Number of Electrons    NEL             ....   48
 Basis Dimension        Dim             ....  312

ORBITAL ENERGIES
----------------

  NO   OCC          E(Eh)            E(eV)
   0   2.0000     -13.992260      -380.7488
   1   2.0000     -13.987462      -380.6182
   2   2.0000      -9.922720      -270.0109
   3   2.0000      -9.914247      -269.7804
   4   2.0000      -9.861449      -268.3437
   5   2.0000      -9.794958      -266.5344
   6   2.0000      -0.892001       -24.2726
   7   2.0000      -0.813746       -22.1432
   8   2.0000      -0.685228       -18.6460
   9   2.0000      -0.638294       -17.3689
  10   2.0000      -0.581108       -15.8128
  11   2.0000      -0.510011       -13.8781
  12   2.0000      -0.499845       -13.6015
  13   2.0000      -0.470353       -12.7989
  14   2.0000      -0.419915       -11.4265
  15   2.0000      -0.392551       -10.6819
  16   2.0000      -0.372446       -10.1348
  17   2.0000      -0.352614        -9.5951
  18   2.0000      -0.335281        -9.1235
  19   2.0000      -0.322802        -8.7839
  20   2.0000      -0.319274        -8.6879
  21   2.0000      -0.303263        -8.2522
  22   2.0000      -0.212423        -5.7803
  23   2.0000      -0.135528        -3.6879
  24   0.0000      -0.020111        -0.5473
  25   0.0000       0.004427         0.1205
  26   0.0000       0.014102         0.3837
  27   0.0000       0.018690         0.5086
  28   0.0000       0.042291         1.1508

MULLIKEN ATOMIC CHARGES
-----------------------
   0 C :   -0.286635
   1 N :   -0.101292
   2 C :    0.684269
   3 C :   -1.220545
   4 N :   -0.249467
   5 H :    0.142167
   6 H :    0.132678
   7 H :    0.158541
   8 H :    0.193488
   9 C :   -0.836462
  10 H :    0.188055
  11 H :    0.205839
  12 H :    0.260425
  13 H :    0.217739
  14 H :    0.258068
  15 H :    0.253130
Sum of atomic charges:    0.0000000

LOEWDIN ATOMIC CHARGES
----------------------
   0 C :   -0.242563
   1 N :    0.021586
   2 C :   -0.580320
   3 C :    0.007786
   4 N :    0.125813
   5 H :    0.108112
   6 H :    0.097052
   7 H :    0.137012
   8 H :   -0.004555
   9 C :   -0.082365
  10 H :    0.111325
  11 H :    0.107378
  12 H :    0.004187
  13 H :    0.063519
  14 H :    0.063298
  15 H :    0.062735

  Mayer bond orders larger than 0.100000
B(  0-C ,  1-N ) :   0.9110 B(  0-C ,  3-C ) :   0.1110 B(  0-C ,  9-C ) :   0.8210
B(  0-C , 10-H ) :   0.9419 B(  0-C , 11-H ) :   0.9066 B(  1-N ,  2-C ) :   1.0771
B(  1-N ,  7-H ) :   0.9888 B(  2-C ,  3-C ) :   1.1793 B(  2-C ,  4-N ) :   1.0230
B(  3-C ,  4-N ) :   0.1291 B(  3-C ,  8-H ) :   1.0602 B(  3-C , 12-H ) :   1.0216
B(  4-N ,  5-H ) :   0.9922 B(  4-N ,  6-H ) :   1.0203 B(  9-C , 13-H ) :   0.9929
B(  9-C , 14-H ) :   0.9528 B(  9-C , 15-H ) :   1.0202

Dispersion correction           -0.012845253
FINAL SINGLE POINT ENERGY      -267.669185086720

DIPOLE MOMENT
-------------
                                X             Y             Z
Electronic contribution:      3.06867       2.79378      -0.19445
Nuclear contribution   :     -3.42552      -1.84584      -0.22295
                        -----------------------------------------
Total Dipole Moment    :     -0.35686       0.94793      -0.41740
                        -----------------------------------------
Magnitude (a.u.)       :      1.09551
Magnitude (Debye)      :      2.78457

Rotational constants in cm-1:     0.233526     0.075277     0.067092
Rotational constants in MHz :  7000.931279  2256.752901  2011.361214

                             ****ORCA TERMINATED NORMALLY****
TOTAL RUN TIME: 0 days 0 hours 0 minutes 11 seconds 368 msec
