                         Program Version 5.0.0 -  RELEASE  -
|  1> !PBE D3BJ RIJCOSX def2-TZVPD def2/J TightSCF
|  2> *xyz 0 1
|  3> C          3.91385       -1.65829        3.01513
|  4> N          5.03927       -0.90115        2.49282
|  5> C          6.21038       -1.41726        2.17824
|  6> N          6.53591       -2.67712        2.55608
|  7> C          7.07675       -0.70082        1.47891
|  8> H          7.95464       -1.12155        1.20755
|  9> H          6.75616        0.10664        0.96028
| 10> H          4.84217        0.01761        2.11519
| 11> H          5.99388       -3.12692        3.28278
| 12> C          3.13916       -2.37657        1.91061
| 13> H          3.26723       -0.93940        3.52069
| 14> H          4.24720       -2.35509        3.79006
| 15> H          7.49844       -2.97548        2.46878
| 16> H          2.82969       -1.66654        1.17238
| 17> H          2.27790       -2.85264        2.33072
| 18> H          3.76754       -3.11338        1.45548
| 19> *
| 20> %MaxCore 64000
| 21> %pal nprocs 8
| 22> end
| 23> %scf
| 24>   MaxIter 150
| 25> end
| 26>
| 27>
| 28>                          ****END OF INPUT****

CARTESIAN COORDINATES (ANGSTROEM)
---------------------------------
  C      3.913850   -1.658290    3.015130
  N      5.039270   -0.901150    2.492820
  C      6.210380   -1.417260    2.178240
  N      6.535910   -2.677120    2.556080
  C      7.076750   -0.700820    1.478910
  H      7.954640   -1.121550    1.207550
  H      6.756160    0.106640    0.960280
  H      4.842170    0.017610    2.115190
  H      5.993880   -3.126920    3.282780
  C      3.139160   -2.376570    1.910610
  H      3.267230   -0.939400    3.520690
  H      4.247200   -2.355090    3.790060
  H      7.498440   -2.975480    2.468780
  H      2.829690   -1.666540    1.172380
  H      2.277900   -2.852640    2.330720
  H      3.767540   -3.113380    1.455480

 Total Charge           Charge          ....    0
 Multiplicity           Mult            ....    1
 Number of Electrons    NEL             ....   48
 Basis Dimension        Dim             ....  312

ORBITAL ENERGIES
----------------

  NO   OCC          E(Eh)            E(eV)
   0   2.0000     -13.988733      -380.6528
   1   2.0000     -13.985532      -380.5657
   2   2.0000      -9.922103      -269.9941
   3   2.0000      -9.920137      -269.9407
   4   2.0000      -9.868790      -268.5434
   5   2.0000      -9.792638      -266.4712
   6   2.0000      -0.887389       -24.1471
   7   2.0000      -0.806957       -21.9584
   8   2.0000      -0.701440       -19.0871
   9   2.0000      -0.634652       -17.2698
  10   2.0000      -0.569113       -15.4863
  11   2.0000      -0.544978       -14.8296
  12   2.0000      -0.484307       -13.1787
  13   2.0000      -0.448564       -12.2061
  14   2.0000      -0.430984       -11.7277
  15   2.0000      -0.393883       -10.7181
  16   2.0000      -0.384306       -10.4575
  17   2.0000      -0.358971        -9.7681
  18   2.0000      -0.336506        -9.1568
  19   2.0000      -0.328124        -8.9287
  20   2.0000      -0.316924        -8.6239
  21   2.0000      -0.313485        -8.5304
  22   2.0000      -0.215428        -5.8621
  23   2.0000      -0.133850        -3.6422
  24   0.0000      -0.019526        -0.5313
  25   0.0000       0.004863         0.1323
  26   0.0000       0.010647         0.2897
  27   0.0000       0.016625         0.4524
  28   0.0000       0.041309         1.1241

MULLIKEN ATOMIC CHARGES
-----------------------
   0 C :   -0.340040
   1 N :   -0.030521
   2 C :    0.663202
   3 N :   -0.256683
   4 C :   -1.179259
   5 H :    0.209335
   6 H :    0.230431
   7 H :    0.145979
   8 H :    0.110938
   9 C :   -0.807748
  10 H :    0.179054
  11 H :    0.216646
  12 H :    0.136401
  13 H :    0.213468
  14 H :    0.263646
  15 H :    0.245150
Sum of atomic charges:    0.0000000

LOEWDIN ATOMIC CHARGES
----------------------
   0 C :   -0.247138
   1 N :    0.026714
   2 C :   -0.577632
   3 N :    0.133732
   4 C :   -0.003658
   5 H :    0.005303
   6 H :    0.008085
   7 H :    0.145968
   8 H :    0.080957
   9 C :   -0.083599
  10 H :    0.111741
  11 H :    0.102347
  12 H :    0.104826
  13 H :    0.066819
  14 H :    0.061763
  15 H :    0.063772

  Mayer bond orders larger than 0.100000
B(  0-C ,  1-N ) :   0.9407 B(  0-C ,  9-C ) :   0.8330 B(  0-C , 10-H ) :   0.9923
B(  0-C , 11-H ) :   0.9159 B(  1-N ,  2-C ) :   1.1201 B(  1-N ,  4-C ) :   0.1263
B(  1-N ,  7-H ) :   0.9547 B(  2-C ,  3-N ) :   1.0140 B(  2-C ,  4-C ) :   1.1591
B(  2-C ,  5-H ) :  -0.1109 B(  3-N ,  8-H ) :   1.0081 B(  3-N , 12-H ) :   1.0051
B(  4-C ,  5-H ) :   1.1354 B(  4-C ,  6-H ) :   0.9735 B(  9-C , 13-H ) :   1.0004
B(  9-C , 14-H ) :   0.9756 B(  9-C , 15-H ) :   1.0032

Dispersion correction           -0.012776489
FINAL SINGLE POINT ENERGY      -267.668724343254

DIPOLE MOMENT
-------------
                                X             Y             Z
Electronic contribution:      2.53036       0.93018       0.95310
Nuclear contribution   :     -3.31079      -1.42658      -0.45147
                        -----------------------------------------
Total Dipole Moment    :     -0.78043      -0.49640       0.50163
                        -----------------------------------------
Magnitude (a.u.)       :      1.05220
Magnitude (Debye)      :      2.67447

Rotational constants in cm-1:     0.225507     0.077571     0.068070
Rotational constants in MHz :  6760.542142  2325.533779  2040.680522

                             ****ORCA TERMINATED NORMALLY****
TOTAL RUN TIME: 0 days 0 hours 0 minutes 9 seconds 751 msec
