                         Program Version 5.0.0 -  RELEASE  -
|  1> !PBE D3BJ RIJCOSX def2-TZVPD def2/J TightSCF xyzfile
|  2>
|  3> *xyzfile 0 1 D1.xyz
|  4>
|  5> %MaxCore 64000
|  6>
|  7> %pal nprocs 4
|  8> end
|  9>
| 10> %scf
| 11>   MaxIter 150
| 12> end
| 13>
| 14>
| 15>                          ****END OF INPUT****

CARTESIAN COORDINATES (ANGSTROEM)
---------------------------------
  C      3.913853   -1.658291    3.015134
  C      5.039266   -0.901154    2.492821
  C      4.084215    1.742081   -2.114724
  C      4.265245    2.500518   -0.795890
  H      4.868534    3.392674   -0.981134
  H      3.307640    2.824571   -0.387809
  C      4.982240    1.650257    0.247422
  C      6.210384   -1.417261    2.178244
  N      6.535913   -2.677122    2.556078
  N      7.076754   -0.700820    1.478906
  H      7.954643   -1.121554    1.207554
  H      6.756161    0.106637    0.960278
  H      4.842168    0.017609    2.115191
  H      5.993876   -3.126918    3.282784
  H      7.498441   -2.975482    2.468776
  F      4.368065    1.389270    1.313706
  O      6.128919    1.233512   -0.045620
  C      3.139159   -2.376572    1.910609
  H      3.267235   -0.939401    3.520693
  H      4.247195   -2.355095    3.790065
  C      1.997274    0.430918   -1.399218
  C      3.412746    0.376886   -1.965497
  H      4.047407   -0.246590   -1.326706
  H      3.390774   -0.118719   -2.942839
  H      5.068475    1.598504   -2.565728
  H      3.503356    2.363939   -2.804565
  C      2.399946   -1.389579    1.009490
  H      2.440750   -3.087118    2.362976
  H      3.844475   -2.970462    1.318677
  C      2.070177   -1.936705   -0.372401
  H      1.481611   -1.061542    1.509912
  H      3.008628   -0.490001    0.897451
  C      1.322238   -0.935775   -1.256413
  H      1.472747   -2.850902   -0.283997
  H      3.003539   -2.234041   -0.862535
  H      1.376444    1.058920   -2.047420
  H      2.015341    0.929780   -0.426535
  H      0.316648   -0.787213   -0.848278
  H      1.185611   -1.379252   -2.248613

 Total Charge           Charge          ....    0
 Multiplicity           Mult            ....    1
 Number of Electrons    NEL             ....  126
 Basis Dimension        Dim             ....  805

ORBITAL ENERGIES
----------------

  NO   OCC          E(Eh)            E(eV)
   0   2.0000     -24.339831      -662.3205
   1   2.0000     -18.776692      -510.9398
   2   2.0000     -13.971171      -380.1749
   3   2.0000     -13.947350      -379.5267
   4   2.0000     -10.067954      -273.9629
   5   2.0000      -9.918316      -269.8911
   6   2.0000      -9.900324      -269.4015
   7   2.0000      -9.899693      -269.3843
   8   2.0000      -9.884681      -268.9758
   9   2.0000      -9.879615      -268.8380
  10   2.0000      -9.873727      -268.6778
  11   2.0000      -9.866176      -268.4723
  12   2.0000      -9.859819      -268.2993
  13   2.0000      -9.851883      -268.0834
  14   2.0000      -9.847344      -267.9599
  15   2.0000      -9.783253      -266.2159
  16   2.0000      -1.232884       -33.5485
  17   2.0000      -0.973881       -26.5006
  18   2.0000      -0.857403       -23.3311
  19   2.0000      -0.772863       -21.0307
  20   2.0000      -0.757809       -20.6210
  21   2.0000      -0.730069       -19.8662
  22   2.0000      -0.703388       -19.1402
  23   2.0000      -0.676520       -18.4091
  24   2.0000      -0.641623       -17.4594
  25   2.0000      -0.622418       -16.9369
  26   2.0000      -0.597863       -16.2687
  27   2.0000      -0.573703       -15.6113
  28   2.0000      -0.544206       -14.8086
  29   2.0000      -0.529202       -14.4003
  30   2.0000      -0.508677       -13.8418
  31   2.0000      -0.503509       -13.7012
  32   2.0000      -0.494865       -13.4660
  33   2.0000      -0.494565       -13.4578
  34   2.0000      -0.471859       -12.8399
  35   2.0000      -0.464593       -12.6422
  36   2.0000      -0.438518       -11.9327
  37   2.0000      -0.430264       -11.7081
  38   2.0000      -0.428027       -11.6472
  39   2.0000      -0.410833       -11.1793
  40   2.0000      -0.399602       -10.8737
  41   2.0000      -0.389789       -10.6067
  42   2.0000      -0.380870       -10.3640
  43   2.0000      -0.372817       -10.1449
  44   2.0000      -0.366738        -9.9794
  45   2.0000      -0.362889        -9.8747
  46   2.0000      -0.347886        -9.4664
  47   2.0000      -0.344300        -9.3689
  48   2.0000      -0.327723        -8.9178
  49   2.0000      -0.323436        -8.8012
  50   2.0000      -0.318525        -8.6675
  51   2.0000      -0.317133        -8.6296
  52   2.0000      -0.307405        -8.3649
  53   2.0000      -0.296921        -8.0796
  54   2.0000      -0.295067        -8.0292
  55   2.0000      -0.280735        -7.6392
  56   2.0000      -0.272199        -7.4069
  57   2.0000      -0.265576        -7.2267
  58   2.0000      -0.263533        -7.1711
  59   2.0000      -0.259802        -7.0696
  60   2.0000      -0.252800        -6.8790
  61   2.0000      -0.203385        -5.5344
  62   2.0000      -0.116162        -3.1609
  63   0.0000      -0.087469        -2.3802
  64   0.0000      -0.016042        -0.4365
  65   0.0000      -0.006760        -0.1840
  66   0.0000      -0.000887        -0.0241
  67   0.0000       0.001650         0.0449

MULLIKEN ATOMIC CHARGES
-----------------------
   0 C :   -0.326118
   1 C :   -0.906920
   2 C :   -0.320506
   3 C :   -0.198711
   4 H :    0.132729
   5 H :    0.219547
   6 C :    0.562261
   7 C :   -0.307867
   8 N :   -0.228443
   9 N :   -0.152353
  10 H :    0.121593
  11 H :    0.156370
  12 H :    0.748424
  13 H :    0.148605
  14 H :    0.097214
  15 F :   -0.143196
  16 O :   -0.589884
  17 C :   -0.286663
  18 H :    0.141230
  19 H :    0.278048
  20 C :   -0.272347
  21 C :   -0.339559
  22 H :    0.226304
  23 H :    0.131398
  24 H :    0.175426
  25 H :    0.134540
  26 C :    0.443885
  27 H :    0.147569
  28 H :    0.213995
  29 C :   -0.303548
  30 H :    0.166151
  31 H :   -0.485831
  32 C :   -0.391372
  33 H :    0.099048
  34 H :    0.259083
  35 H :    0.109753
  36 H :    0.227142
  37 H :    0.155762
  38 H :    0.157241
Sum of atomic charges:   -0.0000000

LOEWDIN ATOMIC CHARGES
----------------------
   0 C :   -0.229085
   1 C :   -0.135704
   2 C :   -0.191957
   3 C :   -0.098391
   4 H :    0.128757
   5 H :    0.113327
   6 C :   -0.460563
   7 C :   -0.534519
   8 N :    0.138730
   9 N :    0.136234
  10 H :    0.095997
  11 H :    0.025992
  12 H :    0.033004
  13 H :    0.088270
  14 H :    0.089844
  15 F :    0.209021
  16 O :    0.110707
  17 C :   -0.203228
  18 H :    0.110389
  19 H :    0.095573
  20 C :   -0.218717
  21 C :   -0.207144
  22 H :    0.109909
  23 H :    0.123327
  24 H :    0.115132
  25 H :    0.117647
  26 C :   -0.219141
  27 H :    0.106987
  28 H :    0.112878
  29 C :   -0.218677
  30 H :    0.125240
  31 H :    0.082379
  32 C :   -0.212362
  33 H :    0.114615
  34 H :    0.110068
  35 H :    0.116822
  36 H :    0.099689
  37 H :    0.110062
  38 H :    0.108889

  Mayer bond orders larger than 0.100000
B(  0-C ,  1-C ) :   0.7038 B(  0-C ,  7-C ) :   0.1132 B(  0-C , 17-C ) :   0.7807
B(  0-C , 18-H ) :   1.0091 B(  0-C , 19-H ) :   0.9998 B(  0-C , 26-C ) :   0.2571
B(  1-C ,  7-C ) :   1.4331 B(  1-C , 13-H ) :  -0.1047 B(  1-C , 19-H ) :  -0.1646
B(  1-C , 26-C ) :   0.2547 B(  2-C ,  3-C ) :   0.8869 B(  2-C ,  6-C ) :   0.2185
B(  2-C , 20-C ) :   0.1975 B(  2-C , 21-C ) :   1.1273 B(  2-C , 24-H ) :   0.9063
B(  2-C , 25-H ) :   0.9140 B(  3-C ,  4-H ) :   0.8684 B(  3-C ,  5-H ) :   0.9597
B(  3-C ,  6-C ) :   1.0334 B(  3-C , 20-C ) :   0.1731 B(  6-C , 15-F ) :   0.9999
B(  6-C , 16-O ) :   1.5384 B(  6-C , 21-C ) :   0.1039 B(  7-C ,  8-N ) :   1.1372
B(  7-C ,  9-N ) :   1.2322 B(  7-C , 12-H ) :   0.2099 B(  7-C , 13-H ) :   0.1299
B(  8-N , 13-H ) :   0.9513 B(  8-N , 14-H ) :   1.0584 B(  9-N , 10-H ) :   0.9966
B(  9-N , 11-H ) :   0.8777 B( 12-H , 15-F ) :  -0.2757 B( 17-C , 26-C ) :   0.7202
B( 17-C , 27-H ) :   1.0125 B( 17-C , 28-H ) :   0.8363 B( 17-C , 29-C ) :   0.5576
B( 17-C , 30-H ) :  -0.1263 B( 20-C , 21-C ) :   0.4834 B( 20-C , 26-C ) :   0.1269
B( 20-C , 32-C ) :   1.0702 B( 20-C , 35-H ) :   0.9358 B( 20-C , 36-H ) :   0.9775
B( 21-C , 22-H ) :   1.0081 B( 21-C , 23-H ) :   0.8983 B( 21-C , 29-C ) :   0.1949
B( 21-C , 32-C ) :   0.1985 B( 21-C , 36-H ) :  -0.1184 B( 26-C , 29-C ) :   0.6240
B( 26-C , 30-H ) :   0.7219 B( 26-C , 31-H ) :   1.5713 B( 26-C , 32-C ) :   0.2205
B( 29-C , 31-H ) :  -0.1765 B( 29-C , 32-C ) :   1.0014 B( 29-C , 33-H ) :   0.9701
B( 29-C , 34-H ) :   0.8647 B( 30-H , 31-H ) :   0.1574 B( 32-C , 37-H ) :   0.9332
B( 32-C , 38-H ) :   0.9286

Dispersion correction           -0.044678808
FINAL SINGLE POINT ENERGY      -755.034791061484

DIPOLE MOMENT
-------------
                                X             Y             Z
Electronic contribution:     11.35017       8.96105       5.92096
Nuclear contribution   :    -11.48003      -8.36271      -6.78621
                        -----------------------------------------
Total Dipole Moment    :     -0.12986       0.59834      -0.86525
                        -----------------------------------------
Magnitude (a.u.)       :      1.05997
Magnitude (Debye)      :      2.69423

Rotational constants in cm-1:     0.020055     0.013548     0.009477
Rotational constants in MHz :   601.234832   406.162779   284.104317

                             ****ORCA TERMINATED NORMALLY****
TOTAL RUN TIME: 0 days 0 hours 3 minutes 56 seconds 922 msec
