                         Program Version 5.0.0 -  RELEASE  -
|  1> !PBE D3BJ RIJCOSX def2-TZVPD def2/J TightSCF xyzfile
|  2>
|  3> *xyzfile 0 1 D2.xyz
|  4>
|  5> %MaxCore 64000
|  6>
|  7> %pal nprocs 4
|  8> end
|  9>
| 10> %scf
| 11>   MaxIter 150
| 12> end
| 13>
| 14>
| 15>                          ****END OF INPUT****

CARTESIAN COORDINATES (ANGSTROEM)
---------------------------------
  C      3.913853   -1.658291    3.015134
  N      5.039266   -0.901154    2.492821
  C      4.084215    1.742081   -2.114724
  C      4.265245    2.500518   -0.795890
  H      4.868534    3.392674   -0.981134
  H      3.307640    2.824571   -0.387809
  C      4.982240    1.650257    0.247422
  C      6.210384   -1.417261    2.178244
  C      6.535913   -2.677122    2.556078
  N      7.076754   -0.700820    1.478906
  H      7.954643   -1.121554    1.207554
  H      6.756161    0.106637    0.960278
  H      4.842168    0.017609    2.115191
  H      5.993876   -3.126918    3.282784
  H      7.498441   -2.975482    2.468776
  F      4.368065    1.389270    1.313706
  O      6.128919    1.233512   -0.045620
  C      3.139159   -2.376572    1.910609
  H      3.267235   -0.939401    3.520693
  H      4.247195   -2.355095    3.790065
  C      1.997274    0.430918   -1.399218
  C      3.412746    0.376886   -1.965497
  H      4.047407   -0.246590   -1.326706
  H      3.390774   -0.118719   -2.942839
  H      5.068475    1.598504   -2.565728
  H      3.503356    2.363939   -2.804565
  C      2.399946   -1.389579    1.009490
  H      2.440750   -3.087118    2.362976
  H      3.844475   -2.970462    1.318677
  C      2.070177   -1.936705   -0.372401
  H      1.481611   -1.061542    1.509912
  H      3.008628   -0.490001    0.897451
  C      1.322238   -0.935775   -1.256413
  H      1.472747   -2.850902   -0.283997
  H      3.003539   -2.234041   -0.862535
  H      1.376444    1.058920   -2.047420
  H      2.015341    0.929780   -0.426535
  H      0.316648   -0.787213   -0.848278
  H      1.185611   -1.379252   -2.248613

 Total Charge           Charge          ....    0
 Multiplicity           Mult            ....    1
 Number of Electrons    NEL             ....  126
 Basis Dimension        Dim             ....  805

ORBITAL ENERGIES
----------------

  NO   OCC          E(Eh)            E(eV)
   0   2.0000     -24.362039      -662.9248
   1   2.0000     -18.785475      -511.1788
   2   2.0000     -13.971891      -380.1945
   3   2.0000     -13.950285      -379.6065
   4   2.0000     -10.074076      -274.1295
   5   2.0000      -9.925904      -270.0976
   6   2.0000      -9.906596      -269.5722
   7   2.0000      -9.904738      -269.5216
   8   2.0000      -9.903229      -269.4805
   9   2.0000      -9.892121      -269.1783
  10   2.0000      -9.887783      -269.0603
  11   2.0000      -9.882280      -268.9105
  12   2.0000      -9.876837      -268.7624
  13   2.0000      -9.875610      -268.7290
  14   2.0000      -9.868340      -268.5312
  15   2.0000      -9.781705      -266.1737
  16   2.0000      -1.253262       -34.1030
  17   2.0000      -0.982632       -26.7388
  18   2.0000      -0.872565       -23.7437
  19   2.0000      -0.791957       -21.5503
  20   2.0000      -0.765629       -20.8338
  21   2.0000      -0.737855       -20.0781
  22   2.0000      -0.705986       -19.2108
  23   2.0000      -0.674565       -18.3558
  24   2.0000      -0.647736       -17.6258
  25   2.0000      -0.628226       -17.0949
  26   2.0000      -0.614717       -16.7273
  27   2.0000      -0.592249       -16.1159
  28   2.0000      -0.558403       -15.1949
  29   2.0000      -0.540077       -14.6962
  30   2.0000      -0.525087       -14.2884
  31   2.0000      -0.513940       -13.9850
  32   2.0000      -0.509466       -13.8633
  33   2.0000      -0.494018       -13.4429
  34   2.0000      -0.481627       -13.1057
  35   2.0000      -0.462377       -12.5819
  36   2.0000      -0.447279       -12.1711
  37   2.0000      -0.437362       -11.9012
  38   2.0000      -0.436898       -11.8886
  39   2.0000      -0.418703       -11.3935
  40   2.0000      -0.404878       -11.0173
  41   2.0000      -0.401336       -10.9209
  42   2.0000      -0.385140       -10.4802
  43   2.0000      -0.382654       -10.4125
  44   2.0000      -0.373815       -10.1720
  45   2.0000      -0.363457        -9.8902
  46   2.0000      -0.358232        -9.7480
  47   2.0000      -0.348681        -9.4881
  48   2.0000      -0.336104        -9.1459
  49   2.0000      -0.333238        -9.0679
  50   2.0000      -0.327879        -8.9220
  51   2.0000      -0.320483        -8.7208
  52   2.0000      -0.318060        -8.6549
  53   2.0000      -0.310215        -8.4414
  54   2.0000      -0.302265        -8.2250
  55   2.0000      -0.296747        -8.0749
  56   2.0000      -0.289690        -7.8829
  57   2.0000      -0.280251        -7.6260
  58   2.0000      -0.278054        -7.5662
  59   2.0000      -0.274661        -7.4739
  60   2.0000      -0.266693        -7.2571
  61   2.0000      -0.191886        -5.2215
  62   2.0000      -0.121132        -3.2962
  63   0.0000      -0.096525        -2.6266
  64   0.0000      -0.023483        -0.6390
  65   0.0000      -0.007761        -0.2112
  66   0.0000      -0.005389        -0.1466
  67   0.0000      -0.000746        -0.0203

MULLIKEN ATOMIC CHARGES
-----------------------
   0 C :   -0.781143
   1 N :   -0.140116
   2 C :   -0.322402
   3 C :   -0.224470
   4 H :    0.137318
   5 H :    0.224623
   6 C :    0.541745
   7 C :    0.694221
   8 C :   -1.307548
   9 N :   -0.194831
  10 H :    0.138127
  11 H :    0.177753
  12 H :    0.350768
  13 H :    0.215215
  14 H :    0.272773
  15 F :   -0.291440
  16 O :   -0.602493
  17 C :   -0.217247
  18 H :    0.211138
  19 H :    0.217829
  20 C :   -0.253638
  21 C :   -0.322233
  22 H :    0.207372
  23 H :    0.135236
  24 H :    0.180504
  25 H :    0.133696
  26 C :    0.366011
  27 H :    0.176218
  28 H :    0.229331
  29 C :   -0.292950
  30 H :    0.208712
  31 H :   -0.475753
  32 C :   -0.391003
  33 H :    0.112685
  34 H :    0.238341
  35 H :    0.111539
  36 H :    0.215206
  37 H :    0.169051
  38 H :    0.151858
Sum of atomic charges:    0.0000000

LOEWDIN ATOMIC CHARGES
----------------------
   0 C :   -0.189698
   1 N :    0.045484
   2 C :   -0.190808
   3 C :   -0.099928
   4 H :    0.129043
   5 H :    0.113023
   6 C :   -0.471734
   7 C :   -0.560277
   8 C :    0.010515
   9 N :    0.145755
  10 H :    0.110495
  11 H :    0.019794
  12 H :    0.085434
  13 H :   -0.007594
  14 H :    0.003203
  15 F :    0.208424
  16 O :    0.108832
  17 C :   -0.182916
  18 H :    0.119349
  19 H :    0.109337
  20 C :   -0.218668
  21 C :   -0.206582
  22 H :    0.109446
  23 H :    0.124439
  24 H :    0.116141
  25 H :    0.118424
  26 C :   -0.221239
  27 H :    0.114676
  28 H :    0.113413
  29 C :   -0.216309
  30 H :    0.124963
  31 H :    0.079463
  32 C :   -0.210718
  33 H :    0.116678
  34 H :    0.112380
  35 H :    0.117845
  36 H :    0.098717
  37 H :    0.110731
  38 H :    0.110467

  Mayer bond orders larger than 0.100000
B(  0-C ,  1-N ) :   1.0632 B(  0-C , 17-C ) :   0.8789 B(  0-C , 18-H ) :   0.8485
B(  0-C , 19-H ) :   0.9072 B(  0-C , 26-C ) :   0.2540 B(  1-N ,  7-C ) :   1.0171
B(  1-N ,  8-C ) :   0.1316 B(  1-N , 12-H ) :   0.6939 B(  2-C ,  3-C ) :   0.8813
B(  2-C ,  6-C ) :   0.2158 B(  2-C , 20-C ) :   0.2025 B(  2-C , 21-C ) :   1.1368
B(  2-C , 24-H ) :   0.9001 B(  2-C , 25-H ) :   0.9148 B(  3-C ,  4-H ) :   0.8827
B(  3-C ,  5-H ) :   0.9549 B(  3-C ,  6-C ) :   1.0244 B(  3-C , 20-C ) :   0.1736
B(  6-C , 15-F ) :   0.9338 B(  6-C , 16-O ) :   1.5353 B(  6-C , 21-C ) :   0.1002
B(  7-C ,  8-C ) :   1.0150 B(  7-C ,  9-N ) :   1.0151 B(  7-C , 12-H ) :  -0.1070
B(  8-C ,  9-N ) :   0.1306 B(  8-C , 13-H ) :   1.0803 B(  8-C , 14-H ) :   1.0254
B(  9-N , 10-H ) :   0.9761 B(  9-N , 11-H ) :   0.8759 B( 15-F , 16-O ) :   0.1037
B( 17-C , 26-C ) :   0.7381 B( 17-C , 27-H ) :   1.0078 B( 17-C , 28-H ) :   0.8056
B( 17-C , 29-C ) :   0.5444 B( 17-C , 30-H ) :  -0.1351 B( 20-C , 21-C ) :   0.4706
B( 20-C , 22-H ) :  -0.1025 B( 20-C , 32-C ) :   1.0957 B( 20-C , 35-H ) :   0.9405
B( 20-C , 36-H ) :   0.9723 B( 21-C , 22-H ) :   1.0297 B( 21-C , 23-H ) :   0.8947
B( 21-C , 29-C ) :   0.1848 B( 21-C , 32-C ) :   0.2120 B( 21-C , 36-H ) :  -0.1190
B( 26-C , 29-C ) :   0.6485 B( 26-C , 30-H ) :   0.7272 B( 26-C , 31-H ) :   1.7352
B( 26-C , 32-C ) :   0.2301 B( 29-C , 31-H ) :  -0.1888 B( 29-C , 32-C ) :   1.0260
B( 29-C , 33-H ) :   0.9525 B( 29-C , 34-H ) :   0.8829 B( 30-H , 31-H ) :   0.1321
B( 32-C , 37-H ) :   0.9212 B( 32-C , 38-H ) :   0.9255

Dispersion correction           -0.044469858
FINAL SINGLE POINT ENERGY      -755.031071575836

DIPOLE MOMENT
-------------
                                X             Y             Z
Electronic contribution:      9.87576      10.31908       5.67469
Nuclear contribution   :    -11.22009      -8.67117      -6.77523
                        -----------------------------------------
Total Dipole Moment    :     -1.34433       1.64791      -1.10053
                        -----------------------------------------
Magnitude (a.u.)       :      2.39458
Magnitude (Debye)      :      6.08654

Rotational constants in cm-1:     0.020086     0.013778     0.009581
Rotational constants in MHz :   602.172053   413.051122   287.243919

                             ****ORCA TERMINATED NORMALLY****
TOTAL RUN TIME: 0 days 0 hours 3 minutes 37 seconds 859 msec
