                         Program Version 5.0.0 -  RELEASE  -
|  1> !PBE D3BJ RIJCOSX def2-TZVPD def2/J TightSCF xyzfile
|  2>
|  3> *xyzfile 0 1 D3.xyz
|  4>
|  5> %MaxCore 64000
|  6>
|  7> %pal nprocs 4
|  8> end
|  9>
| 10> %scf
| 11>   MaxIter 150
| 12> end
| 13>
| 14>
| 15>                          ****END OF INPUT****

CARTESIAN COORDINATES (ANGSTROEM)
---------------------------------
  C      3.913853   -1.658291    3.015134
  N      5.039266   -0.901154    2.492821
  C      4.084215    1.742081   -2.114724
  C      4.265245    2.500518   -0.795890
  H      4.868534    3.392674   -0.981134
  H      3.307640    2.824571   -0.387809
  C      4.982240    1.650257    0.247422
  C      6.210384   -1.417261    2.178244
  N      6.535913   -2.677122    2.556078
  C      7.076754   -0.700820    1.478906
  H      7.954643   -1.121554    1.207554
  H      6.756161    0.106637    0.960278
  H      4.842168    0.017609    2.115191
  H      5.993876   -3.126918    3.282784
  H      7.498441   -2.975482    2.468776
  F      4.368065    1.389270    1.313706
  O      6.128919    1.233512   -0.045620
  C      3.139159   -2.376572    1.910609
  H      3.267235   -0.939401    3.520693
  H      4.247195   -2.355095    3.790065
  C      1.997274    0.430918   -1.399218
  C      3.412746    0.376886   -1.965497
  H      4.047407   -0.246590   -1.326706
  H      3.390774   -0.118719   -2.942839
  H      5.068475    1.598504   -2.565728
  H      3.503356    2.363939   -2.804565
  C      2.399946   -1.389579    1.009490
  H      2.440750   -3.087118    2.362976
  H      3.844475   -2.970462    1.318677
  C      2.070177   -1.936705   -0.372401
  H      1.481611   -1.061542    1.509912
  H      3.008628   -0.490001    0.897451
  C      1.322238   -0.935775   -1.256413
  H      1.472747   -2.850902   -0.283997
  H      3.003539   -2.234041   -0.862535
  H      1.376444    1.058920   -2.047420
  H      2.015341    0.929780   -0.426535
  H      0.316648   -0.787213   -0.848278
  H      1.185611   -1.379252   -2.248613

 Total Charge           Charge          ....    0
 Multiplicity           Mult            ....    1
 Number of Electrons    NEL             ....  126
 Basis Dimension        Dim             ....  805

ORBITAL ENERGIES
----------------

  NO   OCC          E(Eh)            E(eV)
   0   2.0000     -24.346687      -662.5070
   1   2.0000     -18.760335      -510.4947
   2   2.0000     -13.969941      -380.1414
   3   2.0000     -13.967974      -380.0879
   4   2.0000     -10.055775      -273.6315
   5   2.0000      -9.914031      -269.7745
   6   2.0000      -9.909998      -269.6647
   7   2.0000      -9.900579      -269.4084
   8   2.0000      -9.897448      -269.3233
   9   2.0000      -9.885195      -268.9898
  10   2.0000      -9.883330      -268.9391
  11   2.0000      -9.880342      -268.8578
  12   2.0000      -9.877278      -268.7744
  13   2.0000      -9.876873      -268.7634
  14   2.0000      -9.874017      -268.6857
  15   2.0000      -9.761220      -265.6163
  16   2.0000      -1.238425       -33.6993
  17   2.0000      -0.958989       -26.0954
  18   2.0000      -0.871380       -23.7115
  19   2.0000      -0.792754       -21.5719
  20   2.0000      -0.757969       -20.6254
  21   2.0000      -0.734672       -19.9914
  22   2.0000      -0.707511       -19.2523
  23   2.0000      -0.672565       -18.3014
  24   2.0000      -0.648402       -17.6439
  25   2.0000      -0.625156       -17.0114
  26   2.0000      -0.602373       -16.3914
  27   2.0000      -0.581716       -15.8293
  28   2.0000      -0.548714       -14.9313
  29   2.0000      -0.542224       -14.7547
  30   2.0000      -0.524870       -14.2824
  31   2.0000      -0.509459       -13.8631
  32   2.0000      -0.503639       -13.7047
  33   2.0000      -0.485927       -13.2227
  34   2.0000      -0.475093       -12.9280
  35   2.0000      -0.458104       -12.4657
  36   2.0000      -0.440270       -11.9803
  37   2.0000      -0.432147       -11.7593
  38   2.0000      -0.425348       -11.5743
  39   2.0000      -0.412782       -11.2324
  40   2.0000      -0.411599       -11.2002
  41   2.0000      -0.395920       -10.7735
  42   2.0000      -0.385104       -10.4792
  43   2.0000      -0.382829       -10.4173
  44   2.0000      -0.370321       -10.0770
  45   2.0000      -0.356704        -9.7064
  46   2.0000      -0.351643        -9.5687
  47   2.0000      -0.344646        -9.3783
  48   2.0000      -0.330301        -8.9880
  49   2.0000      -0.326449        -8.8831
  50   2.0000      -0.322850        -8.7852
  51   2.0000      -0.321166        -8.7394
  52   2.0000      -0.312791        -8.5115
  53   2.0000      -0.306403        -8.3376
  54   2.0000      -0.301771        -8.2116
  55   2.0000      -0.296006        -8.0547
  56   2.0000      -0.289654        -7.8819
  57   2.0000      -0.280004        -7.6193
  58   2.0000      -0.276996        -7.5375
  59   2.0000      -0.274309        -7.4643
  60   2.0000      -0.225080        -6.1247
  61   2.0000      -0.201013        -5.4699
  62   2.0000      -0.114954        -3.1281
  63   0.0000      -0.079122        -2.1530
  64   0.0000      -0.017265        -0.4698
  65   0.0000      -0.008028        -0.2184
  66   0.0000      -0.004545        -0.1237
  67   0.0000      -0.000564        -0.0153

MULLIKEN ATOMIC CHARGES
-----------------------
   0 C :   -0.827762
   1 N :   -0.033162
   2 C :   -0.314724
   3 C :   -0.234427
   4 H :    0.125769
   5 H :    0.222476
   6 C :    0.524281
   7 C :    0.813206
   8 N :   -0.254793
   9 C :   -1.827374
  10 H :    0.144924
  11 H :    0.718493
  12 H :    0.269450
  13 H :    0.104913
  14 H :    0.156290
  15 F :   -0.283275
  16 O :   -0.484336
  17 C :   -0.153879
  18 H :    0.182916
  19 H :    0.240926
  20 C :   -0.255833
  21 C :   -0.361617
  22 H :    0.248585
  23 H :    0.128840
  24 H :    0.171666
  25 H :    0.134055
  26 C :    0.431558
  27 H :    0.195867
  28 H :    0.211980
  29 C :   -0.318721
  30 H :    0.230796
  31 H :   -0.548061
  32 C :   -0.379783
  33 H :    0.108058
  34 H :    0.260876
  35 H :    0.110832
  36 H :    0.216071
  37 H :    0.167894
  38 H :    0.157027
Sum of atomic charges:    0.0000000

LOEWDIN ATOMIC CHARGES
----------------------
   0 C :   -0.194760
   1 N :    0.046027
   2 C :   -0.191542
   3 C :   -0.102924
   4 H :    0.127871
   5 H :    0.110351
   6 C :   -0.471619
   7 C :   -0.552882
   8 N :    0.131595
   9 C :    0.017414
  10 H :    0.014417
  11 H :   -0.047484
  12 H :    0.090852
  13 H :    0.077369
  14 H :    0.102457
  15 F :    0.206058
  16 O :    0.107053
  17 C :   -0.188345
  18 H :    0.119553
  19 H :    0.104509
  20 C :   -0.218843
  21 C :   -0.206524
  22 H :    0.110301
  23 H :    0.123557
  24 H :    0.116340
  25 H :    0.117029
  26 C :   -0.219395
  27 H :    0.112007
  28 H :    0.114759
  29 C :   -0.216958
  30 H :    0.125813
  31 H :    0.081772
  32 C :   -0.210966
  33 H :    0.115690
  34 H :    0.112404
  35 H :    0.117564
  36 H :    0.098827
  37 H :    0.110285
  38 H :    0.110366

  Mayer bond orders larger than 0.100000
B(  0-C ,  1-N ) :   1.0572 B(  0-C ,  7-C ) :  -0.1377 B(  0-C ,  8-N ) :   0.1070
B(  0-C , 17-C ) :   0.8099 B(  0-C , 18-H ) :   0.9300 B(  0-C , 19-H ) :   0.9117
B(  0-C , 26-C ) :   0.1843 B(  0-C , 31-H ) :   0.1439 B(  1-N ,  7-C ) :   1.1529
B(  1-N ,  9-C ) :   0.1074 B(  1-N , 12-H ) :   0.7417 B(  2-C ,  3-C ) :   0.8780
B(  2-C ,  6-C ) :   0.2166 B(  2-C , 20-C ) :   0.2049 B(  2-C , 21-C ) :   1.1478
B(  2-C , 24-H ) :   0.9017 B(  2-C , 25-H ) :   0.9163 B(  3-C ,  4-H ) :   0.8873
B(  3-C ,  5-H ) :   0.9513 B(  3-C ,  6-C ) :   1.0264 B(  3-C , 20-C ) :   0.1693
B(  6-C ,  9-C ) :  -0.1050 B(  6-C , 15-F ) :   0.9171 B(  6-C , 16-O ) :   1.6188
B(  7-C ,  8-N ) :   1.0122 B(  7-C ,  9-C ) :   0.8495 B(  7-C , 10-H ) :  -0.2607
B(  7-C , 12-H ) :  -0.1086 B(  8-N , 13-H ) :   1.0302 B(  8-N , 14-H ) :   0.9840
B(  9-C , 10-H ) :   1.3228 B(  9-C , 11-H ) :   0.6473 B(  9-C , 16-O ) :   0.1888
B( 10-H , 11-H ) :   0.1192 B( 11-H , 16-O ) :  -0.2712 B( 15-F , 16-O ) :   0.1089
B( 17-C , 26-C ) :   0.7305 B( 17-C , 27-H ) :   1.0189 B( 17-C , 28-H ) :   0.7994
B( 17-C , 29-C ) :   0.5357 B( 17-C , 30-H ) :  -0.1354 B( 20-C , 21-C ) :   0.4566
B( 20-C , 22-H ) :  -0.1027 B( 20-C , 26-C ) :   0.1020 B( 20-C , 32-C ) :   1.0757
B( 20-C , 35-H ) :   0.9436 B( 20-C , 36-H ) :   0.9751 B( 21-C , 22-H ) :   0.9874
B( 21-C , 23-H ) :   0.9069 B( 21-C , 29-C ) :   0.1940 B( 21-C , 32-C ) :   0.1931
B( 21-C , 36-H ) :  -0.1189 B( 26-C , 29-C ) :   0.6476 B( 26-C , 30-H ) :   0.7582
B( 26-C , 31-H ) :   1.6738 B( 26-C , 32-C ) :   0.2247 B( 29-C , 31-H ) :  -0.2080
B( 29-C , 32-C ) :   1.0140 B( 29-C , 33-H ) :   0.9634 B( 29-C , 34-H ) :   0.8783
B( 32-C , 37-H ) :   0.9242 B( 32-C , 38-H ) :   0.9256

Dispersion correction           -0.044513417
FINAL SINGLE POINT ENERGY      -755.010755469647

DIPOLE MOMENT
-------------
                                X             Y             Z
Electronic contribution:      9.55126       8.58306       6.75996
Nuclear contribution   :    -11.12616      -8.32792      -6.96231
                        -----------------------------------------
Total Dipole Moment    :     -1.57490       0.25514      -0.20235
                        -----------------------------------------
Magnitude (a.u.)       :      1.60821
Magnitude (Debye)      :      4.08775

Rotational constants in cm-1:     0.020226     0.013574     0.009520
Rotational constants in MHz :   606.360011   406.923773   285.390769

                             ****ORCA TERMINATED NORMALLY****
TOTAL RUN TIME: 0 days 0 hours 2 minutes 29 seconds 949 msec
