                         Program Version 5.0.0 -  RELEASE  -
|  1> !PBE D3BJ RIJCOSX def2-TZVPD def2/J TightSCF xyzfile
|  2>
|  3> *xyzfile 0 1 D4.xyz
|  4>
|  5> %MaxCore 64000
|  6>
|  7> %pal nprocs 4
|  8> end
|  9>
| 10> %scf
| 11>   MaxIter 150
| 12> end
| 13>
| 14>
| 15>                          ****END OF INPUT****

CARTESIAN COORDINATES (ANGSTROEM)
---------------------------------
  C      3.913853   -1.658291    3.015134
  C      5.039266   -0.901154    2.492821
  C      4.084215    1.742081   -2.114724
  C      4.265245    2.500518   -0.795890
  H      4.868534    3.392674   -0.981134
  H      3.307640    2.824571   -0.387809
  C      4.982240    1.650257    0.247422
  C      6.210384   -1.417261    2.178244
  N      6.535913   -2.677122    2.556078
  N      7.076754   -0.700820    1.478906
  H      7.954643   -1.121554    1.207554
  H      6.756161    0.106637    0.960278
  H      4.842168    0.017609    2.115191
  H      5.993876   -3.126918    3.282784
  H      7.498441   -2.975482    2.468776
  O      4.368065    1.389270    1.313706
  F      6.128919    1.233512   -0.045620
  C      3.139159   -2.376572    1.910609
  H      3.267235   -0.939401    3.520693
  H      4.247195   -2.355095    3.790065
  C      1.997274    0.430918   -1.399218
  C      3.412746    0.376886   -1.965497
  H      4.047407   -0.246590   -1.326706
  H      3.390774   -0.118719   -2.942839
  H      5.068475    1.598504   -2.565728
  H      3.503356    2.363939   -2.804565
  C      2.399946   -1.389579    1.009490
  H      2.440750   -3.087118    2.362976
  H      3.844475   -2.970462    1.318677
  C      2.070177   -1.936705   -0.372401
  H      1.481611   -1.061542    1.509912
  H      3.008628   -0.490001    0.897451
  C      1.322238   -0.935775   -1.256413
  H      1.472747   -2.850902   -0.283997
  H      3.003539   -2.234041   -0.862535
  H      1.376444    1.058920   -2.047420
  H      2.015341    0.929780   -0.426535
  H      0.316648   -0.787213   -0.848278
  H      1.185611   -1.379252   -2.248613

 Total Charge           Charge          ....    0
 Multiplicity           Mult            ....    1
 Number of Electrons    NEL             ....  126
 Basis Dimension        Dim             ....  805

ORBITAL ENERGIES
----------------

  NO   OCC          E(Eh)            E(eV)
   0   2.0000     -24.351916      -662.6493
   1   2.0000     -18.765668      -510.6398
   2   2.0000     -13.971837      -380.1930
   3   2.0000     -13.963027      -379.9533
   4   2.0000     -10.060684      -273.7651
   5   2.0000      -9.915844      -269.8238
   6   2.0000      -9.901752      -269.4404
   7   2.0000      -9.899139      -269.3693
   8   2.0000      -9.885577      -269.0002
   9   2.0000      -9.875701      -268.7315
  10   2.0000      -9.870157      -268.5806
  11   2.0000      -9.861823      -268.3538
  12   2.0000      -9.851268      -268.0666
  13   2.0000      -9.847346      -267.9599
  14   2.0000      -9.841678      -267.8057
  15   2.0000      -9.774877      -265.9879
  16   2.0000      -1.244657       -33.8688
  17   2.0000      -0.961988       -26.1770
  18   2.0000      -0.862460       -23.4687
  19   2.0000      -0.779984       -21.2245
  20   2.0000      -0.758107       -20.6292
  21   2.0000      -0.726326       -19.7643
  22   2.0000      -0.699598       -19.0370
  23   2.0000      -0.672672       -18.3043
  24   2.0000      -0.642710       -17.4890
  25   2.0000      -0.620647       -16.8887
  26   2.0000      -0.603527       -16.4228
  27   2.0000      -0.570882       -15.5345
  28   2.0000      -0.544244       -14.8096
  29   2.0000      -0.530719       -14.4416
  30   2.0000      -0.512829       -13.9548
  31   2.0000      -0.510294       -13.8858
  32   2.0000      -0.495695       -13.4885
  33   2.0000      -0.483961       -13.1692
  34   2.0000      -0.477868       -13.0035
  35   2.0000      -0.460526       -12.5315
  36   2.0000      -0.435743       -11.8572
  37   2.0000      -0.430205       -11.7065
  38   2.0000      -0.428304       -11.6547
  39   2.0000      -0.409207       -11.1351
  40   2.0000      -0.401548       -10.9267
  41   2.0000      -0.389868       -10.6088
  42   2.0000      -0.379820       -10.3354
  43   2.0000      -0.364576        -9.9206
  44   2.0000      -0.363005        -9.8779
  45   2.0000      -0.355775        -9.6811
  46   2.0000      -0.347921        -9.4674
  47   2.0000      -0.340887        -9.2760
  48   2.0000      -0.334018        -9.0891
  49   2.0000      -0.327474        -8.9110
  50   2.0000      -0.319381        -8.6908
  51   2.0000      -0.317236        -8.6324
  52   2.0000      -0.299876        -8.1600
  53   2.0000      -0.292963        -7.9719
  54   2.0000      -0.291506        -7.9323
  55   2.0000      -0.284577        -7.7437
  56   2.0000      -0.268769        -7.3136
  57   2.0000      -0.262705        -7.1486
  58   2.0000      -0.258042        -7.0217
  59   2.0000      -0.254516        -6.9257
  60   2.0000      -0.221412        -6.0249
  61   2.0000      -0.209500        -5.7008
  62   2.0000      -0.114710        -3.1214
  63   0.0000      -0.080829        -2.1995
  64   0.0000      -0.021212        -0.5772
  65   0.0000      -0.008360        -0.2275
  66   0.0000       0.001014         0.0276
  67   0.0000       0.001836         0.0500

MULLIKEN ATOMIC CHARGES
-----------------------
   0 C :   -0.355626
   1 C :   -0.952806
   2 C :   -0.364499
   3 C :   -0.147571
   4 H :    0.161137
   5 H :    0.196207
   6 C :    0.498608
   7 C :   -0.357278
   8 N :   -0.230736
   9 N :   -0.179435
  10 H :    0.122462
  11 H :    0.220547
  12 H :    0.891129
  13 H :    0.152239
  14 H :    0.091689
  15 O :   -0.445778
  16 F :   -0.320161
  17 C :   -0.328285
  18 H :    0.122453
  19 H :    0.289120
  20 C :   -0.318321
  21 C :   -0.217508
  22 H :    0.162625
  23 H :    0.129593
  24 H :    0.180710
  25 H :    0.142359
  26 C :    0.438041
  27 H :    0.140386
  28 H :    0.208501
  29 C :   -0.293145
  30 H :    0.153957
  31 H :   -0.408969
  32 C :   -0.391096
  33 H :    0.091356
  34 H :    0.257394
  35 H :    0.112506
  36 H :    0.240137
  37 H :    0.153297
  38 H :    0.154761
Sum of atomic charges:   -0.0000000

LOEWDIN ATOMIC CHARGES
----------------------
   0 C :   -0.223412
   1 C :   -0.131720
   2 C :   -0.198340
   3 C :   -0.096763
   4 H :    0.124247
   5 H :    0.121007
   6 C :   -0.470862
   7 C :   -0.535456
   8 N :    0.137647
   9 N :    0.134765
  10 H :    0.095832
  11 H :    0.055704
  12 H :    0.011246
  13 H :    0.088988
  14 H :    0.087846
  15 O :    0.099794
  16 F :    0.220199
  17 C :   -0.202569
  18 H :    0.112914
  19 H :    0.094657
  20 C :   -0.215268
  21 C :   -0.208269
  22 H :    0.109063
  23 H :    0.122247
  24 H :    0.111100
  25 H :    0.116934
  26 C :   -0.216092
  27 H :    0.106350
  28 H :    0.111479
  29 C :   -0.220105
  30 H :    0.126158
  31 H :    0.082905
  32 C :   -0.212513
  33 H :    0.113640
  34 H :    0.108363
  35 H :    0.116765
  36 H :    0.103427
  37 H :    0.110265
  38 H :    0.107828

  Mayer bond orders larger than 0.100000
B(  0-C ,  1-C ) :   0.8361 B(  0-C ,  7-C ) :   0.1346 B(  0-C , 17-C ) :   0.7927
B(  0-C , 18-H ) :   1.0002 B(  0-C , 19-H ) :   0.9999 B(  0-C , 26-C ) :   0.2271
B(  0-C , 31-H ) :   0.1097 B(  1-C ,  7-C ) :   1.4579 B(  1-C ,  9-N ) :  -0.1082
B(  1-C , 13-H ) :  -0.1041 B(  1-C , 15-O ) :   0.2213 B(  1-C , 19-H ) :  -0.1723
B(  1-C , 26-C ) :   0.2599 B(  2-C ,  3-C ) :   0.8512 B(  2-C ,  6-C ) :   0.1968
B(  2-C , 20-C ) :   0.2121 B(  2-C , 21-C ) :   1.0578 B(  2-C , 24-H ) :   0.9346
B(  2-C , 25-H ) :   0.8998 B(  3-C ,  4-H ) :   0.8867 B(  3-C ,  5-H ) :   0.9604
B(  3-C ,  6-C ) :   0.9943 B(  3-C , 20-C ) :   0.1794 B(  6-C , 15-O ) :   1.7749
B(  6-C , 16-F ) :   0.7596 B(  7-C ,  8-N ) :   1.1228 B(  7-C ,  9-N ) :   1.2473
B(  7-C , 12-H ) :   0.1937 B(  7-C , 13-H ) :   0.1314 B(  8-N , 13-H ) :   0.9489
B(  8-N , 14-H ) :   1.0664 B(  9-N , 10-H ) :   1.0083 B(  9-N , 11-H ) :   0.8565
B( 12-H , 15-O ) :  -0.4494 B( 12-H , 26-C ) :  -0.1035 B( 15-O , 16-F ) :   0.1504
B( 17-C , 26-C ) :   0.7418 B( 17-C , 27-H ) :   1.0146 B( 17-C , 28-H ) :   0.8378
B( 17-C , 29-C ) :   0.5514 B( 17-C , 30-H ) :  -0.1206 B( 20-C , 21-C ) :   0.5546
B( 20-C , 26-C ) :   0.1316 B( 20-C , 32-C ) :   1.0656 B( 20-C , 35-H ) :   0.9349
B( 20-C , 36-H ) :   0.9533 B( 21-C , 22-H ) :   1.0028 B( 21-C , 23-H ) :   0.9182
B( 21-C , 29-C ) :   0.2024 B( 21-C , 32-C ) :   0.1907 B( 21-C , 35-H ) :  -0.1054
B( 21-C , 36-H ) :  -0.1022 B( 26-C , 29-C ) :   0.6215 B( 26-C , 30-H ) :   0.6977
B( 26-C , 31-H ) :   1.6625 B( 26-C , 32-C ) :   0.2048 B( 29-C , 31-H ) :  -0.2030
B( 29-C , 32-C ) :   1.0015 B( 29-C , 33-H ) :   0.9751 B( 29-C , 34-H ) :   0.8627
B( 30-H , 31-H ) :   0.2016 B( 32-C , 37-H ) :   0.9319 B( 32-C , 38-H ) :   0.9316

Dispersion correction           -0.044806316
FINAL SINGLE POINT ENERGY      -755.022708491515

DIPOLE MOMENT
-------------
                                X             Y             Z
Electronic contribution:     14.30519       8.72378       3.75401
Nuclear contribution   :    -13.61164      -8.17416      -5.14068
                        -----------------------------------------
Total Dipole Moment    :      0.69355       0.54962      -1.38666
                        -----------------------------------------
Magnitude (a.u.)       :      1.64497
Magnitude (Debye)      :      4.18118

Rotational constants in cm-1:     0.019858     0.013613     0.009401
Rotational constants in MHz :   595.331791   408.100423   281.843625

                             ****ORCA TERMINATED NORMALLY****
TOTAL RUN TIME: 0 days 0 hours 2 minutes 55 seconds 91 msec
