                         Program Version 5.0.0 -  RELEASE  -
|  1> !PBE D3BJ RIJCOSX def2-TZVPD def2/J TightSCF xyzfile
|  2>
|  3> *xyzfile 0 1 D5.xyz
|  4>
|  5> %MaxCore 64000
|  6>
|  7> %pal nprocs 4
|  8> end
|  9>
| 10> %scf
| 11>   MaxIter 150
| 12> end
| 13>
| 14>
| 15>                          ****END OF INPUT****

CARTESIAN COORDINATES (ANGSTROEM)
---------------------------------
  C      3.913853   -1.658291    3.015134
  N      5.039266   -0.901154    2.492821
  C      4.084215    1.742081   -2.114724
  C      4.265245    2.500518   -0.795890
  H      4.868534    3.392674   -0.981134
  H      3.307640    2.824571   -0.387809
  C      4.982240    1.650257    0.247422
  C      6.210384   -1.417261    2.178244
  C      6.535913   -2.677122    2.556078
  N      7.076754   -0.700820    1.478906
  H      7.954643   -1.121554    1.207554
  H      6.756161    0.106637    0.960278
  H      4.842168    0.017609    2.115191
  H      5.993876   -3.126918    3.282784
  H      7.498441   -2.975482    2.468776
  O      4.368065    1.389270    1.313706
  F      6.128919    1.233512   -0.045620
  C      3.139159   -2.376572    1.910609
  H      3.267235   -0.939401    3.520693
  H      4.247195   -2.355095    3.790065
  C      1.997274    0.430918   -1.399218
  C      3.412746    0.376886   -1.965497
  H      4.047407   -0.246590   -1.326706
  H      3.390774   -0.118719   -2.942839
  H      5.068475    1.598504   -2.565728
  H      3.503356    2.363939   -2.804565
  C      2.399946   -1.389579    1.009490
  H      2.440750   -3.087118    2.362976
  H      3.844475   -2.970462    1.318677
  C      2.070177   -1.936705   -0.372401
  H      1.481611   -1.061542    1.509912
  H      3.008628   -0.490001    0.897451
  C      1.322238   -0.935775   -1.256413
  H      1.472747   -2.850902   -0.283997
  H      3.003539   -2.234041   -0.862535
  H      1.376444    1.058920   -2.047420
  H      2.015341    0.929780   -0.426535
  H      0.316648   -0.787213   -0.848278
  H      1.185611   -1.379252   -2.248613

 Total Charge           Charge          ....    0
 Multiplicity           Mult            ....    1
 Number of Electrons    NEL             ....  126
 Basis Dimension        Dim             ....  805

ORBITAL ENERGIES
----------------

  NO   OCC          E(Eh)            E(eV)
   0   2.0000     -24.364300      -662.9863
   1   2.0000     -18.786886      -511.2172
   2   2.0000     -13.965424      -380.0185
   3   2.0000     -13.958613      -379.8332
   4   2.0000     -10.075392      -274.1653
   5   2.0000      -9.926500      -270.1138
   6   2.0000      -9.910481      -269.6779
   7   2.0000      -9.905047      -269.5300
   8   2.0000      -9.894750      -269.2498
   9   2.0000      -9.894112      -269.2325
  10   2.0000      -9.884406      -268.9684
  11   2.0000      -9.878641      -268.8115
  12   2.0000      -9.871771      -268.6245
  13   2.0000      -9.865430      -268.4520
  14   2.0000      -9.861770      -268.3524
  15   2.0000      -9.781832      -266.1772
  16   2.0000      -1.256732       -34.1974
  17   2.0000      -0.981950       -26.7202
  18   2.0000      -0.870620       -23.6908
  19   2.0000      -0.794350       -21.6154
  20   2.0000      -0.767882       -20.8951
  21   2.0000      -0.734912       -19.9980
  22   2.0000      -0.701586       -19.0911
  23   2.0000      -0.673769       -18.3342
  24   2.0000      -0.640934       -17.4407
  25   2.0000      -0.629343       -17.1253
  26   2.0000      -0.616192       -16.7674
  27   2.0000      -0.588031       -16.0011
  28   2.0000      -0.557808       -15.1787
  29   2.0000      -0.535690       -14.5769
  30   2.0000      -0.526099       -14.3159
  31   2.0000      -0.523912       -14.2564
  32   2.0000      -0.499320       -13.5872
  33   2.0000      -0.495104       -13.4725
  34   2.0000      -0.483023       -13.1437
  35   2.0000      -0.455262       -12.3883
  36   2.0000      -0.451593       -12.2885
  37   2.0000      -0.439274       -11.9533
  38   2.0000      -0.435923       -11.8621
  39   2.0000      -0.418037       -11.3754
  40   2.0000      -0.401306       -10.9201
  41   2.0000      -0.397909       -10.8277
  42   2.0000      -0.383218       -10.4279
  43   2.0000      -0.376567       -10.2469
  44   2.0000      -0.369308       -10.0494
  45   2.0000      -0.367410        -9.9977
  46   2.0000      -0.355982        -9.6868
  47   2.0000      -0.347168        -9.4469
  48   2.0000      -0.342966        -9.3326
  49   2.0000      -0.333421        -9.0729
  50   2.0000      -0.325430        -8.8554
  51   2.0000      -0.318576        -8.6689
  52   2.0000      -0.314254        -8.5513
  53   2.0000      -0.308604        -8.3975
  54   2.0000      -0.300677        -8.1818
  55   2.0000      -0.297133        -8.0854
  56   2.0000      -0.285079        -7.7574
  57   2.0000      -0.275996        -7.5102
  58   2.0000      -0.272743        -7.4217
  59   2.0000      -0.269457        -7.3323
  60   2.0000      -0.260419        -7.0864
  61   2.0000      -0.191947        -5.2231
  62   2.0000      -0.121119        -3.2958
  63   0.0000      -0.095835        -2.6078
  64   0.0000      -0.026570        -0.7230
  65   0.0000      -0.007103        -0.1933
  66   0.0000      -0.004810        -0.1309
  67   0.0000       0.000634         0.0172

MULLIKEN ATOMIC CHARGES
-----------------------
   0 C :   -0.749810
   1 N :   -0.099991
   2 C :   -0.367306
   3 C :   -0.150472
   4 H :    0.167239
   5 H :    0.195960
   6 C :    0.474345
   7 C :    0.701869
   8 C :   -1.308007
   9 N :   -0.224035
  10 H :    0.140911
  11 H :    0.242098
  12 H :    0.256521
  13 H :    0.210471
  14 H :    0.273336
  15 O :   -0.586811
  16 F :   -0.343478
  17 C :   -0.254288
  18 H :    0.220727
  19 H :    0.209459
  20 C :   -0.294582
  21 C :   -0.210815
  22 H :    0.149059
  23 H :    0.136169
  24 H :    0.184202
  25 H :    0.144700
  26 C :    0.359939
  27 H :    0.169485
  28 H :    0.225788
  29 C :   -0.282666
  30 H :    0.190018
  31 H :   -0.383089
  32 C :   -0.390098
  33 H :    0.106376
  34 H :    0.233335
  35 H :    0.113269
  36 H :    0.225209
  37 H :    0.166320
  38 H :    0.148644
Sum of atomic charges:   -0.0000000

LOEWDIN ATOMIC CHARGES
----------------------
   0 C :   -0.187456
   1 N :    0.045685
   2 C :   -0.195874
   3 C :   -0.095269
   4 H :    0.125761
   5 H :    0.121712
   6 C :   -0.473083
   7 C :   -0.560823
   8 C :    0.010687
   9 N :    0.144028
  10 H :    0.110227
  11 H :    0.049230
  12 H :    0.057833
  13 H :   -0.006245
  14 H :    0.001387
  15 O :    0.096682
  16 F :    0.220341
  17 C :   -0.183312
  18 H :    0.121124
  19 H :    0.107780
  20 C :   -0.215178
  21 C :   -0.207484
  22 H :    0.108784
  23 H :    0.123640
  24 H :    0.112449
  25 H :    0.118395
  26 C :   -0.219029
  27 H :    0.113469
  28 H :    0.111802
  29 C :   -0.218020
  30 H :    0.125560
  31 H :    0.079306
  32 C :   -0.210875
  33 H :    0.115585
  34 H :    0.110533
  35 H :    0.117739
  36 H :    0.102586
  37 H :    0.110988
  38 H :    0.109335

  Mayer bond orders larger than 0.100000
B(  0-C ,  1-N ) :   1.0279 B(  0-C , 17-C ) :   0.9047 B(  0-C , 18-H ) :   0.8365
B(  0-C , 19-H ) :   0.9141 B(  0-C , 26-C ) :   0.2226 B(  0-C , 31-H ) :   0.1090
B(  1-N ,  7-C ) :   0.9777 B(  1-N ,  8-C ) :   0.1162 B(  1-N , 12-H ) :   0.7716
B(  2-C ,  3-C ) :   0.8413 B(  2-C ,  6-C ) :   0.2101 B(  2-C , 20-C ) :   0.2207
B(  2-C , 21-C ) :   1.0607 B(  2-C , 24-H ) :   0.9332 B(  2-C , 25-H ) :   0.8990
B(  3-C ,  4-H ) :   0.8943 B(  3-C ,  5-H ) :   0.9536 B(  3-C ,  6-C ) :   1.0017
B(  3-C , 20-C ) :   0.1771 B(  6-C , 15-O ) :   1.6910 B(  6-C , 16-F ) :   0.7769
B(  7-C ,  8-C ) :   1.0191 B(  7-C ,  9-N ) :   1.0334 B(  7-C , 12-H ) :  -0.1615
B(  8-C ,  9-N ) :   0.1274 B(  8-C , 13-H ) :   1.0863 B(  8-C , 14-H ) :   1.0343
B(  9-N , 10-H ) :   0.9791 B(  9-N , 11-H ) :   0.8467 B( 15-O , 16-F ) :   0.1520
B( 17-C , 26-C ) :   0.7473 B( 17-C , 27-H ) :   1.0102 B( 17-C , 28-H ) :   0.8023
B( 17-C , 29-C ) :   0.5346 B( 17-C , 30-H ) :  -0.1366 B( 20-C , 21-C ) :   0.5410
B( 20-C , 32-C ) :   1.0924 B( 20-C , 35-H ) :   0.9395 B( 20-C , 36-H ) :   0.9510
B( 21-C , 22-H ) :   1.0175 B( 21-C , 23-H ) :   0.9144 B( 21-C , 29-C ) :   0.1892
B( 21-C , 32-C ) :   0.2066 B( 21-C , 35-H ) :  -0.1009 B( 21-C , 36-H ) :  -0.1020
B( 26-C , 29-C ) :   0.6469 B( 26-C , 30-H ) :   0.6968 B( 26-C , 31-H ) :   1.8046
B( 26-C , 32-C ) :   0.2153 B( 29-C , 31-H ) :  -0.2106 B( 29-C , 32-C ) :   1.0218
B( 29-C , 33-H ) :   0.9592 B( 29-C , 34-H ) :   0.8819 B( 30-H , 31-H ) :   0.1813
B( 32-C , 37-H ) :   0.9197 B( 32-C , 38-H ) :   0.9266

Dispersion correction           -0.044594106
FINAL SINGLE POINT ENERGY      -755.030896184982

DIPOLE MOMENT
-------------
                                X             Y             Z
Electronic contribution:     12.85417      10.16249       3.40977
Nuclear contribution   :    -13.35170      -8.48261      -5.12969
                        -----------------------------------------
Total Dipole Moment    :     -0.49753       1.67988      -1.71992
                        -----------------------------------------
Magnitude (a.u.)       :      2.45512
Magnitude (Debye)      :      6.24043

Rotational constants in cm-1:     0.019886     0.013843     0.009504
Rotational constants in MHz :   596.157485   415.004628   284.931121

                             ****ORCA TERMINATED NORMALLY****
TOTAL RUN TIME: 0 days 0 hours 2 minutes 31 seconds 289 msec
