                         Program Version 5.0.0 -  RELEASE  -
|  1> !PBE D3BJ RIJCOSX def2-TZVPD def2/J TightSCF xyzfile
|  2>
|  3> *xyzfile 0 1 D6.xyz
|  4>
|  5> %MaxCore 64000
|  6>
|  7> %pal nprocs 4
|  8> end
|  9>
| 10> %scf
| 11>   MaxIter 150
| 12> end
| 13>
| 14>
| 15>                          ****END OF INPUT****

CARTESIAN COORDINATES (ANGSTROEM)
---------------------------------
  C      3.913853   -1.658291    3.015134
  N      5.039266   -0.901154    2.492821
  C      4.084215    1.742081   -2.114724
  C      4.265245    2.500518   -0.795890
  H      4.868534    3.392674   -0.981134
  H      3.307640    2.824571   -0.387809
  C      4.982240    1.650257    0.247422
  C      6.210384   -1.417261    2.178244
  N      6.535913   -2.677122    2.556078
  C      7.076754   -0.700820    1.478906
  H      7.954643   -1.121554    1.207554
  H      6.756161    0.106637    0.960278
  H      4.842168    0.017609    2.115191
  H      5.993876   -3.126918    3.282784
  H      7.498441   -2.975482    2.468776
  O      4.368065    1.389270    1.313706
  F      6.128919    1.233512   -0.045620
  C      3.139159   -2.376572    1.910609
  H      3.267235   -0.939401    3.520693
  H      4.247195   -2.355095    3.790065
  C      1.997274    0.430918   -1.399218
  C      3.412746    0.376886   -1.965497
  H      4.047407   -0.246590   -1.326706
  H      3.390774   -0.118719   -2.942839
  H      5.068475    1.598504   -2.565728
  H      3.503356    2.363939   -2.804565
  C      2.399946   -1.389579    1.009490
  H      2.440750   -3.087118    2.362976
  H      3.844475   -2.970462    1.318677
  C      2.070177   -1.936705   -0.372401
  H      1.481611   -1.061542    1.509912
  H      3.008628   -0.490001    0.897451
  C      1.322238   -0.935775   -1.256413
  H      1.472747   -2.850902   -0.283997
  H      3.003539   -2.234041   -0.862535
  H      1.376444    1.058920   -2.047420
  H      2.015341    0.929780   -0.426535
  H      0.316648   -0.787213   -0.848278
  H      1.185611   -1.379252   -2.248613

 Total Charge           Charge          ....    0
 Multiplicity           Mult            ....    1
 Number of Electrons    NEL             ....  126
 Basis Dimension        Dim             ....  805

ORBITAL ENERGIES
----------------

  NO   OCC          E(Eh)            E(eV)
   0   2.0000     -24.339097      -662.3005
   1   2.0000     -18.776260      -510.9280
   2   2.0000     -13.968606      -380.1051
   3   2.0000     -13.953104      -379.6833
   4   2.0000     -10.067843      -273.9599
   5   2.0000      -9.918548      -269.8974
   6   2.0000      -9.904292      -269.5095
   7   2.0000      -9.900820      -269.4150
   8   2.0000      -9.900591      -269.4088
   9   2.0000      -9.888861      -269.0896
  10   2.0000      -9.881292      -268.8836
  11   2.0000      -9.877545      -268.7817
  12   2.0000      -9.872284      -268.6385
  13   2.0000      -9.867510      -268.5086
  14   2.0000      -9.867026      -268.4954
  15   2.0000      -9.769058      -265.8296
  16   2.0000      -1.233377       -33.5619
  17   2.0000      -0.971573       -26.4378
  18   2.0000      -0.864505       -23.5244
  19   2.0000      -0.787072       -21.4173
  20   2.0000      -0.761871       -20.7316
  21   2.0000      -0.732736       -19.9388
  22   2.0000      -0.704147       -19.1608
  23   2.0000      -0.670505       -18.2454
  24   2.0000      -0.646437       -17.5905
  25   2.0000      -0.614011       -16.7081
  26   2.0000      -0.607859       -16.5407
  27   2.0000      -0.576801       -15.6956
  28   2.0000      -0.550587       -14.9822
  29   2.0000      -0.536791       -14.6068
  30   2.0000      -0.517322       -14.0771
  31   2.0000      -0.508224       -13.8295
  32   2.0000      -0.503221       -13.6933
  33   2.0000      -0.492935       -13.4134
  34   2.0000      -0.469922       -12.7872
  35   2.0000      -0.457413       -12.4468
  36   2.0000      -0.437317       -11.9000
  37   2.0000      -0.434018       -11.8102
  38   2.0000      -0.425591       -11.5809
  39   2.0000      -0.413985       -11.2651
  40   2.0000      -0.408036       -11.1032
  41   2.0000      -0.389375       -10.5954
  42   2.0000      -0.384573       -10.4648
  43   2.0000      -0.377622       -10.2756
  44   2.0000      -0.370051       -10.0696
  45   2.0000      -0.364700        -9.9240
  46   2.0000      -0.350389        -9.5346
  47   2.0000      -0.342544        -9.3211
  48   2.0000      -0.338104        -9.2003
  49   2.0000      -0.331365        -9.0169
  50   2.0000      -0.324007        -8.8167
  51   2.0000      -0.312885        -8.5140
  52   2.0000      -0.311238        -8.4692
  53   2.0000      -0.302083        -8.2201
  54   2.0000      -0.298410        -8.1201
  55   2.0000      -0.291721        -7.9381
  56   2.0000      -0.285380        -7.7656
  57   2.0000      -0.275507        -7.4969
  58   2.0000      -0.273382        -7.4391
  59   2.0000      -0.269537        -7.3345
  60   2.0000      -0.254793        -6.9333
  61   2.0000      -0.194964        -5.3052
  62   2.0000      -0.115488        -3.1426
  63   0.0000      -0.085713        -2.3324
  64   0.0000      -0.017750        -0.4830
  65   0.0000      -0.005408        -0.1472
  66   0.0000      -0.001718        -0.0468
  67   0.0000      -0.001557        -0.0424

MULLIKEN ATOMIC CHARGES
-----------------------
   0 C :   -0.807451
   1 N :   -0.011595
   2 C :   -0.353980
   3 C :   -0.145290
   4 H :    0.153496
   5 H :    0.195350
   6 C :    0.446557
   7 C :    0.823290
   8 N :   -0.254653
   9 C :   -1.734759
  10 H :    0.150264
  11 H :    0.645622
  12 H :    0.184422
  13 H :    0.106976
  14 H :    0.151276
  15 O :   -0.578879
  16 F :   -0.211000
  17 C :   -0.182738
  18 H :    0.189942
  19 H :    0.234896
  20 C :   -0.295500
  21 C :   -0.266178
  22 H :    0.207615
  23 H :    0.129307
  24 H :    0.178067
  25 H :    0.147500
  26 C :    0.425779
  27 H :    0.191219
  28 H :    0.206530
  29 C :   -0.309674
  30 H :    0.214274
  31 H :   -0.464172
  32 C :   -0.378460
  33 H :    0.101623
  34 H :    0.255005
  35 H :    0.110339
  36 H :    0.225929
  37 H :    0.164948
  38 H :    0.154105
Sum of atomic charges:   -0.0000000

LOEWDIN ATOMIC CHARGES
----------------------
   0 C :   -0.193222
   1 N :    0.045394
   2 C :   -0.194863
   3 C :   -0.094370
   4 H :    0.126324
   5 H :    0.120297
   6 C :   -0.462678
   7 C :   -0.556399
   8 N :    0.132914
   9 C :    0.007830
  10 H :    0.009181
  11 H :   -0.026330
  12 H :    0.063018
  13 H :    0.078767
  14 H :    0.101241
  15 O :    0.097573
  16 F :    0.217842
  17 C :   -0.188909
  18 H :    0.121011
  19 H :    0.102675
  20 C :   -0.215488
  21 C :   -0.206950
  22 H :    0.110036
  23 H :    0.123203
  24 H :    0.113483
  25 H :    0.117722
  26 C :   -0.217048
  27 H :    0.110678
  28 H :    0.113119
  29 C :   -0.218404
  30 H :    0.126434
  31 H :    0.081342
  32 C :   -0.210933
  33 H :    0.114756
  34 H :    0.110724
  35 H :    0.117484
  36 H :    0.102544
  37 H :    0.110656
  38 H :    0.109343

  Mayer bond orders larger than 0.100000
B(  0-C ,  1-N ) :   1.0450 B(  0-C ,  7-C ) :  -0.1366 B(  0-C ,  8-N ) :   0.1042
B(  0-C , 17-C ) :   0.8329 B(  0-C , 18-H ) :   0.9208 B(  0-C , 19-H ) :   0.9170
B(  0-C , 26-C ) :   0.1569 B(  0-C , 31-H ) :   0.1629 B(  1-N ,  7-C ) :   1.1114
B(  1-N , 12-H ) :   0.8037 B(  2-C ,  3-C ) :   0.8447 B(  2-C ,  6-C ) :   0.2121
B(  2-C , 20-C ) :   0.2240 B(  2-C , 21-C ) :   1.0861 B(  2-C , 24-H ) :   0.9287
B(  2-C , 25-H ) :   0.8998 B(  3-C ,  4-H ) :   0.8995 B(  3-C ,  5-H ) :   0.9483
B(  3-C ,  6-C ) :   1.0062 B(  3-C , 20-C ) :   0.1717 B(  6-C , 15-O ) :   1.7113
B(  6-C , 16-F ) :   0.8614 B(  7-C ,  8-N ) :   1.0078 B(  7-C ,  9-C ) :   0.9409
B(  7-C , 10-H ) :  -0.2296 B(  7-C , 12-H ) :  -0.1407 B(  8-N , 13-H ) :   1.0271
B(  8-N , 14-H ) :   0.9881 B(  9-C , 10-H ) :   1.2887 B(  9-C , 11-H ) :   0.6108
B(  9-C , 16-F ) :   0.1148 B( 10-H , 11-H ) :   0.1217 B( 11-H , 16-F ) :  -0.1597
B( 15-O , 16-F ) :   0.1537 B( 17-C , 26-C ) :   0.7321 B( 17-C , 27-H ) :   1.0237
B( 17-C , 28-H ) :   0.7947 B( 17-C , 29-C ) :   0.5297 B( 17-C , 30-H ) :  -0.1378
B( 20-C , 21-C ) :   0.5227 B( 20-C , 26-C ) :   0.1056 B( 20-C , 32-C ) :   1.0777
B( 20-C , 35-H ) :   0.9442 B( 20-C , 36-H ) :   0.9522 B( 21-C , 22-H ) :   0.9658
B( 21-C , 23-H ) :   0.9264 B( 21-C , 29-C ) :   0.1983 B( 21-C , 32-C ) :   0.1881
B( 21-C , 35-H ) :  -0.1031 B( 21-C , 36-H ) :  -0.1007 B( 26-C , 29-C ) :   0.6498
B( 26-C , 30-H ) :   0.7287 B( 26-C , 31-H ) :   1.7697 B( 26-C , 32-C ) :   0.2083
B( 29-C , 31-H ) :  -0.2333 B( 29-C , 32-C ) :   1.0074 B( 29-C , 33-H ) :   0.9703
B( 29-C , 34-H ) :   0.8780 B( 30-H , 31-H ) :   0.1477 B( 32-C , 37-H ) :   0.9228
B( 32-C , 38-H ) :   0.9264

Dispersion correction           -0.044635095
FINAL SINGLE POINT ENERGY      -755.023434910104

DIPOLE MOMENT
-------------
                                X             Y             Z
Electronic contribution:     12.40618       8.52532       4.41830
Nuclear contribution   :    -13.25777      -8.13937      -5.31678
                        -----------------------------------------
Total Dipole Moment    :     -0.85159       0.38596      -0.89847
                        -----------------------------------------
Magnitude (a.u.)       :      1.29669
Magnitude (Debye)      :      3.29594

Rotational constants in cm-1:     0.020021     0.013636     0.009443
Rotational constants in MHz :   600.208195   408.782966   283.102361

                             ****ORCA TERMINATED NORMALLY****
TOTAL RUN TIME: 0 days 0 hours 2 minutes 30 seconds 80 msec
