                         Program Version 5.0.0 -  RELEASE  -
|  1> !B3LYP D3BJ RIJCOSX def2-SVPD def2/J TightSCF
|  2> *xyz -1 1
|  3> C         -0.60249       -0.63071        0.49224
|  4> O         -1.71206       -1.37684        0.20253
|  5> H          0.27695       -1.19720        0.26733
|  6> H         -0.60598       -0.37494        1.53122
|  7> H         -0.61066        0.26355       -0.09525
|  8> *
|  9> %MaxCore 64000
| 10>
| 11> %pal nprocs 4
| 12> end
| 13> %scf
| 14>   MaxIter 150
| 15> end
| 16>
| 17>                          ****END OF INPUT****

CARTESIAN COORDINATES (ANGSTROEM)
---------------------------------
  C     -0.602490   -0.630710    0.492240
  O     -1.712060   -1.376840    0.202530
  H      0.276950   -1.197200    0.267330
  H     -0.605980   -0.374940    1.531220
  H     -0.610660    0.263550   -0.095250

 Total Charge           Charge          ....   -1
 Multiplicity           Mult            ....    1
 Number of Electrons    NEL             ....   18
 Basis Dimension        Dim             ....   67

ORBITAL ENERGIES
----------------

  NO   OCC          E(Eh)            E(eV)
   0   2.0000     -18.785917      -511.1908
   1   2.0000      -9.969791      -271.2918
   2   2.0000      -0.648625       -17.6500
   3   2.0000      -0.389695       -10.6041
   4   2.0000      -0.195880        -5.3302
   5   2.0000      -0.195865        -5.3298
   6   2.0000      -0.098599        -2.6830
   7   2.0000       0.050914         1.3855
   8   2.0000       0.050923         1.3857
   9   0.0000       0.196872         5.3572
  10   0.0000       0.267921         7.2905
  11   0.0000       0.267924         7.2906
  12   0.0000       0.276503         7.5240
  13   0.0000       0.312916         8.5149

MULLIKEN ATOMIC CHARGES
-----------------------
   0 C :    1.030432
   1 O :   -1.023817
   2 H :   -0.335412
   3 H :   -0.335780
   4 H :   -0.335423
Sum of atomic charges:   -1.0000000

LOEWDIN ATOMIC CHARGES
----------------------
   0 C :   -0.109363
   1 O :   -0.641544
   2 H :   -0.083009
   3 H :   -0.083057
   4 H :   -0.083027

  Mayer bond orders larger than 0.100000
B(  0-C ,  1-O ) :   1.1561 B(  0-C ,  2-H ) :   0.8680 B(  0-C ,  3-H ) :   0.8678
B(  0-C ,  4-H ) :   0.8680

Dispersion correction           -0.002430955
FINAL SINGLE POINT ENERGY      -114.957864800616

DIPOLE MOMENT
-------------
                                X             Y             Z
Electronic contribution:     -1.50893      -1.01466      -0.39386
Nuclear contribution   :      2.33640       1.57111       0.61004
                        -----------------------------------------
Total Dipole Moment    :      0.82746       0.55645       0.21618
                        -----------------------------------------
Magnitude (a.u.)       :      1.02033
Magnitude (Debye)      :      2.59347

Rotational constants in cm-1:     5.477665     0.940945     0.940944
Rotational constants in MHz : 164216.266994 28208.811441 28208.799857

                             ****ORCA TERMINATED NORMALLY****
TOTAL RUN TIME: 0 days 0 hours 0 minutes 3 seconds 360 msec
