                         Program Version 5.0.0 -  RELEASE  -
|  1> !B3LYP D3BJ RIJCOSX def2-SVPD def2/J TightSCF
|  2> *xyz 1 1
|  3> C         -2.12050        0.88520        1.78951
|  4> N         -3.17690       -0.15948        1.61070
|  5> H         -4.06474        0.23127        1.28675
|  6> H         -3.34407       -0.67151        2.48493
|  7> H         -2.71686       -0.78189        0.93588
|  8> H         -1.96853        1.40078        0.86432
|  9> H         -1.20609        0.41954        2.09270
| 10> H         -2.43151        1.58226        2.53937
| 11> *
| 12> %MaxCore 64000
| 13>
| 14> %pal nprocs 4
| 15> end
| 16>
| 17> %scf
| 18>   MaxIter 150
| 19> end
| 20>
| 21>
| 22>                          ****END OF INPUT****

CARTESIAN COORDINATES (ANGSTROEM)
---------------------------------
  C     -2.120500    0.885200    1.789510
  N     -3.176900   -0.159480    1.610700
  H     -4.064740    0.231270    1.286750
  H     -3.344070   -0.671510    2.484930
  H     -2.716860   -0.781890    0.935880
  H     -1.968530    1.400780    0.864320
  H     -1.206090    0.419540    2.092700
  H     -2.431510    1.582260    2.539370

 Total Charge           Charge          ....    1
 Multiplicity           Mult            ....    1
 Number of Electrons    NEL             ....   18
 Basis Dimension        Dim             ....   88

ORBITAL ENERGIES
----------------

  NO   OCC          E(Eh)            E(eV)
   0   2.0000     -14.679349      -399.4454
   1   2.0000     -10.444249      -284.2025
   2   2.0000      -1.218496       -33.1570
   3   2.0000      -0.931662       -25.3518
   4   2.0000      -0.821761       -22.3612
   5   2.0000      -0.809482       -22.0271
   6   2.0000      -0.711080       -19.3495
   7   2.0000      -0.631063       -17.1721
   8   2.0000      -0.627595       -17.0777
   9   0.0000      -0.208373        -5.6701
  10   0.0000      -0.142599        -3.8803
  11   0.0000      -0.136642        -3.7182
  12   0.0000      -0.129584        -3.5262
  13   0.0000      -0.091465        -2.4889

MULLIKEN ATOMIC CHARGES
-----------------------
   0 C :    1.101807
   1 N :   -0.652901
   2 H :    0.304074
   3 H :    0.320307
   4 H :    0.362446
   5 H :   -0.135209
   6 H :   -0.126528
   7 H :   -0.173996
Sum of atomic charges:    1.0000000

LOEWDIN ATOMIC CHARGES
----------------------
   0 C :    0.288044
   1 N :    0.326415
   2 H :    0.107167
   3 H :    0.107972
   4 H :    0.102650
   5 H :    0.023738
   6 H :    0.024037
   7 H :    0.019977

  Mayer bond orders larger than 0.100000
B(  0-C ,  1-N ) :   0.8669 B(  0-C ,  5-H ) :   0.8595 B(  0-C ,  6-H ) :   0.8525
B(  0-C ,  7-H ) :   0.8923 B(  1-N ,  2-H ) :   0.8454 B(  1-N ,  3-H ) :   0.8289
B(  1-N ,  4-H ) :   0.7740 B(  1-N ,  5-H ) :   0.1054 B(  1-N ,  6-H ) :   0.1063

Dispersion correction           -0.005471416
FINAL SINGLE POINT ENERGY       -96.087245425956

DIPOLE MOMENT
-------------
                                X             Y             Z
Electronic contribution:     -0.83719      -0.76616      -0.13018
Nuclear contribution   :      0.30442       0.18283       0.03339
                        -----------------------------------------
Total Dipole Moment    :     -0.53277      -0.58333      -0.09679
                        -----------------------------------------
Magnitude (a.u.)       :      0.79592
Magnitude (Debye)      :      2.02306

Rotational constants in cm-1:     2.844840     0.686092     0.683099
Rotational constants in MHz : 85286.171795 20568.516729 20478.789944

                             ****ORCA TERMINATED NORMALLY****
TOTAL RUN TIME: 0 days 0 hours 0 minutes 4 seconds 572 msec
