                         Program Version 5.0.0 -  RELEASE  -
|  1> !B3LYP D3BJ RIJCOSX def2-SVPD def2/J TightSCF
|  2> *xyz 0 1
|  3> C         -0.60249       -0.63071        0.49224
|  4> F         -1.71206       -1.37684        0.20253
|  5> H          0.27695       -1.19720        0.26733
|  6> H         -0.60598       -0.37494        1.53122
|  7> H         -0.61066        0.26355       -0.09525
|  8> *
|  9> %MaxCore 64000
| 10>
| 11> %pal nprocs 4
| 12> end
| 13> %scf
| 14>   MaxIter 150
| 15> end
| 16>
| 17>                          ****END OF INPUT****

CARTESIAN COORDINATES (ANGSTROEM)
---------------------------------
  C     -0.602490   -0.630710    0.492240
  F     -1.712060   -1.376840    0.202530
  H      0.276950   -1.197200    0.267330
  H     -0.605980   -0.374940    1.531220
  H     -0.610660    0.263550   -0.095250

 Total Charge           Charge          ....    0
 Multiplicity           Mult            ....    1
 Number of Electrons    NEL             ....   18
 Basis Dimension        Dim             ....   67

ORBITAL ENERGIES
----------------

  NO   OCC          E(Eh)            E(eV)
   0   2.0000     -24.682272      -671.6388
   1   2.0000     -10.255996      -279.0798
   2   2.0000      -1.183247       -32.1978
   3   2.0000      -0.701914       -19.1000
   4   2.0000      -0.500835       -13.6284
   5   2.0000      -0.492764       -13.4088
   6   2.0000      -0.492752       -13.4085
   7   2.0000      -0.353534        -9.6201
   8   2.0000      -0.353524        -9.6199
   9   0.0000       0.023719         0.6454
  10   0.0000       0.058739         1.5984
  11   0.0000       0.098802         2.6885
  12   0.0000       0.098804         2.6886
  13   0.0000       0.144160         3.9228

MULLIKEN ATOMIC CHARGES
-----------------------
   0 C :    1.087338
   1 F :   -0.480797
   2 H :   -0.202024
   3 H :   -0.202265
   4 H :   -0.202252
Sum of atomic charges:    0.0000000

LOEWDIN ATOMIC CHARGES
----------------------
   0 C :    0.273534
   1 F :   -0.248791
   2 H :   -0.008227
   3 H :   -0.008261
   4 H :   -0.008255

  Mayer bond orders larger than 0.100000
B(  0-C ,  1-F ) :   0.8451 B(  0-C ,  2-H ) :   0.9049 B(  0-C ,  3-H ) :   0.9046
B(  0-C ,  4-H ) :   0.9050

Dispersion correction           -0.002120172
FINAL SINGLE POINT ENERGY      -139.581726344820

DIPOLE MOMENT
-------------
                                X             Y             Z
Electronic contribution:     -2.37341      -1.59585      -0.61965
Nuclear contribution   :      2.96306       1.99251       0.77366
                        -----------------------------------------
Total Dipole Moment    :      0.58965       0.39666       0.15401
                        -----------------------------------------
Magnitude (a.u.)       :      0.72715
Magnitude (Debye)      :      1.84827

Rotational constants in cm-1:     5.477665     0.875886     0.875886
Rotational constants in MHz : 164216.266994 26258.396768 26258.386731

                             ****ORCA TERMINATED NORMALLY****
TOTAL RUN TIME: 0 days 0 hours 0 minutes 3 seconds 405 msec
