                         Program Version 5.0.0 -  RELEASE  -
|  1> !B3LYP D3BJ RIJCOSX def2-SVPD def2/J TightSCF
|  2> *xyz 0 1
|  3> C         -2.12050        0.88520        1.78951
|  4> C         -3.17690       -0.15948        1.61070
|  5> H         -4.06474        0.23127        1.28675
|  6> H         -3.34407       -0.67151        2.48493
|  7> H         -2.71686       -0.78189        0.93588
|  8> H         -1.96853        1.40078        0.86432
|  9> H         -1.20609        0.41954        2.09270
| 10> H         -2.43151        1.58226        2.53937
| 11> *
| 12> %MaxCore 64000
| 13>
| 14> %pal nprocs 4
| 15> end
| 16>
| 17> %scf
| 18>   MaxIter 150
| 19> end
| 20>
| 21>
| 22>                          ****END OF INPUT****

CARTESIAN COORDINATES (ANGSTROEM)
---------------------------------
  C     -2.120500    0.885200    1.789510
  C     -3.176900   -0.159480    1.610700
  H     -4.064740    0.231270    1.286750
  H     -3.344070   -0.671510    2.484930
  H     -2.716860   -0.781890    0.935880
  H     -1.968530    1.400780    0.864320
  H     -1.206090    0.419540    2.092700
  H     -2.431510    1.582260    2.539370

 Total Charge           Charge          ....    0
 Multiplicity           Mult            ....    1
 Number of Electrons    NEL             ....   18
 Basis Dimension        Dim             ....   88

ORBITAL ENERGIES
----------------

  NO   OCC          E(Eh)            E(eV)
   0   2.0000     -10.160969      -276.4940
   1   2.0000     -10.148278      -276.1487
   2   2.0000      -0.763011       -20.7626
   3   2.0000      -0.612807       -16.6753
   4   2.0000      -0.455824       -12.4036
   5   2.0000      -0.447006       -12.1637
   6   2.0000      -0.367526       -10.0009
   7   2.0000      -0.349254        -9.5037
   8   2.0000      -0.340119        -9.2551
   9   0.0000       0.026478         0.7205
  10   0.0000       0.059009         1.6057
  11   0.0000       0.099772         2.7149
  12   0.0000       0.101426         2.7600
  13   0.0000       0.119355         3.2478

MULLIKEN ATOMIC CHARGES
-----------------------
   0 C :    0.418751
   1 C :    0.831992
   2 H :   -0.300231
   3 H :   -0.258079
   4 H :   -0.216126
   5 H :   -0.153726
   6 H :   -0.145979
   7 H :   -0.176603
Sum of atomic charges:    0.0000000

LOEWDIN ATOMIC CHARGES
----------------------
   0 C :    0.081496
   1 C :    0.096057
   2 H :   -0.037521
   3 H :   -0.037140
   4 H :   -0.039107
   5 H :   -0.019780
   6 H :   -0.018997
   7 H :   -0.025008

  Mayer bond orders larger than 0.100000
B(  0-C ,  1-C ) :   1.4196 B(  0-C ,  2-H ) :   0.1761 B(  0-C ,  3-H ) :   0.1779
B(  0-C ,  4-H ) :   0.2487 B(  0-C ,  5-H ) :   0.8200 B(  0-C ,  6-H ) :   0.8138
B(  0-C ,  7-H ) :   0.8684 B(  1-C ,  2-H ) :   0.7322 B(  1-C ,  3-H ) :   0.7232
B(  1-C ,  4-H ) :   0.7220 B(  1-C ,  5-H ) :   0.1681 B(  1-C ,  6-H ) :   0.1738
B(  1-C ,  7-H ) :   0.1500

Dispersion correction           -0.005516623
FINAL SINGLE POINT ENERGY       -79.698994097224

DIPOLE MOMENT
-------------
                                X             Y             Z
Electronic contribution:     -0.12530      -0.01921      -0.00301
Nuclear contribution   :      0.12022       0.00247       0.00249
                        -----------------------------------------
Total Dipole Moment    :     -0.00508      -0.01675      -0.00053
                        -----------------------------------------
Magnitude (a.u.)       :      0.01751
Magnitude (Debye)      :      0.04450

Rotational constants in cm-1:     2.844858     0.716988     0.713720
Rotational constants in MHz : 85286.697487 21494.771942 21396.773512

                             ****ORCA TERMINATED NORMALLY****
TOTAL RUN TIME: 0 days 0 hours 0 minutes 4 seconds 735 msec
