                         Program Version 5.0.0 -  RELEASE  -
|  1> !wB97X-D3 RIJCOSX def2-TZVPD def2/J TightSCF
|  2> *xyz -1 1
|  3> C          1.72854        1.42432       -5.63944
|  4> S          2.25263       -0.18811       -6.27184
|  5> O          3.56261       -0.44446       -5.63155
|  6> O          2.34494       -0.03374       -7.69650
|  7> O          1.26606       -1.15918       -5.80536
|  8> H          0.77944        1.68154       -6.06127
|  9> H          2.45151        2.16548       -5.90944
| 10> H          1.64478        1.37937       -4.57367
| 11> *
| 12>
| 13> %MaxCore 64000
| 14>
| 15> %pal nprocs 8
| 16> end
| 17>
| 18> %scf
| 19>   MaxIter 150
| 20> end
| 21>
| 22>
| 23>                          ****END OF INPUT****

CARTESIAN COORDINATES (ANGSTROEM)
---------------------------------
  C      1.728540    1.424320   -5.639440
  S      2.252630   -0.188110   -6.271840
  O      3.562610   -0.444460   -5.631550
  O      2.344940   -0.033740   -7.696500
  O      1.266060   -1.159180   -5.805360
  H      0.779440    1.681540   -6.061270
  H      2.451510    2.165480   -5.909440
  H      1.644780    1.379370   -4.573670

 Total Charge           Charge          ....   -1
 Multiplicity           Mult            ....    1
 Number of Electrons    NEL             ....   50
 Basis Dimension        Dim             ....  230

ORBITAL ENERGIES
----------------

  NO   OCC          E(Eh)            E(eV)
   0   2.0000     -88.935896     -2420.0688
   1   2.0000     -19.011026      -517.3163
   2   2.0000     -19.004751      -517.1456
   3   2.0000     -18.996689      -516.9262
   4   2.0000     -10.125617      -275.5320
   5   2.0000      -7.998198      -217.6420
   6   2.0000      -5.952713      -161.9816
   7   2.0000      -5.951151      -161.9391
   8   2.0000      -5.950869      -161.9314
   9   2.0000      -1.037434       -28.2300
  10   2.0000      -0.904921       -24.6242
  11   2.0000      -0.882566       -24.0158
  12   2.0000      -0.695734       -18.9319
  13   2.0000      -0.492898       -13.4124
  14   2.0000      -0.398498       -10.8437
  15   2.0000      -0.388272       -10.5654
  16   2.0000      -0.387235       -10.5372
  17   2.0000      -0.344196        -9.3661
  18   2.0000      -0.341935        -9.3045
  19   2.0000      -0.247567        -6.7366
  20   2.0000      -0.246713        -6.7134
  21   2.0000      -0.208866        -5.6835
  22   2.0000      -0.203267        -5.5312
  23   2.0000      -0.194232        -5.2853
  24   2.0000      -0.155814        -4.2399
  25   0.0000       0.177061         4.8181
  26   0.0000       0.188850         5.1389
  27   0.0000       0.189225         5.1491
  28   0.0000       0.200051         5.4437
  29   0.0000       0.239072         6.5055

MULLIKEN ATOMIC CHARGES
-----------------------
   0 C :   -0.896834
   1 S :    1.188649
   2 O :   -0.718240
   3 O :   -0.681472
   4 O :   -0.699575
   5 H :    0.271626
   6 H :    0.267945
   7 H :    0.267900
Sum of atomic charges:   -1.0000000

LOEWDIN ATOMIC CHARGES
----------------------
   0 C :   -0.188702
   1 S :    0.322952
   2 O :   -0.433266
   3 O :   -0.396833
   4 O :   -0.415234
   5 H :    0.036249
   6 H :    0.037363
   7 H :    0.037470

  Mayer bond orders larger than 0.100000
B(  0-C ,  1-S ) :   0.8089 B(  0-C ,  2-O ) :   0.1219 B(  0-C ,  3-O ) :   0.1215
B(  0-C ,  4-O ) :   0.1225 B(  0-C ,  5-H ) :   0.9502 B(  0-C ,  6-H ) :   0.9540
B(  0-C ,  7-H ) :   0.9546 B(  1-S ,  2-O ) :   1.5127 B(  1-S ,  3-O ) :   1.5575
B(  1-S ,  4-O ) :   1.5333

Dispersion correction           -0.001522137
FINAL SINGLE POINT ENERGY      -663.905530503517

DIPOLE MOMENT
-------------
                                X             Y             Z
Electronic contribution:      1.18825      -3.82853      -1.61235
Nuclear contribution   :     -1.71379       5.17769       1.98321
                        -----------------------------------------
Total Dipole Moment    :     -0.52554       1.34916       0.37085
                        -----------------------------------------
Magnitude (a.u.)       :      1.49464
Magnitude (Debye)      :      3.79908

Rotational constants in cm-1:     0.172739     0.155771     0.153412
Rotational constants in MHz :  5178.588083  4669.889924  4599.189984

                             ****ORCA TERMINATED NORMALLY****
TOTAL RUN TIME: 0 days 0 hours 0 minutes 20 seconds 43 msec
