                         Program Version 5.0.0 -  RELEASE  -
|  1> !wB97X-D3 RIJCOSX def2-TZVPD def2/J TightSCF
|  2> *xyz 1 1
|  3> C          2.91632       -1.24259       -1.54313
|  4> C          3.46659       -1.59097       -2.88908
|  5> N          4.65227       -1.14316       -3.25969
|  6> N          2.75226       -2.29204       -3.72803
|  7> H          1.77836       -2.48960       -3.51274
|  8> H          2.94861       -2.20854       -4.71681
|  9> H          5.14672       -0.51251       -2.63385
| 10> H          4.78303       -1.00720       -4.25350
| 11> H          1.95294       -1.69278       -1.42424
| 12> H          2.82618       -0.17973       -1.45886
| 13> H          3.57606       -1.60596       -0.78312
| 14> *
| 15>
| 16> %MaxCore 64000
| 17>
| 18> %pal nprocs 8
| 19> end
| 20>
| 21> %scf
| 22>   MaxIter 150
| 23> end
| 24>
| 25>
| 26>                          ****END OF INPUT****

CARTESIAN COORDINATES (ANGSTROEM)
---------------------------------
  C      2.916320   -1.242590   -1.543130
  C      3.466590   -1.590970   -2.889080
  N      4.652270   -1.143160   -3.259690
  N      2.752260   -2.292040   -3.728030
  H      1.778360   -2.489600   -3.512740
  H      2.948610   -2.208540   -4.716810
  H      5.146720   -0.512510   -2.633850
  H      4.783030   -1.007200   -4.253500
  H      1.952940   -1.692780   -1.424240
  H      2.826180   -0.179730   -1.458860
  H      3.576060   -1.605960   -0.783120

 Total Charge           Charge          ....    1
 Multiplicity           Mult            ....    1
 Number of Electrons    NEL             ....   32
 Basis Dimension        Dim             ....  211

ORBITAL ENERGIES
----------------

  NO   OCC          E(Eh)            E(eV)
   0   2.0000     -14.676023      -399.3549
   1   2.0000     -14.670773      -399.2120
   2   2.0000     -10.612768      -288.7881
   3   2.0000     -10.475041      -285.0404
   4   2.0000      -1.335729       -36.3470
   5   2.0000      -1.233456       -33.5641
   6   2.0000      -1.074408       -29.2361
   7   2.0000      -0.953132       -25.9360
   8   2.0000      -0.879109       -23.9218
   9   2.0000      -0.875625       -23.8270
  10   2.0000      -0.802465       -21.8362
  11   2.0000      -0.770697       -20.9717
  12   2.0000      -0.718047       -19.5391
  13   2.0000      -0.703739       -19.1497
  14   2.0000      -0.674458       -18.3529
  15   2.0000      -0.598163       -16.2769
  16   0.0000      -0.145500        -3.9593
  17   0.0000      -0.098076        -2.6688
  18   0.0000      -0.054760        -1.4901
  19   0.0000      -0.054418        -1.4808
  20   0.0000      -0.031201        -0.8490

MULLIKEN ATOMIC CHARGES
-----------------------
   0 C :   -1.114494
   1 C :    0.784034
   2 N :   -0.414096
   3 N :   -0.393326
   4 H :    0.269902
   5 H :    0.246341
   6 H :    0.280094
   7 H :    0.254704
   8 H :    0.347986
   9 H :    0.367478
  10 H :    0.371376
Sum of atomic charges:    1.0000000

LOEWDIN ATOMIC CHARGES
----------------------
   0 C :    0.035632
   1 C :   -0.379373
   2 N :    0.211360
   3 N :    0.219715
   4 H :    0.154086
   5 H :    0.150056
   6 H :    0.154373
   7 H :    0.146740
   8 H :    0.093153
   9 H :    0.107868
  10 H :    0.106391

  Mayer bond orders larger than 0.100000
B(  0-C ,  1-C ) :   0.7435 B(  0-C ,  8-H ) :   0.8961 B(  0-C ,  9-H ) :   0.8700
B(  0-C , 10-H ) :   0.9205 B(  1-C ,  2-N ) :   1.2658 B(  1-C ,  3-N ) :   1.2782
B(  2-N ,  6-H ) :   0.9166 B(  2-N ,  7-H ) :   0.9583 B(  3-N ,  4-H ) :   0.9248
B(  3-N ,  5-H ) :   0.9675

Dispersion correction           -0.001676977
FINAL SINGLE POINT ENERGY      -189.731864444947

DIPOLE MOMENT
-------------
                                X             Y             Z
Electronic contribution:      0.89460      -0.72990      -1.79714
Nuclear contribution   :     -1.03256       1.11747       1.26949
                        -----------------------------------------
Total Dipole Moment    :     -0.13797       0.38758      -0.52766
                        -----------------------------------------
Magnitude (a.u.)       :      0.66908
Magnitude (Debye)      :      1.70067

Rotational constants in cm-1:     0.336859     0.298586     0.163958
Rotational constants in MHz : 10098.776812  8951.369850  4915.333652

                             ****ORCA TERMINATED NORMALLY****
TOTAL RUN TIME: 0 days 0 hours 0 minutes 18 seconds 214 msec
