                         Program Version 5.0.0 -  RELEASE  -
|  1> !wB97X-D3 RIJCOSX def2-TZVPD def2/J TightSCF
|  2> *xyz 0 1
|  3> C          1.72854        1.42432       -5.63944
|  4> S          2.25263       -0.18811       -6.27184
|  5> F          3.56261       -0.44446       -5.63155
|  6> O          2.34494       -0.03374       -7.69650
|  7> O          1.26606       -1.15918       -5.80536
|  8> H          0.77944        1.68154       -6.06127
|  9> H          2.45151        2.16548       -5.90944
| 10> H          1.64478        1.37937       -4.57367
| 11> *
| 12>
| 13> %MaxCore 64000
| 14>
| 15> %pal nprocs 8
| 16> end
| 17>
| 18> %scf
| 19>   MaxIter 150
| 20> end
| 21>
| 22>
| 23>                          ****END OF INPUT****

CARTESIAN COORDINATES (ANGSTROEM)
---------------------------------
  C      1.728540    1.424320   -5.639440
  S      2.252630   -0.188110   -6.271840
  F      3.562610   -0.444460   -5.631550
  O      2.344940   -0.033740   -7.696500
  O      1.266060   -1.159180   -5.805360
  H      0.779440    1.681540   -6.061270
  H      2.451510    2.165480   -5.909440
  H      1.644780    1.379370   -4.573670

 Total Charge           Charge          ....    0
 Multiplicity           Mult            ....    1
 Number of Electrons    NEL             ....   50
 Basis Dimension        Dim             ....  230

ORBITAL ENERGIES
----------------

  NO   OCC          E(Eh)            E(eV)
   0   2.0000     -89.202311     -2427.3183
   1   2.0000     -24.892684      -677.3644
   2   2.0000     -19.250049      -523.8205
   3   2.0000     -19.243703      -523.6478
   4   2.0000     -10.334188      -281.2075
   5   2.0000      -8.264969      -224.9013
   6   2.0000      -6.222417      -169.3206
   7   2.0000      -6.216476      -169.1589
   8   2.0000      -6.215370      -169.1288
   9   2.0000      -1.473737       -40.1024
  10   2.0000      -1.232141       -33.5283
  11   2.0000      -1.137621       -30.9562
  12   2.0000      -0.915230       -24.9047
  13   2.0000      -0.813896       -22.1472
  14   2.0000      -0.695548       -18.9268
  15   2.0000      -0.674366       -18.3504
  16   2.0000      -0.659193       -17.9376
  17   2.0000      -0.580027       -15.7833
  18   2.0000      -0.578459       -15.7407
  19   2.0000      -0.565274       -15.3819
  20   2.0000      -0.542532       -14.7630
  21   2.0000      -0.492331       -13.3970
  22   2.0000      -0.441147       -12.0042
  23   2.0000      -0.434513       -11.8237
  24   2.0000      -0.417022       -11.3478
  25   0.0000       0.049698         1.3523
  26   0.0000       0.063672         1.7326
  27   0.0000       0.070486         1.9180
  28   0.0000       0.072655         1.9770
  29   0.0000       0.105199         2.8626

MULLIKEN ATOMIC CHARGES
-----------------------
   0 C :   -0.920475
   1 S :    1.232916
   2 F :   -0.158414
   3 O :   -0.561350
   4 O :   -0.578338
   5 H :    0.319469
   6 H :    0.333938
   7 H :    0.332255
Sum of atomic charges:   -0.0000000

LOEWDIN ATOMIC CHARGES
----------------------
   0 C :   -0.115722
   1 S :    0.581706
   2 F :   -0.085315
   3 O :   -0.278898
   4 O :   -0.295658
   5 H :    0.071145
   6 H :    0.061375
   7 H :    0.061365

  Mayer bond orders larger than 0.100000
B(  0-C ,  1-S ) :   0.8121 B(  0-C ,  3-O ) :   0.1052 B(  0-C ,  4-O ) :   0.1057
B(  0-C ,  5-H ) :   0.9202 B(  0-C ,  6-H ) :   0.9029 B(  0-C ,  7-H ) :   0.9048
B(  1-S ,  2-F ) :   0.9669 B(  1-S ,  3-O ) :   1.7093 B(  1-S ,  4-O ) :   1.6802

Dispersion correction           -0.001528875
FINAL SINGLE POINT ENERGY      -688.437936497330

DIPOLE MOMENT
-------------
                                X             Y             Z
Electronic contribution:      3.36802      -4.20484      -0.53273
Nuclear contribution   :     -3.03874       5.51823       1.39394
                        -----------------------------------------
Total Dipole Moment    :      0.32929       1.31339       0.86121
                        -----------------------------------------
Magnitude (a.u.)       :      1.60471
Magnitude (Debye)      :      4.07886

Rotational constants in cm-1:     0.164301     0.151617     0.146802
Rotational constants in MHz :  4925.615104  4545.361281  4401.017554

                             ****ORCA TERMINATED NORMALLY****
TOTAL RUN TIME: 0 days 0 hours 0 minutes 19 seconds 823 msec
