                         Program Version 5.0.0 -  RELEASE  -
|  1> !wB97X-D3 RIJCOSX def2-TZVPD def2/J TightSCF
|  2> *xyz 0 1
|  3> C          2.91632       -1.24259       -1.54313
|  4> C          3.46659       -1.59097       -2.88908
|  5> C          4.65227       -1.14316       -3.25969
|  6> N          2.75226       -2.29204       -3.72803
|  7> H          1.77836       -2.48960       -3.51274
|  8> H          2.94861       -2.20854       -4.71681
|  9> H          5.14672       -0.51251       -2.63385
| 10> H          4.78303       -1.00720       -4.25350
| 11> H          1.95294       -1.69278       -1.42424
| 12> H          2.82618       -0.17973       -1.45886
| 13> H          3.57606       -1.60596       -0.78312
| 14> *
| 15>
| 16> %MaxCore 64000
| 17>
| 18> %pal nprocs 8
| 19> end
| 20>
| 21> %scf
| 22>   MaxIter 150
| 23> end
| 24>
| 25>
| 26>                          ****END OF INPUT****

CARTESIAN COORDINATES (ANGSTROEM)
---------------------------------
  C      2.916320   -1.242590   -1.543130
  C      3.466590   -1.590970   -2.889080
  C      4.652270   -1.143160   -3.259690
  N      2.752260   -2.292040   -3.728030
  H      1.778360   -2.489600   -3.512740
  H      2.948610   -2.208540   -4.716810
  H      5.146720   -0.512510   -2.633850
  H      4.783030   -1.007200   -4.253500
  H      1.952940   -1.692780   -1.424240
  H      2.826180   -0.179730   -1.458860
  H      3.576060   -1.605960   -0.783120

 Total Charge           Charge          ....    0
 Multiplicity           Mult            ....    1
 Number of Electrons    NEL             ....   32
 Basis Dimension        Dim             ....  211

ORBITAL ENERGIES
----------------

  NO   OCC          E(Eh)            E(eV)
   0   2.0000     -14.425144      -392.5281
   1   2.0000     -10.299905      -280.2747
   2   2.0000     -10.266188      -279.3572
   3   2.0000     -10.199460      -277.5414
   4   2.0000      -1.055585       -28.7239
   5   2.0000      -0.875426       -23.8216
   6   2.0000      -0.805917       -21.9301
   7   2.0000      -0.680922       -18.5288
   8   2.0000      -0.626968       -17.0607
   9   2.0000      -0.572544       -15.5797
  10   2.0000      -0.535964       -14.5843
  11   2.0000      -0.496527       -13.5112
  12   2.0000      -0.485303       -13.2058
  13   2.0000      -0.458623       -12.4798
  14   2.0000      -0.428473       -11.6593
  15   2.0000      -0.278194        -7.5701
  16   0.0000       0.067770         1.8441
  17   0.0000       0.097105         2.6424
  18   0.0000       0.101494         2.7618
  19   0.0000       0.105929         2.8825
  20   0.0000       0.133657         3.6370

MULLIKEN ATOMIC CHARGES
-----------------------
   0 C :   -1.072328
   1 C :    0.871157
   2 C :   -1.375925
   3 N :   -0.453037
   4 H :    0.216899
   5 H :    0.199543
   6 H :    0.344334
   7 H :    0.345277
   8 H :    0.349997
   9 H :    0.279959
  10 H :    0.294124
Sum of atomic charges:   -0.0000000

LOEWDIN ATOMIC CHARGES
----------------------
   0 C :   -0.036821
   1 C :   -0.534467
   2 C :   -0.007755
   3 N :    0.086777
   4 H :    0.107792
   5 H :    0.113096
   6 H :    0.024870
   7 H :    0.020230
   8 H :    0.065007
   9 H :    0.080804
  10 H :    0.080467

  Mayer bond orders larger than 0.100000
B(  0-C ,  1-C ) :   0.6267 B(  0-C ,  8-H ) :   0.9369 B(  0-C ,  9-H ) :   0.9348
B(  0-C , 10-H ) :   0.9698 B(  1-C ,  2-C ) :   1.2282 B(  1-C ,  3-N ) :   1.1154
B(  2-C ,  3-N ) :   0.1405 B(  2-C ,  6-H ) :   0.9589 B(  2-C ,  7-H ) :   0.9452
B(  3-N ,  4-H ) :   0.9697 B(  3-N ,  5-H ) :   0.9681

Dispersion correction           -0.001675319
FINAL SINGLE POINT ENERGY      -173.258601461519

DIPOLE MOMENT
-------------
                                X             Y             Z
Electronic contribution:     -0.17088      -1.16511      -1.30413
Nuclear contribution   :     -0.76183       1.20997       1.18381
                        -----------------------------------------
Total Dipole Moment    :     -0.93271       0.04487      -0.12032
                        -----------------------------------------
Magnitude (a.u.)       :      0.94150
Magnitude (Debye)      :      2.39311

Rotational constants in cm-1:     0.357745     0.302571     0.170012
Rotational constants in MHz : 10724.926457  9070.849165  5096.845195

                             ****ORCA TERMINATED NORMALLY****
TOTAL RUN TIME: 0 days 0 hours 0 minutes 18 seconds 984 msec
