                         Program Version 5.0.0 -  RELEASE  -
|  1> !wB97X-D3 RIJCOSX def2-TZVPD def2/J TightSCF
|  2> *xyz 0 1
|  3> C          1.72854        1.42432       -5.63944
|  4> S          2.25263       -0.18811       -6.27184
|  5> O          3.56261       -0.44446       -5.63155
|  6> F          2.34494       -0.03374       -7.69650
|  7> O          1.26606       -1.15918       -5.80536
|  8> H          0.77944        1.68154       -6.06127
|  9> H          2.45151        2.16548       -5.90944
| 10> H          1.64478        1.37937       -4.57367
| 11> *
| 12>
| 13> %MaxCore 64000
| 14>
| 15> %pal nprocs 8
| 16> end
| 17>
| 18> %scf
| 19>   MaxIter 150
| 20> end
| 21>
| 22>
| 23>                          ****END OF INPUT****

CARTESIAN COORDINATES (ANGSTROEM)
---------------------------------
  C      1.728540    1.424320   -5.639440
  S      2.252630   -0.188110   -6.271840
  O      3.562610   -0.444460   -5.631550
  F      2.344940   -0.033740   -7.696500
  O      1.266060   -1.159180   -5.805360
  H      0.779440    1.681540   -6.061270
  H      2.451510    2.165480   -5.909440
  H      1.644780    1.379370   -4.573670

 Total Charge           Charge          ....    0
 Multiplicity           Mult            ....    1
 Number of Electrons    NEL             ....   50
 Basis Dimension        Dim             ....  230

ORBITAL ENERGIES
----------------

  NO   OCC          E(Eh)            E(eV)
   0   2.0000     -89.204834     -2427.3870
   1   2.0000     -24.915605      -677.9881
   2   2.0000     -19.244260      -523.6629
   3   2.0000     -19.235924      -523.4361
   4   2.0000     -10.335128      -281.2331
   5   2.0000      -8.267469      -224.9693
   6   2.0000      -6.224885      -169.3877
   7   2.0000      -6.218736      -169.2204
   8   2.0000      -6.218005      -169.2005
   9   2.0000      -1.511162       -41.1208
  10   2.0000      -1.218267       -33.1507
  11   2.0000      -1.118328       -30.4313
  12   2.0000      -0.918055       -24.9815
  13   2.0000      -0.832811       -22.6619
  14   2.0000      -0.714424       -19.4405
  15   2.0000      -0.700960       -19.0741
  16   2.0000      -0.663102       -18.0439
  17   2.0000      -0.579651       -15.7731
  18   2.0000      -0.575672       -15.6648
  19   2.0000      -0.566224       -15.4077
  20   2.0000      -0.535115       -14.5612
  21   2.0000      -0.484967       -13.1966
  22   2.0000      -0.433212       -11.7883
  23   2.0000      -0.424624       -11.5546
  24   2.0000      -0.401764       -10.9325
  25   0.0000       0.047433         1.2907
  26   0.0000       0.062163         1.6915
  27   0.0000       0.069583         1.8935
  28   0.0000       0.073643         2.0039
  29   0.0000       0.105619         2.8740

MULLIKEN ATOMIC CHARGES
-----------------------
   0 C :   -0.920246
   1 S :    1.211336
   2 O :   -0.585560
   3 F :   -0.121105
   4 O :   -0.569350
   5 H :    0.337496
   6 H :    0.334336
   7 H :    0.313094
Sum of atomic charges:   -0.0000000

LOEWDIN ATOMIC CHARGES
----------------------
   0 C :   -0.116659
   1 S :    0.580199
   2 O :   -0.312317
   3 F :   -0.050253
   4 O :   -0.294898
   5 H :    0.060457
   6 H :    0.061527
   7 H :    0.071944

  Mayer bond orders larger than 0.100000
B(  0-C ,  1-S ) :   0.8156 B(  0-C ,  2-O ) :   0.1037 B(  0-C ,  4-O ) :   0.1067
B(  0-C ,  5-H ) :   0.8998 B(  0-C ,  6-H ) :   0.9032 B(  0-C ,  7-H ) :   0.9260
B(  1-S ,  2-O ) :   1.6656 B(  1-S ,  3-F ) :   1.0173 B(  1-S ,  4-O ) :   1.6890

Dispersion correction           -0.001531397
FINAL SINGLE POINT ENERGY      -688.419361033024

DIPOLE MOMENT
-------------
                                X             Y             Z
Electronic contribution:      1.30770      -3.52138      -3.99612
Nuclear contribution   :     -1.82220       5.10789       3.45696
                        -----------------------------------------
Total Dipole Moment    :     -0.51450       1.58651      -0.53917
                        -----------------------------------------
Magnitude (a.u.)       :      1.75284
Magnitude (Debye)      :      4.45536

Rotational constants in cm-1:     0.163267     0.154654     0.145086
Rotational constants in MHz :  4894.631475  4636.404456  4349.567403

                             ****ORCA TERMINATED NORMALLY****
TOTAL RUN TIME: 0 days 0 hours 0 minutes 20 seconds 835 msec
