                         Program Version 5.0.0 -  RELEASE  -
|  1> !wB97X-D3 RIJCOSX def2-TZVPD def2/J TightSCF
|  2> *xyz 0 1
|  3> C          2.91632       -1.24259       -1.54313
|  4> C          3.46659       -1.59097       -2.88908
|  5> N          4.65227       -1.14316       -3.25969
|  6> C          2.75226       -2.29204       -3.72803
|  7> H          1.77836       -2.48960       -3.51274
|  8> H          2.94861       -2.20854       -4.71681
|  9> H          5.14672       -0.51251       -2.63385
| 10> H          4.78303       -1.00720       -4.25350
| 11> H          1.95294       -1.69278       -1.42424
| 12> H          2.82618       -0.17973       -1.45886
| 13> H          3.57606       -1.60596       -0.78312
| 14> *
| 15>
| 16> %MaxCore 64000
| 17>
| 18> %pal nprocs 8
| 19> end
| 20>
| 21> %scf
| 22>   MaxIter 150
| 23> end
| 24>
| 25>
| 26>                          ****END OF INPUT****

CARTESIAN COORDINATES (ANGSTROEM)
---------------------------------
  C      2.916320   -1.242590   -1.543130
  C      3.466590   -1.590970   -2.889080
  N      4.652270   -1.143160   -3.259690
  C      2.752260   -2.292040   -3.728030
  H      1.778360   -2.489600   -3.512740
  H      2.948610   -2.208540   -4.716810
  H      5.146720   -0.512510   -2.633850
  H      4.783030   -1.007200   -4.253500
  H      1.952940   -1.692780   -1.424240
  H      2.826180   -0.179730   -1.458860
  H      3.576060   -1.605960   -0.783120

 Total Charge           Charge          ....    0
 Multiplicity           Mult            ....    1
 Number of Electrons    NEL             ....   32
 Basis Dimension        Dim             ....  211

ORBITAL ENERGIES
----------------

  NO   OCC          E(Eh)            E(eV)
   0   2.0000     -14.421548      -392.4303
   1   2.0000     -10.298403      -280.2338
   2   2.0000     -10.264989      -279.3246
   3   2.0000     -10.203847      -277.6608
   4   2.0000      -1.049953       -28.5707
   5   2.0000      -0.876064       -23.8389
   6   2.0000      -0.807277       -21.9671
   7   2.0000      -0.674608       -18.3570
   8   2.0000      -0.627477       -17.0745
   9   2.0000      -0.575200       -15.6520
  10   2.0000      -0.536699       -14.6043
  11   2.0000      -0.495970       -13.4960
  12   2.0000      -0.488893       -13.3034
  13   2.0000      -0.453939       -12.3523
  14   2.0000      -0.424039       -11.5387
  15   2.0000      -0.285739        -7.7754
  16   0.0000       0.067837         1.8459
  17   0.0000       0.097980         2.6662
  18   0.0000       0.101685         2.7670
  19   0.0000       0.109593         2.9822
  20   0.0000       0.133611         3.6357

MULLIKEN ATOMIC CHARGES
-----------------------
   0 C :   -1.187101
   1 C :    0.929320
   2 N :   -0.485419
   3 C :   -1.301971
   4 H :    0.313115
   5 H :    0.337181
   6 H :    0.221913
   7 H :    0.203434
   8 H :    0.284966
   9 H :    0.350394
  10 H :    0.334170
Sum of atomic charges:   -0.0000000

LOEWDIN ATOMIC CHARGES
----------------------
   0 C :   -0.042055
   1 C :   -0.534773
   2 N :    0.082677
   3 C :    0.000171
   4 H :    0.024984
   5 H :    0.024933
   6 H :    0.108632
   7 H :    0.109977
   8 H :    0.073211
   9 H :    0.078019
  10 H :    0.074224

  Mayer bond orders larger than 0.100000
B(  0-C ,  1-C ) :   0.5555 B(  0-C ,  8-H ) :   0.9756 B(  0-C ,  9-H ) :   0.9141
B(  0-C , 10-H ) :   0.9364 B(  1-C ,  2-N ) :   1.0988 B(  1-C ,  3-C ) :   1.2813
B(  2-N ,  3-C ) :   0.1255 B(  2-N ,  6-H ) :   0.9658 B(  2-N ,  7-H ) :   0.9673
B(  3-C ,  4-H ) :   0.9804 B(  3-C ,  5-H ) :   0.9682

Dispersion correction           -0.001687471
FINAL SINGLE POINT ENERGY      -173.262700783143

DIPOLE MOMENT
-------------
                                X             Y             Z
Electronic contribution:      1.50916      -0.16602      -0.91546
Nuclear contribution   :     -1.18794       0.95232       1.07877
                        -----------------------------------------
Total Dipole Moment    :      0.32122       0.78630       0.16331
                        -----------------------------------------
Magnitude (a.u.)       :      0.86494
Magnitude (Debye)      :      2.19850

Rotational constants in cm-1:     0.358436     0.301769     0.169913
Rotational constants in MHz : 10745.629007  9046.806054  5093.859032

                             ****ORCA TERMINATED NORMALLY****
TOTAL RUN TIME: 0 days 0 hours 0 minutes 18 seconds 868 msec
