                         Program Version 5.0.0 -  RELEASE  -
|  1> !wB97X-D3 RIJCOSX def2-TZVPD def2/J TightSCF
|  2> *xyz 0 1
|  3> C          1.72854        1.42432       -5.63944
|  4> S          2.25263       -0.18811       -6.27184
|  5> O          3.56261       -0.44446       -5.63155
|  6> O          2.34494       -0.03374       -7.69650
|  7> F          1.26606       -1.15918       -5.80536
|  8> H          0.77944        1.68154       -6.06127
|  9> H          2.45151        2.16548       -5.90944
| 10> H          1.64478        1.37937       -4.57367
| 11> *
| 12>
| 13> %MaxCore 64000
| 14>
| 15> %pal nprocs 8
| 16> end
| 17>
| 18> %scf
| 19>   MaxIter 150
| 20> end
| 21>
| 22>
| 23>                          ****END OF INPUT****

CARTESIAN COORDINATES (ANGSTROEM)
---------------------------------
  C      1.728540    1.424320   -5.639440
  S      2.252630   -0.188110   -6.271840
  O      3.562610   -0.444460   -5.631550
  O      2.344940   -0.033740   -7.696500
  F      1.266060   -1.159180   -5.805360
  H      0.779440    1.681540   -6.061270
  H      2.451510    2.165480   -5.909440
  H      1.644780    1.379370   -4.573670

 Total Charge           Charge          ....    0
 Multiplicity           Mult            ....    1
 Number of Electrons    NEL             ....   50
 Basis Dimension        Dim             ....  230

ORBITAL ENERGIES
----------------

  NO   OCC          E(Eh)            E(eV)
   0   2.0000     -89.203336     -2427.3462
   1   2.0000     -24.904068      -677.6741
   2   2.0000     -19.250473      -523.8320
   3   2.0000     -19.235786      -523.4324
   4   2.0000     -10.334642      -281.2199
   5   2.0000      -8.266022      -224.9299
   6   2.0000      -6.223408      -169.3475
   7   2.0000      -6.217458      -169.1856
   8   2.0000      -6.216466      -169.1587
   9   2.0000      -1.490754       -40.5655
  10   2.0000      -1.228192       -33.4208
  11   2.0000      -1.126479       -30.6531
  12   2.0000      -0.915743       -24.9186
  13   2.0000      -0.823097       -22.3976
  14   2.0000      -0.703692       -19.1484
  15   2.0000      -0.686336       -18.6761
  16   2.0000      -0.661268       -17.9940
  17   2.0000      -0.580108       -15.7855
  18   2.0000      -0.577266       -15.7082
  19   2.0000      -0.566917       -15.4266
  20   2.0000      -0.539082       -14.6692
  21   2.0000      -0.489727       -13.3261
  22   2.0000      -0.439642       -11.9633
  23   2.0000      -0.425601       -11.5812
  24   2.0000      -0.408687       -11.1209
  25   0.0000       0.048202         1.3116
  26   0.0000       0.062758         1.7077
  27   0.0000       0.069991         1.9045
  28   0.0000       0.073000         1.9864
  29   0.0000       0.104499         2.8436

MULLIKEN ATOMIC CHARGES
-----------------------
   0 C :   -0.918936
   1 S :    1.223435
   2 O :   -0.590710
   3 O :   -0.557337
   4 F :   -0.140043
   5 H :    0.336206
   6 H :    0.315382
   7 H :    0.332002
Sum of atomic charges:    0.0000000

LOEWDIN ATOMIC CHARGES
----------------------
   0 C :   -0.116361
   1 S :    0.581929
   2 O :   -0.312533
   3 O :   -0.278291
   4 F :   -0.068574
   5 H :    0.060621
   6 H :    0.071895
   7 H :    0.061313

  Mayer bond orders larger than 0.100000
B(  0-C ,  1-S ) :   0.8141 B(  0-C ,  2-O ) :   0.1041 B(  0-C ,  3-O ) :   0.1059
B(  0-C ,  5-H ) :   0.9015 B(  0-C ,  6-H ) :   0.9232 B(  0-C ,  7-H ) :   0.9046
B(  1-S ,  2-O ) :   1.6606 B(  1-S ,  3-O ) :   1.7133 B(  1-S ,  4-F ) :   0.9891

Dispersion correction           -0.001528799
FINAL SINGLE POINT ENERGY      -688.428281349109

DIPOLE MOMENT
-------------
                                X             Y             Z
Electronic contribution:     -0.50572      -5.40385      -0.83352
Nuclear contribution   :     -0.74433       6.23228       1.56758
                        -----------------------------------------
Total Dipole Moment    :     -1.25005       0.82844       0.73407
                        -----------------------------------------
Magnitude (a.u.)       :      1.66967
Magnitude (Debye)      :      4.24396

Rotational constants in cm-1:     0.164764     0.152261     0.145794
Rotational constants in MHz :  4939.488001  4564.674339  4370.797804

                             ****ORCA TERMINATED NORMALLY****
TOTAL RUN TIME: 0 days 0 hours 0 minutes 20 seconds 309 msec
