                         Program Version 5.0.0 -  RELEASE  -
|  1> !wB97X-D3 RIJCOSX def2-TZVPD def2/J TightSCF xyzfile
|  2>
|  3> *xyzfile 0 1 D2.xyz
|  4>
|  5> %MaxCore 64000
|  6>
|  7> %pal nprocs 18
|  8> end
|  9>
| 10> %scf
| 11>   MaxIter 150
| 12> end
| 13>
| 14>
| 15>                          ****END OF INPUT****

CARTESIAN COORDINATES (ANGSTROEM)
---------------------------------
  C      2.916324   -1.242589   -1.543125
  C      0.704661    1.443129   -4.503630
  C      1.728539    1.424320   -5.639443
  H      2.646718    1.953794   -5.381054
  H      1.299916    1.930613   -6.503614
  S      2.252625   -0.188115   -6.271840
  C      3.466585   -1.590971   -2.889082
  N      4.652275   -1.143164   -3.259692
  C      2.752264   -2.292043   -3.728029
  H      1.778364   -2.489604   -3.512738
  H      2.948612   -2.208544   -4.716813
  H      5.146723   -0.512508   -2.633852
  H      4.783030   -1.007203   -4.253498
  F      3.562607   -0.444464   -5.631552
  O      2.344944   -0.033742   -7.696501
  C      2.804084    0.290698   -1.359243
  C      1.052550    0.695659   -3.214915
  H     -0.232483    1.032925   -4.884449
  H      0.511700    2.495794   -4.267966
  C      2.388380    1.093669   -2.597108
  H      3.763425    0.674718   -0.999889
  H      2.094788    0.461222   -0.545756
  O      1.266058   -1.159177   -5.805365
  H      3.167316    1.013242   -3.359430
  H      2.357690    2.149375   -2.310997
  H      1.039284   -0.368429   -3.449329
  H      0.250787    0.865605   -2.488283
  H      1.940472   -1.716529   -1.441161
  H      3.558569   -1.663433   -0.766371

 Total Charge           Charge          ....    0
 Multiplicity           Mult            ....    1
 Number of Electrons    NEL             ....  112
 Basis Dimension        Dim             ....  643

ORBITAL ENERGIES
----------------

  NO   OCC          E(Eh)            E(eV)
   0   2.0000     -89.197162     -2427.1782
   1   2.0000     -24.895844      -677.4504
   2   2.0000     -19.249879      -523.8158
   3   2.0000     -19.239836      -523.5426
   4   2.0000     -14.418772      -392.3547
   5   2.0000     -10.337173      -281.2888
   6   2.0000     -10.301316      -280.3131
   7   2.0000     -10.291243      -280.0390
   8   2.0000     -10.283961      -279.8408
   9   2.0000     -10.281954      -279.7862
  10   2.0000     -10.277022      -279.6520
  11   2.0000     -10.276810      -279.6462
  12   2.0000     -10.199688      -277.5476
  13   2.0000      -8.260893      -224.7903
  14   2.0000      -6.218603      -169.2168
  15   2.0000      -6.211902      -169.0345
  16   2.0000      -6.211170      -169.0145
  17   2.0000      -1.479954       -40.2716
  18   2.0000      -1.232065       -33.5262
  19   2.0000      -1.137076       -30.9414
  20   2.0000      -1.050937       -28.5975
  21   2.0000      -0.956125       -26.0175
  22   2.0000      -0.920042       -25.0356
  23   2.0000      -0.877741       -23.8845
  24   2.0000      -0.849787       -23.1239
  25   2.0000      -0.822446       -22.3799
  26   2.0000      -0.794280       -21.6135
  27   2.0000      -0.740280       -20.1440
  28   2.0000      -0.705908       -19.2087
  29   2.0000      -0.683036       -18.5864
  30   2.0000      -0.678509       -18.4632
  31   2.0000      -0.665311       -18.1040
  32   2.0000      -0.655276       -17.8310
  33   2.0000      -0.626747       -17.0546
  34   2.0000      -0.597918       -16.2702
  35   2.0000      -0.594900       -16.1881
  36   2.0000      -0.581794       -15.8314
  37   2.0000      -0.567983       -15.4556
  38   2.0000      -0.553397       -15.0587
  39   2.0000      -0.545277       -14.8377
  40   2.0000      -0.536293       -14.5933
  41   2.0000      -0.517151       -14.0724
  42   2.0000      -0.502622       -13.6770
  43   2.0000      -0.489794       -13.3280
  44   2.0000      -0.483994       -13.1702
  45   2.0000      -0.479609       -13.0508
  46   2.0000      -0.463815       -12.6210
  47   2.0000      -0.453600       -12.3431
  48   2.0000      -0.444260       -12.0889
  49   2.0000      -0.430841       -11.7238
  50   2.0000      -0.428328       -11.6554
  51   2.0000      -0.420306       -11.4371
  52   2.0000      -0.417393       -11.3578
  53   2.0000      -0.409015       -11.1299
  54   2.0000      -0.407671       -11.0933
  55   2.0000      -0.281636        -7.6637
  56   0.0000       0.047314         1.2875
  57   0.0000       0.059827         1.6280
  58   0.0000       0.064962         1.7677
  59   0.0000       0.068272         1.8578
  60   0.0000       0.085774         2.3340

MULLIKEN ATOMIC CHARGES
-----------------------
   0 C :   -0.712151
   1 C :   -0.627652
   2 C :   -0.852235
   3 H :    0.463269
   4 H :    0.343031
   5 S :    1.182997
   6 C :    0.594876
   7 N :   -0.354367
   8 C :   -1.649342
   9 H :    0.447914
  10 H :    0.583673
  11 H :    0.281762
  12 H :    0.240813
  13 F :   -0.204102
  14 O :   -0.600722
  15 C :   -0.670430
  16 C :   -0.261585
  17 H :    0.348575
  18 H :    0.342264
  19 C :   -0.382987
  20 H :    0.383757
  21 H :    0.251601
  22 O :   -0.623344
  23 H :    0.243369
  24 H :    0.304242
  25 H :    0.088542
  26 H :    0.281246
  27 H :    0.308772
  28 H :    0.248213
Sum of atomic charges:    0.0000000

LOEWDIN ATOMIC CHARGES
----------------------
   0 C :   -0.135250
   1 C :   -0.215189
   2 C :   -0.211801
   3 H :    0.100573
   4 H :    0.106443
   5 S :    0.634168
   6 C :   -0.493292
   7 N :    0.105470
   8 C :    0.001728
   9 H :    0.042216
  10 H :    0.006982
  11 H :    0.115183
  12 H :    0.090791
  13 F :   -0.113144
  14 O :   -0.261709
  15 C :   -0.188110
  16 C :   -0.203017
  17 H :    0.116825
  18 H :    0.119867
  19 C :   -0.208578
  20 H :    0.103521
  21 H :    0.109749
  22 O :   -0.272654
  23 H :    0.088837
  24 H :    0.117895
  25 H :    0.087938
  26 H :    0.122991
  27 H :    0.115302
  28 H :    0.116266

  Mayer bond orders larger than 0.100000
B(  0-C ,  6-C ) :   0.9389 B(  0-C ,  8-C ) :   0.1110 B(  0-C , 15-C ) :   0.9206
B(  0-C , 16-C ) :   0.1786 B(  0-C , 19-C ) :  -0.1136 B(  0-C , 27-H ) :   0.9188
B(  0-C , 28-H ) :   0.9483 B(  1-C ,  2-C ) :   0.8745 B(  1-C ,  5-S ) :   0.1101
B(  1-C , 16-C ) :   0.8633 B(  1-C , 17-H ) :   0.8682 B(  1-C , 18-H ) :   0.8882
B(  1-C , 19-C ) :   0.2898 B(  1-C , 25-H ) :   0.1710 B(  2-C ,  3-H ) :   0.7431
B(  2-C ,  4-H ) :   0.9273 B(  2-C ,  5-S ) :   0.8581 B(  2-C , 14-O ) :   0.1613
B(  2-C , 19-C ) :   0.1841 B(  5-S , 13-F ) :   1.1248 B(  5-S , 14-O ) :   1.4406
B(  5-S , 22-O ) :   1.6340 B(  6-C ,  7-N ) :   1.0206 B(  6-C ,  8-C ) :   1.2655
B(  6-C ,  9-H ) :  -0.1314 B(  6-C , 10-H ) :  -0.1574 B(  6-C , 19-C ) :   0.1709
B(  7-N , 11-H ) :   0.7872 B(  7-N , 12-H ) :   0.8633 B(  8-C ,  9-H ) :   0.8851
B(  8-C , 10-H ) :   0.6791 B( 15-C , 16-C ) :   0.3591 B( 15-C , 19-C ) :   0.9792
B( 15-C , 20-H ) :   0.8451 B( 15-C , 21-H ) :   0.9301 B( 16-C , 19-C ) :   0.4617
B( 16-C , 25-H ) :   1.2160 B( 16-C , 26-H ) :   0.8444 B( 19-C , 23-H ) :   1.0174
B( 19-C , 24-H ) :   0.9031

Dispersion correction           -0.016286462
FINAL SINGLE POINT ENERGY     -1017.754167394771

DIPOLE MOMENT
-------------
                                X             Y             Z
Electronic contribution:      3.45355      -4.23426     -18.24337
Nuclear contribution   :     -3.13969       6.14743      19.30799
                        -----------------------------------------
Total Dipole Moment    :      0.31387       1.91317       1.06462
                        -----------------------------------------
Magnitude (a.u.)       :      2.21182
Magnitude (Debye)      :      5.62201

Rotational constants in cm-1:     0.036460     0.018762     0.015014
Rotational constants in MHz :  1093.039020   562.475626   450.105862

                             ****ORCA TERMINATED NORMALLY****
TOTAL RUN TIME: 0 days 0 hours 2 minutes 38 seconds 907 msec
