                         Program Version 5.0.0 -  RELEASE  -
|  1> !wB97X-D3 RIJCOSX def2-TZVPD def2/J TightSCF xyzfile
|  2>
|  3> *xyzfile 0 1 D3.xyz
|  4>
|  5> %MaxCore 64000
|  6>
|  7> %pal nprocs 18
|  8> end
|  9>
| 10> %scf
| 11>   MaxIter 150
| 12> end
| 13>
| 14>
| 15>                          ****END OF INPUT****

CARTESIAN COORDINATES (ANGSTROEM)
---------------------------------
  C      2.916324   -1.242589   -1.543125
  C      0.704661    1.443129   -4.503630
  C      1.728539    1.424320   -5.639443
  H      2.646718    1.953794   -5.381054
  H      1.299916    1.930613   -6.503614
  S      2.252625   -0.188115   -6.271840
  C      3.466585   -1.590971   -2.889082
  C      4.652275   -1.143164   -3.259692
  N      2.752264   -2.292043   -3.728029
  H      1.778364   -2.489604   -3.512738
  H      2.948612   -2.208544   -4.716813
  H      5.146723   -0.512508   -2.633852
  H      4.783030   -1.007203   -4.253498
  O      3.562607   -0.444464   -5.631552
  F      2.344944   -0.033742   -7.696501
  C      2.804084    0.290698   -1.359243
  C      1.052550    0.695659   -3.214915
  H     -0.232483    1.032925   -4.884449
  H      0.511700    2.495794   -4.267966
  C      2.388380    1.093669   -2.597108
  H      3.763425    0.674718   -0.999889
  H      2.094788    0.461222   -0.545756
  O      1.266058   -1.159177   -5.805365
  H      3.167316    1.013242   -3.359430
  H      2.357690    2.149375   -2.310997
  H      1.039284   -0.368429   -3.449329
  H      0.250787    0.865605   -2.488283
  H      1.940472   -1.716529   -1.441161
  H      3.558569   -1.663433   -0.766371

 Total Charge           Charge          ....    0
 Multiplicity           Mult            ....    1
 Number of Electrons    NEL             ....  112
 Basis Dimension        Dim             ....  643

ORBITAL ENERGIES
----------------

  NO   OCC          E(Eh)            E(eV)
   0   2.0000     -89.209735     -2427.5203
   1   2.0000     -24.921891      -678.1591
   2   2.0000     -19.255092      -523.9577
   3   2.0000     -19.245915      -523.7080
   4   2.0000     -14.392321      -391.6350
   5   2.0000     -10.344250      -281.4814
   6   2.0000     -10.306862      -280.4640
   7   2.0000     -10.276550      -279.6391
   8   2.0000     -10.272501      -279.5290
   9   2.0000     -10.268538      -279.4211
  10   2.0000     -10.266463      -279.3647
  11   2.0000     -10.263811      -279.2925
  12   2.0000     -10.171487      -276.7802
  13   2.0000      -8.273641      -225.1372
  14   2.0000      -6.230852      -169.5501
  15   2.0000      -6.224614      -169.3803
  16   2.0000      -6.224318      -169.3723
  17   2.0000      -1.517950       -41.3055
  18   2.0000      -1.232122       -33.5277
  19   2.0000      -1.132584       -30.8192
  20   2.0000      -1.028599       -27.9896
  21   2.0000      -0.958400       -26.0794
  22   2.0000      -0.913292       -24.8519
  23   2.0000      -0.878801       -23.9134
  24   2.0000      -0.841650       -22.9025
  25   2.0000      -0.812071       -22.0976
  26   2.0000      -0.787032       -21.4162
  27   2.0000      -0.745082       -20.2747
  28   2.0000      -0.710601       -19.3364
  29   2.0000      -0.706051       -19.2126
  30   2.0000      -0.680751       -18.5242
  31   2.0000      -0.670341       -18.2409
  32   2.0000      -0.641385       -17.4530
  33   2.0000      -0.608258       -16.5515
  34   2.0000      -0.598955       -16.2984
  35   2.0000      -0.596795       -16.2396
  36   2.0000      -0.580154       -15.7868
  37   2.0000      -0.569920       -15.5083
  38   2.0000      -0.550581       -14.9821
  39   2.0000      -0.536470       -14.5981
  40   2.0000      -0.525897       -14.3104
  41   2.0000      -0.512137       -13.9360
  42   2.0000      -0.499963       -13.6047
  43   2.0000      -0.481538       -13.1033
  44   2.0000      -0.475950       -12.9513
  45   2.0000      -0.459410       -12.5012
  46   2.0000      -0.454014       -12.3544
  47   2.0000      -0.445478       -12.1221
  48   2.0000      -0.438698       -11.9376
  49   2.0000      -0.430540       -11.7156
  50   2.0000      -0.421196       -11.4613
  51   2.0000      -0.417620       -11.3640
  52   2.0000      -0.407537       -11.0896
  53   2.0000      -0.399515       -10.8714
  54   2.0000      -0.392854       -10.6901
  55   2.0000      -0.250916        -6.8278
  56   0.0000       0.036640         0.9970
  57   0.0000       0.057367         1.5610
  58   0.0000       0.058485         1.5915
  59   0.0000       0.071633         1.9492
  60   0.0000       0.083895         2.2829

MULLIKEN ATOMIC CHARGES
-----------------------
   0 C :   -0.764433
   1 C :   -0.641382
   2 C :   -0.892574
   3 H :    0.425534
   4 H :    0.418262
   5 S :    1.163695
   6 C :    0.586258
   7 C :   -1.588678
   8 N :   -0.357075
   9 H :    0.296502
  10 H :    0.220156
  11 H :    0.428822
  12 H :    0.579189
  13 O :   -0.639815
  14 F :   -0.083172
  15 C :   -0.593866
  16 C :   -0.263191
  17 H :    0.319047
  18 H :    0.331542
  19 C :   -0.554827
  20 H :    0.378280
  21 H :    0.300900
  22 O :   -0.664086
  23 H :    0.304427
  24 H :    0.301218
  25 H :    0.116507
  26 H :    0.300566
  27 H :    0.325271
  28 H :    0.246923
Sum of atomic charges:   -0.0000000

LOEWDIN ATOMIC CHARGES
----------------------
   0 C :   -0.136228
   1 C :   -0.213074
   2 C :   -0.212753
   3 H :    0.107006
   4 H :    0.097862
   5 S :    0.656296
   6 C :   -0.496519
   7 C :    0.001304
   8 N :    0.106462
   9 H :    0.108288
  10 H :    0.075136
  11 H :    0.033305
  12 H :    0.002581
  13 O :   -0.312240
  14 F :   -0.037120
  15 C :   -0.186384
  16 C :   -0.202000
  17 H :    0.114166
  18 H :    0.122131
  19 C :   -0.205941
  20 H :    0.108490
  21 H :    0.106231
  22 O :   -0.282368
  23 H :    0.094325
  24 H :    0.116720
  25 H :    0.086765
  26 H :    0.122201
  27 H :    0.106649
  28 H :    0.118708

  Mayer bond orders larger than 0.100000
B(  0-C ,  6-C ) :   0.8608 B(  0-C , 15-C ) :   0.9669 B(  0-C , 16-C ) :   0.1355
B(  0-C , 27-H ) :   0.9103 B(  0-C , 28-H ) :   0.9778 B(  1-C ,  2-C ) :   0.9295
B(  1-C , 16-C ) :   0.9023 B(  1-C , 17-H ) :   0.8893 B(  1-C , 18-H ) :   0.8767
B(  1-C , 19-C ) :   0.3246 B(  1-C , 25-H ) :   0.1106 B(  2-C ,  3-H ) :   0.8393
B(  2-C ,  4-H ) :   0.8056 B(  2-C ,  5-S ) :   0.8540 B(  2-C , 13-O ) :   0.1643
B(  2-C , 19-C ) :   0.1515 B(  5-S , 13-O ) :   1.7420 B(  5-S , 14-F ) :   0.8859
B(  5-S , 22-O ) :   1.6139 B(  6-C ,  7-C ) :   1.2869 B(  6-C ,  8-N ) :   0.9771
B(  6-C , 12-H ) :  -0.1052 B(  6-C , 19-C ) :   0.1447 B(  7-C ,  8-N ) :   0.1141
B(  7-C , 11-H ) :   0.9119 B(  7-C , 12-H ) :   0.6803 B(  7-C , 15-C ) :   0.1649
B(  8-N ,  9-H ) :   0.7771 B(  8-N , 10-H ) :   0.8416 B( 13-O , 22-O ) :   0.1348
B( 15-C , 16-C ) :   0.3459 B( 15-C , 19-C ) :   1.0646 B( 15-C , 20-H ) :   0.8252
B( 15-C , 21-H ) :   0.8999 B( 16-C , 19-C ) :   0.4689 B( 16-C , 25-H ) :   1.1527
B( 16-C , 26-H ) :   0.8575 B( 19-C , 23-H ) :   0.9911 B( 19-C , 24-H ) :   0.8809

Dispersion correction           -0.016391803
FINAL SINGLE POINT ENERGY     -1017.737005507876

DIPOLE MOMENT
-------------
                                X             Y             Z
Electronic contribution:      0.02430      -4.12599     -22.54587
Nuclear contribution   :     -1.50273       5.82595      21.72909
                        -----------------------------------------
Total Dipole Moment    :     -1.47843       1.69996      -0.81679
                        -----------------------------------------
Magnitude (a.u.)       :      2.39640
Magnitude (Debye)      :      6.09118

Rotational constants in cm-1:     0.036883     0.018294     0.014745
Rotational constants in MHz :  1105.724679   548.429785   442.050481

                             ****ORCA TERMINATED NORMALLY****
TOTAL RUN TIME: 0 days 0 hours 2 minutes 8 seconds 395 msec
