                         Program Version 5.0.0 -  RELEASE  -
|  1> !wB97X-D3 RIJCOSX def2-TZVPD def2/J TightSCF xyzfile
|  2>
|  3> *xyzfile 0 1 D4.xyz
|  4>
|  5> %MaxCore 64000
|  6>
|  7> %pal nprocs 18
|  8> end
|  9>
| 10> %scf
| 11>   MaxIter 150
| 12> end
| 13>
| 14>
| 15>                          ****END OF INPUT****

CARTESIAN COORDINATES (ANGSTROEM)
---------------------------------
  C      2.916324   -1.242589   -1.543125
  C      0.704661    1.443129   -4.503630
  C      1.728539    1.424320   -5.639443
  H      2.646718    1.953794   -5.381054
  H      1.299916    1.930613   -6.503614
  S      2.252625   -0.188115   -6.271840
  C      3.466585   -1.590971   -2.889082
  N      4.652275   -1.143164   -3.259692
  C      2.752264   -2.292043   -3.728029
  H      1.778364   -2.489604   -3.512738
  H      2.948612   -2.208544   -4.716813
  H      5.146723   -0.512508   -2.633852
  H      4.783030   -1.007203   -4.253498
  O      3.562607   -0.444464   -5.631552
  F      2.344944   -0.033742   -7.696501
  C      2.804084    0.290698   -1.359243
  C      1.052550    0.695659   -3.214915
  H     -0.232483    1.032925   -4.884449
  H      0.511700    2.495794   -4.267966
  C      2.388380    1.093669   -2.597108
  H      3.763425    0.674718   -0.999889
  H      2.094788    0.461222   -0.545756
  O      1.266058   -1.159177   -5.805365
  H      3.167316    1.013242   -3.359430
  H      2.357690    2.149375   -2.310997
  H      1.039284   -0.368429   -3.449329
  H      0.250787    0.865605   -2.488283
  H      1.940472   -1.716529   -1.441161
  H      3.558569   -1.663433   -0.766371

 Total Charge           Charge          ....    0
 Multiplicity           Mult            ....    1
 Number of Electrons    NEL             ....  112
 Basis Dimension        Dim             ....  643

ORBITAL ENERGIES
----------------

  NO   OCC          E(Eh)            E(eV)
   0   2.0000     -89.205701     -2427.4105
   1   2.0000     -24.918100      -678.0560
   2   2.0000     -19.246123      -523.7136
   3   2.0000     -19.242764      -523.6222
   4   2.0000     -14.391155      -391.6032
   5   2.0000     -10.341049      -281.3942
   6   2.0000     -10.303012      -280.3592
   7   2.0000     -10.271551      -279.5031
   8   2.0000     -10.270610      -279.4775
   9   2.0000     -10.269613      -279.4504
  10   2.0000     -10.269609      -279.4503
  11   2.0000     -10.261753      -279.2365
  12   2.0000     -10.175976      -276.9024
  13   2.0000      -8.269260      -225.0180
  14   2.0000      -6.226487      -169.4313
  15   2.0000      -6.220146      -169.2588
  16   2.0000      -6.220094      -169.2574
  17   2.0000      -1.514045       -41.1993
  18   2.0000      -1.225254       -33.3409
  19   2.0000      -1.126867       -30.6636
  20   2.0000      -1.024851       -27.8876
  21   2.0000      -0.954833       -25.9823
  22   2.0000      -0.911871       -24.8133
  23   2.0000      -0.873829       -23.7781
  24   2.0000      -0.842471       -22.9248
  25   2.0000      -0.818501       -22.2725
  26   2.0000      -0.784559       -21.3489
  27   2.0000      -0.737448       -20.0670
  28   2.0000      -0.707368       -19.2485
  29   2.0000      -0.702027       -19.1031
  30   2.0000      -0.678259       -18.4564
  31   2.0000      -0.669081       -18.2066
  32   2.0000      -0.639665       -17.4062
  33   2.0000      -0.609922       -16.5968
  34   2.0000      -0.600065       -16.3286
  35   2.0000      -0.595756       -16.2114
  36   2.0000      -0.572525       -15.5792
  37   2.0000      -0.557688       -15.1755
  38   2.0000      -0.549981       -14.9658
  39   2.0000      -0.539942       -14.6926
  40   2.0000      -0.525861       -14.3094
  41   2.0000      -0.506415       -13.7803
  42   2.0000      -0.497872       -13.5478
  43   2.0000      -0.480012       -13.0618
  44   2.0000      -0.475102       -12.9282
  45   2.0000      -0.466027       -12.6812
  46   2.0000      -0.452845       -12.3225
  47   2.0000      -0.444647       -12.0995
  48   2.0000      -0.435424       -11.8485
  49   2.0000      -0.422810       -11.5052
  50   2.0000      -0.416940       -11.3455
  51   2.0000      -0.411851       -11.2070
  52   2.0000      -0.408001       -11.1023
  53   2.0000      -0.397681       -10.8214
  54   2.0000      -0.388709       -10.5773
  55   2.0000      -0.258543        -7.0353
  56   0.0000       0.037963         1.0330
  57   0.0000       0.058092         1.5808
  58   0.0000       0.060393         1.6434
  59   0.0000       0.072034         1.9601
  60   0.0000       0.085727         2.3328

MULLIKEN ATOMIC CHARGES
-----------------------
   0 C :   -0.713950
   1 C :   -0.632673
   2 C :   -0.905784
   3 H :    0.410957
   4 H :    0.419478
   5 S :    1.150060
   6 C :    0.562404
   7 N :   -0.349927
   8 C :   -1.628316
   9 H :    0.469559
  10 H :    0.568743
  11 H :    0.278137
  12 H :    0.291551
  13 O :   -0.670175
  14 F :   -0.087343
  15 C :   -0.637407
  16 C :   -0.209454
  17 H :    0.340715
  18 H :    0.328612
  19 C :   -0.448796
  20 H :    0.381296
  21 H :    0.244972
  22 O :   -0.636144
  23 H :    0.309163
  24 H :    0.292080
  25 H :    0.048175
  26 H :    0.275451
  27 H :    0.306766
  28 H :    0.241849
Sum of atomic charges:    0.0000000

LOEWDIN ATOMIC CHARGES
----------------------
   0 C :   -0.138473
   1 C :   -0.212649
   2 C :   -0.214509
   3 H :    0.104259
   4 H :    0.097416
   5 S :    0.657384
   6 C :   -0.495001
   7 N :    0.105111
   8 C :   -0.004245
   9 H :    0.037233
  10 H :    0.003323
  11 H :    0.111258
  12 H :    0.079737
  13 O :   -0.319453
  14 F :   -0.037460
  15 C :   -0.189644
  16 C :   -0.199909
  17 H :    0.114957
  18 H :    0.120900
  19 C :   -0.207120
  20 H :    0.102817
  21 H :    0.107378
  22 O :   -0.270776
  23 H :    0.092499
  24 H :    0.115844
  25 H :    0.089552
  26 H :    0.122362
  27 H :    0.112988
  28 H :    0.114221

  Mayer bond orders larger than 0.100000
B(  0-C ,  6-C ) :   0.9446 B(  0-C ,  8-C ) :   0.1261 B(  0-C , 15-C ) :   0.9272
B(  0-C , 16-C ) :   0.1838 B(  0-C , 19-C ) :  -0.1150 B(  0-C , 27-H ) :   0.9156
B(  0-C , 28-H ) :   0.9477 B(  1-C ,  2-C ) :   0.9529 B(  1-C , 16-C ) :   0.8505
B(  1-C , 17-H ) :   0.8596 B(  1-C , 18-H ) :   0.8832 B(  1-C , 19-C ) :   0.3124
B(  1-C , 25-H ) :   0.1681 B(  2-C ,  3-H ) :   0.8472 B(  2-C ,  4-H ) :   0.8080
B(  2-C ,  5-S ) :   0.8392 B(  2-C , 13-O ) :   0.1665 B(  2-C , 14-F ) :   0.1045
B(  2-C , 19-C ) :   0.1603 B(  5-S , 13-O ) :   1.7725 B(  5-S , 14-F ) :   0.8800
B(  5-S , 22-O ) :   1.6448 B(  6-C ,  7-N ) :   1.0339 B(  6-C ,  8-C ) :   1.3548
B(  6-C ,  9-H ) :  -0.1282 B(  6-C , 10-H ) :  -0.1501 B(  6-C , 19-C ) :   0.1735
B(  7-N , 11-H ) :   0.7793 B(  7-N , 12-H ) :   0.8344 B(  8-C ,  9-H ) :   0.8584
B(  8-C , 10-H ) :   0.7089 B( 13-O , 22-O ) :   0.1435 B( 15-C , 16-C ) :   0.3534
B( 15-C , 19-C ) :   0.9639 B( 15-C , 20-H ) :   0.8435 B( 15-C , 21-H ) :   0.9343
B( 16-C , 19-C ) :   0.4805 B( 16-C , 25-H ) :   1.2195 B( 16-C , 26-H ) :   0.8633
B( 19-C , 23-H ) :   0.9811 B( 19-C , 24-H ) :   0.9248

Dispersion correction           -0.016333136
FINAL SINGLE POINT ENERGY     -1017.740152823576

DIPOLE MOMENT
-------------
                                X             Y             Z
Electronic contribution:      1.31433      -3.43166     -22.22478
Nuclear contribution   :     -1.74760       5.67788      21.66873
                        -----------------------------------------
Total Dipole Moment    :     -0.43328       2.24622      -0.55605
                        -----------------------------------------
Magnitude (a.u.)       :      2.35424
Magnitude (Debye)      :      5.98400

Rotational constants in cm-1:     0.036818     0.018222     0.014682
Rotational constants in MHz :  1103.783048   546.296792   440.157914

                             ****ORCA TERMINATED NORMALLY****
TOTAL RUN TIME: 0 days 0 hours 2 minutes 51 seconds 251 msec
