                         Program Version 5.0.0 -  RELEASE  -
|  1> !wB97X-D3 RIJCOSX def2-TZVPD def2/J TightSCF xyzfile
|  2>
|  3> *xyzfile 0 1 D6.xyz
|  4>
|  5> %MaxCore 64000
|  6>
|  7> %pal nprocs 18
|  8> end
|  9>
| 10> %scf
| 11>   MaxIter 150
| 12> end
| 13>
| 14>
| 15>                          ****END OF INPUT****

CARTESIAN COORDINATES (ANGSTROEM)
---------------------------------
  C      2.916324   -1.242589   -1.543125
  C      0.704661    1.443129   -4.503630
  C      1.728539    1.424320   -5.639443
  H      2.646718    1.953794   -5.381054
  H      1.299916    1.930613   -6.503614
  S      2.252625   -0.188115   -6.271840
  C      3.466585   -1.590971   -2.889082
  N      4.652275   -1.143164   -3.259692
  C      2.752264   -2.292043   -3.728029
  H      1.778364   -2.489604   -3.512738
  H      2.948612   -2.208544   -4.716813
  H      5.146723   -0.512508   -2.633852
  H      4.783030   -1.007203   -4.253498
  O      3.562607   -0.444464   -5.631552
  O      2.344944   -0.033742   -7.696501
  C      2.804084    0.290698   -1.359243
  C      1.052550    0.695659   -3.214915
  H     -0.232483    1.032925   -4.884449
  H      0.511700    2.495794   -4.267966
  C      2.388380    1.093669   -2.597108
  H      3.763425    0.674718   -0.999889
  H      2.094788    0.461222   -0.545756
  F      1.266058   -1.159177   -5.805365
  H      3.167316    1.013242   -3.359430
  H      2.357690    2.149375   -2.310997
  H      1.039284   -0.368429   -3.449329
  H      0.250787    0.865605   -2.488283
  H      1.940472   -1.716529   -1.441161
  H      3.558569   -1.663433   -0.766371

 Total Charge           Charge          ....    0
 Multiplicity           Mult            ....    1
 Number of Electrons    NEL             ....  112
 Basis Dimension        Dim             ....  643

ORBITAL ENERGIES
----------------

  NO   OCC          E(Eh)            E(eV)
   0   2.0000     -89.202403     -2427.3208
   1   2.0000     -24.900974      -677.5900
   2   2.0000     -19.252524      -523.8878
   3   2.0000     -19.238659      -523.5105
   4   2.0000     -14.400790      -391.8654
   5   2.0000     -10.338719      -281.3309
   6   2.0000     -10.308114      -280.4980
   7   2.0000     -10.284807      -279.8638
   8   2.0000     -10.283044      -279.8158
   9   2.0000     -10.280407      -279.7441
  10   2.0000     -10.278117      -279.6818
  11   2.0000     -10.272369      -279.5254
  12   2.0000     -10.191911      -277.3360
  13   2.0000      -8.265863      -224.9256
  14   2.0000      -6.223281      -169.3441
  15   2.0000      -6.216891      -169.1702
  16   2.0000      -6.216480      -169.1590
  17   2.0000      -1.489200       -40.5232
  18   2.0000      -1.231685       -33.5159
  19   2.0000      -1.133600       -30.8468
  20   2.0000      -1.035338       -28.1730
  21   2.0000      -0.960459       -26.1354
  22   2.0000      -0.917705       -24.9720
  23   2.0000      -0.874158       -23.7870
  24   2.0000      -0.845875       -23.0174
  25   2.0000      -0.820403       -22.3243
  26   2.0000      -0.791668       -21.5424
  27   2.0000      -0.743107       -20.2210
  28   2.0000      -0.707210       -19.2441
  29   2.0000      -0.690803       -18.7977
  30   2.0000      -0.682076       -18.5602
  31   2.0000      -0.666461       -18.1353
  32   2.0000      -0.646216       -17.5844
  33   2.0000      -0.611984       -16.6529
  34   2.0000      -0.598701       -16.2915
  35   2.0000      -0.595868       -16.2144
  36   2.0000      -0.577299       -15.7091
  37   2.0000      -0.567054       -15.4303
  38   2.0000      -0.558549       -15.1989
  39   2.0000      -0.543408       -14.7869
  40   2.0000      -0.537722       -14.6322
  41   2.0000      -0.514288       -13.9945
  42   2.0000      -0.503679       -13.7058
  43   2.0000      -0.492427       -13.3996
  44   2.0000      -0.482464       -13.1285
  45   2.0000      -0.479252       -13.0411
  46   2.0000      -0.461481       -12.5575
  47   2.0000      -0.455506       -12.3949
  48   2.0000      -0.445577       -12.1248
  49   2.0000      -0.429889       -11.6979
  50   2.0000      -0.425786       -11.5862
  51   2.0000      -0.417206       -11.3527
  52   2.0000      -0.416678       -11.3384
  53   2.0000      -0.400702       -10.9037
  54   2.0000      -0.399927       -10.8826
  55   2.0000      -0.272728        -7.4213
  56   0.0000       0.047380         1.2893
  57   0.0000       0.058122         1.5816
  58   0.0000       0.066670         1.8142
  59   0.0000       0.068441         1.8624
  60   0.0000       0.084007         2.2860

MULLIKEN ATOMIC CHARGES
-----------------------
   0 C :   -0.698305
   1 C :   -0.716837
   2 C :   -0.777330
   3 H :    0.426297
   4 H :    0.351095
   5 S :    1.178622
   6 C :    0.581468
   7 N :   -0.348518
   8 C :   -1.748987
   9 H :    0.501172
  10 H :    0.615355
  11 H :    0.277574
  12 H :    0.289008
  13 O :   -0.663537
  14 O :   -0.597798
  15 C :   -0.643491
  16 C :   -0.166153
  17 H :    0.344229
  18 H :    0.333626
  19 C :   -0.440977
  20 H :    0.385374
  21 H :    0.248528
  22 F :   -0.175392
  23 H :    0.302125
  24 H :    0.299854
  25 H :    0.025629
  26 H :    0.271773
  27 H :    0.305777
  28 H :    0.239822
Sum of atomic charges:   -0.0000000

LOEWDIN ATOMIC CHARGES
----------------------
   0 C :   -0.136385
   1 C :   -0.220272
   2 C :   -0.206339
   3 H :    0.110189
   4 H :    0.102871
   5 S :    0.646441
   6 C :   -0.493221
   7 N :    0.111823
   8 C :   -0.012615
   9 H :    0.033988
  10 H :    0.002926
  11 H :    0.113930
  12 H :    0.082771
  13 O :   -0.317813
  14 O :   -0.258373
  15 C :   -0.188007
  16 C :   -0.204215
  17 H :    0.112895
  18 H :    0.120388
  19 C :   -0.205534
  20 H :    0.104233
  21 H :    0.108336
  22 F :   -0.057823
  23 H :    0.093473
  24 H :    0.117943
  25 H :    0.086745
  26 H :    0.122658
  27 H :    0.112897
  28 H :    0.116091

  Mayer bond orders larger than 0.100000
B(  0-C ,  6-C ) :   0.9474 B(  0-C ,  8-C ) :   0.1223 B(  0-C , 15-C ) :   0.9202
B(  0-C , 16-C ) :   0.1901 B(  0-C , 19-C ) :  -0.1185 B(  0-C , 27-H ) :   0.9175
B(  0-C , 28-H ) :   0.9404 B(  1-C ,  2-C ) :   0.9195 B(  1-C ,  5-S ) :   0.1046
B(  1-C , 16-C ) :   0.7734 B(  1-C , 17-H ) :   0.8986 B(  1-C , 18-H ) :   0.8796
B(  1-C , 19-C ) :   0.3095 B(  1-C , 25-H ) :   0.1373 B(  2-C ,  3-H ) :   0.8103
B(  2-C ,  4-H ) :   0.9535 B(  2-C ,  5-S ) :   0.8310 B(  2-C , 13-O ) :   0.1659
B(  2-C , 14-O ) :   0.1651 B(  2-C , 19-C ) :   0.1608 B(  5-S , 13-O ) :   1.7639
B(  5-S , 14-O ) :   1.4671 B(  5-S , 22-F ) :   1.0226 B(  6-C ,  7-N ) :   1.0574
B(  6-C ,  8-C ) :   1.3407 B(  6-C ,  9-H ) :  -0.1284 B(  6-C , 10-H ) :  -0.1191
B(  6-C , 13-O ) :  -0.1091 B(  6-C , 19-C ) :   0.1766 B(  7-N , 11-H ) :   0.7827
B(  7-N , 12-H ) :   0.8303 B(  8-C ,  9-H ) :   0.8392 B(  8-C , 10-H ) :   0.6172
B(  8-C , 19-C ) :   0.1142 B( 15-C , 16-C ) :   0.3583 B( 15-C , 19-C ) :   0.9708
B( 15-C , 20-H ) :   0.8415 B( 15-C , 21-H ) :   0.9335 B( 16-C , 19-C ) :   0.4986
B( 16-C , 25-H ) :   1.2005 B( 16-C , 26-H ) :   0.8781 B( 19-C , 23-H ) :   0.9922
B( 19-C , 24-H ) :   0.9100

Dispersion correction           -0.016292960
FINAL SINGLE POINT ENERGY     -1017.751906748859

DIPOLE MOMENT
-------------
                                X             Y             Z
Electronic contribution:     -0.46543      -5.33036     -18.66281
Nuclear contribution   :     -0.51418       6.96452      19.50670
                        -----------------------------------------
Total Dipole Moment    :     -0.97961       1.63416       0.84389
                        -----------------------------------------
Magnitude (a.u.)       :      2.08382
Magnitude (Debye)      :      5.29664

Rotational constants in cm-1:     0.036455     0.018603     0.015008
Rotational constants in MHz :  1092.895336   557.693628   449.926016

                             ****ORCA TERMINATED NORMALLY****
TOTAL RUN TIME: 0 days 0 hours 2 minutes 23 seconds 646 msec
