                         Program Version 5.0.0 -  RELEASE  -
|  1> !LC-PBE RIJCOSX def2-SVPD def2/J TightSCF
|  2> *xyz -1 1
|  3> C          0.84888        2.66797       -4.30235
|  4> C          2.09343        1.86104       -4.65684
|  5> H          2.44481        2.04157       -5.67499
|  6> H          2.90175        2.13786       -3.98034
|  7> S          1.87964        0.07859       -4.46297
|  8> O          3.20757       -0.46611       -4.42026
|  9> O          1.07506       -0.05616       -3.26876
| 10> O          1.13166       -0.31996       -5.67903
| 11> H          0.05064        2.40112       -4.96303
| 12> H          1.06043        3.71210       -4.40203
| 13> H          0.56237        2.45684       -3.29327
| 14> *
| 15>
| 16> %MaxCore 64000
| 17>
| 18> %pal nprocs 4
| 19> end
| 20>
| 21> %scf
| 22>   MaxIter 150
| 23> end
| 24>
| 25>
| 26>                          ****END OF INPUT****

CARTESIAN COORDINATES (ANGSTROEM)
---------------------------------
  C      0.848880    2.667970   -4.302350
  C      2.093430    1.861040   -4.656840
  H      2.444810    2.041570   -5.674990
  H      2.901750    2.137860   -3.980340
  S      1.879640    0.078590   -4.462970
  O      3.207570   -0.466110   -4.420260
  O      1.075060   -0.056160   -3.268760
  O      1.131660   -0.319960   -5.679030
  H      0.050640    2.401120   -4.963030
  H      1.060430    3.712100   -4.402030
  H      0.562370    2.456840   -3.293270

 Total Charge           Charge          ....   -1
 Multiplicity           Mult            ....    1
 Number of Electrons    NEL             ....   58
 Basis Dimension        Dim             ....  176

ORBITAL ENERGIES
----------------

  NO   OCC          E(Eh)            E(eV)
   0   2.0000     -88.314449     -2403.1583
   1   2.0000     -18.778317      -510.9840
   2   2.0000     -18.774770      -510.8875
   3   2.0000     -18.761630      -510.5299
   4   2.0000      -9.991291      -271.8769
   5   2.0000      -9.982526      -271.6383
   6   2.0000      -7.936427      -215.9612
   7   2.0000      -5.958752      -162.1459
   8   2.0000      -5.958576      -162.1411
   9   2.0000      -5.958400      -162.1363
  10   2.0000      -1.112733       -30.2790
  11   2.0000      -0.960014       -26.1233
  12   2.0000      -0.933308       -25.3966
  13   2.0000      -0.806321       -21.9411
  14   2.0000      -0.667765       -18.1708
  15   2.0000      -0.534294       -14.5389
  16   2.0000      -0.473060       -12.8726
  17   2.0000      -0.465614       -12.6700
  18   2.0000      -0.426525       -11.6063
  19   2.0000      -0.414440       -11.2775
  20   2.0000      -0.400175       -10.8893
  21   2.0000      -0.367500       -10.0002
  22   2.0000      -0.346695        -9.4341
  23   2.0000      -0.297450        -8.0940
  24   2.0000      -0.295742        -8.0475
  25   2.0000      -0.257107        -6.9962
  26   2.0000      -0.243832        -6.6350
  27   2.0000      -0.231395        -6.2966
  28   2.0000      -0.201091        -5.4720
  29   0.0000       0.206106         5.6084
  30   0.0000       0.226166         6.1543
  31   0.0000       0.228440         6.2162
  32   0.0000       0.234267         6.3747
  33   0.0000       0.257244         7.0000

MULLIKEN ATOMIC CHARGES
-----------------------
   0 C :    0.503643
   1 C :   -0.482629
   2 H :    0.011776
   3 H :    0.055368
   4 S :    1.224993
   5 O :   -0.745420
   6 O :   -0.766492
   7 O :   -0.798639
   8 H :    0.009709
   9 H :   -0.039173
  10 H :    0.026865
Sum of atomic charges:   -1.0000000

LOEWDIN ATOMIC CHARGES
----------------------
   0 C :    0.067054
   1 C :   -0.157618
   2 H :    0.018474
   3 H :    0.011357
   4 S :    0.837016
   5 O :   -0.569712
   6 O :   -0.569706
   7 O :   -0.597459
   8 H :   -0.002973
   9 H :   -0.021701
  10 H :   -0.014731

  Mayer bond orders larger than 0.100000
B(  0-C ,  1-C ) :   1.2765 B(  0-C ,  8-H ) :   0.8572 B(  0-C ,  9-H ) :   0.8178
B(  0-C , 10-H ) :   0.8583 B(  1-C ,  2-H ) :   1.0097 B(  1-C ,  3-H ) :   0.9991
B(  1-C ,  4-S ) :   0.9409 B(  1-C ,  8-H ) :   0.1505 B(  1-C ,  9-H ) :   0.1623
B(  1-C , 10-H ) :   0.1632 B(  4-S ,  5-O ) :   1.3911 B(  4-S ,  6-O ) :   1.3434
B(  4-S ,  7-O ) :   1.3090

FINAL SINGLE POINT ENERGY      -701.577732731274

DIPOLE MOMENT
-------------
                                X             Y             Z
Electronic contribution:      1.62593      -7.54084       0.05598
Nuclear contribution   :     -1.55288       9.51857       0.00420
                        -----------------------------------------
Total Dipole Moment    :      0.07305       1.97773       0.06019
                        -----------------------------------------
Magnitude (a.u.)       :      1.98000
Magnitude (Debye)      :      5.03275

Rotational constants in cm-1:     0.163401     0.083833     0.082462
Rotational constants in MHz :  4898.624208  2513.264548  2472.149188

                             ****ORCA TERMINATED NORMALLY****
TOTAL RUN TIME: 0 days 0 hours 0 minutes 23 seconds 363 msec
