                         Program Version 5.0.0 -  RELEASE  -
|  1> !LC-PBE RIJCOSX def2-SVPD def2/J TightSCF
|  2> *xyz 1 1
|  3> C         -0.46129        2.23469       -4.98962
|  4> C          0.84888        2.66797       -4.30235
|  5> C         -0.42384        2.39877       -6.47432
|  6> N         -0.95947        3.49265       -7.00740
|  7> N          0.14558        1.48689       -7.20399
|  8> H          0.56537        0.69681       -6.72386
|  9> H          0.22068        1.58177       -8.20752
| 10> H         -1.40624        4.18151       -6.40326
| 11> H         -0.93421        3.68160       -7.99947
| 12> H         -1.28888        2.82674       -4.59500
| 13> H         -0.65170        1.18634       -4.75655
| 14> H          1.66208        2.08894       -4.68750
| 15> H          0.76716        2.51042       -3.24717
| 16> H          1.02677        3.70527       -4.49537
| 17> *
| 18>
| 19> %MaxCore 64000
| 20>
| 21> %pal nprocs 4
| 22> end
| 23>
| 24> %scf
| 25>   MaxIter 150
| 26> end
| 27>
| 28>
| 29>                          ****END OF INPUT****

CARTESIAN COORDINATES (ANGSTROEM)
---------------------------------
  C     -0.461290    2.234690   -4.989620
  C      0.848880    2.667970   -4.302350
  C     -0.423840    2.398770   -6.474320
  N     -0.959470    3.492650   -7.007400
  N      0.145580    1.486890   -7.203990
  H      0.565370    0.696810   -6.723860
  H      0.220680    1.581770   -8.207520
  H     -1.406240    4.181510   -6.403260
  H     -0.934210    3.681600   -7.999470
  H     -1.288880    2.826740   -4.595000
  H     -0.651700    1.186340   -4.756550
  H      1.662080    2.088940   -4.687500
  H      0.767160    2.510420   -3.247170
  H      1.026770    3.705270   -4.495370

 Total Charge           Charge          ....    1
 Multiplicity           Mult            ....    1
 Number of Electrons    NEL             ....   40
 Basis Dimension        Dim             ....  172

ORBITAL ENERGIES
----------------

  NO   OCC          E(Eh)            E(eV)
   0   2.0000     -14.479205      -393.9992
   1   2.0000     -14.474787      -393.8790
   2   2.0000     -10.460741      -284.6512
   3   2.0000     -10.328212      -281.0449
   4   2.0000     -10.283045      -279.8159
   5   2.0000      -1.377040       -37.4712
   6   2.0000      -1.271556       -34.6008
   7   2.0000      -1.141640       -31.0656
   8   2.0000      -1.019879       -27.7523
   9   2.0000      -0.973456       -26.4891
  10   2.0000      -0.930083       -25.3089
  11   2.0000      -0.900970       -24.5166
  12   2.0000      -0.842718       -22.9315
  13   2.0000      -0.801363       -21.8062
  14   2.0000      -0.767370       -20.8812
  15   2.0000      -0.759047       -20.6547
  16   2.0000      -0.679964       -18.5028
  17   2.0000      -0.668208       -18.1829
  18   2.0000      -0.659962       -17.9585
  19   2.0000      -0.624346       -16.9893
  20   0.0000      -0.118382        -3.2213
  21   0.0000      -0.078696        -2.1414
  22   0.0000      -0.036553        -0.9947
  23   0.0000      -0.035261        -0.9595
  24   0.0000      -0.012080        -0.3287

MULLIKEN ATOMIC CHARGES
-----------------------
   0 C :   -0.519360
   1 C :    0.382716
   2 C :    0.680662
   3 N :   -0.087741
   4 N :    0.048305
   5 H :    0.126423
   6 H :   -0.095011
   7 H :    0.108930
   8 H :   -0.076724
   9 H :    0.105639
  10 H :    0.123575
  11 H :    0.044799
  12 H :    0.112582
  13 H :    0.045204
Sum of atomic charges:    1.0000000

LOEWDIN ATOMIC CHARGES
----------------------
   0 C :   -0.014799
   1 C :    0.141865
   2 C :   -0.047441
   3 N :    0.265249
   4 N :    0.271543
   5 H :    0.067948
   6 H :    0.062601
   7 H :    0.063328
   8 H :    0.053071
   9 H :    0.050694
  10 H :    0.056242
  11 H :    0.002906
  12 H :    0.018396
  13 H :    0.008395

  Mayer bond orders larger than 0.100000
B(  0-C ,  1-C ) :   1.2686 B(  0-C ,  2-C ) :   1.1388 B(  0-C ,  9-H ) :   0.9208
B(  0-C , 10-H ) :   0.9208 B(  0-C , 11-H ) :   0.1477 B(  0-C , 12-H ) :   0.1134
B(  0-C , 13-H ) :   0.1304 B(  1-C , 11-H ) :   0.8411 B(  1-C , 12-H ) :   0.8626
B(  1-C , 13-H ) :   0.8807 B(  2-C ,  3-N ) :   1.0494 B(  2-C ,  4-N ) :   1.2133
B(  2-C ,  6-H ) :  -0.1497 B(  2-C ,  8-H ) :  -0.1861 B(  3-N ,  4-N ) :   0.1432
B(  3-N ,  7-H ) :   1.0584 B(  3-N ,  8-H ) :   1.3019 B(  4-N ,  5-H ) :   1.0347
B(  4-N ,  6-H ) :   1.2873 B(  5-H ,  6-H ) :  -0.1572 B(  7-H ,  8-H ) :  -0.1657

FINAL SINGLE POINT ENERGY      -228.137372718407

DIPOLE MOMENT
-------------
                                X             Y             Z
Electronic contribution:     -1.56178      -0.27334      -3.88569
Nuclear contribution   :      1.33202       0.27544       2.83701
                        -----------------------------------------
Total Dipole Moment    :     -0.22976       0.00210      -1.04869
                        -----------------------------------------
Magnitude (a.u.)       :      1.07356
Magnitude (Debye)      :      2.72878

Rotational constants in cm-1:     0.258570     0.126296     0.098869
Rotational constants in MHz :  7751.748523  3786.267300  2964.011691

                             ****ORCA TERMINATED NORMALLY****
TOTAL RUN TIME: 0 days 0 hours 0 minutes 22 seconds 233 msec
