                         Program Version 5.0.0 -  RELEASE  -
|  1> !LC-PBE RIJCOSX def2-SVPD def2/J TightSCF
|  2> *xyz 0 1
|  3> C          0.84888        2.66797       -4.30235
|  4> C          2.09343        1.86104       -4.65684
|  5> H          2.44481        2.04157       -5.67499
|  6> H          2.90175        2.13786       -3.98034
|  7> S          1.87964        0.07859       -4.46297
|  8> F          3.20757       -0.46611       -4.42026
|  9> O          1.07506       -0.05616       -3.26876
| 10> O          1.13166       -0.31996       -5.67903
| 11> H          0.05064        2.40112       -4.96303
| 12> H          1.06043        3.71210       -4.40203
| 13> H          0.56237        2.45684       -3.29327
| 14> *
| 15>
| 16> %MaxCore 64000
| 17>
| 18> %pal nprocs 4
| 19> end
| 20>
| 21> %scf
| 22>   MaxIter 150
| 23> end
| 24>
| 25>
| 26>                          ****END OF INPUT****

CARTESIAN COORDINATES (ANGSTROEM)
---------------------------------
  C      0.848880    2.667970   -4.302350
  C      2.093430    1.861040   -4.656840
  H      2.444810    2.041570   -5.674990
  H      2.901750    2.137860   -3.980340
  S      1.879640    0.078590   -4.462970
  F      3.207570   -0.466110   -4.420260
  O      1.075060   -0.056160   -3.268760
  O      1.131660   -0.319960   -5.679030
  H      0.050640    2.401120   -4.963030
  H      1.060430    3.712100   -4.402030
  H      0.562370    2.456840   -3.293270

 Total Charge           Charge          ....    0
 Multiplicity           Mult            ....    1
 Number of Electrons    NEL             ....   58
 Basis Dimension        Dim             ....  176

ORBITAL ENERGIES
----------------

  NO   OCC          E(Eh)            E(eV)
   0   2.0000     -88.577104     -2410.3055
   1   2.0000     -24.638000      -670.4341
   2   2.0000     -19.010475      -517.3013
   3   2.0000     -18.997311      -516.9431
   4   2.0000     -10.195158      -277.4244
   5   2.0000     -10.145772      -276.0805
   6   2.0000      -8.199971      -223.1325
   7   2.0000      -6.227036      -169.4463
   8   2.0000      -6.219728      -169.2474
   9   2.0000      -6.218478      -169.2134
  10   2.0000      -1.550943       -42.2033
  11   2.0000      -1.283692       -34.9310
  12   2.0000      -1.170054       -31.8388
  13   2.0000      -0.998559       -27.1722
  14   2.0000      -0.904918       -24.6241
  15   2.0000      -0.841335       -22.8939
  16   2.0000      -0.754624       -20.5344
  17   2.0000      -0.752314       -20.4715
  18   2.0000      -0.711338       -19.3565
  19   2.0000      -0.644436       -17.5360
  20   2.0000      -0.637666       -17.3518
  21   2.0000      -0.589944       -16.0532
  22   2.0000      -0.574484       -15.6325
  23   2.0000      -0.546818       -14.8797
  24   2.0000      -0.531270       -14.4566
  25   2.0000      -0.520567       -14.1653
  26   2.0000      -0.474755       -12.9187
  27   2.0000      -0.455612       -12.3978
  28   2.0000      -0.445219       -12.1150
  29   0.0000       0.061614         1.6766
  30   0.0000       0.086281         2.3478
  31   0.0000       0.091651         2.4940
  32   0.0000       0.094838         2.5807
  33   0.0000       0.123109         3.3500

MULLIKEN ATOMIC CHARGES
-----------------------
   0 C :    0.479671
   1 C :   -0.533880
   2 H :    0.073379
   3 H :    0.115968
   4 S :    1.409245
   5 F :   -0.361799
   6 O :   -0.624829
   7 O :   -0.656305
   8 H :    0.035366
   9 H :    0.008139
  10 H :    0.055047
Sum of atomic charges:    0.0000000

LOEWDIN ATOMIC CHARGES
----------------------
   0 C :    0.110262
   1 C :   -0.119291
   2 H :    0.037304
   3 H :    0.028075
   4 S :    1.101757
   5 F :   -0.237981
   6 O :   -0.460950
   7 O :   -0.482746
   8 H :    0.013537
   9 H :    0.007884
  10 H :    0.002148

  Mayer bond orders larger than 0.100000
B(  0-C ,  1-C ) :   1.3346 B(  0-C ,  8-H ) :   0.8579 B(  0-C ,  9-H ) :   0.8280
B(  0-C , 10-H ) :   0.8535 B(  1-C ,  2-H ) :   0.9947 B(  1-C ,  3-H ) :   0.9626
B(  1-C ,  4-S ) :   0.9803 B(  1-C ,  8-H ) :   0.1442 B(  1-C ,  9-H ) :   0.1526
B(  1-C , 10-H ) :   0.1571 B(  4-S ,  5-F ) :   0.7458 B(  4-S ,  6-O ) :   1.5588
B(  4-S ,  7-O ) :   1.5177

FINAL SINGLE POINT ENERGY      -726.027544998371

DIPOLE MOMENT
-------------
                                X             Y             Z
Electronic contribution:      4.22027      -9.23227       0.10519
Nuclear contribution   :     -3.08754      10.54185      -0.04092
                        -----------------------------------------
Total Dipole Moment    :      1.13273       1.30958       0.06428
                        -----------------------------------------
Magnitude (a.u.)       :      1.73269
Magnitude (Debye)      :      4.40414

Rotational constants in cm-1:     0.158925     0.081210     0.079022
Rotational constants in MHz :  4764.450166  2434.603461  2369.014434

                             ****ORCA TERMINATED NORMALLY****
TOTAL RUN TIME: 0 days 0 hours 0 minutes 26 seconds 121 msec
