                         Program Version 5.0.0 -  RELEASE  -
|  1> !LC-PBE RIJCOSX def2-SVPD def2/J TightSCF
|  2> *xyz 0 1
|  3> C         -0.46129        2.23469       -4.98962
|  4> C          0.84888        2.66797       -4.30235
|  5> C         -0.42384        2.39877       -6.47432
|  6> C         -0.95947        3.49265       -7.00740
|  7> N          0.14558        1.48689       -7.20399
|  8> H          0.56537        0.69681       -6.72386
|  9> H          0.22068        1.58177       -8.20752
| 10> H         -1.40624        4.18151       -6.40326
| 11> H         -0.93421        3.68160       -7.99947
| 12> H         -1.28888        2.82674       -4.59500
| 13> H         -0.65170        1.18634       -4.75655
| 14> H          1.66208        2.08894       -4.68750
| 15> H          0.76716        2.51042       -3.24717
| 16> H          1.02677        3.70527       -4.49537
| 17> *
| 18>
| 19> %MaxCore 64000
| 20>
| 21> %pal nprocs 4
| 22> end
| 23>
| 24> %scf
| 25>   MaxIter 150
| 26> end
| 27>
| 28>
| 29>                          ****END OF INPUT****

CARTESIAN COORDINATES (ANGSTROEM)
---------------------------------
  C     -0.461290    2.234690   -4.989620
  C      0.848880    2.667970   -4.302350
  C     -0.423840    2.398770   -6.474320
  C     -0.959470    3.492650   -7.007400
  N      0.145580    1.486890   -7.203990
  H      0.565370    0.696810   -6.723860
  H      0.220680    1.581770   -8.207520
  H     -1.406240    4.181510   -6.403260
  H     -0.934210    3.681600   -7.999470
  H     -1.288880    2.826740   -4.595000
  H     -0.651700    1.186340   -4.756550
  H      1.662080    2.088940   -4.687500
  H      0.767160    2.510420   -3.247170
  H      1.026770    3.705270   -4.495370

 Total Charge           Charge          ....    0
 Multiplicity           Mult            ....    1
 Number of Electrons    NEL             ....   40
 Basis Dimension        Dim             ....  172

ORBITAL ENERGIES
----------------

  NO   OCC          E(Eh)            E(eV)
   0   2.0000     -14.231034      -387.2461
   1   2.0000     -10.152362      -276.2598
   2   2.0000     -10.127920      -275.5947
   3   2.0000     -10.113002      -275.1888
   4   2.0000     -10.057638      -273.6822
   5   2.0000      -1.103686       -30.0328
   6   2.0000      -0.949575       -25.8392
   7   2.0000      -0.878428       -23.9032
   8   2.0000      -0.795637       -21.6504
   9   2.0000      -0.720902       -19.6167
  10   2.0000      -0.677101       -18.4249
  11   2.0000      -0.628536       -17.1033
  12   2.0000      -0.580592       -15.7987
  13   2.0000      -0.562804       -15.3147
  14   2.0000      -0.531378       -14.4595
  15   2.0000      -0.518948       -14.1213
  16   2.0000      -0.482737       -13.1359
  17   2.0000      -0.469467       -12.7748
  18   2.0000      -0.463389       -12.6094
  19   2.0000      -0.306529        -8.3411
  20   0.0000       0.088056         2.3961
  21   0.0000       0.117802         3.2056
  22   0.0000       0.125331         3.4104
  23   0.0000       0.126834         3.4513
  24   0.0000       0.143769         3.9122

MULLIKEN ATOMIC CHARGES
-----------------------
   0 C :   -0.332078
   1 C :    0.402420
   2 C :   -0.066584
   3 C :    0.267949
   4 N :    0.171907
   5 H :   -0.038086
   6 H :   -0.153239
   7 H :   -0.090943
   8 H :   -0.406230
   9 H :    0.145702
  10 H :    0.019761
  11 H :    0.010342
  12 H :    0.065918
  13 H :    0.003162
Sum of atomic charges:    0.0000000

LOEWDIN ATOMIC CHARGES
----------------------
   0 C :   -0.055583
   1 C :    0.104276
   2 C :   -0.278763
   3 C :    0.146681
   4 N :    0.153013
   5 H :    0.016261
   6 H :    0.022900
   7 H :   -0.069356
   8 H :   -0.078105
   9 H :    0.034025
  10 H :    0.029509
  11 H :   -0.012403
  12 H :   -0.008755
  13 H :   -0.003701

  Mayer bond orders larger than 0.100000
B(  0-C ,  1-C ) :   1.2621 B(  0-C ,  2-C ) :   1.1828 B(  0-C ,  3-C ) :   0.1571
B(  0-C ,  9-H ) :   0.8672 B(  0-C , 10-H ) :   0.8983 B(  0-C , 11-H ) :   0.1687
B(  0-C , 12-H ) :   0.1258 B(  0-C , 13-H ) :   0.1444 B(  1-C , 11-H ) :   0.8463
B(  1-C , 12-H ) :   0.8469 B(  1-C , 13-H ) :   0.8972 B(  2-C ,  3-C ) :   1.7870
B(  2-C ,  4-N ) :   1.2388 B(  2-C ,  8-H ) :   0.1390 B(  2-C ,  9-H ) :   0.1216
B(  2-C , 10-H ) :   0.1336 B(  3-C ,  4-N ) :   0.2323 B(  3-C ,  7-H ) :   0.9560
B(  3-C ,  8-H ) :   0.8038 B(  4-N ,  5-H ) :   1.0849 B(  4-N ,  6-H ) :   1.2480
B(  5-H ,  6-H ) :  -0.1341

FINAL SINGLE POINT ENERGY      -211.696838467247

DIPOLE MOMENT
-------------
                                X             Y             Z
Electronic contribution:     -0.72152      -1.16682      -2.56831
Nuclear contribution   :      1.14741       0.51394       2.60761
                        -----------------------------------------
Total Dipole Moment    :      0.42589      -0.65287       0.03929
                        -----------------------------------------
Magnitude (a.u.)       :      0.78050
Magnitude (Debye)      :      1.98386

Rotational constants in cm-1:     0.269157     0.129188     0.102123
Rotational constants in MHz :  8069.118715  3872.945231  3061.580645

                             ****ORCA TERMINATED NORMALLY****
TOTAL RUN TIME: 0 days 0 hours 0 minutes 23 seconds 548 msec
