                         Program Version 5.0.0 -  RELEASE  -
|  1> !LC-PBE RIJCOSX def2-SVPD def2/J TightSCF
|  2> *xyz 0 1
|  3> C          0.84888        2.66797       -4.30235
|  4> C          2.09343        1.86104       -4.65684
|  5> H          2.44481        2.04157       -5.67499
|  6> H          2.90175        2.13786       -3.98034
|  7> S          1.87964        0.07859       -4.46297
|  8> O          3.20757       -0.46611       -4.42026
|  9> F          1.07506       -0.05616       -3.26876
| 10> O          1.13166       -0.31996       -5.67903
| 11> H          0.05064        2.40112       -4.96303
| 12> H          1.06043        3.71210       -4.40203
| 13> H          0.56237        2.45684       -3.29327
| 14> *
| 15>
| 16> %MaxCore 64000
| 17>
| 18> %pal nprocs 4
| 19> end
| 20>
| 21> %scf
| 22>   MaxIter 150
| 23> end
| 24>
| 25>
| 26>                          ****END OF INPUT****

CARTESIAN COORDINATES (ANGSTROEM)
---------------------------------
  C      0.848880    2.667970   -4.302350
  C      2.093430    1.861040   -4.656840
  H      2.444810    2.041570   -5.674990
  H      2.901750    2.137860   -3.980340
  S      1.879640    0.078590   -4.462970
  O      3.207570   -0.466110   -4.420260
  F      1.075060   -0.056160   -3.268760
  O      1.131660   -0.319960   -5.679030
  H      0.050640    2.401120   -4.963030
  H      1.060430    3.712100   -4.402030
  H      0.562370    2.456840   -3.293270

 Total Charge           Charge          ....    0
 Multiplicity           Mult            ....    1
 Number of Electrons    NEL             ....   58
 Basis Dimension        Dim             ....  176

ORBITAL ENERGIES
----------------

  NO   OCC          E(Eh)            E(eV)
   0   2.0000     -88.576458     -2410.2880
   1   2.0000     -24.632139      -670.2746
   2   2.0000     -19.014204      -517.4028
   3   2.0000     -18.997237      -516.9411
   4   2.0000     -10.194929      -277.4181
   5   2.0000     -10.153381      -276.2876
   6   2.0000      -8.199270      -223.1135
   7   2.0000      -6.226440      -169.4301
   8   2.0000      -6.219024      -169.2282
   9   2.0000      -6.217775      -169.1942
  10   2.0000      -1.541871       -41.9564
  11   2.0000      -1.287405       -35.0321
  12   2.0000      -1.173391       -31.9296
  13   2.0000      -1.004257       -27.3272
  14   2.0000      -0.897064       -24.4103
  15   2.0000      -0.844814       -22.9886
  16   2.0000      -0.762346       -20.7445
  17   2.0000      -0.747151       -20.3310
  18   2.0000      -0.700583       -19.0638
  19   2.0000      -0.646666       -17.5967
  20   2.0000      -0.628742       -17.1089
  21   2.0000      -0.600879       -16.3508
  22   2.0000      -0.584951       -15.9173
  23   2.0000      -0.554160       -15.0795
  24   2.0000      -0.537633       -14.6297
  25   2.0000      -0.524418       -14.2701
  26   2.0000      -0.474917       -12.9232
  27   2.0000      -0.456649       -12.4260
  28   2.0000      -0.448546       -12.2056
  29   0.0000       0.061561         1.6751
  30   0.0000       0.086747         2.3605
  31   0.0000       0.092763         2.5242
  32   0.0000       0.095193         2.5903
  33   0.0000       0.124896         3.3986

MULLIKEN ATOMIC CHARGES
-----------------------
   0 C :    0.484483
   1 C :   -0.499530
   2 H :    0.073611
   3 H :    0.108743
   4 S :    1.378341
   5 O :   -0.601147
   6 F :   -0.365922
   7 O :   -0.659387
   8 H :    0.036901
   9 H :    0.006512
  10 H :    0.037394
Sum of atomic charges:   -0.0000000

LOEWDIN ATOMIC CHARGES
----------------------
   0 C :    0.095943
   1 C :   -0.107172
   2 H :    0.049361
   3 H :    0.032020
   4 S :    1.096332
   5 O :   -0.455837
   6 F :   -0.242225
   7 O :   -0.482262
   8 H :    0.009586
   9 H :    0.006839
  10 H :   -0.002586

  Mayer bond orders larger than 0.100000
B(  0-C ,  1-C ) :   1.2827 B(  0-C ,  8-H ) :   0.8670 B(  0-C ,  9-H ) :   0.8282
B(  0-C , 10-H ) :   0.8581 B(  1-C ,  2-H ) :   0.9967 B(  1-C ,  3-H ) :   0.9953
B(  1-C ,  4-S ) :   1.0086 B(  1-C ,  8-H ) :   0.1418 B(  1-C ,  9-H ) :   0.1551
B(  1-C , 10-H ) :   0.1435 B(  4-S ,  5-O ) :   1.6042 B(  4-S ,  6-F ) :   0.7263
B(  4-S ,  7-O ) :   1.5321

FINAL SINGLE POINT ENERGY      -726.032428680971

DIPOLE MOMENT
-------------
                                X             Y             Z
Electronic contribution:      0.55904      -8.49868       2.06551
Nuclear contribution   :     -0.86540      10.11467      -1.24082
                        -----------------------------------------
Total Dipole Moment    :     -0.30636       1.61600       0.82469
                        -----------------------------------------
Magnitude (a.u.)       :      1.83995
Magnitude (Debye)      :      4.67678

Rotational constants in cm-1:     0.154065     0.083345     0.080357
Rotational constants in MHz :  4618.752213  2498.631937  2409.037217

                             ****ORCA TERMINATED NORMALLY****
TOTAL RUN TIME: 0 days 0 hours 0 minutes 22 seconds 841 msec
