                         Program Version 5.0.0 -  RELEASE  -
|  1> !LC-PBE RIJCOSX def2-SVPD def2/J TightSCF
|  2> *xyz 0 1
|  3> C         -0.46129        2.23469       -4.98962
|  4> C          0.84888        2.66797       -4.30235
|  5> C         -0.42384        2.39877       -6.47432
|  6> N         -0.95947        3.49265       -7.00740
|  7> C          0.14558        1.48689       -7.20399
|  8> H          0.56537        0.69681       -6.72386
|  9> H          0.22068        1.58177       -8.20752
| 10> H         -1.40624        4.18151       -6.40326
| 11> H         -0.93421        3.68160       -7.99947
| 12> H         -1.28888        2.82674       -4.59500
| 13> H         -0.65170        1.18634       -4.75655
| 14> H          1.66208        2.08894       -4.68750
| 15> H          0.76716        2.51042       -3.24717
| 16> H          1.02677        3.70527       -4.49537
| 17> *
| 18>
| 19> %MaxCore 64000
| 20>
| 21> %pal nprocs 4
| 22> end
| 23>
| 24> %scf
| 25>   MaxIter 150
| 26> end
| 27>
| 28>
| 29>                          ****END OF INPUT****

CARTESIAN COORDINATES (ANGSTROEM)
---------------------------------
  C     -0.461290    2.234690   -4.989620
  C      0.848880    2.667970   -4.302350
  C     -0.423840    2.398770   -6.474320
  N     -0.959470    3.492650   -7.007400
  C      0.145580    1.486890   -7.203990
  H      0.565370    0.696810   -6.723860
  H      0.220680    1.581770   -8.207520
  H     -1.406240    4.181510   -6.403260
  H     -0.934210    3.681600   -7.999470
  H     -1.288880    2.826740   -4.595000
  H     -0.651700    1.186340   -4.756550
  H      1.662080    2.088940   -4.687500
  H      0.767160    2.510420   -3.247170
  H      1.026770    3.705270   -4.495370

 Total Charge           Charge          ....    0
 Multiplicity           Mult            ....    1
 Number of Electrons    NEL             ....   40
 Basis Dimension        Dim             ....  172

ORBITAL ENERGIES
----------------

  NO   OCC          E(Eh)            E(eV)
   0   2.0000     -14.227764      -387.1572
   1   2.0000     -10.149838      -276.1911
   2   2.0000     -10.127453      -275.5820
   3   2.0000     -10.111452      -275.1466
   4   2.0000     -10.056929      -273.6630
   5   2.0000      -1.091651       -29.7053
   6   2.0000      -0.950732       -25.8707
   7   2.0000      -0.881961       -23.9994
   8   2.0000      -0.796699       -21.6793
   9   2.0000      -0.715113       -19.4592
  10   2.0000      -0.667062       -18.1517
  11   2.0000      -0.630832       -17.1658
  12   2.0000      -0.582900       -15.8615
  13   2.0000      -0.556353       -15.1391
  14   2.0000      -0.531481       -14.4623
  15   2.0000      -0.520481       -14.1630
  16   2.0000      -0.479700       -13.0533
  17   2.0000      -0.467266       -12.7149
  18   2.0000      -0.465248       -12.6600
  19   2.0000      -0.311864        -8.4863
  20   0.0000       0.089352         2.4314
  21   0.0000       0.117951         3.2096
  22   0.0000       0.123771         3.3680
  23   0.0000       0.128733         3.5030
  24   0.0000       0.144384         3.9289

MULLIKEN ATOMIC CHARGES
-----------------------
   0 C :   -0.329647
   1 C :    0.377233
   2 C :    0.077475
   3 N :    0.022795
   4 C :    0.243203
   5 H :   -0.075240
   6 H :   -0.360003
   7 H :   -0.033687
   8 H :   -0.137730
   9 H :   -0.004189
  10 H :    0.142296
  11 H :    0.003358
  12 H :    0.068165
  13 H :    0.005971
Sum of atomic charges:   -0.0000000

LOEWDIN ATOMIC CHARGES
----------------------
   0 C :   -0.055760
   1 C :    0.105004
   2 C :   -0.272078
   3 N :    0.150217
   4 C :    0.141479
   5 H :   -0.060730
   6 H :   -0.067812
   7 H :    0.009729
   8 H :    0.012418
   9 H :    0.024590
  10 H :    0.036589
  11 H :   -0.007746
  12 H :   -0.009225
  13 H :   -0.006677

  Mayer bond orders larger than 0.100000
B(  0-C ,  1-C ) :   1.2742 B(  0-C ,  2-C ) :   1.1140 B(  0-C ,  3-N ) :   0.1133
B(  0-C ,  4-C ) :   0.1588 B(  0-C ,  9-H ) :   0.9062 B(  0-C , 10-H ) :   0.8728
B(  0-C , 11-H ) :   0.1547 B(  0-C , 12-H ) :   0.1178 B(  0-C , 13-H ) :   0.1536
B(  1-C , 11-H ) :   0.8817 B(  1-C , 12-H ) :   0.8456 B(  1-C , 13-H ) :   0.8791
B(  2-C ,  3-N ) :   1.1029 B(  2-C ,  4-C ) :   1.8935 B(  2-C ,  5-H ) :   0.1355
B(  2-C ,  6-H ) :   0.1795 B(  2-C ,  8-H ) :  -0.1281 B(  2-C ,  9-H ) :   0.1150
B(  3-N ,  4-C ) :   0.2462 B(  3-N ,  7-H ) :   1.0982 B(  3-N ,  8-H ) :   1.2780
B(  4-C ,  5-H ) :   0.8447 B(  4-C ,  6-H ) :   0.7950 B(  7-H ,  8-H ) :  -0.1548

FINAL SINGLE POINT ENERGY      -211.697207258515

DIPOLE MOMENT
-------------
                                X             Y             Z
Electronic contribution:     -1.69329       0.56926      -2.40076
Nuclear contribution   :      1.40335       0.04939       2.56207
                        -----------------------------------------
Total Dipole Moment    :     -0.28994       0.61865       0.16132
                        -----------------------------------------
Magnitude (a.u.)       :      0.70201
Magnitude (Debye)      :      1.78436

Rotational constants in cm-1:     0.271383     0.128194     0.101873
Rotational constants in MHz :  8135.853259  3843.152748  3054.074278

                             ****ORCA TERMINATED NORMALLY****
TOTAL RUN TIME: 0 days 0 hours 0 minutes 24 seconds 858 msec
