                         Program Version 5.0.0 -  RELEASE  -
|  1> !LC-PBE RIJCOSX def2-SVPD def2/J TightSCF
|  2> *xyz 0 1
|  3> C          0.84888        2.66797       -4.30235
|  4> C          2.09343        1.86104       -4.65684
|  5> H          2.44481        2.04157       -5.67499
|  6> H          2.90175        2.13786       -3.98034
|  7> S          1.87964        0.07859       -4.46297
|  8> O          3.20757       -0.46611       -4.42026
|  9> O          1.07506       -0.05616       -3.26876
| 10> F          1.13166       -0.31996       -5.67903
| 11> H          0.05064        2.40112       -4.96303
| 12> H          1.06043        3.71210       -4.40203
| 13> H          0.56237        2.45684       -3.29327
| 14> *
| 15>
| 16> %MaxCore 64000
| 17>
| 18> %pal nprocs 4
| 19> end
| 20>
| 21> %scf
| 22>   MaxIter 150
| 23> end
| 24>
| 25>
| 26>                          ****END OF INPUT****

CARTESIAN COORDINATES (ANGSTROEM)
---------------------------------
  C      0.848880    2.667970   -4.302350
  C      2.093430    1.861040   -4.656840
  H      2.444810    2.041570   -5.674990
  H      2.901750    2.137860   -3.980340
  S      1.879640    0.078590   -4.462970
  O      3.207570   -0.466110   -4.420260
  O      1.075060   -0.056160   -3.268760
  F      1.131660   -0.319960   -5.679030
  H      0.050640    2.401120   -4.963030
  H      1.060430    3.712100   -4.402030
  H      0.562370    2.456840   -3.293270

 Total Charge           Charge          ....    0
 Multiplicity           Mult            ....    1
 Number of Electrons    NEL             ....   58
 Basis Dimension        Dim             ....  176

ORBITAL ENERGIES
----------------

  NO   OCC          E(Eh)            E(eV)
   0   2.0000     -88.574909     -2410.2458
   1   2.0000     -24.613464      -669.7664
   2   2.0000     -19.013924      -517.3952
   3   2.0000     -19.010291      -517.2963
   4   2.0000     -10.193979      -277.3923
   5   2.0000     -10.147399      -276.1248
   6   2.0000      -8.197609      -223.0683
   7   2.0000      -6.224537      -169.3783
   8   2.0000      -6.217592      -169.1893
   9   2.0000      -6.216330      -169.1549
  10   2.0000      -1.511703       -41.1355
  11   2.0000      -1.294985       -35.2383
  12   2.0000      -1.192688       -32.4547
  13   2.0000      -1.000001       -27.2114
  14   2.0000      -0.886939       -24.1348
  15   2.0000      -0.835503       -22.7352
  16   2.0000      -0.742056       -20.1924
  17   2.0000      -0.725511       -19.7422
  18   2.0000      -0.703544       -19.1444
  19   2.0000      -0.647826       -17.6282
  20   2.0000      -0.629834       -17.1387
  21   2.0000      -0.607068       -16.5192
  22   2.0000      -0.577819       -15.7232
  23   2.0000      -0.549924       -14.9642
  24   2.0000      -0.542206       -14.7542
  25   2.0000      -0.519024       -14.1234
  26   2.0000      -0.483747       -13.1634
  27   2.0000      -0.465928       -12.6786
  28   2.0000      -0.462074       -12.5737
  29   0.0000       0.063390         1.7249
  30   0.0000       0.088729         2.4144
  31   0.0000       0.092649         2.5211
  32   0.0000       0.094402         2.5688
  33   0.0000       0.124825         3.3967

MULLIKEN ATOMIC CHARGES
-----------------------
   0 C :    0.510269
   1 C :   -0.526459
   2 H :    0.064099
   3 H :    0.118254
   4 S :    1.392558
   5 O :   -0.611768
   6 O :   -0.639195
   7 F :   -0.383460
   8 H :    0.012286
   9 H :    0.006159
  10 H :    0.057258
Sum of atomic charges:    0.0000000

LOEWDIN ATOMIC CHARGES
----------------------
   0 C :    0.097370
   1 C :   -0.110052
   2 H :    0.035744
   3 H :    0.042208
   4 S :    1.096880
   5 O :   -0.456681
   6 O :   -0.458924
   7 F :   -0.259724
   8 H :    0.006098
   9 H :    0.005873
  10 H :    0.001208

  Mayer bond orders larger than 0.100000
B(  0-C ,  1-C ) :   1.3012 B(  0-C ,  8-H ) :   0.8527 B(  0-C ,  9-H ) :   0.8236
B(  0-C , 10-H ) :   0.8610 B(  1-C ,  2-H ) :   0.9931 B(  1-C ,  3-H ) :   0.9868
B(  1-C ,  4-S ) :   1.0050 B(  1-C ,  8-H ) :   0.1446 B(  1-C ,  9-H ) :   0.1525
B(  1-C , 10-H ) :   0.1571 B(  4-S ,  5-O ) :   1.5993 B(  4-S ,  6-O ) :   1.5661
B(  4-S ,  7-F ) :   0.6766

FINAL SINGLE POINT ENERGY      -726.048877991234

DIPOLE MOMENT
-------------
                                X             Y             Z
Electronic contribution:      0.64068      -8.98414      -2.08353
Nuclear contribution   :     -0.92438      10.38956       1.27076
                        -----------------------------------------
Total Dipole Moment    :     -0.28370       1.40542      -0.81277
                        -----------------------------------------
Magnitude (a.u.)       :      1.64812
Magnitude (Debye)      :      4.18918

Rotational constants in cm-1:     0.154243     0.082247     0.080562
Rotational constants in MHz :  4624.087322  2465.703680  2415.175852

                             ****ORCA TERMINATED NORMALLY****
TOTAL RUN TIME: 0 days 0 hours 0 minutes 28 seconds 686 msec
