                         Program Version 5.0.0 -  RELEASE  -
|  1> !LC-PBE RIJCOSX def2-SVPD def2/J TightSCF xyzfile
|  2>
|  3> *xyzfile 0 1 D3.xyz
|  4>
|  5> %MaxCore 64000
|  6>
|  7> %pal nprocs 4
|  8> end
|  9>
| 10> %scf
| 11>   MaxIter 150
| 12> end
| 13>
| 14>
| 15>                          ****END OF INPUT****

CARTESIAN COORDINATES (ANGSTROEM)
---------------------------------
  C     -0.461293    2.234686   -4.989619
  C      0.848883    2.667967   -4.302351
  C      2.093434    1.861037   -4.656845
  H      2.444814    2.041567   -5.674990
  H      2.901748    2.137864   -3.980338
  S      1.879644    0.078594   -4.462965
  C     -0.423841    2.398772   -6.474317
  C     -0.959467    3.492647   -7.007401
  N      0.145585    1.486891   -7.203987
  H      0.565371    0.696807   -6.723858
  H      0.220682    1.581768   -8.207520
  H     -1.406243    4.181507   -6.403261
  H     -0.934215    3.681601   -7.999468
  O      3.207574   -0.466111   -4.420259
  F      1.075064   -0.056160   -3.268758
  O      1.131661   -0.319960   -5.679031
  H      0.668432    2.559427   -3.232850
  H      1.034074    3.729426   -4.497081
  H     -1.288884    2.826737   -4.594997
  H     -0.651696    1.186343   -4.756552

 Total Charge           Charge          ....    0
 Multiplicity           Mult            ....    1
 Number of Electrons    NEL             ....   88
 Basis Dimension        Dim             ....  296

ORBITAL ENERGIES
----------------

  NO   OCC          E(Eh)            E(eV)
   0   2.0000     -88.597248     -2410.8537
   1   2.0000     -24.647691      -670.6978
   2   2.0000     -19.030728      -517.8524
   3   2.0000     -19.022890      -517.6392
   4   2.0000     -14.204427      -386.5221
   5   2.0000     -10.201084      -277.5856
   6   2.0000     -10.166846      -276.6539
   7   2.0000     -10.152194      -276.2553
   8   2.0000     -10.142386      -275.9884
   9   2.0000     -10.055753      -273.6310
  10   2.0000      -8.219077      -223.6525
  11   2.0000      -6.246236      -169.9687
  12   2.0000      -6.239223      -169.7779
  13   2.0000      -6.237382      -169.7278
  14   2.0000      -1.557167       -42.3727
  15   2.0000      -1.307667       -35.5834
  16   2.0000      -1.200649       -32.6713
  17   2.0000      -1.092970       -29.7412
  18   2.0000      -1.020503       -27.7693
  19   2.0000      -0.939533       -25.5660
  20   2.0000      -0.902946       -24.5704
  21   2.0000      -0.864618       -23.5274
  22   2.0000      -0.813772       -22.1439
  23   2.0000      -0.770117       -20.9559
  24   2.0000      -0.767386       -20.8816
  25   2.0000      -0.730576       -19.8800
  26   2.0000      -0.714931       -19.4543
  27   2.0000      -0.671062       -18.2605
  28   2.0000      -0.653899       -17.7935
  29   2.0000      -0.645305       -17.5597
  30   2.0000      -0.626674       -17.0527
  31   2.0000      -0.606927       -16.5153
  32   2.0000      -0.598641       -16.2899
  33   2.0000      -0.567682       -15.4474
  34   2.0000      -0.548749       -14.9322
  35   2.0000      -0.541184       -14.7264
  36   2.0000      -0.521292       -14.1851
  37   2.0000      -0.514667       -14.0048
  38   2.0000      -0.487503       -13.2656
  39   2.0000      -0.481693       -13.1075
  40   2.0000      -0.474977       -12.9248
  41   2.0000      -0.466115       -12.6836
  42   2.0000      -0.454090       -12.3564
  43   2.0000      -0.300440        -8.1754
  44   0.0000       0.056472         1.5367
  45   0.0000       0.079597         2.1660
  46   0.0000       0.085181         2.3179
  47   0.0000       0.092672         2.5217
  48   0.0000       0.112254         3.0546

MULLIKEN ATOMIC CHARGES
-----------------------
   0 C :    0.292448
   1 C :    0.007202
   2 C :   -0.093355
   3 H :    0.225651
   4 H :   -0.007894
   5 S :    1.422569
   6 C :   -0.078661
   7 C :    0.161588
   8 N :    0.549959
   9 H :   -0.379511
  10 H :   -0.168573
  11 H :   -0.081065
  12 H :   -0.347166
  13 O :   -0.604038
  14 F :   -0.385426
  15 O :   -0.728429
  16 H :    0.200383
  17 H :   -0.088715
  18 H :    0.107757
  19 H :   -0.004725
Sum of atomic charges:   -0.0000000

LOEWDIN ATOMIC CHARGES
----------------------
   0 C :    0.001759
   1 C :   -0.039702
   2 C :   -0.047793
   3 H :    0.050455
   4 H :    0.034725
   5 S :    1.146088
   6 C :   -0.251956
   7 C :    0.142049
   8 N :    0.186134
   9 H :   -0.134834
  10 H :    0.029566
  11 H :   -0.074054
  12 H :   -0.077371
  13 O :   -0.436159
  14 F :   -0.227252
  15 O :   -0.448843
  16 H :    0.033228
  17 H :    0.050611
  18 H :    0.043457
  19 H :    0.019891

  Mayer bond orders larger than 0.100000
B(  0-C ,  1-C ) :   1.1657 B(  0-C ,  6-C ) :   1.1754 B(  0-C ,  8-N ) :   0.1183
B(  0-C , 16-H ) :   0.1143 B(  0-C , 18-H ) :   0.7846 B(  0-C , 19-H ) :   0.7576
B(  1-C ,  2-C ) :   1.3206 B(  1-C ,  3-H ) :   0.1097 B(  1-C ,  4-H ) :   0.1655
B(  1-C , 16-H ) :   0.8047 B(  1-C , 17-H ) :   0.9561 B(  1-C , 18-H ) :   0.1225
B(  1-C , 19-H ) :   0.1270 B(  2-C ,  3-H ) :   0.8671 B(  2-C ,  4-H ) :   0.9024
B(  2-C ,  5-S ) :   0.9886 B(  5-S , 13-O ) :   1.6371 B(  5-S , 14-F ) :   0.7132
B(  5-S , 15-O ) :   1.4320 B(  6-C ,  7-C ) :   1.7626 B(  6-C ,  8-N ) :   1.1218
B(  6-C , 10-H ) :  -0.1271 B(  6-C , 12-H ) :   0.1486 B(  6-C , 18-H ) :   0.1391
B(  6-C , 19-H ) :   0.1865 B(  7-C ,  8-N ) :   0.1644 B(  7-C , 11-H ) :   0.9623
B(  7-C , 12-H ) :   0.7379 B(  8-N ,  9-H ) :   1.0042 B(  8-N , 10-H ) :   1.2231
B(  9-H , 10-H ) :  -0.2044 B(  9-H , 15-O ) :   0.1845

FINAL SINGLE POINT ENERGY      -897.401307205044

DIPOLE MOMENT
-------------
                                X             Y             Z
Electronic contribution:      6.45294     -13.05590       7.42487
Nuclear contribution   :     -6.19944      13.70770      -6.43483
                        -----------------------------------------
Total Dipole Moment    :      0.25350       0.65180       0.99004
                        -----------------------------------------
Magnitude (a.u.)       :      1.21214
Magnitude (Debye)      :      3.08102

Rotational constants in cm-1:     0.079903     0.025241     0.022805
Rotational constants in MHz :  2395.439281   756.708181   683.680583

                             ****ORCA TERMINATED NORMALLY****
TOTAL RUN TIME: 0 days 0 hours 1 minutes 14 seconds 740 msec
