                         Program Version 5.0.0 -  RELEASE  -
|  1> !LC-PBE RIJCOSX def2-SVPD def2/J TightSCF xyzfile
|  2>
|  3> *xyzfile 0 1 D4.xyz
|  4>
|  5> %MaxCore 64000
|  6>
|  7> %pal nprocs 4
|  8> end
|  9>
| 10> %scf
| 11>   MaxIter 150
| 12> end
| 13>
| 14>
| 15>                          ****END OF INPUT****

CARTESIAN COORDINATES (ANGSTROEM)
---------------------------------
  C     -0.461293    2.234686   -4.989619
  C      0.848883    2.667967   -4.302351
  C      2.093434    1.861037   -4.656845
  H      2.444814    2.041567   -5.674990
  H      2.901748    2.137864   -3.980338
  S      1.879644    0.078594   -4.462965
  C     -0.423841    2.398772   -6.474317
  N     -0.959467    3.492647   -7.007401
  C      0.145585    1.486891   -7.203987
  H      0.565371    0.696807   -6.723858
  H      0.220682    1.581768   -8.207520
  H     -1.406243    4.181507   -6.403261
  H     -0.934215    3.681601   -7.999468
  O      3.207574   -0.466111   -4.420259
  F      1.075064   -0.056160   -3.268758
  O      1.131661   -0.319960   -5.679031
  H      0.668432    2.559427   -3.232850
  H      1.034074    3.729426   -4.497081
  H     -1.288884    2.826737   -4.594997
  H     -0.651696    1.186343   -4.756552

 Total Charge           Charge          ....    0
 Multiplicity           Mult            ....    1
 Number of Electrons    NEL             ....   88
 Basis Dimension        Dim             ....  296

ORBITAL ENERGIES
----------------

  NO   OCC          E(Eh)            E(eV)
   0   2.0000     -88.579737     -2410.3772
   1   2.0000     -24.633781      -670.3193
   2   2.0000     -19.015018      -517.4249
   3   2.0000     -18.999796      -517.0107
   4   2.0000     -14.226262      -387.1163
   5   2.0000     -10.190084      -277.2863
   6   2.0000     -10.164076      -276.5786
   7   2.0000     -10.145979      -276.0861
   8   2.0000     -10.141863      -275.9741
   9   2.0000     -10.038175      -273.1526
  10   2.0000      -8.201541      -223.1753
  11   2.0000      -6.228830      -169.4951
  12   2.0000      -6.221534      -169.2966
  13   2.0000      -6.219892      -169.2519
  14   2.0000      -1.543125       -41.9906
  15   2.0000      -1.290084       -35.1050
  16   2.0000      -1.180495       -32.1229
  17   2.0000      -1.091693       -29.7065
  18   2.0000      -1.013963       -27.5913
  19   2.0000      -0.937115       -25.5002
  20   2.0000      -0.887539       -24.1512
  21   2.0000      -0.871841       -23.7240
  22   2.0000      -0.805099       -21.9079
  23   2.0000      -0.761238       -20.7143
  24   2.0000      -0.752171       -20.4676
  25   2.0000      -0.720314       -19.6008
  26   2.0000      -0.708082       -19.2679
  27   2.0000      -0.664534       -18.0829
  28   2.0000      -0.648281       -17.6406
  29   2.0000      -0.631377       -17.1806
  30   2.0000      -0.628216       -17.0946
  31   2.0000      -0.608975       -16.5711
  32   2.0000      -0.589397       -16.0383
  33   2.0000      -0.556544       -15.1443
  34   2.0000      -0.544450       -14.8152
  35   2.0000      -0.537595       -14.6287
  36   2.0000      -0.518439       -14.1074
  37   2.0000      -0.509202       -13.8561
  38   2.0000      -0.477285       -12.9876
  39   2.0000      -0.471021       -12.8171
  40   2.0000      -0.462082       -12.5739
  41   2.0000      -0.457582       -12.4514
  42   2.0000      -0.422412       -11.4944
  43   2.0000      -0.307138        -8.3576
  44   0.0000       0.062839         1.7099
  45   0.0000       0.083995         2.2856
  46   0.0000       0.089415         2.4331
  47   0.0000       0.095645         2.6026
  48   0.0000       0.111500         3.0341

MULLIKEN ATOMIC CHARGES
-----------------------
   0 C :    0.190280
   1 C :    0.032837
   2 C :   -0.117306
   3 H :    0.278312
   4 H :   -0.040897
   5 S :    1.399017
   6 C :    0.116567
   7 N :   -0.033214
   8 C :    0.711945
   9 H :   -0.236301
  10 H :   -0.549428
  11 H :   -0.055440
  12 H :   -0.147242
  13 O :   -0.612991
  14 F :   -0.395262
  15 O :   -0.708131
  16 H :    0.186934
  17 H :   -0.099973
  18 H :   -0.078270
  19 H :    0.158563
Sum of atomic charges:    0.0000000

LOEWDIN ATOMIC CHARGES
----------------------
   0 C :    0.001567
   1 C :   -0.043635
   2 C :   -0.047525
   3 H :    0.049215
   4 H :    0.032862
   5 S :    1.140425
   6 C :   -0.243389
   7 N :    0.144566
   8 C :    0.179806
   9 H :   -0.179857
  10 H :   -0.054643
  11 H :    0.005395
  12 H :    0.012061
  13 O :   -0.444395
  14 F :   -0.234075
  15 O :   -0.456497
  16 H :    0.032250
  17 H :    0.047076
  18 H :    0.033782
  19 H :    0.025012

  Mayer bond orders larger than 0.100000
B(  0-C ,  1-C ) :   1.1730 B(  0-C ,  6-C ) :   1.1077 B(  0-C ,  7-N ) :   0.1199
B(  0-C ,  8-C ) :   0.1825 B(  0-C , 16-H ) :   0.1003 B(  0-C , 18-H ) :   0.8336
B(  0-C , 19-H ) :   0.8457 B(  1-C ,  2-C ) :   1.3226 B(  1-C ,  3-H ) :   0.1040
B(  1-C ,  4-H ) :   0.1599 B(  1-C , 16-H ) :   0.7918 B(  1-C , 17-H ) :   0.9398
B(  1-C , 18-H ) :   0.1384 B(  1-C , 19-H ) :   0.1159 B(  2-C ,  3-H ) :   0.8475
B(  2-C ,  4-H ) :   0.9250 B(  2-C ,  5-S ) :   0.9995 B(  2-C , 15-O ) :   0.1052
B(  5-S , 13-O ) :   1.6179 B(  5-S , 14-F ) :   0.7055 B(  5-S , 15-O ) :   1.4665
B(  6-C ,  7-N ) :   0.9622 B(  6-C ,  8-C ) :   1.9595 B(  6-C ,  9-H ) :   0.2959
B(  6-C , 10-H ) :   0.2135 B(  6-C , 12-H ) :  -0.1276 B(  6-C , 18-H ) :   0.1240
B(  7-N ,  8-C ) :   0.2873 B(  7-N , 11-H ) :   1.1531 B(  7-N , 12-H ) :   1.3243
B(  8-C ,  9-H ) :   0.6531 B(  8-C , 10-H ) :   0.7600 B(  9-H , 10-H ) :  -0.2151
B(  9-H , 15-O ) :   0.1544 B( 11-H , 12-H ) :  -0.1529

FINAL SINGLE POINT ENERGY      -897.380249028751

DIPOLE MOMENT
-------------
                                X             Y             Z
Electronic contribution:      5.55435     -11.61409       7.36806
Nuclear contribution   :     -6.09390      13.51614      -6.45360
                        -----------------------------------------
Total Dipole Moment    :     -0.53955       1.90204       0.91446
                        -----------------------------------------
Magnitude (a.u.)       :      2.17833
Magnitude (Debye)      :      5.53687

Rotational constants in cm-1:     0.081469     0.024519     0.022336
Rotational constants in MHz :  2442.393231   735.066768   669.628729

                             ****ORCA TERMINATED NORMALLY****
TOTAL RUN TIME: 0 days 0 hours 1 minutes 24 seconds 857 msec
