                         Program Version 5.0.0 -  RELEASE  -
|  1> !wB97X-D3 RIJCOSX def2-SVPD def2/J TightSCF CPCM(Water)
|  2> *xyz -1 1
|  3> C         -0.90349       -0.87394       -1.98739
|  4> C         -0.96015       -0.52236       -0.48987
|  5> H         -1.69039       -1.20813       -0.02168
|  6> H         -1.41449        0.48633       -0.40668
|  7> O          0.26170       -0.58031        0.13861
|  8> H         -1.88568       -0.80774       -2.40670
|  9> H         -0.53143       -1.87013       -2.10605
| 10> H         -0.25399       -0.18836       -2.49039
| 11> *
| 12>
| 13> %MaxCore 64000
| 14>
| 15> %pal nprocs 18
| 16> end
| 17>
| 18> %scf
| 19>   MaxIter 150
| 20> end
| 21>
| 22>
| 23>                          ****END OF INPUT****

CARTESIAN COORDINATES (ANGSTROEM)
---------------------------------
  C     -0.903490   -0.873940   -1.987390
  C     -0.960150   -0.522360   -0.489870
  H     -1.690390   -1.208130   -0.021680
  H     -1.414490    0.486330   -0.406680
  O      0.261700   -0.580310    0.138610
  H     -1.885680   -0.807740   -2.406700
  H     -0.531430   -1.870130   -2.106050
  H     -0.253990   -0.188360   -2.490390

 Total Charge           Charge          ....   -1
 Multiplicity           Mult            ....    1
 Number of Electrons    NEL             ....   26
 Basis Dimension        Dim             ....  103

ORBITAL ENERGIES
----------------

  NO   OCC          E(Eh)            E(eV)
   0   2.0000     -19.120142      -520.2855
   1   2.0000     -10.286674      -279.9146
   2   2.0000     -10.245654      -278.7984
   3   2.0000      -0.986618       -26.8472
   4   2.0000      -0.806481       -21.9455
   5   2.0000      -0.656498       -17.8642
   6   2.0000      -0.527950       -14.3663
   7   2.0000      -0.498898       -13.5757
   8   2.0000      -0.448698       -12.2097
   9   2.0000      -0.430687       -11.7196
  10   2.0000      -0.411370       -11.1939
  11   2.0000      -0.271926        -7.3995
  12   2.0000      -0.270503        -7.3608
  13   0.0000       0.106834         2.9071
  14   0.0000       0.134733         3.6663
  15   0.0000       0.151513         4.1229
  16   0.0000       0.155737         4.2378
  17   0.0000       0.189248         5.1497

MULLIKEN ATOMIC CHARGES
-----------------------
   0 C :    0.368523
   1 C :    0.115367
   2 H :   -0.153710
   3 H :   -0.147690
   4 O :   -0.968667
   5 H :   -0.032458
   6 H :   -0.089808
   7 H :   -0.091557
Sum of atomic charges:   -1.0000000

LOEWDIN ATOMIC CHARGES
----------------------
   0 C :    0.080037
   1 C :   -0.267172
   2 H :   -0.016877
   3 H :   -0.015092
   4 O :   -0.686189
   5 H :   -0.030636
   6 H :   -0.031922
   7 H :   -0.032150

  Mayer bond orders larger than 0.100000
B(  0-C ,  1-C ) :   1.2186 B(  0-C ,  5-H ) :   0.8741 B(  0-C ,  6-H ) :   0.8845
B(  0-C ,  7-H ) :   0.8839 B(  1-C ,  2-H ) :   0.9634 B(  1-C ,  3-H ) :   0.9650
B(  1-C ,  4-O ) :   1.2806 B(  1-C ,  5-H ) :   0.1111 B(  1-C ,  6-H ) :   0.1547
B(  1-C ,  7-H ) :   0.1554

Dispersion correction           -0.000860276
FINAL SINGLE POINT ENERGY      -154.390612744762

DIPOLE MOMENT
-------------
                                X             Y             Z
Electronic contribution:      1.20650       0.14991       1.55090
Nuclear contribution   :     -2.90669      -0.27617      -3.31210
                        -----------------------------------------
Total Dipole Moment    :     -1.70020      -0.12625      -1.76120
                        -----------------------------------------
Magnitude (a.u.)       :      2.45121
Magnitude (Debye)      :      6.23049

Rotational constants in cm-1:     1.291883     0.321656     0.284469
Rotational constants in MHz : 38729.676116  9643.011620  8528.167295

                             ****ORCA TERMINATED NORMALLY****
TOTAL RUN TIME: 0 days 0 hours 0 minutes 5 seconds 398 msec
