                         Program Version 5.0.0 -  RELEASE  -
|  1> !wB97X-D3 RIJCOSX def2-SVPD def2/J TightSCF CPCM(Water)
|  2> *xyz 1 1
|  3> C          4.36645       -0.13321       -1.41606
|  4> C          4.50829       -0.93187       -2.72425
|  5> C          3.05650       -0.32080       -0.70738
|  6> N          2.38983        0.71129       -0.24391
|  7> N          2.51600       -1.50772       -0.55023
|  8> H          2.96768       -2.32291       -0.95631
|  9> H          1.54987       -1.49063       -0.24988
| 10> H          2.74307        1.64947       -0.41280
| 11> H          1.44036        0.50278        0.03703
| 12> H          4.48784        0.93300       -1.61157
| 13> H          5.16967       -0.41443       -0.72982
| 14> H          5.46700       -0.73824       -3.15818
| 15> H          3.74074       -0.63528       -3.40821
| 16> H          4.41574       -1.97727       -2.51573
| 17> *
| 18>
| 19> %MaxCore 64000
| 20>
| 21> %pal nprocs 18
| 22> end
| 23>
| 24> %scf
| 25>   MaxIter 150
| 26> end
| 27>
| 28>
| 29>                          ****END OF INPUT****

CARTESIAN COORDINATES (ANGSTROEM)
---------------------------------
  C      4.366450   -0.133210   -1.416060
  C      4.508290   -0.931870   -2.724250
  C      3.056500   -0.320800   -0.707380
  N      2.389830    0.711290   -0.243910
  N      2.516000   -1.507720   -0.550230
  H      2.967680   -2.322910   -0.956310
  H      1.549870   -1.490630   -0.249880
  H      2.743070    1.649470   -0.412800
  H      1.440360    0.502780    0.037030
  H      4.487840    0.933000   -1.611570
  H      5.169670   -0.414430   -0.729820
  H      5.467000   -0.738240   -3.158180
  H      3.740740   -0.635280   -3.408210
  H      4.415740   -1.977270   -2.515730

 Total Charge           Charge          ....    1
 Multiplicity           Mult            ....    1
 Number of Electrons    NEL             ....   40
 Basis Dimension        Dim             ....  172

ORBITAL ENERGIES
----------------

  NO   OCC          E(Eh)            E(eV)
   0   2.0000     -14.498947      -394.5364
   1   2.0000     -14.498455      -394.5230
   2   2.0000     -10.435196      -283.9561
   3   2.0000     -10.323203      -280.9086
   4   2.0000     -10.291771      -280.0533
   5   2.0000      -1.140241       -31.0275
   6   2.0000      -1.030086       -28.0301
   7   2.0000      -0.912970       -24.8432
   8   2.0000      -0.796762       -21.6810
   9   2.0000      -0.744825       -20.2677
  10   2.0000      -0.692066       -18.8321
  11   2.0000      -0.678697       -18.4683
  12   2.0000      -0.618455       -16.8290
  13   2.0000      -0.591400       -16.0928
  14   2.0000      -0.558990       -15.2109
  15   2.0000      -0.531406       -14.4603
  16   2.0000      -0.489286       -13.3142
  17   2.0000      -0.474058       -12.8998
  18   2.0000      -0.458402       -12.4737
  19   2.0000      -0.405042       -11.0218
  20   0.0000       0.046461         1.2643
  21   0.0000       0.087669         2.3856
  22   0.0000       0.118321         3.2197
  23   0.0000       0.128466         3.4957
  24   0.0000       0.147632         4.0173

MULLIKEN ATOMIC CHARGES
-----------------------
   0 C :   -0.378416
   1 C :    0.570495
   2 C :    0.563153
   3 N :   -0.062594
   4 N :   -0.010056
   5 H :    0.066521
   6 H :   -0.019605
   7 H :    0.099248
   8 H :    0.017013
   9 H :    0.139588
  10 H :    0.078270
  11 H :    0.028723
  12 H :   -0.023424
  13 H :   -0.068916
Sum of atomic charges:    1.0000000

LOEWDIN ATOMIC CHARGES
----------------------
   0 C :    0.018883
   1 C :    0.152014
   2 C :   -0.036944
   3 N :    0.280273
   4 N :    0.286772
   5 H :    0.053016
   6 H :    0.055032
   7 H :    0.063794
   8 H :    0.054196
   9 H :    0.039185
  10 H :    0.054201
  11 H :   -0.001886
  12 H :   -0.001920
  13 H :   -0.016617

  Mayer bond orders larger than 0.100000
B(  0-C ,  1-C ) :   1.3085 B(  0-C ,  2-C ) :   1.1635 B(  0-C ,  9-H ) :   0.8878
B(  0-C , 10-H ) :   0.8628 B(  0-C , 11-H ) :   0.1628 B(  0-C , 12-H ) :   0.1733
B(  0-C , 13-H ) :   0.1709 B(  1-C ,  9-H ) :   0.1095 B(  1-C , 11-H ) :   0.8383
B(  1-C , 12-H ) :   0.8146 B(  1-C , 13-H ) :   0.8578 B(  2-C ,  3-N ) :   1.1217
B(  2-C ,  4-N ) :   1.1217 B(  2-C ,  6-H ) :  -0.1368 B(  2-C ,  9-H ) :   0.1379
B(  2-C , 10-H ) :   0.1307 B(  3-N ,  4-N ) :   0.1915 B(  3-N ,  7-H ) :   1.0753
B(  3-N ,  8-H ) :   1.1889 B(  4-N ,  5-H ) :   1.0429 B(  4-N ,  6-H ) :   1.2581
B(  5-H ,  6-H ) :  -0.1733 B(  7-H ,  8-H ) :  -0.1388

Dispersion correction           -0.002897595
FINAL SINGLE POINT ENERGY      -228.914126214814

DIPOLE MOMENT
-------------
                                X             Y             Z
Electronic contribution:     -2.95447       0.66175       3.29867
Nuclear contribution   :      1.78847      -0.48174      -2.67127
                        -----------------------------------------
Total Dipole Moment    :     -1.16600       0.18002       0.62740
                        -----------------------------------------
Magnitude (a.u.)       :      1.33626
Magnitude (Debye)      :      3.39650

Rotational constants in cm-1:     0.286883     0.123210     0.094446
Rotational constants in MHz :  8600.540572  3693.747366  2831.415242

                             ****ORCA TERMINATED NORMALLY****
TOTAL RUN TIME: 0 days 0 hours 0 minutes 10 seconds 222 msec
