                         Program Version 5.0.0 -  RELEASE  -
|  1> !wB97X-D3 RIJCOSX def2-SVPD def2/J TightSCF CPCM(Water)
|  2> *xyz 0 1
|  3> C         -0.90349       -0.87394       -1.98739
|  4> C         -0.96015       -0.52236       -0.48987
|  5> H         -1.69039       -1.20813       -0.02168
|  6> H         -1.41449        0.48633       -0.40668
|  7> F          0.26170       -0.58031        0.13861
|  8> H         -1.88568       -0.80774       -2.40670
|  9> H         -0.53143       -1.87013       -2.10605
| 10> H         -0.25399       -0.18836       -2.49039
| 11> *
| 12>
| 13> %MaxCore 64000
| 14>
| 15> %pal nprocs 18
| 16> end
| 17>
| 18> %scf
| 19>   MaxIter 150
| 20> end
| 21>
| 22>
| 23>                          ****END OF INPUT****

CARTESIAN COORDINATES (ANGSTROEM)
---------------------------------
  C     -0.903490   -0.873940   -1.987390
  C     -0.960150   -0.522360   -0.489870
  H     -1.690390   -1.208130   -0.021680
  H     -1.414490    0.486330   -0.406680
  F      0.261700   -0.580310    0.138610
  H     -1.885680   -0.807740   -2.406700
  H     -0.531430   -1.870130   -2.106050
  H     -0.253990   -0.188360   -2.490390

 Total Charge           Charge          ....    0
 Multiplicity           Mult            ....    1
 Number of Electrons    NEL             ....   26
 Basis Dimension        Dim             ....  103

ORBITAL ENERGIES
----------------

  NO   OCC          E(Eh)            E(eV)
   0   2.0000     -24.796483      -674.7466
   1   2.0000     -10.364234      -282.0251
   2   2.0000     -10.276855      -279.6474
   3   2.0000      -1.304243       -35.4903
   4   2.0000      -0.867635       -23.6096
   5   2.0000      -0.733858       -19.9693
   6   2.0000      -0.613105       -16.6834
   7   2.0000      -0.599664       -16.3177
   8   2.0000      -0.563735       -15.3400
   9   2.0000      -0.502949       -13.6859
  10   2.0000      -0.491050       -13.3622
  11   2.0000      -0.432586       -11.7713
  12   2.0000      -0.424457       -11.5501
  13   0.0000       0.100863         2.7446
  14   0.0000       0.129445         3.5224
  15   0.0000       0.154941         4.2162
  16   0.0000       0.166517         4.5311
  17   0.0000       0.197347         5.3701

MULLIKEN ATOMIC CHARGES
-----------------------
   0 C :    0.199540
   1 C :    0.336855
   2 H :   -0.015097
   3 H :   -0.007678
   4 F :   -0.485174
   5 H :    0.016943
   6 H :   -0.022301
   7 H :   -0.023090
Sum of atomic charges:    0.0000000

LOEWDIN ATOMIC CHARGES
----------------------
   0 C :    0.133412
   1 C :    0.072695
   2 H :    0.035552
   3 H :    0.037703
   4 F :   -0.248095
   5 H :   -0.005093
   6 H :   -0.013039
   7 H :   -0.013135

  Mayer bond orders larger than 0.100000
B(  0-C ,  1-C ) :   1.3308 B(  0-C ,  5-H ) :   0.8774 B(  0-C ,  6-H ) :   0.9077
B(  0-C ,  7-H ) :   0.9078 B(  1-C ,  2-H ) :   0.9615 B(  1-C ,  3-H ) :   0.9606
B(  1-C ,  4-F ) :   0.7161 B(  1-C ,  5-H ) :   0.1088 B(  1-C ,  6-H ) :   0.1214
B(  1-C ,  7-H ) :   0.1217

Dispersion correction           -0.000868780
FINAL SINGLE POINT ENERGY      -178.892897818035

DIPOLE MOMENT
-------------
                                X             Y             Z
Electronic contribution:      3.03420       0.38651       3.89241
Nuclear contribution   :     -3.84149      -0.36812      -4.38946
                        -----------------------------------------
Total Dipole Moment    :     -0.80729       0.01839      -0.49705
                        -----------------------------------------
Magnitude (a.u.)       :      0.94821
Magnitude (Debye)      :      2.41017

Rotational constants in cm-1:     1.270659     0.299196     0.265842
Rotational constants in MHz : 38093.410361  8969.665806  7969.741481

                             ****ORCA TERMINATED NORMALLY****
TOTAL RUN TIME: 0 days 0 hours 0 minutes 5 seconds 0 msec
