                         Program Version 5.0.0 -  RELEASE  -
|  1> !wB97X-D3 RIJCOSX def2-SVPD def2/J TightSCF CPCM(Water)
|  2> *xyz 0 1
|  3> C          4.36645       -0.13321       -1.41606
|  4> C          4.50829       -0.93187       -2.72425
|  5> C          3.05650       -0.32080       -0.70738
|  6> C          2.38983        0.71129       -0.24391
|  7> N          2.51600       -1.50772       -0.55023
|  8> H          2.96768       -2.32291       -0.95631
|  9> H          1.54987       -1.49063       -0.24988
| 10> H          2.74307        1.64947       -0.41280
| 11> H          1.44036        0.50278        0.03703
| 12> H          4.48784        0.93300       -1.61157
| 13> H          5.16967       -0.41443       -0.72982
| 14> H          5.46700       -0.73824       -3.15818
| 15> H          3.74074       -0.63528       -3.40821
| 16> H          4.41574       -1.97727       -2.51573
| 17> *
| 18>
| 19> %MaxCore 64000
| 20>
| 21> %pal nprocs 18
| 22> end
| 23>
| 24> %scf
| 25>   MaxIter 150
| 26> end
| 27>
| 28>
| 29>                          ****END OF INPUT****

CARTESIAN COORDINATES (ANGSTROEM)
---------------------------------
  C      4.366450   -0.133210   -1.416060
  C      4.508290   -0.931870   -2.724250
  C      3.056500   -0.320800   -0.707380
  C      2.389830    0.711290   -0.243910
  N      2.516000   -1.507720   -0.550230
  H      2.967680   -2.322910   -0.956310
  H      1.549870   -1.490630   -0.249880
  H      2.743070    1.649470   -0.412800
  H      1.440360    0.502780    0.037030
  H      4.487840    0.933000   -1.611570
  H      5.169670   -0.414430   -0.729820
  H      5.467000   -0.738240   -3.158180
  H      3.740740   -0.635280   -3.408210
  H      4.415740   -1.977270   -2.515730

 Total Charge           Charge          ....    0
 Multiplicity           Mult            ....    1
 Number of Electrons    NEL             ....   40
 Basis Dimension        Dim             ....  172

ORBITAL ENERGIES
----------------

  NO   OCC          E(Eh)            E(eV)
   0   2.0000     -14.431057      -392.6890
   1   2.0000     -10.312599      -280.6201
   2   2.0000     -10.287491      -279.9369
   3   2.0000     -10.273747      -279.5629
   4   2.0000     -10.222392      -278.1654
   5   2.0000      -1.040650       -28.3175
   6   2.0000      -0.884193       -24.0601
   7   2.0000      -0.831527       -22.6270
   8   2.0000      -0.739351       -20.1188
   9   2.0000      -0.662660       -18.0319
  10   2.0000      -0.632098       -17.2003
  11   2.0000      -0.570806       -15.5324
  12   2.0000      -0.537052       -14.6139
  13   2.0000      -0.525084       -14.2883
  14   2.0000      -0.493850       -13.4383
  15   2.0000      -0.475801       -12.9472
  16   2.0000      -0.446699       -12.1553
  17   2.0000      -0.437421       -11.9028
  18   2.0000      -0.419410       -11.4127
  19   2.0000      -0.282592        -7.6897
  20   0.0000       0.095020         2.5856
  21   0.0000       0.116967         3.1828
  22   0.0000       0.121917         3.3175
  23   0.0000       0.138398         3.7660
  24   0.0000       0.146068         3.9747

MULLIKEN ATOMIC CHARGES
-----------------------
   0 C :   -0.200957
   1 C :    0.633108
   2 C :   -0.360443
   3 C :    0.409081
   4 N :    0.214329
   5 H :   -0.096742
   6 H :   -0.061600
   7 H :   -0.137365
   8 H :   -0.338690
   9 H :    0.138370
  10 H :   -0.034020
  11 H :   -0.022467
  12 H :   -0.033413
  13 H :   -0.109191
Sum of atomic charges:    0.0000000

LOEWDIN ATOMIC CHARGES
----------------------
   0 C :   -0.026141
   1 C :    0.129978
   2 C :   -0.274791
   3 C :    0.140910
   4 N :    0.173598
   5 H :    0.010764
   6 H :    0.017323
   7 H :   -0.085347
   8 H :   -0.087117
   9 H :    0.022505
  10 H :    0.029718
  11 H :   -0.014059
  12 H :   -0.010899
  13 H :   -0.026443

  Mayer bond orders larger than 0.100000
B(  0-C ,  1-C ) :   1.2799 B(  0-C ,  2-C ) :   1.1762 B(  0-C ,  9-H ) :   0.8815
B(  0-C , 10-H ) :   0.8371 B(  0-C , 11-H ) :   0.2002 B(  0-C , 12-H ) :   0.1785
B(  0-C , 13-H ) :   0.1977 B(  1-C , 11-H ) :   0.8131 B(  1-C , 12-H ) :   0.8024
B(  1-C , 13-H ) :   0.8313 B(  2-C ,  3-C ) :   1.8927 B(  2-C ,  4-N ) :   1.3108
B(  2-C ,  8-H ) :   0.2764 B(  2-C , 10-H ) :   0.2061 B(  3-C ,  4-N ) :   0.2277
B(  3-C ,  7-H ) :   0.9840 B(  3-C ,  8-H ) :   0.6888 B(  4-N ,  5-H ) :   1.0857
B(  4-N ,  6-H ) :   1.1443 B(  5-H ,  6-H ) :  -0.1411

Dispersion correction           -0.002911663
FINAL SINGLE POINT ENERGY      -212.365092327655

DIPOLE MOMENT
-------------
                                X             Y             Z
Electronic contribution:     -1.45166      -0.71557       1.92141
Nuclear contribution   :      1.56827      -0.21459      -2.46657
                        -----------------------------------------
Total Dipole Moment    :      0.11661      -0.93015      -0.54516
                        -----------------------------------------
Magnitude (a.u.)       :      1.08443
Magnitude (Debye)      :      2.75640

Rotational constants in cm-1:     0.294070     0.127722     0.097792
Rotational constants in MHz :  8815.983970  3829.010547  2931.715816

                             ****ORCA TERMINATED NORMALLY****
TOTAL RUN TIME: 0 days 0 hours 0 minutes 11 seconds 740 msec
