                         Program Version 5.0.0 -  RELEASE  -
|  1> !wB97X-D3 RIJCOSX def2-SVPD def2/J TightSCF CPCM(Water)
|  2> *xyz 0 1
|  3> C          4.36645       -0.13321       -1.41606
|  4> C          4.50829       -0.93187       -2.72425
|  5> C          3.05650       -0.32080       -0.70738
|  6> N          2.38983        0.71129       -0.24391
|  7> C          2.51600       -1.50772       -0.55023
|  8> H          2.96768       -2.32291       -0.95631
|  9> H          1.54987       -1.49063       -0.24988
| 10> H          2.74307        1.64947       -0.41280
| 11> H          1.44036        0.50278        0.03703
| 12> H          4.48784        0.93300       -1.61157
| 13> H          5.16967       -0.41443       -0.72982
| 14> H          5.46700       -0.73824       -3.15818
| 15> H          3.74074       -0.63528       -3.40821
| 16> H          4.41574       -1.97727       -2.51573
| 17> *
| 18>
| 19> %MaxCore 64000
| 20>
| 21> %pal nprocs 18
| 22> end
| 23>
| 24> %scf
| 25>   MaxIter 150
| 26> end
| 27>
| 28>
| 29>                          ****END OF INPUT****

CARTESIAN COORDINATES (ANGSTROEM)
---------------------------------
  C      4.366450   -0.133210   -1.416060
  C      4.508290   -0.931870   -2.724250
  C      3.056500   -0.320800   -0.707380
  N      2.389830    0.711290   -0.243910
  C      2.516000   -1.507720   -0.550230
  H      2.967680   -2.322910   -0.956310
  H      1.549870   -1.490630   -0.249880
  H      2.743070    1.649470   -0.412800
  H      1.440360    0.502780    0.037030
  H      4.487840    0.933000   -1.611570
  H      5.169670   -0.414430   -0.729820
  H      5.467000   -0.738240   -3.158180
  H      3.740740   -0.635280   -3.408210
  H      4.415740   -1.977270   -2.515730

 Total Charge           Charge          ....    0
 Multiplicity           Mult            ....    1
 Number of Electrons    NEL             ....   40
 Basis Dimension        Dim             ....  172

ORBITAL ENERGIES
----------------

  NO   OCC          E(Eh)            E(eV)
   0   2.0000     -14.431175      -392.6922
   1   2.0000     -10.312394      -280.6145
   2   2.0000     -10.287801      -279.9453
   3   2.0000     -10.272299      -279.5235
   4   2.0000     -10.220391      -278.1110
   5   2.0000      -1.040467       -28.3126
   6   2.0000      -0.887319       -24.1452
   7   2.0000      -0.820833       -22.3360
   8   2.0000      -0.749904       -20.4059
   9   2.0000      -0.653558       -17.7842
  10   2.0000      -0.628400       -17.0996
  11   2.0000      -0.579338       -15.7646
  12   2.0000      -0.549222       -14.9451
  13   2.0000      -0.506208       -13.7746
  14   2.0000      -0.488875       -13.3030
  15   2.0000      -0.477438       -12.9918
  16   2.0000      -0.451298       -12.2804
  17   2.0000      -0.433643       -11.8000
  18   2.0000      -0.421383       -11.4664
  19   2.0000      -0.280670        -7.6374
  20   0.0000       0.096706         2.6315
  21   0.0000       0.116109         3.1595
  22   0.0000       0.125571         3.4170
  23   0.0000       0.129431         3.5220
  24   0.0000       0.152258         4.1432

MULLIKEN ATOMIC CHARGES
-----------------------
   0 C :   -0.101486
   1 C :    0.632987
   2 C :   -0.237824
   3 N :    0.122203
   4 C :    0.405022
   5 H :   -0.209728
   6 H :   -0.368375
   7 H :   -0.044664
   8 H :   -0.009283
   9 H :    0.009525
  10 H :   -0.027998
  11 H :    0.005865
  12 H :   -0.063069
  13 H :   -0.113174
Sum of atomic charges:    0.0000000

LOEWDIN ATOMIC CHARGES
----------------------
   0 C :   -0.024112
   1 C :    0.129862
   2 C :   -0.266905
   3 N :    0.165319
   4 C :    0.144993
   5 H :   -0.092078
   6 H :   -0.087635
   7 H :    0.019028
   8 H :    0.016467
   9 H :    0.018626
  10 H :    0.030772
  11 H :   -0.015127
  12 H :   -0.011612
  13 H :   -0.027598

  Mayer bond orders larger than 0.100000
B(  0-C ,  1-C ) :   1.2905 B(  0-C ,  2-C ) :   1.1123 B(  0-C ,  9-H ) :   0.8206
B(  0-C , 10-H ) :   0.8664 B(  0-C , 11-H ) :   0.1720 B(  0-C , 12-H ) :   0.1784
B(  0-C , 13-H ) :   0.1746 B(  1-C , 11-H ) :   0.8144 B(  1-C , 12-H ) :   0.8208
B(  1-C , 13-H ) :   0.8500 B(  2-C ,  3-N ) :   1.2149 B(  2-C ,  4-C ) :   1.8723
B(  2-C ,  5-H ) :   0.1076 B(  2-C ,  6-H ) :   0.2449 B(  2-C ,  9-H ) :   0.1955
B(  2-C , 10-H ) :   0.1550 B(  3-N ,  4-C ) :   0.2422 B(  3-N ,  7-H ) :   1.0941
B(  3-N ,  8-H ) :   1.1036 B(  4-C ,  5-H ) :   0.8423 B(  4-C ,  6-H ) :   0.7877
B(  7-H ,  8-H ) :  -0.1158

Dispersion correction           -0.002887014
FINAL SINGLE POINT ENERGY      -212.363865884919

DIPOLE MOMENT
-------------
                                X             Y             Z
Electronic contribution:     -1.58275       1.78049       2.26829
Nuclear contribution   :      1.59749      -0.72853      -2.53752
                        -----------------------------------------
Total Dipole Moment    :      0.01474       1.05196      -0.26923
                        -----------------------------------------
Magnitude (a.u.)       :      1.08597
Magnitude (Debye)      :      2.76031

Rotational constants in cm-1:     0.304597     0.124127     0.096828
Rotational constants in MHz :  9131.600925  3721.227051  2902.830760

                             ****ORCA TERMINATED NORMALLY****
TOTAL RUN TIME: 0 days 0 hours 0 minutes 11 seconds 893 msec
