                         Program Version 5.0.0 -  RELEASE  -
|  1> !wB97X-D3 RIJCOSX def2-SVPD def2/J TightSCF CPCM(Water) xyzfile
|  2>
|  3> *xyzfile 0 1 D2.xyz
|  4>
|  5> %MaxCore 64000
|  6>
|  7> %pal nprocs 18
|  8> end
|  9>
| 10> %scf
| 11>   MaxIter 150
| 12> end
| 13>
| 14>
| 15>                          ****END OF INPUT****

CARTESIAN COORDINATES (ANGSTROEM)
---------------------------------
  C      4.366454   -0.133215   -1.416062
  C      4.508292   -0.931872   -2.724249
  H      4.753716   -1.972051   -2.488408
  C      3.294164   -0.918214   -3.656570
  H      5.385637   -0.536236   -3.242640
  H      2.483463   -1.477378   -3.185764
  H      3.553092   -1.478495   -4.560331
  C      2.772335    0.460100   -4.051448
  H      2.608762    1.065107   -3.155194
  C      1.465354    0.410537   -4.853644
  H      3.532940    0.988848   -4.635671
  C      0.326171   -0.375613   -4.192580
  H      1.666704   -0.022269   -5.839323
  H      1.138198    1.439246   -5.035449
  C     -0.017405    0.080588   -2.778406
  H      0.585573   -1.439385   -4.168057
  H     -0.560005   -0.311425   -4.831461
  H      0.902090    0.201296   -2.206729
  C     -0.903495   -0.873945   -1.987388
  H     -0.479549    1.074657   -2.811915
  H     -0.502554   -1.892096   -2.081204
  H     -1.917039   -0.895427   -2.406277
  C     -0.960148   -0.522365   -0.489867
  H     -1.690392   -1.208130   -0.021677
  H     -1.414490    0.486329   -0.406677
  F      0.261703   -0.580307    0.138611
  C      3.056503   -0.320797   -0.707384
  N      2.389825    0.711285   -0.243909
  C      2.515999   -1.507721   -0.550229
  H      2.967683   -2.322915   -0.956305
  H      1.549872   -1.490634   -0.249876
  H      2.743071    1.649471   -0.412802
  H      1.440364    0.502778    0.037031
  H      4.487835    0.932997   -1.611569
  H      5.169672   -0.414432   -0.729817

 Total Charge           Charge          ....    0
 Multiplicity           Mult            ....    1
 Number of Electrons    NEL             ....  104
 Basis Dimension        Dim             ....  439

ORBITAL ENERGIES
----------------

  NO   OCC          E(Eh)            E(eV)
   0   2.0000     -24.815761      -675.2712
   1   2.0000     -14.415312      -392.2606
   2   2.0000     -10.368983      -282.1544
   3   2.0000     -10.301641      -280.3219
   4   2.0000     -10.288472      -279.9636
   5   2.0000     -10.280703      -279.7521
   6   2.0000     -10.279178      -279.7107
   7   2.0000     -10.275952      -279.6229
   8   2.0000     -10.275589      -279.6130
   9   2.0000     -10.274358      -279.5795
  10   2.0000     -10.273023      -279.5432
  11   2.0000     -10.269973      -279.4602
  12   2.0000     -10.202003      -277.6106
  13   2.0000      -1.332891       -36.2698
  14   2.0000      -1.030762       -28.0485
  15   2.0000      -0.924911       -25.1681
  16   2.0000      -0.903615       -24.5886
  17   2.0000      -0.877999       -23.8916
  18   2.0000      -0.837168       -22.7805
  19   2.0000      -0.807631       -21.9768
  20   2.0000      -0.795300       -21.6412
  21   2.0000      -0.745096       -20.2751
  22   2.0000      -0.720082       -19.5944
  23   2.0000      -0.688496       -18.7349
  24   2.0000      -0.654593       -17.8124
  25   2.0000      -0.645796       -17.5730
  26   2.0000      -0.638063       -17.3626
  27   2.0000      -0.621649       -16.9159
  28   2.0000      -0.611944       -16.6519
  29   2.0000      -0.583106       -15.8671
  30   2.0000      -0.578259       -15.7352
  31   2.0000      -0.559764       -15.2320
  32   2.0000      -0.551755       -15.0140
  33   2.0000      -0.535063       -14.5598
  34   2.0000      -0.523937       -14.2571
  35   2.0000      -0.511985       -13.9318
  36   2.0000      -0.491988       -13.3877
  37   2.0000      -0.488663       -13.2972
  38   2.0000      -0.474773       -12.9192
  39   2.0000      -0.465288       -12.6611
  40   2.0000      -0.457587       -12.4516
  41   2.0000      -0.451847       -12.2954
  42   2.0000      -0.443038       -12.0557
  43   2.0000      -0.442303       -12.0357
  44   2.0000      -0.420037       -11.4298
  45   2.0000      -0.416891       -11.3442
  46   2.0000      -0.405690       -11.0394
  47   2.0000      -0.400511       -10.8984
  48   2.0000      -0.397420       -10.8143
  49   2.0000      -0.391633       -10.6569
  50   2.0000      -0.388589       -10.5741
  51   2.0000      -0.269208        -7.3255
  52   0.0000       0.095303         2.5933
  53   0.0000       0.102917         2.8005
  54   0.0000       0.106233         2.8907
  55   0.0000       0.108696         2.9578
  56   0.0000       0.121001         3.2926

MULLIKEN ATOMIC CHARGES
-----------------------
   0 C :    0.501205
   1 C :    0.359449
   2 H :    0.108822
   3 C :   -0.073016
   4 H :   -0.160709
   5 H :   -0.060625
   6 H :   -0.177133
   7 C :   -0.074717
   8 H :    0.069330
   9 C :    0.685793
  10 H :   -0.335931
  11 C :    0.009913
  12 H :   -0.003056
  13 H :    0.020310
  14 C :    0.603926
  15 H :    0.155605
  16 H :   -0.375675
  17 H :   -0.888782
  18 C :   -0.083439
  19 H :    0.033654
  20 H :    0.045686
  21 H :   -0.113640
  22 C :    0.997485
  23 H :   -0.024512
  24 H :    0.027154
  25 F :   -0.813053
  26 C :   -0.607197
  27 N :    0.375157
  28 C :    0.796073
  29 H :   -0.223548
  30 H :   -0.585824
  31 H :   -0.028023
  32 H :   -0.147965
  33 H :    0.229085
  34 H :   -0.241803
Sum of atomic charges:   -0.0000000

LOEWDIN ATOMIC CHARGES
----------------------
   0 C :    0.019198
   1 C :   -0.019660
   2 H :    0.019459
   3 C :   -0.030917
   4 H :    0.020978
   5 H :   -0.013281
   6 H :    0.028100
   7 C :   -0.031102
   8 H :    0.001415
   9 C :   -0.028676
  10 H :    0.025483
  11 C :   -0.034685
  12 H :    0.022329
  13 H :    0.022255
  14 C :   -0.030990
  15 H :    0.013444
  16 H :    0.023373
  17 H :   -0.028460
  18 C :   -0.009734
  19 H :    0.038557
  20 H :    0.031128
  21 H :    0.040072
  22 C :    0.175814
  23 H :    0.044041
  24 H :    0.049939
  25 F :   -0.238241
  26 C :   -0.244325
  27 N :    0.189888
  28 C :    0.165264
  29 H :   -0.079786
  30 H :   -0.140911
  31 H :    0.020749
  32 H :   -0.065155
  33 H :    0.016373
  34 H :    0.028067

  Mayer bond orders larger than 0.100000
B(  0-C ,  1-C ) :   1.1678 B(  0-C ,  4-H ) :   0.1653 B(  0-C , 26-C ) :   1.2296
B(  0-C , 29-H ) :  -0.1192 B(  0-C , 33-H ) :   0.5958 B(  0-C , 34-H ) :   0.7822
B(  1-C ,  2-H ) :   0.6642 B(  1-C ,  3-C ) :   1.2805 B(  1-C ,  4-H ) :   0.8297
B(  1-C ,  5-H ) :   0.1263 B(  1-C , 33-H ) :   0.1076 B(  1-C , 34-H ) :   0.1167
B(  2-H ,  3-C ) :   0.2371 B(  2-H ,  4-H ) :  -0.1627 B(  3-C ,  4-H ) :   0.2145
B(  3-C ,  5-H ) :   0.8447 B(  3-C ,  6-H ) :   0.8699 B(  3-C ,  7-C ) :   1.2463
B(  3-C ,  8-H ) :   0.1051 B(  3-C , 10-H ) :   0.1757 B(  4-H , 29-H ) :  -0.1215
B(  5-H ,  7-C ) :   0.1175 B(  5-H , 15-H ) :   0.1503 B(  5-H , 29-H ) :   0.1393
B(  5-H , 30-H ) :  -0.1029 B(  6-H ,  7-C ) :   0.1637 B(  7-C ,  8-H ) :   0.8474
B(  7-C ,  9-C ) :   1.1364 B(  7-C , 10-H ) :   0.9986 B(  7-C , 11-C ) :   0.1118
B(  7-C , 12-H ) :   0.1202 B(  7-C , 13-H ) :   0.2437 B(  8-H , 17-H ) :   0.2073
B(  9-C , 11-C ) :   1.1314 B(  9-C , 12-H ) :   0.7262 B(  9-C , 13-H ) :   0.6889
B( 11-C , 12-H ) :   0.1797 B( 11-C , 13-H ) :   0.1349 B( 11-C , 14-C ) :   1.1625
B( 11-C , 15-H ) :   0.8208 B( 11-C , 16-H ) :   1.0198 B( 11-C , 17-H ) :   0.1793
B( 11-C , 19-H ) :   0.1074 B( 12-H , 13-H ) :  -0.1096 B( 14-C , 15-H ) :   0.1378
B( 14-C , 16-H ) :   0.2111 B( 14-C , 17-H ) :   0.2039 B( 14-C , 18-C ) :   1.1395
B( 14-C , 19-H ) :   0.6398 B( 14-C , 20-H ) :   0.1236 B( 14-C , 21-H ) :   0.2018
B( 17-H , 18-C ) :   0.1422 B( 17-H , 19-H ) :   0.3044 B( 18-C , 19-H ) :   0.1057
B( 18-C , 20-H ) :   0.9102 B( 18-C , 21-H ) :   0.8994 B( 18-C , 22-C ) :   1.1473
B( 18-C , 23-H ) :   0.1910 B( 18-C , 24-H ) :   0.1131 B( 18-C , 25-F ) :   0.1299
B( 22-C , 23-H ) :   0.7596 B( 22-C , 24-H ) :   0.8194 B( 22-C , 25-F ) :   0.6468
B( 24-H , 25-F ) :   0.1417 B( 25-F , 26-C ) :   0.1102 B( 25-F , 28-C ) :  -0.1051
B( 25-F , 30-H ) :   0.2236 B( 26-C , 27-N ) :   1.0146 B( 26-C , 28-C ) :   2.0937
B( 26-C , 29-H ) :   0.1159 B( 26-C , 30-H ) :   0.5705 B( 26-C , 33-H ) :   0.2321
B( 26-C , 34-H ) :   0.2831 B( 27-N , 28-C ) :   0.3482 B( 27-N , 29-H ) :   0.1412
B( 27-N , 31-H ) :   1.0827 B( 27-N , 32-H ) :   1.0134 B( 28-C , 29-H ) :   0.7764
B( 28-C , 30-H ) :   0.1167 B( 29-H , 30-H ) :  -0.2707 B( 31-H , 32-H ) :  -0.1652

Dispersion correction           -0.017787564
FINAL SINGLE POINT ENERGY      -586.435040577354

DIPOLE MOMENT
-------------
                                X             Y             Z
Electronic contribution:     -3.05438       0.38529      10.41677
Nuclear contribution   :      1.85154       0.58682     -11.15333
                        -----------------------------------------
Total Dipole Moment    :     -1.20284       0.97212      -0.73656
                        -----------------------------------------
Magnitude (a.u.)       :      1.71300
Magnitude (Debye)      :      4.35409

Rotational constants in cm-1:     0.028379     0.022321     0.014415
Rotational constants in MHz :   850.785777   669.176075   432.155504

                             ****ORCA TERMINATED NORMALLY****
TOTAL RUN TIME: 0 days 0 hours 1 minutes 17 seconds 333 msec
