                         Program Version 5.0.0 -  RELEASE  -
|  1> !PBE D3BJ RIJCOSX def2-SVPD def2/J TightSCF
|  2> *xyz -1 1
|  3> C          1.44442        5.26658       -0.97546
|  4> O          1.56525        4.23349       -1.86489
|  5> C          0.14812        5.21087       -0.13809
|  6> H          1.47425        6.26464       -1.47692
|  7> H          2.28962        5.30327       -0.26445
|  8> H         -0.69779        5.17417       -0.79230
|  9> H          0.08430        6.08276        0.47887
| 10> H          0.15965        4.33708        0.47938
| 11> *
| 12> %MaxCore 64000
| 13>
| 14> %pal nprocs 4
| 15> end
| 16>
| 17> %scf
| 18>   MaxIter 150
| 19> end
| 20>
| 21>
| 22>                          ****END OF INPUT****

CARTESIAN COORDINATES (ANGSTROEM)
---------------------------------
  C      1.444420    5.266580   -0.975460
  O      1.565250    4.233490   -1.864890
  C      0.148120    5.210870   -0.138090
  H      1.474250    6.264640   -1.476920
  H      2.289620    5.303270   -0.264450
  H     -0.697790    5.174170   -0.792300
  H      0.084300    6.082760    0.478870
  H      0.159650    4.337080    0.479380

 Total Charge           Charge          ....   -1
 Multiplicity           Mult            ....    1
 Number of Electrons    NEL             ....   26
 Basis Dimension        Dim             ....  103

ORBITAL ENERGIES
----------------

  NO   OCC          E(Eh)            E(eV)
   0   2.0000     -18.444180      -501.8917
   1   2.0000      -9.711621      -264.2666
   2   2.0000      -9.689134      -263.6547
   3   2.0000      -0.594256       -16.1705
   4   2.0000      -0.451744       -12.2926
   5   2.0000      -0.309603        -8.4247
   6   2.0000      -0.202287        -5.5045
   7   2.0000      -0.181758        -4.9459
   8   2.0000      -0.132828        -3.6144
   9   2.0000      -0.114149        -3.1062
  10   2.0000      -0.073671        -2.0047
  11   2.0000       0.065088         1.7711
  12   2.0000       0.069704         1.8967
  13   0.0000       0.163166         4.4400
  14   0.0000       0.192936         5.2501
  15   0.0000       0.224139         6.0991
  16   0.0000       0.236792         6.4434
  17   0.0000       0.255129         6.9424

MULLIKEN ATOMIC CHARGES
-----------------------
   0 C :    0.106318
   1 O :   -0.853994
   2 C :    0.213753
   3 H :   -0.134671
   4 H :   -0.167361
   5 H :   -0.071481
   6 H :   -0.027720
   7 H :   -0.064844
Sum of atomic charges:   -1.0000000

LOEWDIN ATOMIC CHARGES
----------------------
   0 C :   -0.272198
   1 O :   -0.546391
   2 C :    0.058929
   3 H :   -0.037452
   4 H :   -0.041815
   5 H :   -0.046348
   6 H :   -0.067120
   7 H :   -0.047605

  Mayer bond orders larger than 0.100000
B(  0-C ,  1-O ) :   1.1027 B(  0-C ,  2-C ) :   1.2079 B(  0-C ,  3-H ) :   0.9763
B(  0-C ,  4-H ) :   0.9840 B(  0-C ,  5-H ) :   0.1897 B(  0-C ,  6-H ) :   0.1345
B(  0-C ,  7-H ) :   0.1776 B(  1-O ,  2-C ) :   0.3023 B(  2-C ,  3-H ) :   0.1505
B(  2-C ,  4-H ) :   0.1549 B(  2-C ,  5-H ) :   0.9199 B(  2-C ,  6-H ) :   0.9299
B(  2-C ,  7-H ) :   0.9166 B(  3-H ,  4-H ) :   0.1084

Dispersion correction           -0.003756101
FINAL SINGLE POINT ENERGY      -154.134450993084

DIPOLE MOMENT
-------------
                                X             Y             Z
Electronic contribution:      1.24404      -1.69308      -2.15074
Nuclear contribution   :     -1.83256       2.47114       3.17273
                        -----------------------------------------
Total Dipole Moment    :     -0.58852       0.77807       1.02199
                        -----------------------------------------
Magnitude (a.u.)       :      1.41287
Magnitude (Debye)      :      3.59124

Rotational constants in cm-1:     1.286062     0.322579     0.284728
Rotational constants in MHz : 38555.180127  9670.683110  8535.939140

                             ****ORCA TERMINATED NORMALLY****
TOTAL RUN TIME: 0 days 0 hours 0 minutes 7 seconds 92 msec
