                         Program Version 5.0.0 -  RELEASE  -
|  1> !PBE D3BJ RIJCOSX def2-SVPD def2/J TightSCF
|  2> *xyz 1 1
|  3> C         -0.70169        4.07250       -4.00392
|  4> N          0.68053        4.61482       -4.04800
|  5> H          0.69993        5.58489       -4.38827
|  6> H          1.27804        4.05598       -4.66824
|  7> H          1.08573        4.53358       -3.10652
|  8> C         -1.70347        5.09320       -3.47740
|  9> H         -0.99590        3.74039       -5.00065
| 10> H         -0.64358        3.20191       -3.35153
| 11> H         -1.73704        5.93384       -4.13853
| 12> H         -1.40338        5.41759       -2.50291
| 13> H         -2.67335        4.64479       -3.42108
| 14> *
| 15> %MaxCore 64000
| 16>
| 17> %pal nprocs 4
| 18> end
| 19>
| 20> %scf
| 21>   MaxIter 150
| 22> end
| 23>
| 24>
| 25>                          ****END OF INPUT****

CARTESIAN COORDINATES (ANGSTROEM)
---------------------------------
  C     -0.701690    4.072500   -4.003920
  N      0.680530    4.614820   -4.048000
  H      0.699930    5.584890   -4.388270
  H      1.278040    4.055980   -4.668240
  H      1.085730    4.533580   -3.106520
  C     -1.703470    5.093200   -3.477400
  H     -0.995900    3.740390   -5.000650
  H     -0.643580    3.201910   -3.351530
  H     -1.737040    5.933840   -4.138530
  H     -1.403380    5.417590   -2.502910
  H     -2.673350    4.644790   -3.421080

 Total Charge           Charge          ....    1
 Multiplicity           Mult            ....    1
 Number of Electrons    NEL             ....   26
 Basis Dimension        Dim             ....  124

ORBITAL ENERGIES
----------------

  NO   OCC          E(Eh)            E(eV)
   0   2.0000     -14.335301      -390.0834
   1   2.0000     -10.149875      -276.1921
   2   2.0000     -10.073182      -274.1052
   3   2.0000      -1.131372       -30.7862
   4   2.0000      -0.892607       -24.2891
   5   2.0000      -0.783075       -21.3085
   6   2.0000      -0.754352       -20.5270
   7   2.0000      -0.736428       -20.0392
   8   2.0000      -0.651065       -17.7164
   9   2.0000      -0.596421       -16.2294
  10   2.0000      -0.541859       -14.7447
  11   2.0000      -0.526344       -14.3225
  12   2.0000      -0.508746       -13.8437
  13   0.0000      -0.218035        -5.9330
  14   0.0000      -0.163467        -4.4482
  15   0.0000      -0.157857        -4.2955
  16   0.0000      -0.144663        -3.9365
  17   0.0000      -0.112884        -3.0717

MULLIKEN ATOMIC CHARGES
-----------------------
   0 C :    0.211384
   1 N :   -0.790034
   2 H :    0.403103
   3 H :    0.351397
   4 H :    0.411387
   5 C :    0.635316
   6 H :   -0.082378
   7 H :   -0.085105
   8 H :   -0.026317
   9 H :    0.000402
  10 H :   -0.029155
Sum of atomic charges:    1.0000000

LOEWDIN ATOMIC CHARGES
----------------------
   0 C :    0.044193
   1 N :    0.334925
   2 H :    0.105578
   3 H :    0.104852
   4 H :    0.107603
   5 C :    0.174600
   6 H :    0.054727
   7 H :    0.053584
   8 H :    0.001585
   9 H :    0.001544
  10 H :    0.016809

  Mayer bond orders larger than 0.100000
B(  0-C ,  1-N ) :   0.7968 B(  0-C ,  5-C ) :   1.3685 B(  0-C ,  6-H ) :   0.9266
B(  0-C ,  7-H ) :   0.8936 B(  0-C ,  8-H ) :   0.1686 B(  0-C ,  9-H ) :   0.1557
B(  0-C , 10-H ) :   0.1993 B(  1-N ,  2-H ) :   0.6824 B(  1-N ,  3-H ) :   0.7613
B(  1-N ,  4-H ) :   0.6865 B(  1-N ,  7-H ) :   0.1311 B(  5-C ,  8-H ) :   0.8272
B(  5-C ,  9-H ) :   0.8183 B(  5-C , 10-H ) :   0.8046

Dispersion correction           -0.006154957
FINAL SINGLE POINT ENERGY      -135.257693647938

DIPOLE MOMENT
-------------
                                X             Y             Z
Electronic contribution:      1.74793      -0.32634      -0.45021
Nuclear contribution   :     -0.23930       0.27560       0.19485
                        -----------------------------------------
Total Dipole Moment    :      1.50862      -0.05074      -0.25536
                        -----------------------------------------
Magnitude (a.u.)       :      1.53092
Magnitude (Debye)      :      3.89130

Rotational constants in cm-1:     1.018556     0.279088     0.248454
Rotational constants in MHz : 30535.536069  8366.847891  7448.451392

                             ****ORCA TERMINATED NORMALLY****
TOTAL RUN TIME: 0 days 0 hours 0 minutes 7 seconds 643 msec
