                         Program Version 5.0.0 -  RELEASE  -
|  1> !PBE D3BJ RIJCOSX def2-SVPD def2/J TightSCF
|  2> *xyz 0 1
|  3> C          1.44442        5.26658       -0.97546
|  4> F          1.56525        4.23349       -1.86489
|  5> C          0.14812        5.21087       -0.13809
|  6> H          1.47425        6.26464       -1.47692
|  7> H          2.28962        5.30327       -0.26445
|  8> H         -0.69779        5.17417       -0.79230
|  9> H          0.08430        6.08276        0.47887
| 10> H          0.15965        4.33708        0.47938
| 11> *
| 12> %MaxCore 64000
| 13>
| 14> %pal nprocs 4
| 15> end
| 16>
| 17> %scf
| 18>   MaxIter 150
| 19> end
| 20>
| 21>
| 22>                          ****END OF INPUT****

CARTESIAN COORDINATES (ANGSTROEM)
---------------------------------
  C      1.444420    5.266580   -0.975460
  F      1.565250    4.233490   -1.864890
  C      0.148120    5.210870   -0.138090
  H      1.474250    6.264640   -1.476920
  H      2.289620    5.303270   -0.264450
  H     -0.697790    5.174170   -0.792300
  H      0.084300    6.082760    0.478870
  H      0.159650    4.337080    0.479380

 Total Charge           Charge          ....    0
 Multiplicity           Mult            ....    1
 Number of Electrons    NEL             ....   26
 Basis Dimension        Dim             ....  103

ORBITAL ENERGIES
----------------

  NO   OCC          E(Eh)            E(eV)
   0   2.0000     -24.265699      -660.3032
   1   2.0000      -9.974803      -271.4282
   2   2.0000      -9.893878      -269.2261
   3   2.0000      -1.087038       -29.5798
   4   2.0000      -0.687837       -18.7170
   5   2.0000      -0.565698       -15.3934
   6   2.0000      -0.459268       -12.4973
   7   2.0000      -0.440680       -11.9915
   8   2.0000      -0.406132       -11.0514
   9   2.0000      -0.357350        -9.7240
  10   2.0000      -0.356100        -9.6900
  11   2.0000      -0.290707        -7.9105
  12   2.0000      -0.283680        -7.7193
  13   0.0000       0.005092         0.1386
  14   0.0000       0.037032         1.0077
  15   0.0000       0.050251         1.3674
  16   0.0000       0.061319         1.6686
  17   0.0000       0.084407         2.2968

MULLIKEN ATOMIC CHARGES
-----------------------
   0 C :    0.389920
   1 F :   -0.415770
   2 C :    0.348240
   3 H :   -0.055621
   4 H :   -0.089358
   5 H :   -0.071943
   6 H :   -0.041704
   7 H :   -0.063762
Sum of atomic charges:    0.0000000

LOEWDIN ATOMIC CHARGES
----------------------
   0 C :    0.047406
   1 F :   -0.195918
   2 C :    0.137141
   3 H :    0.032015
   4 H :    0.025512
   5 H :   -0.015696
   6 H :   -0.013928
   7 H :   -0.016532

  Mayer bond orders larger than 0.100000
B(  0-C ,  1-F ) :   0.7823 B(  0-C ,  2-C ) :   1.3677 B(  0-C ,  3-H ) :   0.9300
B(  0-C ,  4-H ) :   0.9369 B(  0-C ,  5-H ) :   0.1506 B(  0-C ,  6-H ) :   0.1256
B(  0-C ,  7-H ) :   0.1423 B(  2-C ,  5-H ) :   0.8862 B(  2-C ,  6-H ) :   0.8542
B(  2-C ,  7-H ) :   0.8855

Dispersion correction           -0.003475603
FINAL SINGLE POINT ENERGY      -178.727097823346

DIPOLE MOMENT
-------------
                                X             Y             Z
Electronic contribution:      2.30040      -2.76285      -3.71607
Nuclear contribution   :     -2.43357       3.25919       4.19687
                        -----------------------------------------
Total Dipole Moment    :     -0.13317       0.49635       0.48080
                        -----------------------------------------
Magnitude (a.u.)       :      0.70375
Magnitude (Debye)      :      1.78879

Rotational constants in cm-1:     1.264662     0.300144     0.266170
Rotational constants in MHz : 37913.611527  8998.095216  7979.576054

                             ****ORCA TERMINATED NORMALLY****
TOTAL RUN TIME: 0 days 0 hours 0 minutes 7 seconds 7 msec
