                         Program Version 5.0.0 -  RELEASE  -
|  1> !PBE D3BJ RIJCOSX def2-SVPD def2/J TightSCF
|  2> *xyz 0 1
|  3> C         -0.70169        4.07250       -4.00392
|  4> C          0.68053        4.61482       -4.04800
|  5> H          0.69993        5.58489       -4.38827
|  6> H          1.27804        4.05598       -4.66824
|  7> H          1.08573        4.53358       -3.10652
|  8> C         -1.70347        5.09320       -3.47740
|  9> H         -0.99590        3.74039       -5.00065
| 10> H         -0.64358        3.20191       -3.35153
| 11> H         -1.73704        5.93384       -4.13853
| 12> H         -1.40338        5.41759       -2.50291
| 13> H         -2.67335        4.64479       -3.42108
| 14> *
| 15> %MaxCore 64000
| 16>
| 17> %pal nprocs 4
| 18> end
| 19>
| 20> %scf
| 21>   MaxIter 150
| 22> end
| 23>
| 24>
| 25>                          ****END OF INPUT****

CARTESIAN COORDINATES (ANGSTROEM)
---------------------------------
  C     -0.701690    4.072500   -4.003920
  C      0.680530    4.614820   -4.048000
  H      0.699930    5.584890   -4.388270
  H      1.278040    4.055980   -4.668240
  H      1.085730    4.533580   -3.106520
  C     -1.703470    5.093200   -3.477400
  H     -0.995900    3.740390   -5.000650
  H     -0.643580    3.201910   -3.351530
  H     -1.737040    5.933840   -4.138530
  H     -1.403380    5.417590   -2.502910
  H     -2.673350    4.644790   -3.421080

 Total Charge           Charge          ....    0
 Multiplicity           Mult            ....    1
 Number of Electrons    NEL             ....   26
 Basis Dimension        Dim             ....  124

ORBITAL ENERGIES
----------------

  NO   OCC          E(Eh)            E(eV)
   0   2.0000      -9.883726      -268.9499
   1   2.0000      -9.875201      -268.7179
   2   2.0000      -9.858405      -268.2608
   3   2.0000      -0.713703       -19.4208
   4   2.0000      -0.618235       -16.8230
   5   2.0000      -0.520099       -14.1526
   6   2.0000      -0.420456       -11.4412
   7   2.0000      -0.397388       -10.8135
   8   2.0000      -0.357636        -9.7318
   9   2.0000      -0.346148        -9.4192
  10   2.0000      -0.296768        -8.0755
  11   2.0000      -0.293156        -7.9772
  12   2.0000      -0.284048        -7.7294
  13   0.0000       0.009178         0.2497
  14   0.0000       0.040000         1.0885
  15   0.0000       0.046355         1.2614
  16   0.0000       0.062687         1.7058
  17   0.0000       0.083305         2.2669

MULLIKEN ATOMIC CHARGES
-----------------------
   0 C :   -0.640598
   1 C :    0.965797
   2 H :   -0.230518
   3 H :   -0.202031
   4 H :   -0.146219
   5 C :    0.647783
   6 H :   -0.114035
   7 H :   -0.084670
   8 H :   -0.035475
   9 H :   -0.059337
  10 H :   -0.100699
Sum of atomic charges:   -0.0000000

LOEWDIN ATOMIC CHARGES
----------------------
   0 C :   -0.124837
   1 C :    0.113862
   2 H :   -0.030576
   3 H :   -0.034289
   4 H :   -0.028333
   5 C :    0.116347
   6 H :    0.021211
   7 H :    0.021424
   8 H :   -0.016968
   9 H :   -0.015703
  10 H :   -0.022138

  Mayer bond orders larger than 0.100000
B(  0-C ,  1-C ) :   1.3325 B(  0-C ,  2-H ) :   0.2102 B(  0-C ,  3-H ) :   0.2255
B(  0-C ,  4-H ) :   0.2858 B(  0-C ,  5-C ) :   1.3126 B(  0-C ,  6-H ) :   0.9421
B(  0-C ,  7-H ) :   0.9174 B(  0-C ,  8-H ) :   0.1722 B(  0-C ,  9-H ) :   0.1976
B(  0-C , 10-H ) :   0.2019 B(  1-C ,  2-H ) :   0.7383 B(  1-C ,  3-H ) :   0.6920
B(  1-C ,  4-H ) :   0.6709 B(  1-C ,  7-H ) :   0.1385 B(  5-C ,  8-H ) :   0.8206
B(  5-C ,  9-H ) :   0.8261 B(  5-C , 10-H ) :   0.8118

Dispersion correction           -0.006152764
FINAL SINGLE POINT ENERGY      -118.863941537175

DIPOLE MOMENT
-------------
                                X             Y             Z
Electronic contribution:     -0.13594      -0.31291      -0.13755
Nuclear contribution   :      0.16058       0.27975       0.12812
                        -----------------------------------------
Total Dipole Moment    :      0.02464      -0.03316      -0.00943
                        -----------------------------------------
Magnitude (a.u.)       :      0.04238
Magnitude (Debye)      :      0.10772

Rotational constants in cm-1:     1.027122     0.293327     0.260229
Rotational constants in MHz : 30792.337141  8793.723318  7801.458329

                             ****ORCA TERMINATED NORMALLY****
TOTAL RUN TIME: 0 days 0 hours 0 minutes 7 seconds 936 msec
