                         Program Version 5.0.0 -  RELEASE  -
|  1> !wB97X-D3 RIJCOSX def2-SVPD def2/J TightSCF
|  2> *xyz -1 1
|  3> C         -1.91658       -2.48508       -3.64367
|  4> C         -1.36353       -1.98134       -2.29361
|  5> O         -0.35039       -2.74969       -1.79601
|  6> H         -2.22622       -1.90839       -1.60204
|  7> H         -1.05135       -0.91567       -2.44333
|  8> H         -1.11522       -2.57167       -4.34739
|  9> H         -2.64227       -1.79099       -4.01314
| 10> H         -2.37564       -3.44180       -3.50640
| 11> *
| 12>
| 13> %MaxCore 64000
| 14> %pal nprocs 18
| 15> end
| 16>
| 17> %scf
| 18>   MaxIter 150
| 19> end
| 20>
| 21>
| 22>                          ****END OF INPUT****

CARTESIAN COORDINATES (ANGSTROEM)
---------------------------------
  C     -1.916580   -2.485080   -3.643670
  C     -1.363530   -1.981340   -2.293610
  O     -0.350390   -2.749690   -1.796010
  H     -2.226220   -1.908390   -1.602040
  H     -1.051350   -0.915670   -2.443330
  H     -1.115220   -2.571670   -4.347390
  H     -2.642270   -1.790990   -4.013140
  H     -2.375640   -3.441800   -3.506400

 Total Charge           Charge          ....   -1
 Multiplicity           Mult            ....    1
 Number of Electrons    NEL             ....   26
 Basis Dimension        Dim             ....  103

ORBITAL ENERGIES
----------------

  NO   OCC          E(Eh)            E(eV)
   0   2.0000     -18.908156      -514.5171
   1   2.0000     -10.104367      -274.9538
   2   2.0000     -10.081247      -274.3247
   3   2.0000      -0.783292       -21.3145
   4   2.0000      -0.633315       -17.2334
   5   2.0000      -0.474469       -12.9110
   6   2.0000      -0.350398        -9.5348
   7   2.0000      -0.327138        -8.9019
   8   2.0000      -0.269848        -7.3429
   9   2.0000      -0.251423        -6.8416
  10   2.0000      -0.207134        -5.6364
  11   2.0000      -0.059932        -1.6308
  12   2.0000      -0.057364        -1.5610
  13   0.0000       0.246048         6.6953
  14   0.0000       0.277576         7.5532
  15   0.0000       0.316264         8.6060
  16   0.0000       0.328486         8.9386
  17   0.0000       0.344438         9.3726

MULLIKEN ATOMIC CHARGES
-----------------------
   0 C :    0.295488
   1 C :    0.138302
   2 O :   -0.904717
   3 H :   -0.165419
   4 H :   -0.135733
   5 H :   -0.089184
   6 H :   -0.055472
   7 H :   -0.083265
Sum of atomic charges:   -1.0000000

LOEWDIN ATOMIC CHARGES
----------------------
   0 C :    0.060169
   1 C :   -0.263500
   2 O :   -0.593275
   3 H :   -0.033570
   4 H :   -0.028884
   5 H :   -0.041293
   6 H :   -0.057119
   7 H :   -0.042530

  Mayer bond orders larger than 0.100000
B(  0-C ,  1-C ) :   1.1695 B(  0-C ,  2-O ) :   0.1053 B(  0-C ,  3-H ) :   0.1073
B(  0-C ,  4-H ) :   0.1036 B(  0-C ,  5-H ) :   0.9110 B(  0-C ,  6-H ) :   0.8900
B(  0-C ,  7-H ) :   0.9073 B(  1-C ,  2-O ) :   1.1888 B(  1-C ,  3-H ) :   0.9869
B(  1-C ,  4-H ) :   0.9826 B(  1-C ,  5-H ) :   0.1683 B(  1-C ,  6-H ) :   0.1148
B(  1-C ,  7-H ) :   0.1561

Dispersion correction           -0.000862866
FINAL SINGLE POINT ENERGY      -154.274088128019

DIPOLE MOMENT
-------------
                                X             Y             Z
Electronic contribution:      1.95079      -0.82498       1.76158
Nuclear contribution   :     -3.14382       1.30299      -2.83231
                        -----------------------------------------
Total Dipole Moment    :     -1.19303       0.47801      -1.07073
                        -----------------------------------------
Magnitude (a.u.)       :      1.67280
Magnitude (Debye)      :      4.25192

Rotational constants in cm-1:     1.288206     0.322942     0.285188
Rotational constants in MHz : 38619.437223  9681.562038  8549.712012

                             ****ORCA TERMINATED NORMALLY****
TOTAL RUN TIME: 0 days 0 hours 0 minutes 4 seconds 674 msec
