                         Program Version 5.0.0 -  RELEASE  -
|  1> !wB97X-D3 RIJCOSX def2-SVPD def2/J TightSCF
|  2> *xyz 1 1
|  3> C          1.64703       -2.34528       -5.02041
|  4> C          2.20996       -2.81239       -3.66571
|  5> C          2.48901       -1.66851       -2.73754
|  6> N          3.59631       -0.94761       -2.95225
|  7> N          1.66394       -1.41369       -1.77781
|  8> H          0.81164       -1.96318       -1.70275
|  9> H          1.84550       -0.63508       -1.15875
| 10> H          4.20535       -1.17600       -3.73383
| 11> H          3.81723       -0.12585       -2.40604
| 12> H          3.14311       -3.36280       -3.81152
| 13> H          1.48768       -3.45893       -3.16521
| 14> H          1.46566       -3.19589       -5.64368
| 15> H          2.35406       -1.69850       -5.49654
| 16> H          0.73014       -1.81680       -4.86253
| 17> *
| 18>
| 19> %MaxCore 64000
| 20> %pal nprocs 18
| 21> end
| 22>
| 23> %scf
| 24>   MaxIter 150
| 25> end
| 26>
| 27>
| 28>                          ****END OF INPUT****

CARTESIAN COORDINATES (ANGSTROEM)
---------------------------------
  C      1.647030   -2.345280   -5.020410
  C      2.209960   -2.812390   -3.665710
  C      2.489010   -1.668510   -2.737540
  N      3.596310   -0.947610   -2.952250
  N      1.663940   -1.413690   -1.777810
  H      0.811640   -1.963180   -1.702750
  H      1.845500   -0.635080   -1.158750
  H      4.205350   -1.176000   -3.733830
  H      3.817230   -0.125850   -2.406040
  H      3.143110   -3.362800   -3.811520
  H      1.487680   -3.458930   -3.165210
  H      1.465660   -3.195890   -5.643680
  H      2.354060   -1.698500   -5.496540
  H      0.730140   -1.816800   -4.862530

 Total Charge           Charge          ....    1
 Multiplicity           Mult            ....    1
 Number of Electrons    NEL             ....   40
 Basis Dimension        Dim             ....  172

ORBITAL ENERGIES
----------------

  NO   OCC          E(Eh)            E(eV)
   0   2.0000     -14.690284      -399.7429
   1   2.0000     -14.680764      -399.4839
   2   2.0000     -10.616470      -288.8888
   3   2.0000     -10.489706      -285.4394
   4   2.0000     -10.446061      -284.2518
   5   2.0000      -1.317439       -35.8493
   6   2.0000      -1.218361       -33.1533
   7   2.0000      -1.080172       -29.3930
   8   2.0000      -0.968113       -26.3437
   9   2.0000      -0.924799       -25.1651
  10   2.0000      -0.881792       -23.9948
  11   2.0000      -0.855656       -23.2836
  12   2.0000      -0.806038       -21.9334
  13   2.0000      -0.753337       -20.4994
  14   2.0000      -0.723665       -19.6919
  15   2.0000      -0.714431       -19.4407
  16   2.0000      -0.640998       -17.4424
  17   2.0000      -0.631786       -17.1918
  18   2.0000      -0.626157       -17.0386
  19   2.0000      -0.587929       -15.9984
  20   0.0000      -0.128163        -3.4875
  21   0.0000      -0.082527        -2.2457
  22   0.0000      -0.037669        -1.0250
  23   0.0000      -0.036631        -0.9968
  24   0.0000      -0.010187        -0.2772

MULLIKEN ATOMIC CHARGES
-----------------------
   0 C :    0.541394
   1 C :   -0.379923
   2 C :    0.694948
   3 N :   -0.014938
   4 N :    0.027991
   5 H :    0.085411
   6 H :   -0.067675
   7 H :    0.067623
   8 H :   -0.108382
   9 H :    0.057619
  10 H :    0.044060
  11 H :    0.064952
  12 H :   -0.003681
  13 H :   -0.009400
Sum of atomic charges:    1.0000000

LOEWDIN ATOMIC CHARGES
----------------------
   0 C :    0.168801
   1 C :    0.009646
   2 C :   -0.039330
   3 N :    0.274513
   4 N :    0.279473
   5 H :    0.064551
   6 H :    0.057142
   7 H :    0.053831
   8 H :    0.044936
   9 H :    0.049259
  10 H :    0.036909
  11 H :    0.008893
  12 H :   -0.008098
  13 H :   -0.000526

  Mayer bond orders larger than 0.100000
B(  0-C ,  1-C ) :   1.2409 B(  0-C , 11-H ) :   0.8593 B(  0-C , 12-H ) :   0.8169
B(  0-C , 13-H ) :   0.8719 B(  1-C ,  2-C ) :   1.1397 B(  1-C ,  9-H ) :   0.9198
B(  1-C , 10-H ) :   0.9158 B(  1-C , 11-H ) :   0.1291 B(  1-C , 12-H ) :   0.1711
B(  1-C , 13-H ) :   0.1442 B(  2-C ,  3-N ) :   1.0845 B(  2-C ,  4-N ) :   1.1349
B(  2-C ,  6-H ) :  -0.1421 B(  2-C ,  8-H ) :  -0.1537 B(  2-C , 10-H ) :   0.1208
B(  3-N ,  4-N ) :   0.1414 B(  3-N ,  7-H ) :   1.0764 B(  3-N ,  8-H ) :   1.2779
B(  4-N ,  5-H ) :   1.0658 B(  4-N ,  6-H ) :   1.2713 B(  5-H ,  6-H ) :  -0.1532
B(  7-H ,  8-H ) :  -0.1630 B( 12-H , 13-H ) :   0.1001

Dispersion correction           -0.003021138
FINAL SINGLE POINT ENERGY      -228.820904746103

DIPOLE MOMENT
-------------
                                X             Y             Z
Electronic contribution:      1.19299       1.65472       3.62944
Nuclear contribution   :     -0.98617      -1.03178      -2.77619
                        -----------------------------------------
Total Dipole Moment    :      0.20683       0.62295       0.85326
                        -----------------------------------------
Magnitude (a.u.)       :      1.07652
Magnitude (Debye)      :      2.73629

Rotational constants in cm-1:     0.257311     0.127495     0.099037
Rotational constants in MHz :  7713.982239  3822.189706  2969.039713

                             ****ORCA TERMINATED NORMALLY****
TOTAL RUN TIME: 0 days 0 hours 0 minutes 9 seconds 113 msec
