                         Program Version 5.0.0 -  RELEASE  -
|  1> !wB97X-D3 RIJCOSX def2-SVPD def2/J TightSCF
|  2> *xyz 0 1
|  3> C         -1.91658       -2.48508       -3.64367
|  4> C         -1.36353       -1.98134       -2.29361
|  5> F         -0.35039       -2.74969       -1.79601
|  6> H         -2.22622       -1.90839       -1.60204
|  7> H         -1.05135       -0.91567       -2.44333
|  8> H         -1.11522       -2.57167       -4.34739
|  9> H         -2.64227       -1.79099       -4.01314
| 10> H         -2.37564       -3.44180       -3.50640
| 11> *
| 12>
| 13> %MaxCore 64000
| 14> %pal nprocs 18
| 15> end
| 16>
| 17> %scf
| 18>   MaxIter 150
| 19> end
| 20>
| 21>
| 22>                          ****END OF INPUT****

CARTESIAN COORDINATES (ANGSTROEM)
---------------------------------
  C     -1.916580   -2.485080   -3.643670
  C     -1.363530   -1.981340   -2.293610
  F     -0.350390   -2.749690   -1.796010
  H     -2.226220   -1.908390   -1.602040
  H     -1.051350   -0.915670   -2.443330
  H     -1.115220   -2.571670   -4.347390
  H     -2.642270   -1.790990   -4.013140
  H     -2.375640   -3.441800   -3.506400

 Total Charge           Charge          ....    0
 Multiplicity           Mult            ....    1
 Number of Electrons    NEL             ....   26
 Basis Dimension        Dim             ....  103

ORBITAL ENERGIES
----------------

  NO   OCC          E(Eh)            E(eV)
   0   2.0000     -24.791895      -674.6218
   1   2.0000     -10.372893      -282.2608
   2   2.0000     -10.287048      -279.9248
   3   2.0000      -1.302603       -35.4456
   4   2.0000      -0.874279       -23.7904
   5   2.0000      -0.738736       -20.1020
   6   2.0000      -0.615296       -16.7431
   7   2.0000      -0.601285       -16.3618
   8   2.0000      -0.564437       -15.3591
   9   2.0000      -0.507379       -13.8065
  10   2.0000      -0.500224       -13.6118
  11   2.0000      -0.434570       -11.8253
  12   2.0000      -0.427048       -11.6206
  13   0.0000       0.093847         2.5537
  14   0.0000       0.124458         3.3867
  15   0.0000       0.155084         4.2201
  16   0.0000       0.159722         4.3462
  17   0.0000       0.186995         5.0884

MULLIKEN ATOMIC CHARGES
-----------------------
   0 C :    0.224057
   1 C :    0.358248
   2 F :   -0.457876
   3 H :   -0.040574
   4 H :   -0.011775
   5 H :   -0.036755
   6 H :   -0.006983
   7 H :   -0.028343
Sum of atomic charges:   -0.0000000

LOEWDIN ATOMIC CHARGES
----------------------
   0 C :    0.130938
   1 C :    0.065555
   2 F :   -0.221121
   3 H :    0.029279
   4 H :    0.035669
   5 H :   -0.013551
   6 H :   -0.012264
   7 H :   -0.014504

  Mayer bond orders larger than 0.100000
B(  0-C ,  1-C ) :   1.3101 B(  0-C ,  5-H ) :   0.9127 B(  0-C ,  6-H ) :   0.8782
B(  0-C ,  7-H ) :   0.9107 B(  1-C ,  2-F ) :   0.7395 B(  1-C ,  3-H ) :   0.9635
B(  1-C ,  4-H ) :   0.9564 B(  1-C ,  5-H ) :   0.1234 B(  1-C ,  6-H ) :   0.1043
B(  1-C ,  7-H ) :   0.1145

Dispersion correction           -0.000873249
FINAL SINGLE POINT ENERGY      -178.887650766431

DIPOLE MOMENT
-------------
                                X             Y             Z
Electronic contribution:      3.59658      -1.34167       3.41506
Nuclear contribution   :     -4.15401       1.70894      -3.75000
                        -----------------------------------------
Total Dipole Moment    :     -0.55744       0.36727      -0.33493
                        -----------------------------------------
Magnitude (a.u.)       :      0.74686
Magnitude (Debye)      :      1.89837

Rotational constants in cm-1:     1.266842     0.300492     0.266603
Rotational constants in MHz : 37978.968232  9008.526876  7992.551454

                             ****ORCA TERMINATED NORMALLY****
TOTAL RUN TIME: 0 days 0 hours 0 minutes 4 seconds 523 msec
