                         Program Version 5.0.0 -  RELEASE  -
|  1> !wB97X-D3 RIJCOSX def2-SVPD def2/J TightSCF
|  2> *xyz 0 1
|  3> C          1.64703       -2.34528       -5.02041
|  4> C          2.20996       -2.81239       -3.66571
|  5> C          2.48901       -1.66851       -2.73754
|  6> C          3.59631       -0.94761       -2.95225
|  7> N          1.66394       -1.41369       -1.77781
|  8> H          0.81164       -1.96318       -1.70275
|  9> H          1.84550       -0.63508       -1.15875
| 10> H          4.20535       -1.17600       -3.73383
| 11> H          3.81723       -0.12585       -2.40604
| 12> H          3.14311       -3.36280       -3.81152
| 13> H          1.48768       -3.45893       -3.16521
| 14> H          1.46566       -3.19589       -5.64368
| 15> H          2.35406       -1.69850       -5.49654
| 16> H          0.73014       -1.81680       -4.86253
| 17> *
| 18>
| 19> %MaxCore 64000
| 20> %pal nprocs 18
| 21> end
| 22>
| 23> %scf
| 24>   MaxIter 150
| 25> end
| 26>
| 27>
| 28>                          ****END OF INPUT****

CARTESIAN COORDINATES (ANGSTROEM)
---------------------------------
  C      1.647030   -2.345280   -5.020410
  C      2.209960   -2.812390   -3.665710
  C      2.489010   -1.668510   -2.737540
  C      3.596310   -0.947610   -2.952250
  N      1.663940   -1.413690   -1.777810
  H      0.811640   -1.963180   -1.702750
  H      1.845500   -0.635080   -1.158750
  H      4.205350   -1.176000   -3.733830
  H      3.817230   -0.125850   -2.406040
  H      3.143110   -3.362800   -3.811520
  H      1.487680   -3.458930   -3.165210
  H      1.465660   -3.195890   -5.643680
  H      2.354060   -1.698500   -5.496540
  H      0.730140   -1.816800   -4.862530

 Total Charge           Charge          ....    0
 Multiplicity           Mult            ....    1
 Number of Electrons    NEL             ....   40
 Basis Dimension        Dim             ....  172

ORBITAL ENERGIES
----------------

  NO   OCC          E(Eh)            E(eV)
   0   2.0000     -14.442946      -393.0125
   1   2.0000     -10.310786      -280.5708
   2   2.0000     -10.290049      -280.0065
   3   2.0000     -10.274617      -279.5866
   4   2.0000     -10.217607      -278.0352
   5   2.0000      -1.049391       -28.5554
   6   2.0000      -0.889608       -24.2075
   7   2.0000      -0.816794       -22.2261
   8   2.0000      -0.745904       -20.2971
   9   2.0000      -0.672835       -18.3088
  10   2.0000      -0.635362       -17.2891
  11   2.0000      -0.582877       -15.8609
  12   2.0000      -0.542950       -14.7744
  13   2.0000      -0.511405       -13.9160
  14   2.0000      -0.493089       -13.4176
  15   2.0000      -0.478784       -13.0284
  16   2.0000      -0.446236       -12.1427
  17   2.0000      -0.432319       -11.7640
  18   2.0000      -0.428547       -11.6613
  19   2.0000      -0.272161        -7.4059
  20   0.0000       0.087984         2.3942
  21   0.0000       0.116575         3.1722
  22   0.0000       0.123717         3.3665
  23   0.0000       0.128166         3.4876
  24   0.0000       0.140736         3.8296

MULLIKEN ATOMIC CHARGES
-----------------------
   0 C :    0.549087
   1 C :   -0.164651
   2 C :   -0.070864
   3 C :    0.473179
   4 N :    0.169668
   5 H :   -0.073368
   6 H :   -0.118787
   7 H :   -0.184104
   8 H :   -0.491541
   9 H :    0.064046
  10 H :   -0.070573
  11 H :    0.018988
  12 H :   -0.049976
  13 H :   -0.051105
Sum of atomic charges:   -0.0000000

LOEWDIN ATOMIC CHARGES
----------------------
   0 C :    0.132606
   1 C :   -0.032287
   2 C :   -0.267904
   3 C :    0.167488
   4 N :    0.161888
   5 H :    0.010768
   6 H :    0.017840
   7 H :   -0.081756
   8 H :   -0.092802
   9 H :    0.028152
  10 H :    0.010524
  11 H :   -0.019662
  12 H :   -0.019081
  13 H :   -0.015774

  Mayer bond orders larger than 0.100000
B(  0-C ,  1-C ) :   1.2514 B(  0-C , 11-H ) :   0.8314 B(  0-C , 12-H ) :   0.8601
B(  0-C , 13-H ) :   0.8626 B(  1-C ,  2-C ) :   1.0995 B(  1-C ,  3-C ) :   0.1653
B(  1-C ,  9-H ) :   0.8636 B(  1-C , 10-H ) :   0.8618 B(  1-C , 11-H ) :   0.1361
B(  1-C , 12-H ) :   0.1806 B(  1-C , 13-H ) :   0.1729 B(  2-C ,  3-C ) :   1.7937
B(  2-C ,  4-N ) :   1.2133 B(  2-C ,  8-H ) :   0.1508 B(  2-C ,  9-H ) :   0.1084
B(  2-C , 10-H ) :   0.1655 B(  3-C ,  4-N ) :   0.2221 B(  3-C ,  7-H ) :   0.8426
B(  3-C ,  8-H ) :   0.8151 B(  4-N ,  5-H ) :   1.0847 B(  4-N ,  6-H ) :   1.2254
B(  5-H ,  6-H ) :  -0.1354

Dispersion correction           -0.003005821
FINAL SINGLE POINT ENERGY      -212.361093964189

DIPOLE MOMENT
-------------
                                X             Y             Z
Electronic contribution:     -0.04831       0.65478       3.01582
Nuclear contribution   :     -0.69146      -0.83112      -2.71336
                        -----------------------------------------
Total Dipole Moment    :     -0.73977      -0.17634       0.30246
                        -----------------------------------------
Magnitude (a.u.)       :      0.81844
Magnitude (Debye)      :      2.08031

Rotational constants in cm-1:     0.270661     0.129240     0.102040
Rotational constants in MHz :  8114.202941  3874.518141  3059.074383

                             ****ORCA TERMINATED NORMALLY****
TOTAL RUN TIME: 0 days 0 hours 0 minutes 9 seconds 263 msec
