                         Program Version 5.0.0 -  RELEASE  -
|  1> !wB97X-D3 RIJCOSX def2-SVPD def2/J TightSCF
|  2> *xyz 0 1
|  3> C          1.64703       -2.34528       -5.02041
|  4> C          2.20996       -2.81239       -3.66571
|  5> C          2.48901       -1.66851       -2.73754
|  6> N          3.59631       -0.94761       -2.95225
|  7> C          1.66394       -1.41369       -1.77781
|  8> H          0.81164       -1.96318       -1.70275
|  9> H          1.84550       -0.63508       -1.15875
| 10> H          4.20535       -1.17600       -3.73383
| 11> H          3.81723       -0.12585       -2.40604
| 12> H          3.14311       -3.36280       -3.81152
| 13> H          1.48768       -3.45893       -3.16521
| 14> H          1.46566       -3.19589       -5.64368
| 15> H          2.35406       -1.69850       -5.49654
| 16> H          0.73014       -1.81680       -4.86253
| 17> *
| 18>
| 19> %MaxCore 64000
| 20> %pal nprocs 18
| 21> end
| 22>
| 23> %scf
| 24>   MaxIter 150
| 25> end
| 26>
| 27>
| 28>                          ****END OF INPUT****

CARTESIAN COORDINATES (ANGSTROEM)
---------------------------------
  C      1.647030   -2.345280   -5.020410
  C      2.209960   -2.812390   -3.665710
  C      2.489010   -1.668510   -2.737540
  N      3.596310   -0.947610   -2.952250
  C      1.663940   -1.413690   -1.777810
  H      0.811640   -1.963180   -1.702750
  H      1.845500   -0.635080   -1.158750
  H      4.205350   -1.176000   -3.733830
  H      3.817230   -0.125850   -2.406040
  H      3.143110   -3.362800   -3.811520
  H      1.487680   -3.458930   -3.165210
  H      1.465660   -3.195890   -5.643680
  H      2.354060   -1.698500   -5.496540
  H      0.730140   -1.816800   -4.862530

 Total Charge           Charge          ....    0
 Multiplicity           Mult            ....    1
 Number of Electrons    NEL             ....   40
 Basis Dimension        Dim             ....  172

ORBITAL ENERGIES
----------------

  NO   OCC          E(Eh)            E(eV)
   0   2.0000     -14.436266      -392.8308
   1   2.0000     -10.307470      -280.4805
   2   2.0000     -10.288405      -279.9617
   3   2.0000     -10.275678      -279.6154
   4   2.0000     -10.221047      -278.1288
   5   2.0000      -1.030681       -28.0463
   6   2.0000      -0.889504       -24.2046
   7   2.0000      -0.831179       -22.6175
   8   2.0000      -0.741068       -20.1655
   9   2.0000      -0.669040       -18.2055
  10   2.0000      -0.623371       -16.9628
  11   2.0000      -0.583015       -15.8646
  12   2.0000      -0.534763       -14.5517
  13   2.0000      -0.523291       -14.2395
  14   2.0000      -0.495667       -13.4878
  15   2.0000      -0.482022       -13.1165
  16   2.0000      -0.446265       -12.1435
  17   2.0000      -0.427833       -11.6419
  18   2.0000      -0.423410       -11.5216
  19   2.0000      -0.284350        -7.7376
  20   0.0000       0.088622         2.4115
  21   0.0000       0.118387         3.2215
  22   0.0000       0.125678         3.4199
  23   0.0000       0.128767         3.5039
  24   0.0000       0.143452         3.9035

MULLIKEN ATOMIC CHARGES
-----------------------
   0 C :    0.579327
   1 C :   -0.210992
   2 C :    0.011830
   3 N :    0.112310
   4 C :    0.338445
   5 H :   -0.130570
   6 H :   -0.369501
   7 H :   -0.105471
   8 H :   -0.172441
   9 H :   -0.050830
  10 H :    0.076242
  11 H :    0.007653
  12 H :   -0.038568
  13 H :   -0.047434
Sum of atomic charges:   -0.0000000

LOEWDIN ATOMIC CHARGES
----------------------
   0 C :    0.130791
   1 C :   -0.033218
   2 C :   -0.267748
   3 N :    0.164576
   4 C :    0.163352
   5 H :   -0.070458
   6 H :   -0.076212
   7 H :    0.000100
   8 H :    0.003824
   9 H :    0.021482
  10 H :    0.020413
  11 H :   -0.019424
  12 H :   -0.024379
  13 H :   -0.013099

  Mayer bond orders larger than 0.100000
B(  0-C ,  1-C ) :   1.2188 B(  0-C , 11-H ) :   0.8401 B(  0-C , 12-H ) :   0.8137
B(  0-C , 13-H ) :   0.8777 B(  1-C ,  2-C ) :   1.1818 B(  1-C ,  4-C ) :   0.1409
B(  1-C ,  9-H ) :   0.8956 B(  1-C , 10-H ) :   0.8699 B(  1-C , 11-H ) :   0.1454
B(  1-C , 12-H ) :   0.1971 B(  1-C , 13-H ) :   0.1581 B(  2-C ,  3-N ) :   1.1440
B(  2-C ,  4-C ) :   1.7797 B(  2-C ,  6-H ) :   0.2271 B(  2-C ,  9-H ) :   0.1471
B(  2-C , 10-H ) :   0.1437 B(  3-N ,  4-C ) :   0.2290 B(  3-N ,  7-H ) :   1.1364
B(  3-N ,  8-H ) :   1.2349 B(  4-C ,  5-H ) :   0.9554 B(  4-C ,  6-H ) :   0.7018
B(  7-H ,  8-H ) :  -0.1423

Dispersion correction           -0.003021473
FINAL SINGLE POINT ENERGY      -212.365300232909

DIPOLE MOMENT
-------------
                                X             Y             Z
Electronic contribution:      1.63490       1.06938       1.99894
Nuclear contribution   :     -1.13902      -0.93906      -2.44135
                        -----------------------------------------
Total Dipole Moment    :      0.49588       0.13032      -0.44241
                        -----------------------------------------
Magnitude (a.u.)       :      0.67721
Magnitude (Debye)      :      1.72133

Rotational constants in cm-1:     0.267243     0.130607     0.102304
Rotational constants in MHz :  8011.748167  3915.504600  3066.999841

                             ****ORCA TERMINATED NORMALLY****
TOTAL RUN TIME: 0 days 0 hours 0 minutes 9 seconds 434 msec
