                         Program Version 5.0.0 -  RELEASE  -
|  1> !BLYP D3BJ RIJCOSX def2-TZVP def2/J TightSCF
|  2> *xyz -1 1
|  3> C         -0.72184       -0.99951       -3.43931
|  4> C          0.28725       -1.71177       -2.52740
|  5> H          1.13178       -2.06738       -3.15940
|  6> H         -0.20414       -2.63733       -2.17048
|  7> O          0.71050       -0.92751       -1.48177
|  8> H         -1.01315       -1.65739       -4.23129
|  9> H         -0.27123       -0.12142       -3.85259
| 10> H         -1.58442       -0.72333       -2.86958
| 11> *
| 12> %MaxCore 64000
| 13>
| 14> %pal nprocs 4
| 15> end
| 16>
| 17> %scf
| 18>   MaxIter 150
| 19> end
| 20>
| 21>
| 22>                          ****END OF INPUT****

CARTESIAN COORDINATES (ANGSTROEM)
---------------------------------
  C     -0.721840   -0.999510   -3.439310
  C      0.287250   -1.711770   -2.527400
  H      1.131780   -2.067380   -3.159400
  H     -0.204140   -2.637330   -2.170480
  O      0.710500   -0.927510   -1.481770
  H     -1.013150   -1.657390   -4.231290
  H     -0.271230   -0.121420   -3.852590
  H     -1.584420   -0.723330   -2.869580

 Total Charge           Charge          ....   -1
 Multiplicity           Mult            ....    1
 Number of Electrons    NEL             ....   26
 Basis Dimension        Dim             ....  123

ORBITAL ENERGIES
----------------

  NO   OCC          E(Eh)            E(eV)
   0   2.0000     -18.426392      -501.4076
   1   2.0000      -9.708232      -264.1744
   2   2.0000      -9.687550      -263.6116
   3   2.0000      -0.577843       -15.7239
   4   2.0000      -0.443140       -12.0585
   5   2.0000      -0.300431        -8.1751
   6   2.0000      -0.191291        -5.2053
   7   2.0000      -0.170606        -4.6424
   8   2.0000      -0.118832        -3.2336
   9   2.0000      -0.102621        -2.7925
  10   2.0000      -0.053382        -1.4526
  11   2.0000       0.085360         2.3228
  12   2.0000       0.089116         2.4250
  13   0.0000       0.197737         5.3807
  14   0.0000       0.232130         6.3166
  15   0.0000       0.255967         6.9652
  16   0.0000       0.259202         7.0532
  17   0.0000       0.292059         7.9473

MULLIKEN ATOMIC CHARGES
-----------------------
   0 C :   -0.018872
   1 C :    0.045599
   2 H :   -0.093554
   3 H :   -0.091473
   4 O :   -0.724800
   5 H :   -0.087907
   6 H :   -0.015965
   7 H :   -0.013029
Sum of atomic charges:   -1.0000000

LOEWDIN ATOMIC CHARGES
----------------------
   0 C :   -0.359676
   1 C :   -0.548327
   2 H :    0.043876
   3 H :    0.045469
   4 O :   -0.397821
   5 H :    0.060398
   6 H :    0.077555
   7 H :    0.078528

  Mayer bond orders larger than 0.100000
B(  0-C ,  1-C ) :   0.8397 B(  0-C ,  4-O ) :  -0.3873 B(  0-C ,  5-H ) :   0.8796
B(  0-C ,  6-H ) :   0.9487 B(  0-C ,  7-H ) :   0.9516 B(  1-C ,  2-H ) :   0.8978
B(  1-C ,  3-H ) :   0.8996 B(  1-C ,  4-O ) :   1.6863 B(  4-O ,  5-H ) :   0.1597
B(  4-O ,  6-H ) :   0.1019

Dispersion correction           -0.007741611
FINAL SINGLE POINT ENERGY      -154.429466659534

DIPOLE MOMENT
-------------
                                X             Y             Z
Electronic contribution:      1.61107       0.87306       2.66425
Nuclear contribution   :     -2.24828      -1.06600      -3.62481
                        -----------------------------------------
Total Dipole Moment    :     -0.63721      -0.19294      -0.96056
                        -----------------------------------------
Magnitude (a.u.)       :      1.16873
Magnitude (Debye)      :      2.97068

Rotational constants in cm-1:     1.278116     0.325414     0.286672
Rotational constants in MHz : 38316.964654  9755.653004  8594.216906

                             ****ORCA TERMINATED NORMALLY****
TOTAL RUN TIME: 0 days 0 hours 0 minutes 7 seconds 526 msec
