                         Program Version 5.0.0 -  RELEASE  -
|  1> !BLYP D3BJ RIJCOSX def2-TZVP def2/J TightSCF
|  2> *xyz 1 1
|  3> C          3.48828        1.60092       -1.52204
|  4> C          4.34297        1.31342       -2.75683
|  5> N          2.81029        0.42878       -1.01420
|  6> H          2.71455        2.33145       -1.76030
|  7> H          4.09099        2.06315       -0.73338
|  8> C          3.29098       -0.41802       -0.12908
|  9> N          2.51754       -1.43202        0.23936
| 10> N          4.53549       -0.28441        0.39580
| 11> H          5.04363        0.57189        0.22290
| 12> H          4.72335       -0.73327        1.28180
| 13> H          1.93479        0.10230       -1.40379
| 14> H          1.67464       -1.50562       -0.31610
| 15> H          2.92850       -2.21850        0.72549
| 16> H          3.73575        0.86277       -3.51385
| 17> H          5.13754        0.64699       -2.49333
| 18> H          4.75374        2.22930       -3.12740
| 19> *
| 20> %MaxCore 64000
| 21>
| 22> %pal nprocs 4
| 23> end
| 24>
| 25> %scf
| 26>   MaxIter 150
| 27> end
| 28>
| 29>
| 30>                          ****END OF INPUT****

CARTESIAN COORDINATES (ANGSTROEM)
---------------------------------
  C      3.488280    1.600920   -1.522040
  C      4.342970    1.313420   -2.756830
  N      2.810290    0.428780   -1.014200
  H      2.714550    2.331450   -1.760300
  H      4.090990    2.063150   -0.733380
  C      3.290980   -0.418020   -0.129080
  N      2.517540   -1.432020    0.239360
  N      4.535490   -0.284410    0.395800
  H      5.043630    0.571890    0.222900
  H      4.723350   -0.733270    1.281800
  H      1.934790    0.102300   -1.403790
  H      1.674640   -1.505620   -0.316100
  H      2.928500   -2.218500    0.725490
  H      3.735750    0.862770   -3.513850
  H      5.137540    0.646990   -2.493330
  H      4.753740    2.229300   -3.127400

 Total Charge           Charge          ....    1
 Multiplicity           Mult            ....    1
 Number of Electrons    NEL             ....   48
 Basis Dimension        Dim             ....  246

ORBITAL ENERGIES
----------------

  NO   OCC          E(Eh)            E(eV)
   0   2.0000     -14.231599      -387.2615
   1   2.0000     -14.226472      -387.1220
   2   2.0000     -14.224582      -387.0706
   3   2.0000     -10.227106      -278.2937
   4   2.0000     -10.113917      -275.2137
   5   2.0000     -10.040453      -273.2146
   6   2.0000      -1.125624       -30.6298
   7   2.0000      -1.021648       -27.8005
   8   2.0000      -1.009295       -27.4643
   9   2.0000      -0.857939       -23.3457
  10   2.0000      -0.772365       -21.0171
  11   2.0000      -0.743798       -20.2398
  12   2.0000      -0.720886       -19.6163
  13   2.0000      -0.688845       -18.7444
  14   2.0000      -0.639624       -17.4050
  15   2.0000      -0.631322       -17.1792
  16   2.0000      -0.602086       -16.3836
  17   2.0000      -0.583323       -15.8730
  18   2.0000      -0.553009       -15.0481
  19   2.0000      -0.513033       -13.9603
  20   2.0000      -0.487170       -13.2566
  21   2.0000      -0.469417       -12.7735
  22   2.0000      -0.432679       -11.7738
  23   2.0000      -0.410338       -11.1659
  24   0.0000      -0.197109        -5.3636
  25   0.0000      -0.181811        -4.9473
  26   0.0000      -0.150030        -4.0825
  27   0.0000      -0.133728        -3.6389
  28   0.0000      -0.110075        -2.9953

MULLIKEN ATOMIC CHARGES
-----------------------
   0 C :   -0.151292
   1 C :   -0.262800
   2 N :   -0.184574
   3 H :    0.152807
   4 H :    0.119766
   5 C :    0.381390
   6 N :   -0.324384
   7 N :   -0.360884
   8 H :    0.256856
   9 H :    0.258875
  10 H :    0.220433
  11 H :    0.244564
  12 H :    0.268576
  13 H :    0.121019
  14 H :    0.113236
  15 H :    0.146410
Sum of atomic charges:    1.0000000

LOEWDIN ATOMIC CHARGES
----------------------
   0 C :   -0.279212
   1 C :   -0.273946
   2 N :    0.189660
   3 H :    0.150075
   4 H :    0.137686
   5 C :   -0.414570
   6 N :    0.075211
   7 N :    0.059635
   8 H :    0.187364
   9 H :    0.192426
  10 H :    0.205957
  11 H :    0.194582
  12 H :    0.196952
  13 H :    0.124311
  14 H :    0.119433
  15 H :    0.134436

  Mayer bond orders larger than 0.100000
B(  0-C ,  1-C ) :   0.9517 B(  0-C ,  2-N ) :   0.8757 B(  0-C ,  3-H ) :   0.9545
B(  0-C ,  4-H ) :   0.9617 B(  1-C , 13-H ) :   0.9661 B(  1-C , 14-H ) :   0.9621
B(  1-C , 15-H ) :   0.9658 B(  2-N ,  5-C ) :   1.3931 B(  2-N , 10-H ) :   0.9066
B(  5-C ,  6-N ) :   1.3237 B(  5-C ,  7-N ) :   1.3019 B(  6-N , 11-H ) :   0.9071
B(  6-N , 12-H ) :   0.8999 B(  7-N ,  8-H ) :   0.9006 B(  7-N ,  9-H ) :   0.9042

Dispersion correction           -0.024961793
FINAL SINGLE POINT ENERGY      -284.403454197083

DIPOLE MOMENT
-------------
                                X             Y             Z
Electronic contribution:     -1.93336      -3.00484       3.73212
Nuclear contribution   :      1.59382       2.33278      -3.02574
                        -----------------------------------------
Total Dipole Moment    :     -0.33954      -0.67207       0.70638
                        -----------------------------------------
Magnitude (a.u.)       :      1.03244
Magnitude (Debye)      :      2.62426

Rotational constants in cm-1:     0.232230     0.073139     0.063030
Rotational constants in MHz :  6962.079716  2192.649203  1889.578947

                             ****ORCA TERMINATED NORMALLY****
TOTAL RUN TIME: 0 days 0 hours 0 minutes 13 seconds 789 msec
