                         Program Version 5.0.0 -  RELEASE  -
|  1> !BLYP D3BJ RIJCOSX def2-TZVP def2/J TightSCF
|  2> *xyz 0 1
|  3> C         -0.72184       -0.99951       -3.43931
|  4> C          0.28725       -1.71177       -2.52740
|  5> H          1.13178       -2.06738       -3.15940
|  6> H         -0.20414       -2.63733       -2.17048
|  7> F          0.71050       -0.92751       -1.48177
|  8> H         -1.01315       -1.65739       -4.23129
|  9> H         -0.27123       -0.12142       -3.85259
| 10> H         -1.58442       -0.72333       -2.86958
| 11> *
| 12> %MaxCore 64000
| 13>
| 14> %pal nprocs 4
| 15> end
| 16>
| 17> %scf
| 18>   MaxIter 150
| 19> end
| 20>
| 21>
| 22>                          ****END OF INPUT****

CARTESIAN COORDINATES (ANGSTROEM)
---------------------------------
  C     -0.721840   -0.999510   -3.439310
  C      0.287250   -1.711770   -2.527400
  H      1.131780   -2.067380   -3.159400
  H     -0.204140   -2.637330   -2.170480
  F      0.710500   -0.927510   -1.481770
  H     -1.013150   -1.657390   -4.231290
  H     -0.271230   -0.121420   -3.852590
  H     -1.584420   -0.723330   -2.869580

 Total Charge           Charge          ....    0
 Multiplicity           Mult            ....    1
 Number of Electrons    NEL             ....   26
 Basis Dimension        Dim             ....  123

ORBITAL ENERGIES
----------------

  NO   OCC          E(Eh)            E(eV)
   0   2.0000     -24.268455      -660.3782
   1   2.0000      -9.980044      -271.5708
   2   2.0000      -9.898775      -269.3594
   3   2.0000      -1.087755       -29.5993
   4   2.0000      -0.686715       -18.6865
   5   2.0000      -0.562738       -15.3129
   6   2.0000      -0.448929       -12.2160
   7   2.0000      -0.434449       -11.8220
   8   2.0000      -0.397058       -10.8045
   9   2.0000      -0.352658        -9.5963
  10   2.0000      -0.350406        -9.5350
  11   2.0000      -0.284343        -7.7374
  12   2.0000      -0.279739        -7.6121
  13   0.0000       0.020520         0.5584
  14   0.0000       0.057705         1.5702
  15   0.0000       0.066290         1.8038
  16   0.0000       0.074621         2.0305
  17   0.0000       0.089131         2.4254

MULLIKEN ATOMIC CHARGES
-----------------------
   0 C :   -0.277175
   1 C :    0.063292
   2 H :    0.074640
   3 H :    0.074122
   4 F :   -0.231081
   5 H :    0.091692
   6 H :    0.101957
   7 H :    0.102554
Sum of atomic charges:    0.0000000

LOEWDIN ATOMIC CHARGES
----------------------
   0 C :   -0.304358
   1 C :   -0.369400
   2 H :    0.112768
   3 H :    0.112405
   4 F :    0.101795
   5 H :    0.119078
   6 H :    0.113707
   7 H :    0.114004

  Mayer bond orders larger than 0.100000
B(  0-C ,  1-C ) :   0.9649 B(  0-C ,  5-H ) :   0.9532 B(  0-C ,  6-H ) :   0.9698
B(  0-C ,  7-H ) :   0.9699 B(  1-C ,  2-H ) :   0.9629 B(  1-C ,  3-H ) :   0.9636
B(  1-C ,  4-F ) :   1.0132

Dispersion correction           -0.007133166
FINAL SINGLE POINT ENERGY      -179.082429389462

DIPOLE MOMENT
-------------
                                X             Y             Z
Electronic contribution:      2.71939       1.07658       4.26424
Nuclear contribution   :     -2.97459      -1.40206      -4.79987
                        -----------------------------------------
Total Dipole Moment    :     -0.25520      -0.32547      -0.53563
                        -----------------------------------------
Magnitude (a.u.)       :      0.67673
Magnitude (Debye)      :      1.72011

Rotational constants in cm-1:     1.257024     0.302702     0.267953
Rotational constants in MHz : 37684.643733  9074.792567  8033.038070

                             ****ORCA TERMINATED NORMALLY****
TOTAL RUN TIME: 0 days 0 hours 0 minutes 7 seconds 21 msec
