                         Program Version 5.0.0 -  RELEASE  -
|  1> !BLYP D3BJ RIJCOSX def2-TZVP def2/J TightSCF
|  2> *xyz 0 1
|  3> C          3.48828        1.60092       -1.52204
|  4> C          4.34297        1.31342       -2.75683
|  5> C          2.81029        0.42878       -1.01420
|  6> H          2.71455        2.33145       -1.76030
|  7> H          4.09099        2.06315       -0.73338
|  8> C          3.29098       -0.41802       -0.12908
|  9> N          2.51754       -1.43202        0.23936
| 10> N          4.53549       -0.28441        0.39580
| 11> H          5.04363        0.57189        0.22290
| 12> H          4.72335       -0.73327        1.28180
| 13> H          1.93479        0.10230       -1.40379
| 14> H          1.67464       -1.50562       -0.31610
| 15> H          2.92850       -2.21850        0.72549
| 16> H          3.73575        0.86277       -3.51385
| 17> H          5.13754        0.64699       -2.49333
| 18> H          4.75374        2.22930       -3.12740
| 19> *
| 20> %MaxCore 64000
| 21>
| 22> %pal nprocs 4
| 23> end
| 24>
| 25> %scf
| 26>   MaxIter 150
| 27> end
| 28>
| 29>
| 30>                          ****END OF INPUT****

CARTESIAN COORDINATES (ANGSTROEM)
---------------------------------
  C      3.488280    1.600920   -1.522040
  C      4.342970    1.313420   -2.756830
  C      2.810290    0.428780   -1.014200
  H      2.714550    2.331450   -1.760300
  H      4.090990    2.063150   -0.733380
  C      3.290980   -0.418020   -0.129080
  N      2.517540   -1.432020    0.239360
  N      4.535490   -0.284410    0.395800
  H      5.043630    0.571890    0.222900
  H      4.723350   -0.733270    1.281800
  H      1.934790    0.102300   -1.403790
  H      1.674640   -1.505620   -0.316100
  H      2.928500   -2.218500    0.725490
  H      3.735750    0.862770   -3.513850
  H      5.137540    0.646990   -2.493330
  H      4.753740    2.229300   -3.127400

 Total Charge           Charge          ....    0
 Multiplicity           Mult            ....    1
 Number of Electrons    NEL             ....   48
 Basis Dimension        Dim             ....  246

ORBITAL ENERGIES
----------------

  NO   OCC          E(Eh)            E(eV)
   0   2.0000     -14.003244      -381.0477
   1   2.0000     -13.998861      -380.9284
   2   2.0000      -9.936853      -270.3955
   3   2.0000      -9.879112      -268.8243
   4   2.0000      -9.867125      -268.4981
   5   2.0000      -9.826159      -267.3834
   6   2.0000      -0.867242       -23.5989
   7   2.0000      -0.786525       -21.4024
   8   2.0000      -0.693117       -18.8607
   9   2.0000      -0.620003       -16.8712
  10   2.0000      -0.546824       -14.8798
  11   2.0000      -0.517894       -14.0926
  12   2.0000      -0.479434       -13.0461
  13   2.0000      -0.452545       -12.3144
  14   2.0000      -0.414452       -11.2778
  15   2.0000      -0.386127       -10.5070
  16   2.0000      -0.365149        -9.9362
  17   2.0000      -0.342748        -9.3267
  18   2.0000      -0.330979        -9.0064
  19   2.0000      -0.304099        -8.2749
  20   2.0000      -0.286303        -7.7907
  21   2.0000      -0.275871        -7.5068
  22   2.0000      -0.216726        -5.8974
  23   2.0000      -0.126200        -3.4341
  24   0.0000      -0.001325        -0.0361
  25   0.0000       0.028320         0.7706
  26   0.0000       0.037563         1.0221
  27   0.0000       0.053806         1.4641
  28   0.0000       0.065187         1.7738

MULLIKEN ATOMIC CHARGES
-----------------------
   0 C :   -0.196167
   1 C :   -0.243005
   2 C :   -0.230821
   3 H :    0.069337
   4 H :    0.042924
   5 C :    0.307622
   6 N :   -0.405852
   7 N :   -0.434249
   8 H :    0.211387
   9 H :    0.189295
  10 H :    0.045436
  11 H :    0.209226
  12 H :    0.193327
  13 H :    0.080434
  14 H :    0.084591
  15 H :    0.076514
Sum of atomic charges:   -0.0000000

LOEWDIN ATOMIC CHARGES
----------------------
   0 C :   -0.301983
   1 C :   -0.295857
   2 C :   -0.271480
   3 H :    0.135662
   4 H :    0.123193
   5 C :   -0.456250
   6 N :   -0.008667
   7 N :   -0.019672
   8 H :    0.165763
   9 H :    0.153988
  10 H :    0.117881
  11 H :    0.177006
  12 H :    0.156660
  13 H :    0.110518
  14 H :    0.109177
  15 H :    0.104062

  Mayer bond orders larger than 0.100000
B(  0-C ,  1-C ) :   0.9386 B(  0-C ,  2-C ) :   1.0387 B(  0-C ,  3-H ) :   0.9708
B(  0-C ,  4-H ) :   0.9642 B(  1-C , 13-H ) :   0.9793 B(  1-C , 14-H ) :   0.9768
B(  1-C , 15-H ) :   0.9685 B(  2-C ,  5-C ) :   1.6417 B(  2-C , 10-H ) :   0.9669
B(  5-C ,  6-N ) :   1.1538 B(  5-C ,  7-N ) :   1.1387 B(  6-N , 11-H ) :   0.9237
B(  6-N , 12-H ) :   0.9274 B(  7-N ,  8-H ) :   0.9270 B(  7-N ,  9-H ) :   0.9278

Dispersion correction           -0.026086621
FINAL SINGLE POINT ENERGY      -267.910852555045

DIPOLE MOMENT
-------------
                                X             Y             Z
Electronic contribution:     -1.27925      -2.98638       3.70920
Nuclear contribution   :      1.44676       2.38443      -3.07370
                        -----------------------------------------
Total Dipole Moment    :      0.16751      -0.60195       0.63550
                        -----------------------------------------
Magnitude (a.u.)       :      0.89121
Magnitude (Debye)      :      2.26529

Rotational constants in cm-1:     0.235977     0.073199     0.063283
Rotational constants in MHz :  7074.404583  2194.453291  1897.179599

                             ****ORCA TERMINATED NORMALLY****
TOTAL RUN TIME: 0 days 0 hours 0 minutes 15 seconds 336 msec
