                         Program Version 5.0.0 -  RELEASE  -
|  1> !BLYP D3BJ RIJCOSX def2-TZVP def2/J TightSCF
|  2> *xyz 0 1
|  3> C          3.48828        1.60092       -1.52204
|  4> C          4.34297        1.31342       -2.75683
|  5> N          2.81029        0.42878       -1.01420
|  6> H          2.71455        2.33145       -1.76030
|  7> H          4.09099        2.06315       -0.73338
|  8> C          3.29098       -0.41802       -0.12908
|  9> C          2.51754       -1.43202        0.23936
| 10> N          4.53549       -0.28441        0.39580
| 11> H          5.04363        0.57189        0.22290
| 12> H          4.72335       -0.73327        1.28180
| 13> H          1.93479        0.10230       -1.40379
| 14> H          1.67464       -1.50562       -0.31610
| 15> H          2.92850       -2.21850        0.72549
| 16> H          3.73575        0.86277       -3.51385
| 17> H          5.13754        0.64699       -2.49333
| 18> H          4.75374        2.22930       -3.12740
| 19> *
| 20> %MaxCore 64000
| 21>
| 22> %pal nprocs 4
| 23> end
| 24>
| 25> %scf
| 26>   MaxIter 150
| 27> end
| 28>
| 29>
| 30>                          ****END OF INPUT****

CARTESIAN COORDINATES (ANGSTROEM)
---------------------------------
  C      3.488280    1.600920   -1.522040
  C      4.342970    1.313420   -2.756830
  N      2.810290    0.428780   -1.014200
  H      2.714550    2.331450   -1.760300
  H      4.090990    2.063150   -0.733380
  C      3.290980   -0.418020   -0.129080
  C      2.517540   -1.432020    0.239360
  N      4.535490   -0.284410    0.395800
  H      5.043630    0.571890    0.222900
  H      4.723350   -0.733270    1.281800
  H      1.934790    0.102300   -1.403790
  H      1.674640   -1.505620   -0.316100
  H      2.928500   -2.218500    0.725490
  H      3.735750    0.862770   -3.513850
  H      5.137540    0.646990   -2.493330
  H      4.753740    2.229300   -3.127400

 Total Charge           Charge          ....    0
 Multiplicity           Mult            ....    1
 Number of Electrons    NEL             ....   48
 Basis Dimension        Dim             ....  246

ORBITAL ENERGIES
----------------

  NO   OCC          E(Eh)            E(eV)
   0   2.0000     -14.005279      -381.1030
   1   2.0000     -14.003236      -381.0474
   2   2.0000      -9.945743      -270.6374
   3   2.0000      -9.940630      -270.4983
   4   2.0000      -9.894094      -269.2320
   5   2.0000      -9.812676      -267.0165
   6   2.0000      -0.878126       -23.8950
   7   2.0000      -0.798929       -21.7400
   8   2.0000      -0.697432       -18.9781
   9   2.0000      -0.626947       -17.0601
  10   2.0000      -0.562413       -15.3040
  11   2.0000      -0.536252       -14.5922
  12   2.0000      -0.478347       -13.0165
  13   2.0000      -0.444148       -12.0859
  14   2.0000      -0.426632       -11.6092
  15   2.0000      -0.390340       -10.6217
  16   2.0000      -0.377518       -10.2728
  17   2.0000      -0.353961        -9.6318
  18   2.0000      -0.329477        -8.9655
  19   2.0000      -0.326074        -8.8729
  20   2.0000      -0.315975        -8.5981
  21   2.0000      -0.309122        -8.4116
  22   2.0000      -0.211834        -5.7643
  23   2.0000      -0.125205        -3.4070
  24   0.0000      -0.001176        -0.0320
  25   0.0000       0.024201         0.6586
  26   0.0000       0.033367         0.9080
  27   0.0000       0.054684         1.4880
  28   0.0000       0.059007         1.6057

MULLIKEN ATOMIC CHARGES
-----------------------
   0 C :   -0.123198
   1 C :   -0.227065
   2 N :   -0.239493
   3 H :    0.094929
   4 H :    0.079440
   5 C :    0.348573
   6 C :   -0.462824
   7 N :   -0.434065
   8 H :    0.193665
   9 H :    0.218425
  10 H :    0.189101
  11 H :    0.029096
  12 H :    0.066246
  13 H :    0.086330
  14 H :    0.095982
  15 H :    0.084858
Sum of atomic charges:    0.0000000

LOEWDIN ATOMIC CHARGES
----------------------
   0 C :   -0.312715
   1 C :   -0.298953
   2 N :    0.137885
   3 H :    0.128414
   4 H :    0.123223
   5 C :   -0.460147
   6 C :   -0.344343
   7 N :   -0.015626
   8 H :    0.152441
   9 H :    0.171577
  10 H :    0.192892
  11 H :    0.094939
  12 H :    0.093712
  13 H :    0.112241
  14 H :    0.112872
  15 H :    0.111588

  Mayer bond orders larger than 0.100000
B(  0-C ,  1-C ) :   0.9327 B(  0-C ,  2-N ) :   0.9634 B(  0-C ,  3-H ) :   0.9708
B(  0-C ,  4-H ) :   0.9671 B(  1-C , 13-H ) :   0.9715 B(  1-C , 14-H ) :   0.9717
B(  1-C , 15-H ) :   0.9628 B(  2-N ,  5-C ) :   1.1994 B(  2-N , 10-H ) :   0.9242
B(  5-C ,  6-C ) :   1.6134 B(  5-C ,  7-N ) :   1.1347 B(  6-C , 11-H ) :   1.0019
B(  6-C , 12-H ) :   1.0059 B(  7-N ,  8-H ) :   0.9295 B(  7-N ,  9-H ) :   0.9280

Dispersion correction           -0.025780311
FINAL SINGLE POINT ENERGY      -267.900077330646

DIPOLE MOMENT
-------------
                                X             Y             Z
Electronic contribution:     -0.87039      -1.06252       2.44581
Nuclear contribution   :      1.38466       1.98967      -2.80776
                        -----------------------------------------
Total Dipole Moment    :      0.51426       0.92715      -0.36195
                        -----------------------------------------
Magnitude (a.u.)       :      1.12031
Magnitude (Debye)      :      2.84759

Rotational constants in cm-1:     0.235618     0.075969     0.065309
Rotational constants in MHz :  7063.646698  2277.495424  1957.925383

                             ****ORCA TERMINATED NORMALLY****
TOTAL RUN TIME: 0 days 0 hours 0 minutes 13 seconds 626 msec
