                         Program Version 5.0.0 -  RELEASE  -
|  1> !BLYP D3BJ RIJCOSX def2-TZVP def2/J TightSCF
|  2> *xyz 0 1
|  3> C          3.48828        1.60092       -1.52204
|  4> C          4.34297        1.31342       -2.75683
|  5> N          2.81029        0.42878       -1.01420
|  6> H          2.71455        2.33145       -1.76030
|  7> H          4.09099        2.06315       -0.73338
|  8> C          3.29098       -0.41802       -0.12908
|  9> N          2.51754       -1.43202        0.23936
| 10> C          4.53549       -0.28441        0.39580
| 11> H          5.04363        0.57189        0.22290
| 12> H          4.72335       -0.73327        1.28180
| 13> H          1.93479        0.10230       -1.40379
| 14> H          1.67464       -1.50562       -0.31610
| 15> H          2.92850       -2.21850        0.72549
| 16> H          3.73575        0.86277       -3.51385
| 17> H          5.13754        0.64699       -2.49333
| 18> H          4.75374        2.22930       -3.12740
| 19> *
| 20> %MaxCore 64000
| 21>
| 22> %pal nprocs 4
| 23> end
| 24>
| 25> %scf
| 26>   MaxIter 150
| 27> end
| 28>
| 29>
| 30>                          ****END OF INPUT****

CARTESIAN COORDINATES (ANGSTROEM)
---------------------------------
  C      3.488280    1.600920   -1.522040
  C      4.342970    1.313420   -2.756830
  N      2.810290    0.428780   -1.014200
  H      2.714550    2.331450   -1.760300
  H      4.090990    2.063150   -0.733380
  C      3.290980   -0.418020   -0.129080
  N      2.517540   -1.432020    0.239360
  C      4.535490   -0.284410    0.395800
  H      5.043630    0.571890    0.222900
  H      4.723350   -0.733270    1.281800
  H      1.934790    0.102300   -1.403790
  H      1.674640   -1.505620   -0.316100
  H      2.928500   -2.218500    0.725490
  H      3.735750    0.862770   -3.513850
  H      5.137540    0.646990   -2.493330
  H      4.753740    2.229300   -3.127400

 Total Charge           Charge          ....    0
 Multiplicity           Mult            ....    1
 Number of Electrons    NEL             ....   48
 Basis Dimension        Dim             ....  246

ORBITAL ENERGIES
----------------

  NO   OCC          E(Eh)            E(eV)
   0   2.0000     -14.010218      -381.2374
   1   2.0000     -14.004832      -381.0908
   2   2.0000      -9.942637      -270.5529
   3   2.0000      -9.937886      -270.4236
   4   2.0000      -9.886240      -269.0183
   5   2.0000      -9.813150      -267.0294
   6   2.0000      -0.886406       -24.1203
   7   2.0000      -0.803472       -21.8636
   8   2.0000      -0.679152       -18.4807
   9   2.0000      -0.629439       -17.1279
  10   2.0000      -0.576477       -15.6867
  11   2.0000      -0.502300       -13.6683
  12   2.0000      -0.484633       -13.1875
  13   2.0000      -0.472090       -12.8462
  14   2.0000      -0.416148       -11.3240
  15   2.0000      -0.388723       -10.5777
  16   2.0000      -0.372164       -10.1271
  17   2.0000      -0.344569        -9.3762
  18   2.0000      -0.331537        -9.0216
  19   2.0000      -0.319415        -8.6917
  20   2.0000      -0.310062        -8.4372
  21   2.0000      -0.302747        -8.2382
  22   2.0000      -0.206523        -5.6198
  23   2.0000      -0.127862        -3.4793
  24   0.0000      -0.007893        -0.2148
  25   0.0000       0.028348         0.7714
  26   0.0000       0.037622         1.0238
  27   0.0000       0.052964         1.4412
  28   0.0000       0.069843         1.9005

MULLIKEN ATOMIC CHARGES
-----------------------
   0 C :   -0.074008
   1 C :   -0.260808
   2 N :   -0.249065
   3 H :    0.087851
   4 H :    0.098830
   5 C :    0.319308
   6 N :   -0.394753
   7 C :   -0.488619
   8 H :    0.054175
   9 H :    0.063432
  10 H :    0.152589
  11 H :    0.177007
  12 H :    0.226144
  13 H :    0.074562
  14 H :    0.124540
  15 H :    0.088814
Sum of atomic charges:   -0.0000000

LOEWDIN ATOMIC CHARGES
----------------------
   0 C :   -0.295052
   1 C :   -0.296923
   2 N :    0.135397
   3 H :    0.125952
   4 H :    0.134065
   5 C :   -0.472208
   6 N :   -0.000863
   7 C :   -0.361380
   8 H :    0.091419
   9 H :    0.091948
  10 H :    0.172201
  11 H :    0.157473
  12 H :    0.176110
  13 H :    0.108772
  14 H :    0.119961
  15 H :    0.113128

  Mayer bond orders larger than 0.100000
B(  0-C ,  1-C ) :   0.9439 B(  0-C ,  2-N ) :   0.9390 B(  0-C ,  3-H ) :   0.9717
B(  0-C ,  4-H ) :   0.9563 B(  1-C , 13-H ) :   0.9713 B(  1-C , 14-H ) :   0.9750
B(  1-C , 15-H ) :   0.9668 B(  2-N ,  5-C ) :   1.1925 B(  2-N , 10-H ) :   0.9293
B(  5-C ,  6-N ) :   1.1535 B(  5-C ,  7-C ) :   1.6071 B(  6-N , 11-H ) :   0.9317
B(  6-N , 12-H ) :   0.9237 B(  7-C ,  8-H ) :   1.0103 B(  7-C ,  9-H ) :   0.9929

Dispersion correction           -0.025967825
FINAL SINGLE POINT ENERGY      -267.899913872683

DIPOLE MOMENT
-------------
                                X             Y             Z
Electronic contribution:     -2.86842      -2.32774       2.19369
Nuclear contribution   :      1.81275       2.23313      -2.77458
                        -----------------------------------------
Total Dipole Moment    :     -1.05567      -0.09461      -0.58089
                        -----------------------------------------
Magnitude (a.u.)       :      1.20864
Magnitude (Debye)      :      3.07212

Rotational constants in cm-1:     0.245202     0.073668     0.064348
Rotational constants in MHz :  7350.977980  2208.513334  1929.108541

                             ****ORCA TERMINATED NORMALLY****
TOTAL RUN TIME: 0 days 0 hours 0 minutes 14 seconds 412 msec
