                         Program Version 5.0.0 -  RELEASE  -
|  1> !BLYP D3BJ RIJCOSX def2-TZVP def2/J TightSCF xyzfile
|  2>
|  3> *xyzfile 0 1 D1.xyz
|  4>
|  5> %MaxCore 64000
|  6>
|  7> %pal nprocs 18
|  8> end
|  9>
| 10> %scf
| 11>   MaxIter 150
| 12> end
| 13>
| 14>
| 15>                          ****END OF INPUT****

CARTESIAN COORDINATES (ANGSTROEM)
---------------------------------
  C      3.488276    1.600919   -1.522040
  C      4.342970    1.313419   -2.756826
  C      2.810285    0.428783   -1.014196
  H      5.132033    0.604994   -2.484466
  C      3.535896    0.749253   -3.924604
  H      4.841247    2.242136   -3.054083
  H      2.991617   -0.132199   -3.574137
  H      4.225505    0.392784   -4.695962
  C      2.564776    1.750890   -4.544523
  H      1.918749    2.171679   -3.769419
  C      1.686235    1.161657   -5.650111
  H      3.132494    2.594775   -4.951604
  C      0.839616   -0.037582   -5.220473
  H      2.323886    0.866395   -6.490796
  H      1.029518    1.951850   -6.029329
  C     -0.151019    0.254955   -4.094256
  H      1.499442   -0.857141   -4.922958
  H      0.290097   -0.410143   -6.091131
  H      0.328265    0.833022   -3.299125
  C     -0.721843   -0.999513   -3.439309
  H     -0.957367    0.884951   -4.485450
  H     -1.083403   -1.697555   -4.205656
  H     -1.581056   -0.723848   -2.820490
  C      0.287250   -1.711771   -2.527405
  H      1.131780   -2.067380   -3.159396
  H     -0.204137   -2.637326   -2.170480
  F      0.710505   -0.927506   -1.481767
  H      2.714548    2.331455   -1.760302
  H      4.090991    2.063151   -0.733382
  C      3.290978   -0.418021   -0.129083
  N      2.517536   -1.432017    0.239360
  N      4.535490   -0.284410    0.395800
  H      5.043627    0.571888    0.222899
  H      4.723346   -0.733273    1.281800
  H      1.934787    0.102305   -1.403788
  H      1.674638   -1.505616   -0.316095
  H      2.928503   -2.218502    0.725494

 Total Charge           Charge          ....    0
 Multiplicity           Mult            ....    1
 Number of Electrons    NEL             ....  112
 Basis Dimension        Dim             ....  572

ORBITAL ENERGIES
----------------

  NO   OCC          E(Eh)            E(eV)
   0   2.0000     -24.299941      -661.2350
   1   2.0000     -13.989006      -380.6602
   2   2.0000     -13.973325      -380.2335
   3   2.0000      -9.990642      -271.8592
   4   2.0000      -9.919985      -269.9365
   5   2.0000      -9.914431      -269.7854
   6   2.0000      -9.899469      -269.3783
   7   2.0000      -9.895299      -269.2648
   8   2.0000      -9.890735      -269.1406
   9   2.0000      -9.882849      -268.9260
  10   2.0000      -9.877154      -268.7710
  11   2.0000      -9.871937      -268.6291
  12   2.0000      -9.865790      -268.4618
  13   2.0000      -9.799955      -266.6703
  14   2.0000      -1.127554       -30.6823
  15   2.0000      -0.849889       -23.1266
  16   2.0000      -0.770001       -20.9528
  17   2.0000      -0.736006       -20.0277
  18   2.0000      -0.712002       -19.3745
  19   2.0000      -0.684669       -18.6308
  20   2.0000      -0.653657       -17.7869
  21   2.0000      -0.618054       -16.8181
  22   2.0000      -0.594613       -16.1802
  23   2.0000      -0.563527       -15.3344
  24   2.0000      -0.537206       -14.6181
  25   2.0000      -0.524447       -14.2709
  26   2.0000      -0.501220       -13.6389
  27   2.0000      -0.485422       -13.2090
  28   2.0000      -0.472946       -12.8695
  29   2.0000      -0.461583       -12.5603
  30   2.0000      -0.455476       -12.3941
  31   2.0000      -0.436024       -11.8648
  32   2.0000      -0.429724       -11.6934
  33   2.0000      -0.407746       -11.0953
  34   2.0000      -0.401155       -10.9160
  35   2.0000      -0.390156       -10.6167
  36   2.0000      -0.383680       -10.4405
  37   2.0000      -0.370215       -10.0741
  38   2.0000      -0.361425        -9.8349
  39   2.0000      -0.351239        -9.5577
  40   2.0000      -0.343943        -9.3592
  41   2.0000      -0.325082        -8.8459
  42   2.0000      -0.323411        -8.8005
  43   2.0000      -0.314528        -8.5588
  44   2.0000      -0.311229        -8.4690
  45   2.0000      -0.310919        -8.4605
  46   2.0000      -0.291150        -7.9226
  47   2.0000      -0.284118        -7.7313
  48   2.0000      -0.275811        -7.5052
  49   2.0000      -0.274053        -7.4574
  50   2.0000      -0.271265        -7.3815
  51   2.0000      -0.257931        -7.0187
  52   2.0000      -0.251316        -6.8387
  53   2.0000      -0.245060        -6.6684
  54   2.0000      -0.200395        -5.4530
  55   2.0000      -0.110141        -2.9971
  56   0.0000       0.007790         0.2120
  57   0.0000       0.015750         0.4286
  58   0.0000       0.025374         0.6905
  59   0.0000       0.031674         0.8619
  60   0.0000       0.039703         1.0804

MULLIKEN ATOMIC CHARGES
-----------------------
   0 C :   -0.259928
   1 C :   -0.021013
   2 C :   -0.350761
   3 H :    0.060142
   4 C :   -0.158819
   5 H :    0.039617
   6 H :    0.083470
   7 H :    0.057754
   8 C :   -0.198213
   9 H :    0.087245
  10 C :   -0.076176
  11 H :    0.066638
  12 C :   -0.205777
  13 H :    0.068200
  14 H :    0.065810
  15 C :   -0.156040
  16 H :    0.086756
  17 H :    0.073630
  18 H :    0.102279
  19 C :   -0.105091
  20 H :    0.076712
  21 H :    0.076157
  22 H :    0.085889
  23 C :   -0.005123
  24 H :    0.091621
  25 H :    0.099531
  26 F :   -0.222341
  27 H :    0.073562
  28 H :    0.047093
  29 C :    0.284925
  30 N :   -0.429359
  31 N :   -0.434832
  32 H :    0.207321
  33 H :    0.183381
  34 H :    0.195930
  35 H :    0.229402
  36 H :    0.180405
Sum of atomic charges:   -0.0000000

LOEWDIN ATOMIC CHARGES
----------------------
   0 C :   -0.283269
   1 C :   -0.256357
   2 C :   -0.278008
   3 H :    0.129354
   4 C :   -0.261044
   5 H :    0.122848
   6 H :    0.130966
   7 H :    0.128601
   8 C :   -0.262328
   9 H :    0.129181
  10 C :   -0.261011
  11 H :    0.131711
  12 C :   -0.264620
  13 H :    0.132002
  14 H :    0.131374
  15 C :   -0.261367
  16 H :    0.128571
  17 H :    0.130838
  18 H :    0.139452
  19 C :   -0.266004
  20 H :    0.133588
  21 H :    0.140728
  22 H :    0.136162
  23 C :   -0.346938
  24 H :    0.121182
  25 H :    0.121806
  26 F :    0.163248
  27 H :    0.134174
  28 H :    0.123921
  29 C :   -0.459551
  30 N :   -0.017800
  31 N :   -0.024835
  32 H :    0.163384
  33 H :    0.150525
  34 H :    0.114598
  35 H :    0.155086
  36 H :    0.149832

  Mayer bond orders larger than 0.100000
B(  0-C ,  1-C ) :   0.9349 B(  0-C ,  2-C ) :   0.9882 B(  0-C , 27-H ) :   0.9975
B(  0-C , 28-H ) :   0.9690 B(  1-C ,  3-H ) :   0.9522 B(  1-C ,  4-C ) :   0.9861
B(  1-C ,  5-H ) :   0.9513 B(  2-C , 29-C ) :   1.6140 B(  2-C , 34-H ) :   0.9486
B(  4-C ,  6-H ) :   0.9660 B(  4-C ,  7-H ) :   0.9579 B(  4-C ,  8-C ) :   0.9627
B(  8-C ,  9-H ) :   0.9810 B(  8-C , 10-C ) :   0.9683 B(  8-C , 11-H ) :   0.9567
B( 10-C , 12-C ) :   0.9682 B( 10-C , 13-H ) :   0.9578 B( 10-C , 14-H ) :   0.9624
B( 12-C , 15-C ) :   0.9589 B( 12-C , 16-H ) :   0.9771 B( 12-C , 17-H ) :   0.9548
B( 15-C , 18-H ) :   0.9739 B( 15-C , 19-C ) :   0.9640 B( 15-C , 20-H ) :   0.9578
B( 19-C , 21-H ) :   0.9443 B( 19-C , 22-H ) :   0.9588 B( 19-C , 23-C ) :   0.9886
B( 23-C , 24-H ) :   0.9689 B( 23-C , 25-H ) :   0.9540 B( 23-C , 26-F ) :   0.9115
B( 29-C , 30-N ) :   1.1909 B( 29-C , 31-N ) :   1.1283 B( 30-N , 35-H ) :   0.8884
B( 30-N , 36-H ) :   0.9310 B( 31-N , 32-H ) :   0.9271 B( 31-N , 33-H ) :   0.9286

Dispersion correction           -0.079902114
FINAL SINGLE POINT ENERGY      -642.311242122695

DIPOLE MOMENT
-------------
                                X             Y             Z
Electronic contribution:     -1.57434      -4.89706      10.81328
Nuclear contribution   :      1.15699       3.94991     -10.89335
                        -----------------------------------------
Total Dipole Moment    :     -0.41735      -0.94715      -0.08008
                        -----------------------------------------
Magnitude (a.u.)       :      1.03812
Magnitude (Debye)      :      2.63868

Rotational constants in cm-1:     0.026548     0.016177     0.010851
Rotational constants in MHz :   795.884848   484.988695   325.313537

                             ****ORCA TERMINATED NORMALLY****
TOTAL RUN TIME: 0 days 0 hours 0 minutes 25 seconds 994 msec
