                         Program Version 5.0.0 -  RELEASE  -
|  1> !wB97X-D3 RIJCOSX def2-SVPD def2/J TightSCF
|  2> *xyz 0 1
|  3> C          3.91385       -1.65829        3.01513
|  4> N          5.03927       -0.90115        2.49282
|  5> C          6.21038       -1.41726        2.17824
|  6> C          6.53591       -2.67712        2.55608
|  7> N          7.07675       -0.70082        1.47891
|  8> H          7.95464       -1.12155        1.20755
|  9> H          6.75616        0.10664        0.96028
| 10> H          4.84217        0.01761        2.11519
| 11> H          5.99388       -3.12692        3.28278
| 12> H          7.49844       -2.97548        2.46878
| 13> C          3.13916       -2.37657        1.91061
| 14> H          3.26723       -0.93940        3.52069
| 15> H          4.24720       -2.35509        3.79006
| 16> C          2.39995       -1.38958        1.00949
| 17> H          2.44075       -3.08712        2.36298
| 18> H          3.84448       -2.97046        1.31868
| 19> H          1.87065       -1.92698        0.25058
| 20> H          3.10498       -0.72749        0.55181
| 21> H          1.70633       -0.82279        1.59477
| 22> *
| 23> %MaxCore 64000
| 24> %pal nprocs 8
| 25> end
| 26> %scf
| 27>   MaxIter 150
| 28> end
| 29>
| 30>
| 31>                          ****END OF INPUT****

CARTESIAN COORDINATES (ANGSTROEM)
---------------------------------
  C      3.913850   -1.658290    3.015130
  N      5.039270   -0.901150    2.492820
  C      6.210380   -1.417260    2.178240
  C      6.535910   -2.677120    2.556080
  N      7.076750   -0.700820    1.478910
  H      7.954640   -1.121550    1.207550
  H      6.756160    0.106640    0.960280
  H      4.842170    0.017610    2.115190
  H      5.993880   -3.126920    3.282780
  H      7.498440   -2.975480    2.468780
  C      3.139160   -2.376570    1.910610
  H      3.267230   -0.939400    3.520690
  H      4.247200   -2.355090    3.790060
  C      2.399950   -1.389580    1.009490
  H      2.440750   -3.087120    2.362980
  H      3.844480   -2.970460    1.318680
  H      1.870650   -1.926980    0.250580
  H      3.104980   -0.727490    0.551810
  H      1.706330   -0.822790    1.594770

 Total Charge           Charge          ....    0
 Multiplicity           Mult            ....    1
 Number of Electrons    NEL             ....   56
 Basis Dimension        Dim             ....  236

ORBITAL ENERGIES
----------------

  NO   OCC          E(Eh)            E(eV)
   0   2.0000     -14.442496      -393.0003
   1   2.0000     -14.440476      -392.9453
   2   2.0000     -10.340773      -281.3867
   3   2.0000     -10.321000      -280.8487
   4   2.0000     -10.281795      -279.7819
   5   2.0000     -10.274733      -279.5897
   6   2.0000     -10.199993      -277.5559
   7   2.0000      -1.085161       -29.5287
   8   2.0000      -0.999500       -27.1978
   9   2.0000      -0.890192       -24.2234
  10   2.0000      -0.818435       -22.2708
  11   2.0000      -0.798714       -21.7341
  12   2.0000      -0.714726       -19.4487
  13   2.0000      -0.661690       -18.0055
  14   2.0000      -0.656818       -17.8729
  15   2.0000      -0.624302       -16.9881
  16   2.0000      -0.577241       -15.7075
  17   2.0000      -0.552144       -15.0246
  18   2.0000      -0.532435       -14.4883
  19   2.0000      -0.505795       -13.7634
  20   2.0000      -0.499266       -13.5857
  21   2.0000      -0.479739       -13.0544
  22   2.0000      -0.465632       -12.6705
  23   2.0000      -0.445649       -12.1267
  24   2.0000      -0.434365       -11.8197
  25   2.0000      -0.430516       -11.7149
  26   2.0000      -0.346213        -9.4209
  27   2.0000      -0.252260        -6.8643
  28   0.0000       0.082575         2.2470
  29   0.0000       0.108568         2.9543
  30   0.0000       0.114041         3.1032
  31   0.0000       0.120508         3.2792
  32   0.0000       0.139744         3.8026

MULLIKEN ATOMIC CHARGES
-----------------------
   0 C :    0.674810
   1 N :   -0.484256
   2 C :    0.705629
   3 C :    0.494292
   4 N :   -0.057002
   5 H :   -0.007918
   6 H :   -0.143116
   7 H :   -0.317327
   8 H :   -0.133496
   9 H :   -0.560385
  10 C :   -0.278549
  11 H :   -0.307168
  12 H :    0.028750
  13 C :    0.643357
  14 H :   -0.115707
  15 H :   -0.015278
  16 H :   -0.051188
  17 H :   -0.097485
  18 H :    0.022037
Sum of atomic charges:    0.0000000

LOEWDIN ATOMIC CHARGES
----------------------
   0 C :    0.051822
   1 N :   -0.022013
   2 C :   -0.231135
   3 C :    0.152456
   4 N :    0.176401
   5 H :    0.011537
   6 H :   -0.003527
   7 H :    0.023308
   8 H :   -0.118291
   9 H :   -0.104850
  10 C :   -0.061212
  11 H :    0.022548
  12 H :    0.015137
  13 C :    0.112621
  14 H :    0.020813
  15 H :    0.018121
  16 H :   -0.017479
  17 H :   -0.027911
  18 H :   -0.018346

  Mayer bond orders larger than 0.100000
B(  0-C ,  1-N ) :   0.8654 B(  0-C ,  7-H ) :  -0.1680 B(  0-C , 10-C ) :   1.0827
B(  0-C , 11-H ) :   0.8397 B(  0-C , 12-H ) :   0.8953 B(  0-C , 15-H ) :   0.1320
B(  1-N ,  2-C ) :   0.8995 B(  1-N ,  3-C ) :   0.3265 B(  1-N ,  4-N ) :   0.1788
B(  1-N ,  7-H ) :   1.3596 B(  1-N , 11-H ) :   0.2121 B(  2-C ,  3-C ) :   1.7558
B(  2-C ,  4-N ) :   0.8404 B(  2-C ,  7-H ) :  -0.2811 B(  2-C ,  8-H ) :   0.2872
B(  2-C ,  9-H ) :   0.2167 B(  3-C ,  4-N ) :   0.2047 B(  3-C ,  8-H ) :   0.6523
B(  3-C ,  9-H ) :   0.7817 B(  4-N ,  5-H ) :   1.1083 B(  4-N ,  6-H ) :   1.1978
B(  5-H ,  6-H ) :  -0.1515 B(  8-H , 12-H ) :   0.1196 B( 10-C , 13-C ) :   1.2384
B( 10-C , 14-H ) :   1.0248 B( 10-C , 15-H ) :   0.9559 B( 10-C , 16-H ) :   0.2018
B( 10-C , 17-H ) :   0.1759 B( 10-C , 18-H ) :   0.1693 B( 11-H , 12-H ) :  -0.1422
B( 13-C , 16-H ) :   0.8235 B( 13-C , 17-H ) :   0.8550 B( 13-C , 18-H ) :   0.8045

Dispersion correction           -0.005320703
FINAL SINGLE POINT ENERGY      -306.938818733506

DIPOLE MOMENT
-------------
                                X             Y             Z
Electronic contribution:      4.51965       1.97222       0.88515
Nuclear contribution   :     -4.87706      -1.05838      -1.33532
                        -----------------------------------------
Total Dipole Moment    :     -0.35741       0.91384      -0.45017
                        -----------------------------------------
Magnitude (a.u.)       :      1.07958
Magnitude (Debye)      :      2.74408

Rotational constants in cm-1:     0.163042     0.050484     0.045356
Rotational constants in MHz :  4887.864082  1513.473419  1359.735450

                             ****ORCA TERMINATED NORMALLY****
TOTAL RUN TIME: 0 days 0 hours 0 minutes 31 seconds 709 msec
