                         Program Version 5.0.0 -  RELEASE  -
|  1> !PBE0 D3BJ RIJCOSX def2-SVPD def2/J TightSCF
|  2> *xyz -1 1
|  3> C         -1.36353       -1.98134       -2.29361
|  4> O         -0.35039       -2.74969       -1.79601
|  5> H         -2.22523       -2.59288       -2.46214
|  6> H         -1.05452       -1.53818       -3.21720
|  7> H         -1.60477       -1.21086       -1.59143
|  8> *
|  9>
| 10> %MaxCore 64000
| 11> %pal nprocs 4
| 12> end
| 13>
| 14> %scf
| 15>   MaxIter 150
| 16> end
| 17>
| 18>
| 19>                          ****END OF INPUT****

CARTESIAN COORDINATES (ANGSTROEM)
---------------------------------
  C     -1.363530   -1.981340   -2.293610
  O     -0.350390   -2.749690   -1.796010
  H     -2.225230   -2.592880   -2.462140
  H     -1.054520   -1.538180   -3.217200
  H     -1.604770   -1.210860   -1.591430

 Total Charge           Charge          ....   -1
 Multiplicity           Mult            ....    1
 Number of Electrons    NEL             ....   18
 Basis Dimension        Dim             ....   67

ORBITAL ENERGIES
----------------

  NO   OCC          E(Eh)            E(eV)
   0   2.0000     -18.860480      -513.2198
   1   2.0000     -10.014834      -272.5175
   2   2.0000      -0.675106       -18.3706
   3   2.0000      -0.407500       -11.0886
   4   2.0000      -0.207821        -5.6551
   5   2.0000      -0.207810        -5.6548
   6   2.0000      -0.111704        -3.0396
   7   2.0000       0.041325         1.1245
   8   2.0000       0.041335         1.1248
   9   0.0000       0.205414         5.5896
  10   0.0000       0.277279         7.5452
  11   0.0000       0.277283         7.5453
  12   0.0000       0.285535         7.7698
  13   0.0000       0.321337         8.7440

MULLIKEN ATOMIC CHARGES
-----------------------
   0 C :    0.706374
   1 O :   -1.055541
   2 H :   -0.217305
   3 H :   -0.217087
   4 H :   -0.216441
Sum of atomic charges:   -1.0000000

LOEWDIN ATOMIC CHARGES
----------------------
   0 C :   -0.118602
   1 O :   -0.649825
   2 H :   -0.077205
   3 H :   -0.077194
   4 H :   -0.077174

  Mayer bond orders larger than 0.100000
B(  0-C ,  1-O ) :   1.1297 B(  0-C ,  2-H ) :   0.9371 B(  0-C ,  3-H ) :   0.9374
B(  0-C ,  4-H ) :   0.9365

Dispersion correction           -0.001163371
FINAL SINGLE POINT ENERGY      -114.883563251710

DIPOLE MOMENT
-------------
                                X             Y             Z
Electronic contribution:      1.39060      -1.05490       0.68310
Nuclear contribution   :     -2.13467       1.61890      -1.04844
                        -----------------------------------------
Total Dipole Moment    :     -0.74407       0.56400      -0.36534
                        -----------------------------------------
Magnitude (a.u.)       :      1.00260
Magnitude (Debye)      :      2.54841

Rotational constants in cm-1:     5.477725     0.944113     0.944112
Rotational constants in MHz : 164218.064700 28303.798445 28303.757130

                             ****ORCA TERMINATED NORMALLY****
TOTAL RUN TIME: 0 days 0 hours 0 minutes 3 seconds 512 msec
