                         Program Version 5.0.0 -  RELEASE  -
|  1> !PBE0 D3BJ RIJCOSX def2-SVPD def2/J TightSCF
|  2> *xyz 1 1
|  3> C          2.20996       -2.81239       -3.66571
|  4> C          2.48901       -1.66851       -2.73754
|  5> N          3.59631       -0.94761       -2.95225
|  6> N          1.66394       -1.41369       -1.77781
|  7> H          0.81164       -1.96318       -1.70275
|  8> H          1.84550       -0.63508       -1.15875
|  9> H          4.20535       -1.17600       -3.73383
| 10> H          3.81723       -0.12585       -2.40604
| 11> H          2.99011       -2.87840       -4.39503
| 12> H          1.27381       -2.65174       -4.15838
| 13> H          2.16680       -3.72339       -3.10614
| 14> *
| 15>
| 16> %MaxCore 64000
| 17> %pal nprocs 4
| 18> end
| 19>
| 20> %scf
| 21>   MaxIter 150
| 22> end
| 23>
| 24>
| 25>                          ****END OF INPUT****

CARTESIAN COORDINATES (ANGSTROEM)
---------------------------------
  C      2.209960   -2.812390   -3.665710
  C      2.489010   -1.668510   -2.737540
  N      3.596310   -0.947610   -2.952250
  N      1.663940   -1.413690   -1.777810
  H      0.811640   -1.963180   -1.702750
  H      1.845500   -0.635080   -1.158750
  H      4.205350   -1.176000   -3.733830
  H      3.817230   -0.125850   -2.406040
  H      2.990110   -2.878400   -4.395030
  H      1.273810   -2.651740   -4.158380
  H      2.166800   -3.723390   -3.106140

 Total Charge           Charge          ....    1
 Multiplicity           Mult            ....    1
 Number of Electrons    NEL             ....   32
 Basis Dimension        Dim             ....  136

ORBITAL ENERGIES
----------------

  NO   OCC          E(Eh)            E(eV)
   0   2.0000     -14.652513      -398.7151
   1   2.0000     -14.647014      -398.5655
   2   2.0000     -10.566249      -287.5222
   3   2.0000     -10.431635      -283.8592
   4   2.0000      -1.231789       -33.5187
   5   2.0000      -1.133964       -30.8567
   6   2.0000      -0.972342       -26.4588
   7   2.0000      -0.861489       -23.4423
   8   2.0000      -0.802626       -21.8406
   9   2.0000      -0.787793       -21.4369
  10   2.0000      -0.727223       -19.7887
  11   2.0000      -0.678187       -18.4544
  12   2.0000      -0.631806       -17.1923
  13   2.0000      -0.615582       -16.7508
  14   2.0000      -0.592121       -16.1124
  15   2.0000      -0.514329       -13.9956
  16   0.0000      -0.211186        -5.7466
  17   0.0000      -0.156660        -4.2629
  18   0.0000      -0.110153        -2.9974
  19   0.0000      -0.107774        -2.9327
  20   0.0000      -0.086328        -2.3491

MULLIKEN ATOMIC CHARGES
-----------------------
   0 C :    0.435384
   1 C :    0.546665
   2 N :   -0.175797
   3 N :    0.060712
   4 H :    0.050965
   5 H :   -0.109159
   6 H :    0.081402
   7 H :   -0.099270
   8 H :    0.062506
   9 H :    0.069823
  10 H :    0.076769
Sum of atomic charges:    1.0000000

LOEWDIN ATOMIC CHARGES
----------------------
   0 C :    0.230269
   1 C :   -0.059885
   2 N :    0.274253
   3 N :    0.275507
   4 H :    0.069355
   5 H :    0.055927
   6 H :    0.051426
   7 H :    0.045445
   8 H :    0.007158
   9 H :    0.025173
  10 H :    0.025372

  Mayer bond orders larger than 0.100000
B(  0-C ,  1-C ) :   1.2550 B(  0-C ,  8-H ) :   0.8101 B(  0-C ,  9-H ) :   0.8057
B(  0-C , 10-H ) :   0.7879 B(  1-C ,  2-N ) :   0.8624 B(  1-C ,  3-N ) :   1.1676
B(  1-C ,  5-H ) :  -0.1472 B(  1-C ,  7-H ) :  -0.2438 B(  1-C ,  8-H ) :   0.2075
B(  1-C ,  9-H ) :   0.1279 B(  1-C , 10-H ) :   0.1422 B(  2-N ,  3-N ) :   0.1668
B(  2-N ,  6-H ) :   1.0544 B(  2-N ,  7-H ) :   1.3474 B(  3-N ,  4-H ) :   1.1099
B(  3-N ,  5-H ) :   1.2438 B(  4-H ,  5-H ) :  -0.1452 B(  6-H ,  7-H ) :  -0.1697

Dispersion correction           -0.005724940
FINAL SINGLE POINT ENERGY      -189.375498035564

DIPOLE MOMENT
-------------
                                X             Y             Z
Electronic contribution:      0.31843       1.62098       1.44557
Nuclear contribution   :     -0.32363      -1.20411      -1.15396
                        -----------------------------------------
Total Dipole Moment    :     -0.00520       0.41687       0.29161
                        -----------------------------------------
Magnitude (a.u.)       :      0.50877
Magnitude (Debye)      :      1.29318

Rotational constants in cm-1:     0.327805     0.304052     0.162439
Rotational constants in MHz :  9827.347355  9115.244333  4869.808750

                             ****ORCA TERMINATED NORMALLY****
TOTAL RUN TIME: 0 days 0 hours 0 minutes 9 seconds 0 msec
