                         Program Version 5.0.0 -  RELEASE  -
|  1> !PBE0 D3BJ RIJCOSX def2-SVPD def2/J TightSCF
|  2> *xyz 0 1
|  3> C         -1.36353       -1.98134       -2.29361
|  4> F         -0.35039       -2.74969       -1.79601
|  5> H         -2.22523       -2.59288       -2.46214
|  6> H         -1.05452       -1.53818       -3.21720
|  7> H         -1.60477       -1.21086       -1.59143
|  8> *
|  9>
| 10> %MaxCore 64000
| 11> %pal nprocs 4
| 12> end
| 13>
| 14> %scf
| 15>   MaxIter 150
| 16> end
| 17>
| 18>
| 19>                          ****END OF INPUT****

CARTESIAN COORDINATES (ANGSTROEM)
---------------------------------
  C     -1.363530   -1.981340   -2.293610
  F     -0.350390   -2.749690   -1.796010
  H     -2.225230   -2.592880   -2.462140
  H     -1.054520   -1.538180   -3.217200
  H     -1.604770   -1.210860   -1.591430

 Total Charge           Charge          ....    0
 Multiplicity           Mult            ....    1
 Number of Electrons    NEL             ....   18
 Basis Dimension        Dim             ....   67

ORBITAL ENERGIES
----------------

  NO   OCC          E(Eh)            E(eV)
   0   2.0000     -24.768992      -673.9985
   1   2.0000     -10.302021      -280.3322
   2   2.0000      -1.216135       -33.0927
   3   2.0000      -0.722971       -19.6730
   4   2.0000      -0.517055       -14.0698
   5   2.0000      -0.508784       -13.8447
   6   2.0000      -0.508775       -13.8445
   7   2.0000      -0.366026        -9.9601
   8   2.0000      -0.366009        -9.9596
   9   0.0000       0.033730         0.9178
  10   0.0000       0.070614         1.9215
  11   0.0000       0.110307         3.0016
  12   0.0000       0.110313         3.0018
  13   0.0000       0.154203         4.1961

MULLIKEN ATOMIC CHARGES
-----------------------
   0 C :    0.778205
   1 F :   -0.503418
   2 H :   -0.091925
   3 H :   -0.091983
   4 H :   -0.090880
Sum of atomic charges:    0.0000000

LOEWDIN ATOMIC CHARGES
----------------------
   0 C :    0.267410
   1 F :   -0.255432
   2 H :   -0.004010
   3 H :   -0.004004
   4 H :   -0.003964

  Mayer bond orders larger than 0.100000
B(  0-C ,  1-F ) :   0.8136 B(  0-C ,  2-H ) :   0.9563 B(  0-C ,  3-H ) :   0.9565
B(  0-C ,  4-H ) :   0.9555

Dispersion correction           -0.001017884
FINAL SINGLE POINT ENERGY      -139.497322142059

DIPOLE MOMENT
-------------
                                X             Y             Z
Electronic contribution:      2.17554      -1.65016       1.06854
Nuclear contribution   :     -2.70693       2.05289      -1.32950
                        -----------------------------------------
Total Dipole Moment    :     -0.53139       0.40273      -0.26096
                        -----------------------------------------
Magnitude (a.u.)       :      0.71600
Magnitude (Debye)      :      1.81994

Rotational constants in cm-1:     5.477725     0.878859     0.878857
Rotational constants in MHz : 164218.064700 26347.517988 26347.482187

                             ****ORCA TERMINATED NORMALLY****
TOTAL RUN TIME: 0 days 0 hours 0 minutes 3 seconds 246 msec
