                         Program Version 5.0.0 -  RELEASE  -
|  1> !PBE0 D3BJ RIJCOSX def2-SVPD def2/J TightSCF
|  2> *xyz 0 1
|  3> C          2.20996       -2.81239       -3.66571
|  4> C          2.48901       -1.66851       -2.73754
|  5> C          3.59631       -0.94761       -2.95225
|  6> N          1.66394       -1.41369       -1.77781
|  7> H          0.81164       -1.96318       -1.70275
|  8> H          1.84550       -0.63508       -1.15875
|  9> H          4.20535       -1.17600       -3.73383
| 10> H          3.81723       -0.12585       -2.40604
| 11> H          2.99011       -2.87840       -4.39503
| 12> H          1.27381       -2.65174       -4.15838
| 13> H          2.16680       -3.72339       -3.10614
| 14> *
| 15>
| 16> %MaxCore 64000
| 17> %pal nprocs 4
| 18> end
| 19>
| 20> %scf
| 21>   MaxIter 150
| 22> end
| 23>
| 24>
| 25>                          ****END OF INPUT****

CARTESIAN COORDINATES (ANGSTROEM)
---------------------------------
  C      2.209960   -2.812390   -3.665710
  C      2.489010   -1.668510   -2.737540
  C      3.596310   -0.947610   -2.952250
  N      1.663940   -1.413690   -1.777810
  H      0.811640   -1.963180   -1.702750
  H      1.845500   -0.635080   -1.158750
  H      4.205350   -1.176000   -3.733830
  H      3.817230   -0.125850   -2.406040
  H      2.990110   -2.878400   -4.395030
  H      1.273810   -2.651740   -4.158380
  H      2.166800   -3.723390   -3.106140

 Total Charge           Charge          ....    0
 Multiplicity           Mult            ....    1
 Number of Electrons    NEL             ....   32
 Basis Dimension        Dim             ....  136

ORBITAL ENERGIES
----------------

  NO   OCC          E(Eh)            E(eV)
   0   2.0000     -14.401590      -391.8872
   1   2.0000     -10.255771      -279.0737
   2   2.0000     -10.222015      -278.1552
   3   2.0000     -10.164581      -276.5923
   4   2.0000      -0.958194       -26.0738
   5   2.0000      -0.771807       -21.0019
   6   2.0000      -0.700384       -19.0584
   7   2.0000      -0.592417       -16.1205
   8   2.0000      -0.550508       -14.9801
   9   2.0000      -0.487343       -13.2613
  10   2.0000      -0.446984       -12.1631
  11   2.0000      -0.409901       -11.1540
  12   2.0000      -0.404854       -11.0166
  13   2.0000      -0.361880        -9.8473
  14   2.0000      -0.353981        -9.6323
  15   2.0000      -0.198087        -5.3902
  16   0.0000       0.025396         0.6911
  17   0.0000       0.054240         1.4759
  18   0.0000       0.062479         1.7001
  19   0.0000       0.070732         1.9247
  20   0.0000       0.097097         2.6421

MULLIKEN ATOMIC CHARGES
-----------------------
   0 C :    0.659934
   1 C :   -0.509512
   2 C :    0.390898
   3 N :    0.195740
   4 H :   -0.133381
   5 H :   -0.162116
   6 H :   -0.064356
   7 H :   -0.428250
   8 H :    0.051201
   9 H :   -0.004308
  10 H :    0.004149
Sum of atomic charges:    0.0000000

LOEWDIN ATOMIC CHARGES
----------------------
   0 C :    0.159072
   1 C :   -0.299681
   2 C :    0.167929
   3 N :    0.155900
   4 H :    0.013637
   5 H :    0.015848
   6 H :   -0.086725
   7 H :   -0.091506
   8 H :   -0.013454
   9 H :   -0.010390
  10 H :   -0.010630

  Mayer bond orders larger than 0.100000
B(  0-C ,  1-C ) :   1.2880 B(  0-C ,  8-H ) :   0.8173 B(  0-C ,  9-H ) :   0.7156
B(  0-C , 10-H ) :   0.7180 B(  1-C ,  2-C ) :   1.7329 B(  1-C ,  3-N ) :   1.1904
B(  1-C ,  7-H ) :   0.1270 B(  1-C ,  8-H ) :   0.2048 B(  1-C ,  9-H ) :   0.2381
B(  1-C , 10-H ) :   0.2365 B(  2-C ,  3-N ) :   0.2216 B(  2-C ,  6-H ) :   0.9618
B(  2-C ,  7-H ) :   0.8634 B(  3-N ,  4-H ) :   1.1757 B(  3-N ,  5-H ) :   1.2030
B(  4-H ,  5-H ) :  -0.1223

Dispersion correction           -0.006018134
FINAL SINGLE POINT ENERGY      -172.930232124908

DIPOLE MOMENT
-------------
                                X             Y             Z
Electronic contribution:     -0.66012       0.86873       1.53989
Nuclear contribution   :     -0.07639      -1.03653      -1.19368
                        -----------------------------------------
Total Dipole Moment    :     -0.73650      -0.16780       0.34621
                        -----------------------------------------
Magnitude (a.u.)       :      0.83094
Magnitude (Debye)      :      2.11208

Rotational constants in cm-1:     0.347569     0.308531     0.168494
Rotational constants in MHz : 10419.863808  9249.512495  5051.317883

                             ****ORCA TERMINATED NORMALLY****
TOTAL RUN TIME: 0 days 0 hours 0 minutes 9 seconds 375 msec
