                         Program Version 5.0.0 -  RELEASE  -
|  1> !PBE0 D3BJ RIJCOSX def2-SVPD def2/J TightSCF
|  2> *xyz 0 1
|  3> C          2.20996       -2.81239       -3.66571
|  4> C          2.48901       -1.66851       -2.73754
|  5> N          3.59631       -0.94761       -2.95225
|  6> C          1.66394       -1.41369       -1.77781
|  7> H          0.81164       -1.96318       -1.70275
|  8> H          1.84550       -0.63508       -1.15875
|  9> H          4.20535       -1.17600       -3.73383
| 10> H          3.81723       -0.12585       -2.40604
| 11> H          2.99011       -2.87840       -4.39503
| 12> H          1.27381       -2.65174       -4.15838
| 13> H          2.16680       -3.72339       -3.10614
| 14> *
| 15>
| 16> %MaxCore 64000
| 17> %pal nprocs 4
| 18> end
| 19>
| 20> %scf
| 21>   MaxIter 150
| 22> end
| 23>
| 24>
| 25>                          ****END OF INPUT****

CARTESIAN COORDINATES (ANGSTROEM)
---------------------------------
  C      2.209960   -2.812390   -3.665710
  C      2.489010   -1.668510   -2.737540
  N      3.596310   -0.947610   -2.952250
  C      1.663940   -1.413690   -1.777810
  H      0.811640   -1.963180   -1.702750
  H      1.845500   -0.635080   -1.158750
  H      4.205350   -1.176000   -3.733830
  H      3.817230   -0.125850   -2.406040
  H      2.990110   -2.878400   -4.395030
  H      1.273810   -2.651740   -4.158380
  H      2.166800   -3.723390   -3.106140

 Total Charge           Charge          ....    0
 Multiplicity           Mult            ....    1
 Number of Electrons    NEL             ....   32
 Basis Dimension        Dim             ....  136

ORBITAL ENERGIES
----------------

  NO   OCC          E(Eh)            E(eV)
   0   2.0000     -14.396853      -391.7583
   1   2.0000     -10.252149      -278.9752
   2   2.0000     -10.221904      -278.1521
   3   2.0000     -10.161587      -276.5108
   4   2.0000      -0.939645       -25.5690
   5   2.0000      -0.776991       -21.1430
   6   2.0000      -0.706394       -19.2220
   7   2.0000      -0.584462       -15.9040
   8   2.0000      -0.537538       -14.6271
   9   2.0000      -0.489136       -13.3101
  10   2.0000      -0.443403       -12.0656
  11   2.0000      -0.412998       -11.2382
  12   2.0000      -0.406234       -11.0542
  13   2.0000      -0.365728        -9.9520
  14   2.0000      -0.346466        -9.4278
  15   2.0000      -0.203586        -5.5399
  16   0.0000       0.026714         0.7269
  17   0.0000       0.053648         1.4598
  18   0.0000       0.062985         1.7139
  19   0.0000       0.070546         1.9197
  20   0.0000       0.096508         2.6261

MULLIKEN ATOMIC CHARGES
-----------------------
   0 C :    0.629662
   1 C :   -0.219470
   2 N :   -0.046521
   3 C :    0.254591
   4 H :   -0.115315
   5 H :   -0.283723
   6 H :   -0.070142
   7 H :   -0.160735
   8 H :   -0.086829
   9 H :    0.048682
  10 H :    0.049800
Sum of atomic charges:   -0.0000000

LOEWDIN ATOMIC CHARGES
----------------------
   0 C :    0.161377
   1 C :   -0.287093
   2 N :    0.158760
   3 C :    0.149749
   4 H :   -0.066569
   5 H :   -0.078787
   6 H :   -0.005352
   7 H :    0.003273
   8 H :   -0.027204
   9 H :   -0.004151
  10 H :   -0.004003

  Mayer bond orders larger than 0.100000
B(  0-C ,  1-C ) :   1.1106 B(  0-C ,  8-H ) :   0.7727 B(  0-C ,  9-H ) :   0.7821
B(  0-C , 10-H ) :   0.7778 B(  1-C ,  2-N ) :   0.9043 B(  1-C ,  3-C ) :   1.8582
B(  1-C ,  4-H ) :   0.1230 B(  1-C ,  5-H ) :   0.2383 B(  1-C ,  7-H ) :  -0.1613
B(  1-C ,  8-H ) :   0.2277 B(  1-C ,  9-H ) :   0.1465 B(  1-C , 10-H ) :   0.1532
B(  2-N ,  3-C ) :   0.2411 B(  2-N ,  6-H ) :   1.1210 B(  2-N ,  7-H ) :   1.3189
B(  3-C ,  4-H ) :   0.8603 B(  3-C ,  5-H ) :   0.7853 B(  6-H ,  7-H ) :  -0.1552

Dispersion correction           -0.006017771
FINAL SINGLE POINT ENERGY      -172.929623677730

DIPOLE MOMENT
-------------
                                X             Y             Z
Electronic contribution:      1.04546       1.25853       0.47970
Nuclear contribution   :     -0.50975      -1.14105      -0.93029
                        -----------------------------------------
Total Dipole Moment    :      0.53571       0.11747      -0.45059
                        -----------------------------------------
Magnitude (a.u.)       :      0.70980
Magnitude (Debye)      :      1.80416

Rotational constants in cm-1:     0.350603     0.305690     0.168346
Rotational constants in MHz : 10510.799277  9164.357607  5046.873498

                             ****ORCA TERMINATED NORMALLY****
TOTAL RUN TIME: 0 days 0 hours 0 minutes 10 seconds 81 msec
