                         Program Version 5.0.0 -  RELEASE  -
|  1> !PBE0 D3BJ RIJCOSX def2-SVPD def2/J TightSCF
|  2> *xyz -1 1
|  3> C         -0.05517        1.61942       -3.78858
|  4> C          1.22302        2.46987       -3.75691
|  5> H          1.11470        3.25807       -4.53300
|  6> H          1.23773        3.01124       -2.79216
|  7> O          2.35381        1.71203       -3.93448
|  8> H         -0.10198        1.08015       -4.71156
|  9> H         -0.91014        2.25726       -3.70441
| 10> H         -0.04403        0.92826       -2.97183
| 11> *
| 12>
| 13> %MaxCore 64000
| 14>
| 15> %pal nprocs 4
| 16> end
| 17>
| 18> %scf
| 19>   MaxIter 150
| 20> end
| 21>
| 22>
| 23>                          ****END OF INPUT****

CARTESIAN COORDINATES (ANGSTROEM)
---------------------------------
  C     -0.055170    1.619420   -3.788580
  C      1.223020    2.469870   -3.756910
  H      1.114700    3.258070   -4.533000
  H      1.237730    3.011240   -2.792160
  O      2.353810    1.712030   -3.934480
  H     -0.101980    1.080150   -4.711560
  H     -0.910140    2.257260   -3.704410
  H     -0.044030    0.928260   -2.971830

 Total Charge           Charge          ....   -1
 Multiplicity           Mult            ....    1
 Number of Electrons    NEL             ....   26
 Basis Dimension        Dim             ....  103

ORBITAL ENERGIES
----------------

  NO   OCC          E(Eh)            E(eV)
   0   2.0000     -18.882849      -513.8284
   1   2.0000     -10.045001      -273.3384
   2   2.0000     -10.022967      -272.7388
   3   2.0000      -0.693932       -18.8828
   4   2.0000      -0.539772       -14.6879
   5   2.0000      -0.384104       -10.4520
   6   2.0000      -0.263593        -7.1727
   7   2.0000      -0.239885        -6.5276
   8   2.0000      -0.186563        -5.0766
   9   2.0000      -0.168130        -4.5751
  10   2.0000      -0.123819        -3.3693
  11   2.0000       0.020726         0.5640
  12   2.0000       0.022638         0.6160
  13   0.0000       0.186268         5.0686
  14   0.0000       0.217046         5.9061
  15   0.0000       0.251093         6.8326
  16   0.0000       0.264037         7.1848
  17   0.0000       0.281889         7.6706

MULLIKEN ATOMIC CHARGES
-----------------------
   0 C :    0.109729
   1 C :    0.112553
   2 H :   -0.100850
   3 H :   -0.114485
   4 O :   -0.953472
   5 H :   -0.029851
   6 H :    0.004325
   7 H :   -0.027949
Sum of atomic charges:   -1.0000000

LOEWDIN ATOMIC CHARGES
----------------------
   0 C :    0.054348
   1 C :   -0.258597
   2 H :   -0.031615
   3 H :   -0.033144
   4 O :   -0.589461
   5 H :   -0.040272
   6 H :   -0.059905
   7 H :   -0.041355

  Mayer bond orders larger than 0.100000
B(  0-C ,  1-C ) :   1.2049 B(  0-C ,  2-H ) :   0.1150 B(  0-C ,  3-H ) :   0.1133
B(  0-C ,  4-O ) :   0.1883 B(  0-C ,  5-H ) :   0.9304 B(  0-C ,  6-H ) :   0.9239
B(  0-C ,  7-H ) :   0.9298 B(  1-C ,  2-H ) :   0.9879 B(  1-C ,  3-H ) :   0.9958
B(  1-C ,  4-O ) :   1.0663 B(  1-C ,  5-H ) :   0.1603 B(  1-C ,  6-H ) :   0.1076
B(  1-C ,  7-H ) :   0.1518

Dispersion correction           -0.003051143
FINAL SINGLE POINT ENERGY      -154.140391368555

DIPOLE MOMENT
-------------
                                X             Y             Z
Electronic contribution:      2.74591      -0.51560      -0.24815
Nuclear contribution   :     -4.28298       0.81046       0.39340
                        -----------------------------------------
Total Dipole Moment    :     -1.53707       0.29486       0.14525
                        -----------------------------------------
Magnitude (a.u.)       :      1.57182
Magnitude (Debye)      :      3.99524

Rotational constants in cm-1:     1.266793     0.328147     0.288309
Rotational constants in MHz : 37977.512300  9837.594308  8643.275638

                             ****ORCA TERMINATED NORMALLY****
TOTAL RUN TIME: 0 days 0 hours 0 minutes 10 seconds 525 msec
