                         Program Version 5.0.0 -  RELEASE  -
|  1> !PBE0 D3BJ RIJCOSX def2-SVPD def2/J TightSCF
|  2> *xyz 1 1
|  3> C          1.63556       -1.67040       -5.29211
|  4> C          0.33848       -1.50091       -4.50540
|  5> N          2.48451       -0.50741       -5.14039
|  6> H          1.39834       -1.82924       -6.35259
|  7> H          2.15586       -2.56540       -4.93209
|  8> C          3.45115       -0.14953       -5.95259
|  9> N          3.92267        1.08956       -5.85071
| 10> N          3.96616       -1.00618       -6.86788
| 11> H          3.52139       -1.90647       -6.99527
| 12> H          4.44482       -0.62347       -7.67035
| 13> H          2.25200        0.24080       -4.49879
| 14> H          3.46428        1.64078       -5.13639
| 15> H          4.83447        1.31375       -6.22465
| 16> H         -0.17658       -0.62881       -4.85045
| 17> H          0.56384       -1.39374       -3.46490
| 18> H         -0.28102       -2.36136       -4.64938
| 19> *
| 20>
| 21> %MaxCore 64000
| 22>
| 23> %pal nprocs 4
| 24> end
| 25>
| 26> %scf
| 27>   MaxIter 150
| 28> end
| 29>
| 30>
| 31>                          ****END OF INPUT****

CARTESIAN COORDINATES (ANGSTROEM)
---------------------------------
  C      1.635560   -1.670400   -5.292110
  C      0.338480   -1.500910   -4.505400
  N      2.484510   -0.507410   -5.140390
  H      1.398340   -1.829240   -6.352590
  H      2.155860   -2.565400   -4.932090
  C      3.451150   -0.149530   -5.952590
  N      3.922670    1.089560   -5.850710
  N      3.966160   -1.006180   -6.867880
  H      3.521390   -1.906470   -6.995270
  H      4.444820   -0.623470   -7.670350
  H      2.252000    0.240800   -4.498790
  H      3.464280    1.640780   -5.136390
  H      4.834470    1.313750   -6.224650
  H     -0.176580   -0.628810   -4.850450
  H      0.563840   -1.393740   -3.464900
  H     -0.281020   -2.361360   -4.649380

 Total Charge           Charge          ....    1
 Multiplicity           Mult            ....    1
 Number of Electrons    NEL             ....   48
 Basis Dimension        Dim             ....  200

ORBITAL ENERGIES
----------------

  NO   OCC          E(Eh)            E(eV)
   0   2.0000     -14.626060      -397.9953
   1   2.0000     -14.620271      -397.8378
   2   2.0000     -14.618449      -397.7882
   3   2.0000     -10.566008      -287.5157
   4   2.0000     -10.443993      -284.1955
   5   2.0000     -10.372832      -282.2591
   6   2.0000      -1.240687       -33.7608
   7   2.0000      -1.125750       -30.6332
   8   2.0000      -1.111346       -30.2413
   9   2.0000      -0.954639       -25.9771
  10   2.0000      -0.848625       -23.0922
  11   2.0000      -0.831598       -22.6289
  12   2.0000      -0.795210       -21.6388
  13   2.0000      -0.762724       -20.7548
  14   2.0000      -0.707361       -19.2483
  15   2.0000      -0.701261       -19.0823
  16   2.0000      -0.678652       -18.4671
  17   2.0000      -0.658737       -17.9251
  18   2.0000      -0.617850       -16.8126
  19   2.0000      -0.561813       -15.2877
  20   2.0000      -0.544790       -14.8245
  21   2.0000      -0.534515       -14.5449
  22   2.0000      -0.492424       -13.3995
  23   2.0000      -0.467254       -12.7146
  24   0.0000      -0.167489        -4.5576
  25   0.0000      -0.147579        -4.0158
  26   0.0000      -0.117088        -3.1861
  27   0.0000      -0.100381        -2.7315
  28   0.0000      -0.083482        -2.2716

MULLIKEN ATOMIC CHARGES
-----------------------
   0 C :   -0.000983
   1 C :    0.627333
   2 N :   -0.579015
   3 H :   -0.019732
   4 H :   -0.035374
   5 C :    1.508235
   6 N :   -0.138549
   7 N :   -0.195364
   8 H :    0.004178
   9 H :   -0.052876
  10 H :   -0.126184
  11 H :    0.051406
  12 H :   -0.074808
  13 H :    0.018652
  14 H :    0.030827
  15 H :   -0.017746
Sum of atomic charges:    1.0000000

LOEWDIN ATOMIC CHARGES
----------------------
   0 C :    0.021738
   1 C :    0.156573
   2 N :    0.031106
   3 H :    0.040394
   4 H :    0.045013
   5 C :   -0.027770
   6 N :    0.259403
   7 N :    0.277817
   8 H :    0.016666
   9 H :    0.036883
  10 H :    0.055160
  11 H :    0.034421
  12 H :    0.045681
  13 H :   -0.000881
  14 H :    0.000326
  15 H :    0.007469

  Mayer bond orders larger than 0.100000
B(  0-C ,  1-C ) :   1.3215 B(  0-C ,  2-N ) :   0.8753 B(  0-C ,  3-H ) :   0.8885
B(  0-C ,  4-H ) :   0.9150 B(  0-C , 10-H ) :  -0.1097 B(  0-C , 13-H ) :   0.1828
B(  0-C , 14-H ) :   0.2035 B(  0-C , 15-H ) :   0.2542 B(  1-C , 13-H ) :   0.8199
B(  1-C , 14-H ) :   0.7650 B(  1-C , 15-H ) :   0.7775 B(  2-N ,  3-H ) :   0.1605
B(  2-N ,  4-H ) :   0.1655 B(  2-N ,  5-C ) :   0.9883 B(  2-N ,  6-N ) :   0.2885
B(  2-N ,  7-N ) :   0.2057 B(  2-N , 10-H ) :   1.2244 B(  5-C ,  6-N ) :   0.8552
B(  5-C ,  7-N ) :   0.8345 B(  5-C ,  8-H ) :  -0.1050 B(  5-C ,  9-H ) :  -0.1312
B(  5-C , 10-H ) :  -0.2292 B(  5-C , 12-H ) :  -0.1217 B(  6-N ,  7-N ) :   0.1672
B(  6-N , 11-H ) :   1.0503 B(  6-N , 12-H ) :   1.2318 B(  7-N ,  8-H ) :   1.0359
B(  7-N ,  9-H ) :   1.2238 B(  8-H ,  9-H ) :  -0.1448 B( 11-H , 12-H ) :  -0.1357

Dispersion correction           -0.010111558
FINAL SINGLE POINT ENERGY      -283.890203427561

DIPOLE MOMENT
-------------
                                X             Y             Z
Electronic contribution:      4.70691       2.47921      -1.70413
Nuclear contribution   :     -3.96322      -1.85512       1.24891
                        -----------------------------------------
Total Dipole Moment    :      0.74369       0.62410      -0.45522
                        -----------------------------------------
Magnitude (a.u.)       :      1.07229
Magnitude (Debye)      :      2.72554

Rotational constants in cm-1:     0.261404     0.067000     0.054949
Rotational constants in MHz :  7836.702504  2008.609425  1647.329138

                             ****ORCA TERMINATED NORMALLY****
TOTAL RUN TIME: 0 days 0 hours 0 minutes 27 seconds 321 msec
