                         Program Version 5.0.0 -  RELEASE  -
|  1> !PBE0 D3BJ RIJCOSX def2-SVPD def2/J TightSCF
|  2> *xyz 0 1
|  3> C         -0.05517        1.61942       -3.78858
|  4> C          1.22302        2.46987       -3.75691
|  5> H          1.11470        3.25807       -4.53300
|  6> H          1.23773        3.01124       -2.79216
|  7> F          2.35381        1.71203       -3.93448
|  8> H         -0.10198        1.08015       -4.71156
|  9> H         -0.91014        2.25726       -3.70441
| 10> H         -0.04403        0.92826       -2.97183
| 11> *
| 12>
| 13> %MaxCore 64000
| 14>
| 15> %pal nprocs 4
| 16> end
| 17>
| 18> %scf
| 19>   MaxIter 150
| 20> end
| 21>
| 22>
| 23>                          ****END OF INPUT****

CARTESIAN COORDINATES (ANGSTROEM)
---------------------------------
  C     -0.055170    1.619420   -3.788580
  C      1.223020    2.469870   -3.756910
  H      1.114700    3.258070   -4.533000
  H      1.237730    3.011240   -2.792160
  F      2.353810    1.712030   -3.934480
  H     -0.101980    1.080150   -4.711560
  H     -0.910140    2.257260   -3.704410
  H     -0.044030    0.928260   -2.971830

 Total Charge           Charge          ....    0
 Multiplicity           Mult            ....    1
 Number of Electrons    NEL             ....   26
 Basis Dimension        Dim             ....  103

ORBITAL ENERGIES
----------------

  NO   OCC          E(Eh)            E(eV)
   0   2.0000     -24.772183      -674.0854
   1   2.0000     -10.313754      -280.6515
   2   2.0000     -10.229379      -278.3556
   3   2.0000      -1.214785       -33.0560
   4   2.0000      -0.782500       -21.2929
   5   2.0000      -0.647065       -17.6075
   6   2.0000      -0.527361       -14.3502
   7   2.0000      -0.513666       -13.9776
   8   2.0000      -0.476653       -12.9704
   9   2.0000      -0.420856       -11.4521
  10   2.0000      -0.415125       -11.2961
  11   2.0000      -0.352720        -9.5980
  12   2.0000      -0.346168        -9.4197
  13   0.0000       0.030137         0.8201
  14   0.0000       0.061902         1.6844
  15   0.0000       0.083276         2.2660
  16   0.0000       0.089858         2.4452
  17   0.0000       0.115324         3.1381

MULLIKEN ATOMIC CHARGES
-----------------------
   0 C :    0.152001
   1 C :    0.364227
   2 H :   -0.008113
   3 H :   -0.023055
   4 F :   -0.483664
   5 H :   -0.008914
   6 H :    0.013837
   7 H :   -0.006320
Sum of atomic charges:    0.0000000

LOEWDIN ATOMIC CHARGES
----------------------
   0 C :    0.129456
   1 C :    0.067294
   2 H :    0.033558
   3 H :    0.031111
   4 F :   -0.224978
   5 H :   -0.012041
   6 H :   -0.011465
   7 H :   -0.012934

  Mayer bond orders larger than 0.100000
B(  0-C ,  1-C ) :   1.3481 B(  0-C ,  5-H ) :   0.9116 B(  0-C ,  6-H ) :   0.8825
B(  0-C ,  7-H ) :   0.9127 B(  1-C ,  2-H ) :   0.9521 B(  1-C ,  3-H ) :   0.9583
B(  1-C ,  4-F ) :   0.6927 B(  1-C ,  5-H ) :   0.1221 B(  1-C ,  7-H ) :   0.1156

Dispersion correction           -0.002811665
FINAL SINGLE POINT ENERGY      -178.742640347377

DIPOLE MOMENT
-------------
                                X             Y             Z
Electronic contribution:      5.00930      -0.72992      -0.43041
Nuclear contribution   :     -5.66833       1.07099       0.52006
                        -----------------------------------------
Total Dipole Moment    :     -0.65903       0.34107       0.08966
                        -----------------------------------------
Magnitude (a.u.)       :      0.74745
Magnitude (Debye)      :      1.89988

Rotational constants in cm-1:     1.245689     0.305293     0.269541
Rotational constants in MHz : 37344.801915  9152.442838  8080.640229

                             ****ORCA TERMINATED NORMALLY****
TOTAL RUN TIME: 0 days 0 hours 0 minutes 9 seconds 84 msec
