                         Program Version 5.0.0 -  RELEASE  -
|  1> !PBE0 D3BJ RIJCOSX def2-SVPD def2/J TightSCF
|  2> *xyz 0 1
|  3> C          1.63556       -1.67040       -5.29211
|  4> C          0.33848       -1.50091       -4.50540
|  5> C          2.48451       -0.50741       -5.14039
|  6> H          1.39834       -1.82924       -6.35259
|  7> H          2.15586       -2.56540       -4.93209
|  8> C          3.45115       -0.14953       -5.95259
|  9> N          3.92267        1.08956       -5.85071
| 10> N          3.96616       -1.00618       -6.86788
| 11> H          3.52139       -1.90647       -6.99527
| 12> H          4.44482       -0.62347       -7.67035
| 13> H          2.25200        0.24080       -4.49879
| 14> H          3.46428        1.64078       -5.13639
| 15> H          4.83447        1.31375       -6.22465
| 16> H         -0.17658       -0.62881       -4.85045
| 17> H          0.56384       -1.39374       -3.46490
| 18> H         -0.28102       -2.36136       -4.64938
| 19> *
| 20>
| 21> %MaxCore 64000
| 22>
| 23> %pal nprocs 4
| 24> end
| 25>
| 26> %scf
| 27>   MaxIter 150
| 28> end
| 29>
| 30>
| 31>                          ****END OF INPUT****

CARTESIAN COORDINATES (ANGSTROEM)
---------------------------------
  C      1.635560   -1.670400   -5.292110
  C      0.338480   -1.500910   -4.505400
  C      2.484510   -0.507410   -5.140390
  H      1.398340   -1.829240   -6.352590
  H      2.155860   -2.565400   -4.932090
  C      3.451150   -0.149530   -5.952590
  N      3.922670    1.089560   -5.850710
  N      3.966160   -1.006180   -6.867880
  H      3.521390   -1.906470   -6.995270
  H      4.444820   -0.623470   -7.670350
  H      2.252000    0.240800   -4.498790
  H      3.464280    1.640780   -5.136390
  H      4.834470    1.313750   -6.224650
  H     -0.176580   -0.628810   -4.850450
  H      0.563840   -1.393740   -3.464900
  H     -0.281020   -2.361360   -4.649380

 Total Charge           Charge          ....    0
 Multiplicity           Mult            ....    1
 Number of Electrons    NEL             ....   48
 Basis Dimension        Dim             ....  200

ORBITAL ENERGIES
----------------

  NO   OCC          E(Eh)            E(eV)
   0   2.0000     -14.397394      -391.7730
   1   2.0000     -14.392310      -391.6347
   2   2.0000     -10.270788      -279.4824
   3   2.0000     -10.211131      -277.8590
   4   2.0000     -10.201369      -277.5934
   5   2.0000     -10.156159      -276.3631
   6   2.0000      -0.976735       -26.5783
   7   2.0000      -0.886938       -24.1348
   8   2.0000      -0.793879       -21.6026
   9   2.0000      -0.714108       -19.4319
  10   2.0000      -0.626166       -17.0388
  11   2.0000      -0.596447       -16.2302
  12   2.0000      -0.550462       -14.9788
  13   2.0000      -0.527554       -14.3555
  14   2.0000      -0.482546       -13.1308
  15   2.0000      -0.454796       -12.3756
  16   2.0000      -0.443020       -12.0552
  17   2.0000      -0.409484       -11.1426
  18   2.0000      -0.392243       -10.6735
  19   2.0000      -0.354440        -9.6448
  20   2.0000      -0.343508        -9.3473
  21   2.0000      -0.342506        -9.3201
  22   2.0000      -0.277197        -7.5429
  23   2.0000      -0.173892        -4.7319
  24   0.0000       0.024930         0.6784
  25   0.0000       0.048019         1.3067
  26   0.0000       0.053497         1.4557
  27   0.0000       0.073803         2.0083
  28   0.0000       0.077334         2.1044

MULLIKEN ATOMIC CHARGES
-----------------------
   0 C :   -0.340194
   1 C :    0.766427
   2 C :   -0.173143
   3 H :   -0.083919
   4 H :   -0.035908
   5 C :    0.719767
   6 N :   -0.099747
   7 N :   -0.216666
   8 H :    0.001693
   9 H :   -0.141728
  10 H :   -0.269320
  11 H :    0.076941
  12 H :   -0.182493
  13 H :    0.023660
  14 H :    0.030610
  15 H :   -0.075981
Sum of atomic charges:   -0.0000000

LOEWDIN ATOMIC CHARGES
----------------------
   0 C :   -0.121456
   1 C :    0.106352
   2 C :   -0.041462
   3 H :    0.018777
   4 H :    0.020339
   5 C :   -0.222600
   6 N :    0.168511
   7 N :    0.197986
   8 H :   -0.013856
   9 H :   -0.011937
  10 H :   -0.047867
  11 H :    0.002829
  12 H :   -0.006212
  13 H :   -0.013545
  14 H :   -0.013497
  15 H :   -0.022362

  Mayer bond orders larger than 0.100000
B(  0-C ,  1-C ) :   1.2550 B(  0-C ,  2-C ) :   0.9336 B(  0-C ,  3-H ) :   0.9104
B(  0-C ,  4-H ) :   0.8013 B(  0-C , 10-H ) :   0.1901 B(  0-C , 13-H ) :   0.2036
B(  0-C , 14-H ) :   0.2177 B(  0-C , 15-H ) :   0.2878 B(  1-C , 13-H ) :   0.8016
B(  1-C , 14-H ) :   0.7603 B(  1-C , 15-H ) :   0.7353 B(  2-C ,  3-H ) :   0.1110
B(  2-C ,  4-H ) :   0.2318 B(  2-C ,  5-C ) :   1.6654 B(  2-C ,  6-N ) :   0.3172
B(  2-C ,  7-N ) :   0.2008 B(  2-C ,  8-H ) :  -0.1187 B(  2-C , 10-H ) :   0.9515
B(  5-C ,  6-N ) :   0.8737 B(  5-C ,  7-N ) :   0.8644 B(  6-N ,  7-N ) :   0.1297
B(  6-N , 11-H ) :   1.0303 B(  6-N , 12-H ) :   1.2408 B(  7-N ,  8-H ) :   1.0300
B(  7-N ,  9-H ) :   1.2369 B(  8-H ,  9-H ) :  -0.1237 B( 11-H , 12-H ) :  -0.1342

Dispersion correction           -0.010530562
FINAL SINGLE POINT ENERGY      -267.432604693590

DIPOLE MOMENT
-------------
                                X             Y             Z
Electronic contribution:      4.52387       2.16305      -1.90301
Nuclear contribution   :     -3.99655      -1.83277       1.34879
                        -----------------------------------------
Total Dipole Moment    :      0.52732       0.33029      -0.55422
                        -----------------------------------------
Magnitude (a.u.)       :      0.83326
Magnitude (Debye)      :      2.11797

Rotational constants in cm-1:     0.262971     0.067064     0.055026
Rotational constants in MHz :  7883.664566  2010.513309  1649.636654

                             ****ORCA TERMINATED NORMALLY****
TOTAL RUN TIME: 0 days 0 hours 0 minutes 28 seconds 357 msec
