                         Program Version 5.0.0 -  RELEASE  -
|  1> !PBE0 D3BJ RIJCOSX def2-SVPD def2/J TightSCF
|  2> *xyz 0 1
|  3> C          1.63556       -1.67040       -5.29211
|  4> C          0.33848       -1.50091       -4.50540
|  5> N          2.48451       -0.50741       -5.14039
|  6> H          1.39834       -1.82924       -6.35259
|  7> H          2.15586       -2.56540       -4.93209
|  8> C          3.45115       -0.14953       -5.95259
|  9> C          3.92267        1.08956       -5.85071
| 10> N          3.96616       -1.00618       -6.86788
| 11> H          3.52139       -1.90647       -6.99527
| 12> H          4.44482       -0.62347       -7.67035
| 13> H          2.25200        0.24080       -4.49879
| 14> H          3.46428        1.64078       -5.13639
| 15> H          4.83447        1.31375       -6.22465
| 16> H         -0.17658       -0.62881       -4.85045
| 17> H          0.56384       -1.39374       -3.46490
| 18> H         -0.28102       -2.36136       -4.64938
| 19> *
| 20>
| 21> %MaxCore 64000
| 22>
| 23> %pal nprocs 4
| 24> end
| 25>
| 26> %scf
| 27>   MaxIter 150
| 28> end
| 29>
| 30>
| 31>                          ****END OF INPUT****

CARTESIAN COORDINATES (ANGSTROEM)
---------------------------------
  C      1.635560   -1.670400   -5.292110
  C      0.338480   -1.500910   -4.505400
  N      2.484510   -0.507410   -5.140390
  H      1.398340   -1.829240   -6.352590
  H      2.155860   -2.565400   -4.932090
  C      3.451150   -0.149530   -5.952590
  C      3.922670    1.089560   -5.850710
  N      3.966160   -1.006180   -6.867880
  H      3.521390   -1.906470   -6.995270
  H      4.444820   -0.623470   -7.670350
  H      2.252000    0.240800   -4.498790
  H      3.464280    1.640780   -5.136390
  H      4.834470    1.313750   -6.224650
  H     -0.176580   -0.628810   -4.850450
  H      0.563840   -1.393740   -3.464900
  H     -0.281020   -2.361360   -4.649380

 Total Charge           Charge          ....    0
 Multiplicity           Mult            ....    1
 Number of Electrons    NEL             ....   48
 Basis Dimension        Dim             ....  200

ORBITAL ENERGIES
----------------

  NO   OCC          E(Eh)            E(eV)
   0   2.0000     -14.398022      -391.7901
   1   2.0000     -14.395499      -391.7214
   2   2.0000     -10.276000      -279.6242
   3   2.0000     -10.275042      -279.5981
   4   2.0000     -10.233460      -278.4666
   5   2.0000     -10.141907      -275.9753
   6   2.0000      -0.989741       -26.9322
   7   2.0000      -0.900600       -24.5066
   8   2.0000      -0.796254       -21.6672
   9   2.0000      -0.719053       -19.5664
  10   2.0000      -0.643499       -17.5105
  11   2.0000      -0.613343       -16.6899
  12   2.0000      -0.551593       -15.0096
  13   2.0000      -0.512826       -13.9547
  14   2.0000      -0.495803       -13.4915
  15   2.0000      -0.479044       -13.0355
  16   2.0000      -0.432886       -11.7794
  17   2.0000      -0.410347       -11.1661
  18   2.0000      -0.394102       -10.7241
  19   2.0000      -0.390080       -10.6146
  20   2.0000      -0.388908       -10.5827
  21   2.0000      -0.362121        -9.8538
  22   2.0000      -0.270756        -7.3676
  23   2.0000      -0.171730        -4.6730
  24   0.0000       0.021028         0.5722
  25   0.0000       0.040410         1.0996
  26   0.0000       0.049066         1.3351
  27   0.0000       0.071411         1.9432
  28   0.0000       0.082306         2.2397

MULLIKEN ATOMIC CHARGES
-----------------------
   0 C :    0.006432
   1 C :    0.642973
   2 N :   -0.504112
   3 H :   -0.070810
   4 H :   -0.100158
   5 C :    0.699224
   6 C :    0.359657
   7 N :   -0.137687
   8 H :   -0.113088
   9 H :   -0.051770
  10 H :   -0.141860
  11 H :   -0.160637
  12 H :   -0.382735
  13 H :   -0.007348
  14 H :    0.008175
  15 H :   -0.046256
Sum of atomic charges:    0.0000000

LOEWDIN ATOMIC CHARGES
----------------------
   0 C :   -0.009405
   1 C :    0.126288
   2 N :   -0.032212
   3 H :    0.022152
   4 H :    0.021986
   5 C :   -0.230126
   6 C :    0.133923
   7 N :    0.194757
   8 H :   -0.026656
   9 H :    0.004943
  10 H :    0.030683
  11 H :   -0.102570
  12 H :   -0.096637
  13 H :   -0.011019
  14 H :   -0.012417
  15 H :   -0.013691

  Mayer bond orders larger than 0.100000
B(  0-C ,  1-C ) :   1.2864 B(  0-C ,  2-N ) :   0.8736 B(  0-C ,  3-H ) :   0.9092
B(  0-C ,  4-H ) :   0.9308 B(  0-C , 10-H ) :  -0.1177 B(  0-C , 13-H ) :   0.2028
B(  0-C , 14-H ) :   0.2132 B(  0-C , 15-H ) :   0.2598 B(  1-C , 13-H ) :   0.8157
B(  1-C , 14-H ) :   0.7659 B(  1-C , 15-H ) :   0.7766 B(  2-N ,  3-H ) :   0.1582
B(  2-N ,  4-H ) :   0.1963 B(  2-N ,  5-C ) :   1.0408 B(  2-N ,  6-C ) :   0.2821
B(  2-N ,  7-N ) :   0.1290 B(  2-N , 10-H ) :   1.1769 B(  5-C ,  6-C ) :   1.6764
B(  5-C ,  7-N ) :   0.8201 B(  5-C ,  9-H ) :  -0.1047 B(  5-C , 10-H ) :  -0.1665
B(  5-C , 11-H ) :   0.2104 B(  5-C , 12-H ) :   0.2447 B(  6-C ,  7-N ) :   0.2240
B(  6-C , 11-H ) :   0.8302 B(  6-C , 12-H ) :   0.7476 B(  7-N ,  8-H ) :   1.0587
B(  7-N ,  9-H ) :   1.1816 B(  8-H ,  9-H ) :  -0.1349

Dispersion correction           -0.010433951
FINAL SINGLE POINT ENERGY      -267.420246597557

DIPOLE MOMENT
-------------
                                X             Y             Z
Electronic contribution:      2.96943       0.56460      -1.28793
Nuclear contribution   :     -3.69145      -1.49398       1.19810
                        -----------------------------------------
Total Dipole Moment    :     -0.72202      -0.92938      -0.08983
                        -----------------------------------------
Magnitude (a.u.)       :      1.18031
Magnitude (Debye)      :      3.00012

Rotational constants in cm-1:     0.270790     0.068966     0.056679
Rotational constants in MHz :  8118.084803  2067.559423  1699.196934

                             ****ORCA TERMINATED NORMALLY****
TOTAL RUN TIME: 0 days 0 hours 0 minutes 27 seconds 493 msec
