                         Program Version 5.0.0 -  RELEASE  -
|  1> !PBE0 D3BJ RIJCOSX def2-SVPD def2/J TightSCF
|  2> *xyz 0 1
|  3> C          1.63556       -1.67040       -5.29211
|  4> C          0.33848       -1.50091       -4.50540
|  5> N          2.48451       -0.50741       -5.14039
|  6> H          1.39834       -1.82924       -6.35259
|  7> H          2.15586       -2.56540       -4.93209
|  8> C          3.45115       -0.14953       -5.95259
|  9> N          3.92267        1.08956       -5.85071
| 10> C          3.96616       -1.00618       -6.86788
| 11> H          3.52139       -1.90647       -6.99527
| 12> H          4.44482       -0.62347       -7.67035
| 13> H          2.25200        0.24080       -4.49879
| 14> H          3.46428        1.64078       -5.13639
| 15> H          4.83447        1.31375       -6.22465
| 16> H         -0.17658       -0.62881       -4.85045
| 17> H          0.56384       -1.39374       -3.46490
| 18> H         -0.28102       -2.36136       -4.64938
| 19> *
| 20>
| 21> %MaxCore 64000
| 22>
| 23> %pal nprocs 4
| 24> end
| 25>
| 26> %scf
| 27>   MaxIter 150
| 28> end
| 29>
| 30>
| 31>                          ****END OF INPUT****

CARTESIAN COORDINATES (ANGSTROEM)
---------------------------------
  C      1.635560   -1.670400   -5.292110
  C      0.338480   -1.500910   -4.505400
  N      2.484510   -0.507410   -5.140390
  H      1.398340   -1.829240   -6.352590
  H      2.155860   -2.565400   -4.932090
  C      3.451150   -0.149530   -5.952590
  N      3.922670    1.089560   -5.850710
  C      3.966160   -1.006180   -6.867880
  H      3.521390   -1.906470   -6.995270
  H      4.444820   -0.623470   -7.670350
  H      2.252000    0.240800   -4.498790
  H      3.464280    1.640780   -5.136390
  H      4.834470    1.313750   -6.224650
  H     -0.176580   -0.628810   -4.850450
  H      0.563840   -1.393740   -3.464900
  H     -0.281020   -2.361360   -4.649380

 Total Charge           Charge          ....    0
 Multiplicity           Mult            ....    1
 Number of Electrons    NEL             ....   48
 Basis Dimension        Dim             ....  200

ORBITAL ENERGIES
----------------

  NO   OCC          E(Eh)            E(eV)
   0   2.0000     -14.404449      -391.9650
   1   2.0000     -14.397827      -391.7848
   2   2.0000     -10.276652      -279.6419
   3   2.0000     -10.269211      -279.4394
   4   2.0000     -10.229681      -278.3638
   5   2.0000     -10.144164      -276.0367
   6   2.0000      -0.998436       -27.1688
   7   2.0000      -0.905973       -24.6528
   8   2.0000      -0.781981       -21.2788
   9   2.0000      -0.719958       -19.5911
  10   2.0000      -0.661164       -17.9912
  11   2.0000      -0.584025       -15.8921
  12   2.0000      -0.553450       -15.0601
  13   2.0000      -0.540554       -14.7092
  14   2.0000      -0.490362       -13.3434
  15   2.0000      -0.482593       -13.1320
  16   2.0000      -0.415687       -11.3114
  17   2.0000      -0.409669       -11.1476
  18   2.0000      -0.407089       -11.0774
  19   2.0000      -0.384171       -10.4538
  20   2.0000      -0.375666       -10.2224
  21   2.0000      -0.363035        -9.8787
  22   2.0000      -0.264789        -7.2053
  23   2.0000      -0.176123        -4.7925
  24   0.0000       0.019347         0.5265
  25   0.0000       0.036398         0.9904
  26   0.0000       0.054292         1.4774
  27   0.0000       0.072887         1.9834
  28   0.0000       0.078873         2.1463

MULLIKEN ATOMIC CHARGES
-----------------------
   0 C :    0.021818
   1 C :    0.656257
   2 N :   -0.524661
   3 H :   -0.022779
   4 H :   -0.059891
   5 C :    0.590605
   6 N :   -0.056270
   7 C :    0.328047
   8 H :   -0.061952
   9 H :   -0.380686
  10 H :   -0.253443
  11 H :   -0.095235
  12 H :   -0.089269
  13 H :   -0.006575
  14 H :    0.001268
  15 H :   -0.047234
Sum of atomic charges:   -0.0000000

LOEWDIN ATOMIC CHARGES
----------------------
   0 C :    0.003349
   1 C :    0.123680
   2 N :   -0.032326
   3 H :    0.029638
   4 H :    0.030160
   5 C :   -0.240585
   6 N :    0.180027
   7 C :    0.155769
   8 H :   -0.121198
   9 H :   -0.105837
  10 H :    0.018775
  11 H :   -0.012310
  12 H :    0.013592
  13 H :   -0.014140
  14 H :   -0.015607
  15 H :   -0.012988

  Mayer bond orders larger than 0.100000
B(  0-C ,  1-C ) :   1.2692 B(  0-C ,  2-N ) :   0.9033 B(  0-C ,  3-H ) :   0.8969
B(  0-C ,  4-H ) :   0.9185 B(  0-C , 10-H ) :  -0.1121 B(  0-C , 13-H ) :   0.1868
B(  0-C , 14-H ) :   0.2156 B(  0-C , 15-H ) :   0.2554 B(  1-C , 13-H ) :   0.8232
B(  1-C , 14-H ) :   0.7556 B(  1-C , 15-H ) :   0.7754 B(  2-N ,  3-H ) :   0.1752
B(  2-N ,  4-H ) :   0.1676 B(  2-N ,  5-C ) :   1.0356 B(  2-N ,  6-N ) :   0.2028
B(  2-N ,  7-C ) :   0.3060 B(  2-N , 10-H ) :   1.2625 B(  5-C ,  6-N ) :   0.8507
B(  5-C ,  7-C ) :   1.7959 B(  5-C ,  8-H ) :   0.2709 B(  5-C ,  9-H ) :   0.1984
B(  5-C , 10-H ) :  -0.2360 B(  6-N ,  7-C ) :   0.2451 B(  6-N , 11-H ) :   1.0945
B(  6-N , 12-H ) :   1.2135 B(  7-C ,  8-H ) :   0.6770 B(  7-C ,  9-H ) :   0.8420
B(  8-H ,  9-H ) :   0.1923 B( 11-H , 12-H ) :  -0.1252

Dispersion correction           -0.010470985
FINAL SINGLE POINT ENERGY      -267.420993405125

DIPOLE MOMENT
-------------
                                X             Y             Z
Electronic contribution:      3.03603       2.61877      -0.21546
Nuclear contribution   :     -3.68222      -1.93858       0.98231
                        -----------------------------------------
Total Dipole Moment    :     -0.64620       0.68019       0.76685
                        -----------------------------------------
Magnitude (a.u.)       :      1.21172
Magnitude (Debye)      :      3.07996

Rotational constants in cm-1:     0.275407     0.068040     0.056255
Rotational constants in MHz :  8256.498401  2039.796466  1686.484500

                             ****ORCA TERMINATED NORMALLY****
TOTAL RUN TIME: 0 days 0 hours 0 minutes 27 seconds 907 msec
