                         Program Version 5.0.0 -  RELEASE  -
|  1> !PBE0 D3BJ RIJCOSX def2-SVPD def2/J TightSCF xyzfile
|  2>
|  3> *xyzfile 0 1 D1.xyz
|  4>
|  5> %MaxCore 64000
|  6>
|  7> %pal nprocs 4
|  8> end
|  9>
| 10> %scf
| 11>   MaxIter 150
| 12> end
| 13>
| 14>
| 15>                          ****END OF INPUT****

CARTESIAN COORDINATES (ANGSTROEM)
---------------------------------
  C      1.635557   -1.670396   -5.292109
  C      0.338484   -1.500907   -4.505398
  C      2.484511   -0.507410   -5.140392
  C     -0.684873   -0.528026   -5.099889
  C     -0.290406    0.951335   -5.153423
  H      0.607991    1.070692   -5.764412
  C     -0.055168    1.619420   -3.788577
  H     -1.080912    1.483775   -5.689436
  H      0.045006    0.862302   -3.003015
  H     -0.922936    2.230329   -3.517028
  C      1.223022    2.469865   -3.756911
  H      1.114701    3.258074   -4.532999
  H      1.237732    3.011242   -2.792157
  F      2.353815    1.712032   -3.934477
  H      1.398337   -1.829239   -6.352591
  H      2.155864   -2.565398   -4.932091
  C      3.451149   -0.149530   -5.952589
  N      3.922667    1.089559   -5.850711
  N      3.966162   -1.006183   -6.867880
  H      3.521391   -1.906467   -6.995270
  H      4.444824   -0.623472   -7.670348
  H      2.251995    0.240804   -4.498792
  H      3.464277    1.640782   -5.136392
  H      4.834470    1.313745   -6.224653
  H     -0.937999   -0.869056   -6.110838
  H     -1.604638   -0.622496   -4.513132
  H      0.594887   -1.211578   -3.482312
  H     -0.126530   -2.487656   -4.434176

 Total Charge           Charge          ....    0
 Multiplicity           Mult            ....    1
 Number of Electrons    NEL             ....   88
 Basis Dimension        Dim             ....  359

ORBITAL ENERGIES
----------------

  NO   OCC          E(Eh)            E(eV)
   0   2.0000     -24.800533      -674.8568
   1   2.0000     -14.383131      -391.3849
   2   2.0000     -14.367052      -390.9474
   3   2.0000     -10.322846      -280.8989
   4   2.0000     -10.252457      -278.9835
   5   2.0000     -10.240288      -278.6524
   6   2.0000     -10.222789      -278.1762
   7   2.0000     -10.219831      -278.0958
   8   2.0000     -10.210406      -277.8393
   9   2.0000     -10.199868      -277.5525
  10   2.0000     -10.128825      -275.6193
  11   2.0000      -1.251734       -34.0614
  12   2.0000      -0.958955       -26.0945
  13   2.0000      -0.870224       -23.6800
  14   2.0000      -0.826723       -22.4963
  15   2.0000      -0.793185       -21.5837
  16   2.0000      -0.743167       -20.2226
  17   2.0000      -0.707892       -19.2627
  18   2.0000      -0.656280       -17.8583
  19   2.0000      -0.622431       -16.9372
  20   2.0000      -0.594328       -16.1725
  21   2.0000      -0.569152       -15.4874
  22   2.0000      -0.553679       -15.0664
  23   2.0000      -0.538689       -14.6585
  24   2.0000      -0.523018       -14.2320
  25   2.0000      -0.519984       -14.1495
  26   2.0000      -0.500606       -13.6222
  27   2.0000      -0.471845       -12.8396
  28   2.0000      -0.454264       -12.3612
  29   2.0000      -0.453812       -12.3489
  30   2.0000      -0.431870       -11.7518
  31   2.0000      -0.416305       -11.3282
  32   2.0000      -0.405223       -11.0267
  33   2.0000      -0.392223       -10.6729
  34   2.0000      -0.375009       -10.2045
  35   2.0000      -0.371733       -10.1154
  36   2.0000      -0.362007        -9.8507
  37   2.0000      -0.349356        -9.5064
  38   2.0000      -0.332145        -9.0381
  39   2.0000      -0.320232        -8.7140
  40   2.0000      -0.314775        -8.5655
  41   2.0000      -0.303095        -8.2476
  42   2.0000      -0.260354        -7.0846
  43   2.0000      -0.155770        -4.2387
  44   0.0000       0.026353         0.7171
  45   0.0000       0.035978         0.9790
  46   0.0000       0.043250         1.1769
  47   0.0000       0.052963         1.4412
  48   0.0000       0.062905         1.7117

MULLIKEN ATOMIC CHARGES
-----------------------
   0 C :    0.241324
   1 C :    0.168675
   2 C :   -0.212612
   3 C :    0.081377
   4 C :   -0.059231
   5 H :    0.110719
   6 C :   -0.147675
   7 H :   -0.193893
   8 H :    0.063403
   9 H :   -0.160406
  10 C :    0.959276
  11 H :   -0.011429
  12 H :   -0.029180
  13 F :   -0.804025
  14 H :    0.089479
  15 H :   -0.117429
  16 C :    0.781369
  17 N :   -0.002398
  18 N :   -0.250477
  19 H :   -0.017954
  20 H :   -0.131055
  21 H :   -0.146919
  22 H :    0.037856
  23 H :   -0.277439
  24 H :    0.152967
  25 H :   -0.054632
  26 H :    0.074482
  27 H :   -0.144174
Sum of atomic charges:    0.0000000

LOEWDIN ATOMIC CHARGES
----------------------
   0 C :   -0.062714
   1 C :   -0.041845
   2 C :   -0.023606
   3 C :   -0.027566
   4 C :   -0.025259
   5 H :    0.012601
   6 C :   -0.003536
   7 H :    0.018039
   8 H :    0.019343
   9 H :    0.029895
  10 C :    0.159519
  11 H :    0.047136
  12 H :    0.037081
  13 F :   -0.226174
  14 H :    0.018588
  15 H :    0.017986
  16 C :   -0.199230
  17 N :    0.190324
  18 N :    0.195430
  19 H :   -0.017092
  20 H :   -0.015559
  21 H :   -0.107974
  22 H :   -0.064162
  23 H :   -0.008418
  24 H :    0.024829
  25 H :    0.020231
  26 H :    0.015332
  27 H :    0.016800

  Mayer bond orders larger than 0.100000
B(  0-C ,  1-C ) :   1.2072 B(  0-C ,  2-C ) :   0.8124 B(  0-C , 14-H ) :   0.7873
B(  0-C , 15-H ) :   0.6933 B(  0-C , 21-H ) :   0.3874 B(  0-C , 26-H ) :   0.1445
B(  0-C , 27-H ) :   0.1911 B(  1-C ,  2-C ) :   0.1802 B(  1-C ,  3-C ) :   1.2507
B(  1-C , 21-H ) :  -0.1132 B(  1-C , 24-H ) :   0.1504 B(  1-C , 25-H ) :   0.1678
B(  1-C , 26-H ) :   0.7459 B(  1-C , 27-H ) :   0.8061 B(  2-C , 14-H ) :   0.1846
B(  2-C , 15-H ) :   0.3246 B(  2-C , 16-C ) :   1.8091 B(  2-C , 17-N ) :   0.4174
B(  2-C , 18-N ) :   0.2882 B(  2-C , 19-H ) :  -0.1522 B(  2-C , 21-H ) :   0.5306
B(  3-C ,  4-C ) :   1.3061 B(  3-C ,  5-H ) :   0.1337 B(  3-C ,  7-H ) :   0.1350
B(  3-C , 24-H ) :   0.6900 B(  3-C , 25-H ) :   0.8682 B(  3-C , 26-H ) :   0.1430
B(  3-C , 27-H ) :   0.1411 B(  4-C ,  5-H ) :   0.8261 B(  4-C ,  6-C ) :   1.2140
B(  4-C ,  7-H ) :   0.8888 B(  4-C ,  8-H ) :   0.1212 B(  4-C ,  9-H ) :   0.1455
B(  4-C , 24-H ) :   0.1813 B(  4-C , 25-H ) :   0.1155 B(  5-H , 21-H ) :   0.1390
B(  6-C ,  8-H ) :   0.8733 B(  6-C ,  9-H ) :   0.9769 B(  6-C , 10-C ) :   1.1739
B(  6-C , 11-H ) :   0.1041 B(  6-C , 12-H ) :   0.1523 B(  6-C , 13-F ) :   0.1613
B( 10-C , 11-H ) :   0.8352 B( 10-C , 12-H ) :   0.8049 B( 10-C , 13-F ) :   0.5998
B( 11-H , 13-F ) :   0.2465 B( 13-F , 21-H ) :  -0.1374 B( 13-F , 22-H ) :   0.1205
B( 16-C , 17-N ) :   0.6370 B( 16-C , 18-N ) :   0.7818 B( 16-C , 21-H ) :   0.1575
B( 16-C , 23-H ) :  -0.2009 B( 17-N , 18-N ) :   0.1159 B( 17-N , 22-H ) :   1.0339
B( 17-N , 23-H ) :   1.3574 B( 18-N , 19-H ) :   1.0763 B( 18-N , 20-H ) :   1.2416
B( 18-N , 21-H ) :  -0.1240 B( 19-H , 20-H ) :  -0.1308 B( 22-H , 23-H ) :  -0.1786

Dispersion correction           -0.025097612
FINAL SINGLE POINT ENERGY      -523.446118268883

DIPOLE MOMENT
-------------
                                X             Y             Z
Electronic contribution:      7.83318       3.84019       1.14257
Nuclear contribution   :     -8.11591      -2.99033      -1.35383
                        -----------------------------------------
Total Dipole Moment    :     -0.28273       0.84986      -0.21126
                        -----------------------------------------
Magnitude (a.u.)       :      0.92024
Magnitude (Debye)      :      2.33906

Rotational constants in cm-1:     0.043530     0.028984     0.019589
Rotational constants in MHz :  1305.007140   868.923804   587.262638

                             ****ORCA TERMINATED NORMALLY****
TOTAL RUN TIME: 0 days 0 hours 1 minutes 39 seconds 870 msec
