                         Program Version 5.0.0 -  RELEASE  -
|  1> !TPSS D3BJ RIJCOSX def2-SVPD def2/J TightSCF
|  2> *xyz -1 1
|  3> C         -7.33044       -2.67899       -3.20681
|  4> S         -6.01966       -2.92697       -4.41913
|  5> O         -5.64583       -1.58838       -4.91931
|  6> O         -4.88196       -3.50370       -3.66724
|  7> O         -6.54927       -3.80515       -5.42507
|  8> C         -6.28692       -0.73588       -1.89353
|  9> C         -7.46900       -1.24615       -2.71383
| 10> H         -7.60191       -0.60135       -3.58533
| 11> H         -8.38979       -1.17344       -2.12692
| 12> H         -7.11825       -3.37982       -2.39805
| 13> H         -8.24184       -3.00474       -3.70651
| 14> H         -5.39124       -0.81034       -2.47415
| 15> H         -6.18709       -1.32597       -1.00655
| 16> H         -6.45393        0.28631       -1.62495
| 17> *
| 18> %MaxCore 64000
| 19>
| 20> %pal nprocs 8
| 21> end
| 22>
| 23> %scf
| 24>   MaxIter 150
| 25> end
| 26>
| 27>
| 28>                          ****END OF INPUT****

CARTESIAN COORDINATES (ANGSTROEM)
---------------------------------
  C     -7.330440   -2.678990   -3.206810
  S     -6.019660   -2.926970   -4.419130
  O     -5.645830   -1.588380   -4.919310
  O     -4.881960   -3.503700   -3.667240
  O     -6.549270   -3.805150   -5.425070
  C     -6.286920   -0.735880   -1.893530
  C     -7.469000   -1.246150   -2.713830
  H     -7.601910   -0.601350   -3.585330
  H     -8.389790   -1.173440   -2.126920
  H     -7.118250   -3.379820   -2.398050
  H     -8.241840   -3.004740   -3.706510
  H     -5.391240   -0.810340   -2.474150
  H     -6.187090   -1.325970   -1.006550
  H     -6.453930    0.286310   -1.624950

 Total Charge           Charge          ....   -1
 Multiplicity           Mult            ....    1
 Number of Electrons    NEL             ....   66
 Basis Dimension        Dim             ....  212

ORBITAL ENERGIES
----------------

  NO   OCC          E(Eh)            E(eV)
   0   2.0000     -88.367345     -2404.5977
   1   2.0000     -18.684011      -508.4178
   2   2.0000     -18.674698      -508.1644
   3   2.0000     -18.670528      -508.0509
   4   2.0000      -9.870483      -268.5895
   5   2.0000      -9.864040      -268.4142
   6   2.0000      -9.855924      -268.1933
   7   2.0000      -7.727242      -210.2689
   8   2.0000      -5.713287      -155.4664
   9   2.0000      -5.713147      -155.4626
  10   2.0000      -5.712258      -155.4385
  11   2.0000      -0.851710       -23.1762
  12   2.0000      -0.718861       -19.5612
  13   2.0000      -0.696946       -18.9649
  14   2.0000      -0.595002       -16.1908
  15   2.0000      -0.509653       -13.8684
  16   2.0000      -0.419323       -11.4103
  17   2.0000      -0.333788        -9.0828
  18   2.0000      -0.286435        -7.7943
  19   2.0000      -0.280171        -7.6239
  20   2.0000      -0.249167        -6.7802
  21   2.0000      -0.238315        -6.4849
  22   2.0000      -0.215758        -5.8711
  23   2.0000      -0.208416        -5.6713
  24   2.0000      -0.187031        -5.0894
  25   2.0000      -0.178632        -4.8608
  26   2.0000      -0.170402        -4.6369
  27   2.0000      -0.105629        -2.8743
  28   2.0000      -0.103218        -2.8087
  29   2.0000      -0.074105        -2.0165
  30   2.0000      -0.067168        -1.8277
  31   2.0000      -0.057543        -1.5658
  32   2.0000      -0.022062        -0.6003
  33   0.0000       0.126944         3.4543
  34   0.0000       0.151696         4.1279
  35   0.0000       0.157435         4.2840
  36   0.0000       0.166820         4.5394
  37   0.0000       0.185072         5.0361

MULLIKEN ATOMIC CHARGES
-----------------------
   0 C :   -0.009370
   1 S :    1.240782
   2 O :   -0.818292
   3 O :   -0.792819
   4 O :   -0.784162
   5 C :    0.685719
   6 C :   -0.225612
   7 H :    0.041731
   8 H :   -0.195970
   9 H :    0.007023
  10 H :   -0.006787
  11 H :   -0.076888
  12 H :   -0.008027
  13 H :   -0.057329
Sum of atomic charges:   -1.0000000

LOEWDIN ATOMIC CHARGES
----------------------
   0 C :   -0.080592
   1 S :    0.854913
   2 O :   -0.569793
   3 O :   -0.587737
   4 O :   -0.562978
   5 C :    0.132057
   6 C :   -0.095466
   7 H :    0.009728
   8 H :    0.000022
   9 H :   -0.001208
  10 H :   -0.009125
  11 H :   -0.028368
  12 H :   -0.026477
  13 H :   -0.034974

  Mayer bond orders larger than 0.100000
B(  0-C ,  1-S ) :   0.8585 B(  0-C ,  4-O ) :   0.1059 B(  0-C ,  6-C ) :   1.2278
B(  0-C ,  7-H ) :   0.1410 B(  0-C ,  8-H ) :   0.1198 B(  0-C ,  9-H ) :   0.9406
B(  0-C , 10-H ) :   0.9428 B(  1-S ,  2-O ) :   1.2830 B(  1-S ,  3-O ) :   1.2851
B(  1-S ,  4-O ) :   1.3576 B(  5-C ,  6-C ) :   1.2622 B(  5-C , 11-H ) :   0.8388
B(  5-C , 12-H ) :   0.7857 B(  5-C , 13-H ) :   0.7784 B(  6-C ,  7-H ) :   0.8753
B(  6-C ,  8-H ) :   0.9532 B(  6-C ,  9-H ) :   0.1032 B(  6-C , 10-H ) :   0.1122
B(  6-C , 11-H ) :   0.2103 B(  6-C , 12-H ) :   0.2054 B(  6-C , 13-H ) :   0.2068

Dispersion correction           -0.016747654
FINAL SINGLE POINT ENERGY      -742.148489695235

DIPOLE MOMENT
-------------
                                X             Y             Z
Electronic contribution:      3.85317      -5.85661      -7.97045
Nuclear contribution   :     -5.28952       6.71955       9.52938
                        -----------------------------------------
Total Dipole Moment    :     -1.43634       0.86294       1.55893
                        -----------------------------------------
Magnitude (a.u.)       :      2.28867
Magnitude (Debye)      :      5.81733

Rotational constants in cm-1:     0.135789     0.055302     0.052251
Rotational constants in MHz :  4070.851802  1657.908940  1566.458563

                             ****ORCA TERMINATED NORMALLY****
TOTAL RUN TIME: 0 days 0 hours 0 minutes 8 seconds 452 msec
