                         Program Version 5.0.0 -  RELEASE  -
|  1> !TPSS D3BJ RIJCOSX def2-SVPD def2/J TightSCF
|  2> *xyz 1 1
|  3> C         -2.16038       -1.36949       -3.46710
|  4> N         -3.03011       -1.91086       -4.54107
|  5> C         -2.04772        0.14658       -3.51177
|  6> H         -3.47744       -2.79151       -4.25710
|  7> H         -2.53801       -2.01786       -5.43808
|  8> H         -3.89159       -1.37604       -4.71437
|  9> H         -1.18444       -1.84400       -3.56639
| 10> H         -2.59819       -1.70838       -2.52848
| 11> C         -3.32876        0.87504       -3.10367
| 12> H         -1.74003        0.45234       -4.51713
| 13> H         -1.23261        0.43494       -2.84221
| 14> H         -4.12483        0.59148       -3.76000
| 15> H         -3.17368        1.93185       -3.16688
| 16> H         -3.58415        0.61151       -2.09857
| 17> *
| 18> %MaxCore 64000
| 19>
| 20> %pal nprocs 8
| 21> end
| 22>
| 23> %scf
| 24>   MaxIter 150
| 25> end
| 26>
| 27>
| 28>                          ****END OF INPUT****

CARTESIAN COORDINATES (ANGSTROEM)
---------------------------------
  C     -2.160380   -1.369490   -3.467100
  N     -3.030110   -1.910860   -4.541070
  C     -2.047720    0.146580   -3.511770
  H     -3.477440   -2.791510   -4.257100
  H     -2.538010   -2.017860   -5.438080
  H     -3.891590   -1.376040   -4.714370
  H     -1.184440   -1.844000   -3.566390
  H     -2.598190   -1.708380   -2.528480
  C     -3.328760    0.875040   -3.103670
  H     -1.740030    0.452340   -4.517130
  H     -1.232610    0.434940   -2.842210
  H     -4.124830    0.591480   -3.760000
  H     -3.173680    1.931850   -3.166880
  H     -3.584150    0.611510   -2.098570

 Total Charge           Charge          ....    1
 Multiplicity           Mult            ....    1
 Number of Electrons    NEL             ....   34
 Basis Dimension        Dim             ....  160

ORBITAL ENERGIES
----------------

  NO   OCC          E(Eh)            E(eV)
   0   2.0000     -14.448025      -393.1507
   1   2.0000     -10.248458      -278.8747
   2   2.0000     -10.179586      -277.0006
   3   2.0000     -10.148308      -276.1495
   4   2.0000      -1.143200       -31.1081
   5   2.0000      -0.912982       -24.8435
   6   2.0000      -0.829021       -22.5588
   7   2.0000      -0.762404       -20.7461
   8   2.0000      -0.738064       -20.0837
   9   2.0000      -0.717325       -19.5194
  10   2.0000      -0.652019       -17.7423
  11   2.0000      -0.592081       -16.1113
  12   2.0000      -0.568253       -15.4630
  13   2.0000      -0.547147       -14.8886
  14   2.0000      -0.490456       -13.3460
  15   2.0000      -0.484259       -13.1774
  16   2.0000      -0.479337       -13.0434
  17   0.0000      -0.204734        -5.5711
  18   0.0000      -0.151965        -4.1352
  19   0.0000      -0.149137        -4.0582
  20   0.0000      -0.126941        -3.4542
  21   0.0000      -0.102407        -2.7866

MULLIKEN ATOMIC CHARGES
-----------------------
   0 C :    0.629016
   1 N :   -0.939628
   2 C :   -0.344312
   3 H :    0.390983
   4 H :    0.451019
   5 H :    0.352086
   6 H :   -0.068772
   7 H :    0.013681
   8 C :    0.680156
   9 H :   -0.011632
  10 H :    0.004298
  11 H :   -0.191042
  12 H :   -0.004626
  13 H :    0.038773
Sum of atomic charges:    1.0000000

LOEWDIN ATOMIC CHARGES
----------------------
   0 C :    0.098037
   1 N :    0.331705
   2 C :   -0.036603
   3 H :    0.104380
   4 H :    0.112060
   5 H :    0.086957
   6 H :    0.050087
   7 H :    0.049599
   8 C :    0.160900
   9 H :    0.031482
  10 H :    0.042932
  11 H :   -0.031039
  12 H :    0.003213
  13 H :   -0.003711

  Mayer bond orders larger than 0.100000
B(  0-C ,  1-N ) :   0.6514 B(  0-C ,  2-C ) :   1.1975 B(  0-C ,  6-H ) :   0.8835
B(  0-C ,  7-H ) :   0.8851 B(  0-C , 10-H ) :   0.1056 B(  1-N ,  3-H ) :   0.6923
B(  1-N ,  4-H ) :   0.6291 B(  1-N ,  5-H ) :   0.7426 B(  1-N ,  6-H ) :   0.1192
B(  2-C ,  8-C ) :   1.3017 B(  2-C ,  9-H ) :   0.9452 B(  2-C , 10-H ) :   0.9198
B(  2-C , 11-H ) :   0.1817 B(  2-C , 12-H ) :   0.1920 B(  2-C , 13-H ) :   0.1703
B(  8-C , 11-H ) :   0.8462 B(  8-C , 12-H ) :   0.8030 B(  8-C , 13-H ) :   0.7932
B( 11-H , 13-H ) :   0.1084

Dispersion correction           -0.011351812
FINAL SINGLE POINT ENERGY      -174.770037357814

DIPOLE MOMENT
-------------
                                X             Y             Z
Electronic contribution:      0.33343      -2.11309      -1.07979
Nuclear contribution   :     -0.76147       0.35838       0.01319
                        -----------------------------------------
Total Dipole Moment    :     -0.42804      -1.75471      -1.06660
                        -----------------------------------------
Magnitude (a.u.)       :      2.09758
Magnitude (Debye)      :      5.33163

Rotational constants in cm-1:     0.457188     0.153451     0.133348
Rotational constants in MHz : 13706.154863  4600.337483  3997.673747

                             ****ORCA TERMINATED NORMALLY****
TOTAL RUN TIME: 0 days 0 hours 0 minutes 4 seconds 829 msec
