                         Program Version 5.0.0 -  RELEASE  -
|  1> !TPSS D3BJ RIJCOSX def2-SVPD def2/J TightSCF xyzfile
|  2>
|  3> *xyzfile 0 1 B.xyz
|  4>
|  5> %MaxCore 64000
|  6>
|  7> %pal nprocs 4
|  8> end
|  9>
| 10> %scf
| 11>   MaxIter 150
| 12> end
| 13>
| 14>
| 15>                          ****END OF INPUT****

CARTESIAN COORDINATES (ANGSTROEM)
---------------------------------
  C     -2.160376   -1.369486   -3.467104
  N     -3.030108   -1.910857   -4.541074
  C     -2.047717    0.146583   -3.511774
  C     -7.330440   -2.678991   -3.206811
  S     -6.019659   -2.926965   -4.419128
  H     -3.477443   -2.791513   -4.257096
  H     -2.538013   -2.017860   -5.438075
  H     -3.891589   -1.376039   -4.714365
  O     -5.645830   -1.588384   -4.919307
  O     -4.881961   -3.503697   -3.667235
  H     -1.184438   -1.843997   -3.566393
  H     -2.598195   -1.708376   -2.528477
  O     -6.549267   -3.805150   -5.425071
  C     -3.328755    0.875037   -3.103669
  H     -1.740034    0.452343   -4.517126
  H     -1.232611    0.434938   -2.842208
  C     -3.628487    0.771601   -1.609363
  H     -4.175106    0.490791   -3.682203
  H     -3.237812    1.928663   -3.381480
  C     -4.975718    1.361432   -1.190644
  H     -2.830700    1.276234   -1.054766
  H     -3.594312   -0.275838   -1.294603
  C     -6.184720    0.784347   -1.926464
  H     -4.956292    2.445725   -1.342200
  H     -5.097256    1.205252   -0.114136
  C     -6.286921   -0.735882   -1.893531
  H     -6.163994    1.100199   -2.974250
  H     -7.094530    1.223459   -1.504509
  C     -7.468999   -1.246153   -2.713833
  H     -6.360641   -1.090347   -0.859176
  H     -5.369848   -1.171853   -2.295982
  H     -7.601914   -0.601349   -3.585329
  H     -8.389791   -1.173436   -2.126922
  H     -7.118254   -3.379818   -2.398055
  H     -8.241838   -3.004745   -3.706513

 Total Charge           Charge          ....    0
 Multiplicity           Mult            ....    1
 Number of Electrons    NEL             ....  122
 Basis Dimension        Dim             ....  464

ORBITAL ENERGIES
----------------

  NO   OCC          E(Eh)            E(eV)
   0   2.0000     -88.534529     -2409.1470
   1   2.0000     -18.853085      -513.0185
   2   2.0000     -18.852483      -513.0022
   3   2.0000     -18.838110      -512.6110
   4   2.0000     -14.219817      -386.9409
   5   2.0000     -10.084071      -274.4015
   6   2.0000     -10.037761      -273.1414
   7   2.0000     -10.018168      -272.6082
   8   2.0000     -10.009996      -272.3858
   9   2.0000     -10.002300      -272.1764
  10   2.0000     -10.001913      -272.1659
  11   2.0000      -9.994530      -271.9650
  12   2.0000      -9.994112      -271.9536
  13   2.0000      -9.991050      -271.8703
  14   2.0000      -7.893999      -214.8066
  15   2.0000      -5.880914      -160.0278
  16   2.0000      -5.879961      -160.0019
  17   2.0000      -5.878064      -159.9503
  18   2.0000      -1.023586       -27.8532
  19   2.0000      -0.934898       -25.4399
  20   2.0000      -0.883904       -24.0522
  21   2.0000      -0.880313       -23.9545
  22   2.0000      -0.772674       -21.0255
  23   2.0000      -0.744579       -20.2610
  24   2.0000      -0.720369       -19.6022
  25   2.0000      -0.679539       -18.4912
  26   2.0000      -0.648880       -17.6569
  27   2.0000      -0.607789       -16.5388
  28   2.0000      -0.572866       -15.5885
  29   2.0000      -0.560700       -15.2574
  30   2.0000      -0.545676       -14.8486
  31   2.0000      -0.524038       -14.2598
  32   2.0000      -0.513029       -13.9602
  33   2.0000      -0.487585       -13.2679
  34   2.0000      -0.472452       -12.8561
  35   2.0000      -0.447697       -12.1825
  36   2.0000      -0.445987       -12.1359
  37   2.0000      -0.430812       -11.7230
  38   2.0000      -0.417786       -11.3685
  39   2.0000      -0.404849       -11.0165
  40   2.0000      -0.400328       -10.8935
  41   2.0000      -0.392581       -10.6827
  42   2.0000      -0.391241       -10.6462
  43   2.0000      -0.376523       -10.2457
  44   2.0000      -0.367778       -10.0078
  45   2.0000      -0.362995        -9.8776
  46   2.0000      -0.350628        -9.5411
  47   2.0000      -0.340390        -9.2625
  48   2.0000      -0.333803        -9.0832
  49   2.0000      -0.319648        -8.6981
  50   2.0000      -0.312141        -8.4938
  51   2.0000      -0.302617        -8.2346
  52   2.0000      -0.288826        -7.8594
  53   2.0000      -0.286816        -7.8047
  54   2.0000      -0.282786        -7.6950
  55   2.0000      -0.275027        -7.4839
  56   2.0000      -0.271933        -7.3997
  57   2.0000      -0.239509        -6.5174
  58   2.0000      -0.235977        -6.4213
  59   2.0000      -0.225879        -6.1465
  60   2.0000      -0.198902        -5.4124
  61   0.0000      -0.027725        -0.7544
  62   0.0000       0.002501         0.0681
  63   0.0000       0.008791         0.2392
  64   0.0000       0.015014         0.4085
  65   0.0000       0.025197         0.6857

MULLIKEN ATOMIC CHARGES
-----------------------
   0 C :    0.880435
   1 N :   -1.065847
   2 C :    0.351273
   3 C :    0.365174
   4 S :    1.258850
   5 H :    0.340170
   6 H :    0.513737
   7 H :    0.378340
   8 O :   -0.833720
   9 O :   -0.854613
  10 H :   -0.281525
  11 H :   -0.002934
  12 O :   -0.817269
  13 C :    0.422164
  14 H :   -0.046029
  15 H :   -0.002747
  16 C :   -0.207055
  17 H :   -0.517199
  18 H :   -0.054677
  19 C :    0.625215
  20 H :   -0.337463
  21 H :    0.136983
  22 C :   -0.148447
  23 H :   -0.014902
  24 H :    0.033486
  25 C :    0.249853
  26 H :    0.207093
  27 H :   -0.370302
  28 C :    0.217737
  29 H :   -0.035213
  30 H :   -0.302238
  31 H :    0.128657
  32 H :   -0.212562
  33 H :   -0.001216
  34 H :   -0.003209
Sum of atomic charges:    0.0000000

LOEWDIN ATOMIC CHARGES
----------------------
   0 C :    0.107823
   1 N :    0.331903
   2 C :   -0.003342
   3 C :   -0.043732
   4 S :    0.947299
   5 H :   -0.044501
   6 H :    0.100191
   7 H :   -0.034612
   8 O :   -0.522497
   9 O :   -0.527110
  10 H :    0.032049
  11 H :    0.029915
  12 O :   -0.497287
  13 C :   -0.007311
  14 H :    0.022655
  15 H :    0.026873
  16 C :   -0.026577
  17 H :   -0.002388
  18 H :    0.029216
  19 C :   -0.019946
  20 H :    0.020159
  21 H :    0.002170
  22 C :   -0.027625
  23 H :    0.018687
  24 H :    0.019958
  25 C :   -0.019017
  26 H :    0.015945
  27 H :    0.022438
  28 C :   -0.036456
  29 H :    0.031205
  30 H :   -0.012332
  31 H :    0.017186
  32 H :    0.023999
  33 H :    0.015219
  34 H :    0.009843

  Mayer bond orders larger than 0.100000
B(  0-C ,  1-N ) :   0.5984 B(  0-C ,  2-C ) :   1.1951 B(  0-C , 10-H ) :   0.8301
B(  0-C , 11-H ) :   0.7589 B(  0-C , 13-C ) :   0.1007 B(  0-C , 15-H ) :   0.1533
B(  1-N ,  5-H ) :   0.7038 B(  1-N ,  6-H ) :   0.4904 B(  1-N ,  7-H ) :   0.6743
B(  1-N , 11-H ) :   0.1898 B(  2-C , 10-H ) :   0.1225 B(  2-C , 13-C ) :   1.1746
B(  2-C , 14-H ) :   0.7412 B(  2-C , 15-H ) :   0.7808 B(  2-C , 17-H ) :   0.1301
B(  3-C ,  4-S ) :   0.8515 B(  3-C , 12-O ) :   0.1500 B(  3-C , 28-C ) :   1.2552
B(  3-C , 31-H ) :   0.1008 B(  3-C , 33-H ) :   0.8880 B(  3-C , 34-H ) :   0.7709
B(  4-S ,  8-O ) :   1.1189 B(  4-S ,  9-O ) :   1.1274 B(  4-S , 12-O ) :   1.3570
B(  4-S , 33-H ) :   0.1013 B(  5-H ,  9-O ) :   0.1619 B(  7-H ,  8-O ) :   0.1416
B(  7-H , 17-H ) :   0.1051 B( 10-H , 11-H ) :  -0.1157 B( 13-C , 14-H ) :   0.1584
B( 13-C , 15-H ) :   0.1064 B( 13-C , 16-C ) :   1.1793 B( 13-C , 17-H ) :   0.7274
B( 13-C , 18-H ) :   0.7909 B( 13-C , 20-H ) :   0.1865 B( 16-C , 17-H ) :   0.2145
B( 16-C , 18-H ) :   0.1711 B( 16-C , 19-C ) :   1.1788 B( 16-C , 20-H ) :   1.0301
B( 16-C , 21-H ) :   0.8439 B( 16-C , 22-C ) :   0.1446 B( 16-C , 23-H ) :   0.1482
B( 16-C , 24-H ) :   0.2423 B( 17-H , 26-H ) :   0.1085 B( 19-C , 22-C ) :   1.1398
B( 19-C , 23-H ) :   0.6940 B( 19-C , 24-H ) :   0.6878 B( 22-C , 23-H ) :   0.2152
B( 22-C , 24-H ) :   0.1210 B( 22-C , 25-C ) :   1.2601 B( 22-C , 26-H ) :   0.7984
B( 22-C , 27-H ) :   1.0292 B( 22-C , 28-C ) :   0.1350 B( 22-C , 29-H ) :   0.1058
B( 22-C , 30-H ) :   0.1325 B( 25-C , 27-H ) :   0.1919 B( 25-C , 28-C ) :   1.1577
B( 25-C , 29-H ) :   0.7261 B( 25-C , 30-H ) :   0.8871 B( 25-C , 32-H ) :   0.1860
B( 28-C , 29-H ) :   0.1246 B( 28-C , 31-H ) :   0.8360 B( 28-C , 32-H ) :   0.8357
B( 28-C , 34-H ) :   0.2046 B( 29-H , 30-H ) :   0.2358

Dispersion correction           -0.052216094
FINAL SINGLE POINT ENERGY     -1033.810985268605

DIPOLE MOMENT
-------------
                                X             Y             Z
Electronic contribution:     -6.00661     -15.22350     -11.42714
Nuclear contribution   :      8.59301      16.99497      12.41069
                        -----------------------------------------
Total Dipole Moment    :      2.58641       1.77148       0.98355
                        -----------------------------------------
Magnitude (a.u.)       :      3.28558
Magnitude (Debye)      :      8.35127

Rotational constants in cm-1:     0.025617     0.015295     0.010641
Rotational constants in MHz :   767.991150   458.522408   319.013093

                             ****ORCA TERMINATED NORMALLY****
TOTAL RUN TIME: 0 days 0 hours 1 minutes 13 seconds 488 msec
