                         Program Version 5.0.0 -  RELEASE  -
|  1> !TPSS D3BJ RIJCOSX def2-SVPD def2/J TightSCF
|  2> *xyz 0 1
|  3> C         -7.33044       -2.67899       -3.20681
|  4> S         -6.01966       -2.92697       -4.41913
|  5> F         -5.64583       -1.58838       -4.91931
|  6> O         -4.88196       -3.50370       -3.66724
|  7> O         -6.54927       -3.80515       -5.42507
|  8> C         -6.28692       -0.73588       -1.89353
|  9> C         -7.46900       -1.24615       -2.71383
| 10> H         -7.60191       -0.60135       -3.58533
| 11> H         -8.38979       -1.17344       -2.12692
| 12> H         -7.11825       -3.37982       -2.39805
| 13> H         -8.24184       -3.00474       -3.70651
| 14> H         -5.39124       -0.81034       -2.47415
| 15> H         -6.18709       -1.32597       -1.00655
| 16> H         -6.45393        0.28631       -1.62495
| 17> *
| 18> %MaxCore 64000
| 19>
| 20> %pal nprocs 8
| 21> end
| 22>
| 23> %scf
| 24>   MaxIter 150
| 25> end
| 26>
| 27>
| 28>                          ****END OF INPUT****

CARTESIAN COORDINATES (ANGSTROEM)
---------------------------------
  C     -7.330440   -2.678990   -3.206810
  S     -6.019660   -2.926970   -4.419130
  F     -5.645830   -1.588380   -4.919310
  O     -4.881960   -3.503700   -3.667240
  O     -6.549270   -3.805150   -5.425070
  C     -6.286920   -0.735880   -1.893530
  C     -7.469000   -1.246150   -2.713830
  H     -7.601910   -0.601350   -3.585330
  H     -8.389790   -1.173440   -2.126920
  H     -7.118250   -3.379820   -2.398050
  H     -8.241840   -3.004740   -3.706510
  H     -5.391240   -0.810340   -2.474150
  H     -6.187090   -1.325970   -1.006550
  H     -6.453930    0.286310   -1.624950

 Total Charge           Charge          ....    0
 Multiplicity           Mult            ....    1
 Number of Electrons    NEL             ....   66
 Basis Dimension        Dim             ....  212

ORBITAL ENERGIES
----------------

  NO   OCC          E(Eh)            E(eV)
   0   2.0000     -88.618030     -2411.4192
   1   2.0000     -24.525492      -667.3726
   2   2.0000     -18.914286      -514.6839
   3   2.0000     -18.899816      -514.2901
   4   2.0000     -10.062022      -273.8015
   5   2.0000     -10.036966      -273.1197
   6   2.0000     -10.008869      -272.3552
   7   2.0000      -7.979125      -217.1230
   8   2.0000      -5.969362      -162.4346
   9   2.0000      -5.962997      -162.2614
  10   2.0000      -5.961109      -162.2100
  11   2.0000      -1.264260       -34.4023
  12   2.0000      -1.035102       -28.1666
  13   2.0000      -0.936557       -25.4850
  14   2.0000      -0.776550       -21.1310
  15   2.0000      -0.694416       -18.8960
  16   2.0000      -0.644490       -17.5375
  17   2.0000      -0.587075       -15.9751
  18   2.0000      -0.532051       -14.4779
  19   2.0000      -0.509797       -13.8723
  20   2.0000      -0.490973       -13.3601
  21   2.0000      -0.452536       -12.3141
  22   2.0000      -0.439458       -11.9583
  23   2.0000      -0.420006       -11.4289
  24   2.0000      -0.405927       -11.0458
  25   2.0000      -0.394273       -10.7287
  26   2.0000      -0.355411        -9.6712
  27   2.0000      -0.348055        -9.4711
  28   2.0000      -0.341594        -9.2953
  29   2.0000      -0.334656        -9.1065
  30   2.0000      -0.293416        -7.9843
  31   2.0000      -0.280334        -7.6283
  32   2.0000      -0.266768        -7.2591
  33   0.0000      -0.028157        -0.7662
  34   0.0000       0.009353         0.2545
  35   0.0000       0.019872         0.5407
  36   0.0000       0.023257         0.6329
  37   0.0000       0.023901         0.6504

MULLIKEN ATOMIC CHARGES
-----------------------
   0 C :    0.019004
   1 S :    1.395506
   2 F :   -0.408466
   3 O :   -0.667542
   4 O :   -0.654681
   5 C :    0.712702
   6 C :   -0.219492
   7 H :    0.027391
   8 H :   -0.158647
   9 H :    0.050016
  10 H :    0.033585
  11 H :   -0.110110
  12 H :    0.012382
  13 H :   -0.031650
Sum of atomic charges:    0.0000000

LOEWDIN ATOMIC CHARGES
----------------------
   0 C :   -0.033651
   1 S :    1.108246
   2 F :   -0.266724
   3 O :   -0.473014
   4 O :   -0.448232
   5 C :    0.150869
   6 C :   -0.078142
   7 H :    0.018924
   8 H :    0.026694
   9 H :    0.029069
  10 H :    0.016178
  11 H :   -0.027355
  12 H :   -0.009196
  13 H :   -0.013666

  Mayer bond orders larger than 0.100000
B(  0-C ,  1-S ) :   0.9339 B(  0-C ,  6-C ) :   1.2322 B(  0-C ,  7-H ) :   0.1199
B(  0-C ,  8-H ) :   0.1045 B(  0-C ,  9-H ) :   0.9309 B(  0-C , 10-H ) :   0.9339
B(  1-S ,  2-F ) :   0.6420 B(  1-S ,  3-O ) :   1.4925 B(  1-S ,  4-O ) :   1.5530
B(  5-C ,  6-C ) :   1.2884 B(  5-C , 11-H ) :   0.8408 B(  5-C , 12-H ) :   0.7875
B(  5-C , 13-H ) :   0.7772 B(  6-C ,  7-H ) :   0.8881 B(  6-C ,  8-H ) :   0.9473
B(  6-C ,  9-H ) :   0.1002 B(  6-C , 10-H ) :   0.1115 B(  6-C , 11-H ) :   0.1969
B(  6-C , 12-H ) :   0.2009 B(  6-C , 13-H ) :   0.1975

Dispersion correction           -0.016048771
FINAL SINGLE POINT ENERGY      -766.649837600783

DIPOLE MOMENT
-------------
                                X             Y             Z
Electronic contribution:      4.82927      -4.61074      -9.83727
Nuclear contribution   :     -5.93570       5.78812      10.65621
                        -----------------------------------------
Total Dipole Moment    :     -1.10643       1.17738       0.81894
                        -----------------------------------------
Magnitude (a.u.)       :      1.81137
Magnitude (Debye)      :      4.60415

Rotational constants in cm-1:     0.129417     0.054385     0.051980
Rotational constants in MHz :  3879.823072  1630.427453  1558.324762

                             ****ORCA TERMINATED NORMALLY****
TOTAL RUN TIME: 0 days 0 hours 0 minutes 8 seconds 132 msec
