                         Program Version 5.0.0 -  RELEASE  -
|  1> !TPSS D3BJ RIJCOSX def2-SVPD def2/J TightSCF
|  2> *xyz 0 1
|  3> C         -2.16038       -1.36949       -3.46710
|  4> C         -3.03011       -1.91086       -4.54107
|  5> C         -2.04772        0.14658       -3.51177
|  6> H         -3.47744       -2.79151       -4.25710
|  7> H         -2.53801       -2.01786       -5.43808
|  8> H         -3.89159       -1.37604       -4.71437
|  9> H         -1.18444       -1.84400       -3.56639
| 10> H         -2.59819       -1.70838       -2.52848
| 11> C         -3.32876        0.87504       -3.10367
| 12> H         -1.74003        0.45234       -4.51713
| 13> H         -1.23261        0.43494       -2.84221
| 14> H         -4.12483        0.59148       -3.76000
| 15> H         -3.17368        1.93185       -3.16688
| 16> H         -3.58415        0.61151       -2.09857
| 17> *
| 18> %MaxCore 64000
| 19>
| 20> %pal nprocs 8
| 21> end
| 22>
| 23> %scf
| 24>   MaxIter 150
| 25> end
| 26>
| 27>
| 28>                          ****END OF INPUT****

CARTESIAN COORDINATES (ANGSTROEM)
---------------------------------
  C     -2.160380   -1.369490   -3.467100
  C     -3.030110   -1.910860   -4.541070
  C     -2.047720    0.146580   -3.511770
  H     -3.477440   -2.791510   -4.257100
  H     -2.538010   -2.017860   -5.438080
  H     -3.891590   -1.376040   -4.714370
  H     -1.184440   -1.844000   -3.566390
  H     -2.598190   -1.708380   -2.528480
  C     -3.328760    0.875040   -3.103670
  H     -1.740030    0.452340   -4.517130
  H     -1.232610    0.434940   -2.842210
  H     -4.124830    0.591480   -3.760000
  H     -3.173680    1.931850   -3.166880
  H     -3.584150    0.611510   -2.098570

 Total Charge           Charge          ....    0
 Multiplicity           Mult            ....    1
 Number of Electrons    NEL             ....   34
 Basis Dimension        Dim             ....  160

ORBITAL ENERGIES
----------------

  NO   OCC          E(Eh)            E(eV)
   0   2.0000      -9.990299      -271.8498
   1   2.0000      -9.986675      -271.7512
   2   2.0000      -9.982386      -271.6345
   3   2.0000      -9.963499      -271.1206
   4   2.0000      -0.736951       -20.0534
   5   2.0000      -0.669047       -18.2057
   6   2.0000      -0.589936       -16.0530
   7   2.0000      -0.518463       -14.1081
   8   2.0000      -0.424109       -11.5406
   9   2.0000      -0.417024       -11.3478
  10   2.0000      -0.388039       -10.5591
  11   2.0000      -0.349197        -9.5021
  12   2.0000      -0.340330        -9.2608
  13   2.0000      -0.327693        -8.9170
  14   2.0000      -0.288888        -7.8610
  15   2.0000      -0.287095        -7.8123
  16   2.0000      -0.282948        -7.6994
  17   0.0000       0.016517         0.4495
  18   0.0000       0.041942         1.1413
  19   0.0000       0.043357         1.1798
  20   0.0000       0.050251         1.3674
  21   0.0000       0.085094         2.3155

MULLIKEN ATOMIC CHARGES
-----------------------
   0 C :   -0.241485
   1 C :    1.005324
   2 C :   -0.296271
   3 H :   -0.143699
   4 H :   -0.082871
   5 H :   -0.489250
   6 H :   -0.115575
   7 H :    0.007016
   8 C :    0.665255
   9 H :   -0.069619
  10 H :   -0.062897
  11 H :   -0.194982
  12 H :   -0.023571
  13 H :    0.042625
Sum of atomic charges:    0.0000000

LOEWDIN ATOMIC CHARGES
----------------------
   0 C :   -0.066351
   1 C :    0.129092
   2 C :   -0.072402
   3 H :   -0.037105
   4 H :   -0.028283
   5 H :   -0.049528
   6 H :    0.018078
   7 H :    0.018690
   8 C :    0.134744
   9 H :    0.019195
  10 H :    0.010854
  11 H :   -0.034076
  12 H :   -0.023153
  13 H :   -0.019755

  Mayer bond orders larger than 0.100000
B(  0-C ,  1-C ) :   1.2473 B(  0-C ,  2-C ) :   1.2018 B(  0-C ,  3-H ) :   0.2095
B(  0-C ,  4-H ) :   0.2041 B(  0-C ,  5-H ) :   0.2509 B(  0-C ,  6-H ) :   0.9346
B(  0-C ,  7-H ) :   0.8815 B(  0-C ,  9-H ) :   0.1375 B(  0-C , 10-H ) :   0.1128
B(  1-C ,  3-H ) :   0.5938 B(  1-C ,  4-H ) :   0.7250 B(  1-C ,  5-H ) :   0.5873
B(  1-C ,  6-H ) :   0.1071 B(  1-C ,  7-H ) :   0.1187 B(  2-C ,  6-H ) :   0.1064
B(  2-C ,  8-C ) :   1.2747 B(  2-C ,  9-H ) :   0.9390 B(  2-C , 10-H ) :   0.9280
B(  2-C , 11-H ) :   0.2042 B(  2-C , 12-H ) :   0.1950 B(  2-C , 13-H ) :   0.2015
B(  3-H ,  5-H ) :   0.3131 B(  4-H ,  5-H ) :   0.1164 B(  8-C , 11-H ) :   0.8670
B(  8-C , 12-H ) :   0.7815 B(  8-C , 13-H ) :   0.7761

Dispersion correction           -0.011397304
FINAL SINGLE POINT ENERGY      -158.367386107930

DIPOLE MOMENT
-------------
                                X             Y             Z
Electronic contribution:      0.86791       0.03550       0.25331
Nuclear contribution   :     -0.87438      -0.05339      -0.25605
                        -----------------------------------------
Total Dipole Moment    :     -0.00648      -0.01789      -0.00274
                        -----------------------------------------
Magnitude (a.u.)       :      0.01922
Magnitude (Debye)      :      0.04886

Rotational constants in cm-1:     0.464420     0.160323     0.139078
Rotational constants in MHz : 13922.972952  4806.377145  4169.443621

                             ****ORCA TERMINATED NORMALLY****
TOTAL RUN TIME: 0 days 0 hours 0 minutes 5 seconds 68 msec
