                         Program Version 5.0.0 -  RELEASE  -
|  1> !TPSS D3BJ RIJCOSX def2-SVPD def2/J TightSCF
|  2> *xyz 0 1
|  3> C         -7.33044       -2.67899       -3.20681
|  4> S         -6.01966       -2.92697       -4.41913
|  5> O         -5.64583       -1.58838       -4.91931
|  6> F         -4.88196       -3.50370       -3.66724
|  7> O         -6.54927       -3.80515       -5.42507
|  8> C         -6.28692       -0.73588       -1.89353
|  9> C         -7.46900       -1.24615       -2.71383
| 10> H         -7.60191       -0.60135       -3.58533
| 11> H         -8.38979       -1.17344       -2.12692
| 12> H         -7.11825       -3.37982       -2.39805
| 13> H         -8.24184       -3.00474       -3.70651
| 14> H         -5.39124       -0.81034       -2.47415
| 15> H         -6.18709       -1.32597       -1.00655
| 16> H         -6.45393        0.28631       -1.62495
| 17> *
| 18> %MaxCore 64000
| 19>
| 20> %pal nprocs 8
| 21> end
| 22>
| 23> %scf
| 24>   MaxIter 150
| 25> end
| 26>
| 27>
| 28>                          ****END OF INPUT****

CARTESIAN COORDINATES (ANGSTROEM)
---------------------------------
  C     -7.330440   -2.678990   -3.206810
  S     -6.019660   -2.926970   -4.419130
  O     -5.645830   -1.588380   -4.919310
  F     -4.881960   -3.503700   -3.667240
  O     -6.549270   -3.805150   -5.425070
  C     -6.286920   -0.735880   -1.893530
  C     -7.469000   -1.246150   -2.713830
  H     -7.601910   -0.601350   -3.585330
  H     -8.389790   -1.173440   -2.126920
  H     -7.118250   -3.379820   -2.398050
  H     -8.241840   -3.004740   -3.706510
  H     -5.391240   -0.810340   -2.474150
  H     -6.187090   -1.325970   -1.006550
  H     -6.453930    0.286310   -1.624950

 Total Charge           Charge          ....    0
 Multiplicity           Mult            ....    1
 Number of Electrons    NEL             ....   66
 Basis Dimension        Dim             ....  212

ORBITAL ENERGIES
----------------

  NO   OCC          E(Eh)            E(eV)
   0   2.0000     -88.618474     -2411.4313
   1   2.0000     -24.522432      -667.2893
   2   2.0000     -18.914694      -514.6950
   3   2.0000     -18.903777      -514.3979
   4   2.0000     -10.062491      -273.8143
   5   2.0000     -10.029245      -272.9096
   6   2.0000     -10.002914      -272.1931
   7   2.0000      -7.979582      -217.1355
   8   2.0000      -5.969726      -162.4445
   9   2.0000      -5.963469      -162.2742
  10   2.0000      -5.961649      -162.2247
  11   2.0000      -1.260452       -34.2987
  12   2.0000      -1.036502       -28.2047
  13   2.0000      -0.940686       -25.5974
  14   2.0000      -0.771711       -20.9993
  15   2.0000      -0.693542       -18.8722
  16   2.0000      -0.641893       -17.4668
  17   2.0000      -0.581415       -15.8211
  18   2.0000      -0.520530       -14.1643
  19   2.0000      -0.505945       -13.7675
  20   2.0000      -0.499732       -13.5984
  21   2.0000      -0.451506       -12.2861
  22   2.0000      -0.443472       -12.0675
  23   2.0000      -0.410690       -11.1754
  24   2.0000      -0.403038       -10.9672
  25   2.0000      -0.396458       -10.7882
  26   2.0000      -0.350122        -9.5273
  27   2.0000      -0.345888        -9.4121
  28   2.0000      -0.333409        -9.0725
  29   2.0000      -0.330162        -8.9842
  30   2.0000      -0.292674        -7.9641
  31   2.0000      -0.287684        -7.8283
  32   2.0000      -0.270150        -7.3512
  33   0.0000      -0.017821        -0.4849
  34   0.0000      -0.001862        -0.0507
  35   0.0000       0.015344         0.4175
  36   0.0000       0.024351         0.6626
  37   0.0000       0.030980         0.8430

MULLIKEN ATOMIC CHARGES
-----------------------
   0 C :   -0.021882
   1 S :    1.414006
   2 O :   -0.698481
   3 F :   -0.391328
   4 O :   -0.655484
   5 C :    0.697901
   6 C :   -0.182845
   7 H :    0.057520
   8 H :   -0.165636
   9 H :    0.054690
  10 H :    0.031025
  11 H :   -0.112455
  12 H :    0.007956
  13 H :   -0.034989
Sum of atomic charges:   -0.0000000

LOEWDIN ATOMIC CHARGES
----------------------
   0 C :   -0.039272
   1 S :    1.112924
   2 O :   -0.461807
   3 F :   -0.271572
   4 O :   -0.448479
   5 C :    0.148916
   6 C :   -0.070393
   7 H :    0.024179
   8 H :    0.027176
   9 H :    0.016250
  10 H :    0.020649
  11 H :   -0.029576
  12 H :   -0.016004
  13 H :   -0.012992

  Mayer bond orders larger than 0.100000
B(  0-C ,  1-S ) :   0.9229 B(  0-C ,  6-C ) :   1.2663 B(  0-C ,  7-H ) :   0.1355
B(  0-C ,  8-H ) :   0.1142 B(  0-C ,  9-H ) :   0.9198 B(  0-C , 10-H ) :   0.9372
B(  1-S ,  2-O ) :   1.4932 B(  1-S ,  3-F ) :   0.6359 B(  1-S ,  4-O ) :   1.5571
B(  5-C ,  6-C ) :   1.2835 B(  5-C , 11-H ) :   0.8439 B(  5-C , 12-H ) :   0.7895
B(  5-C , 13-H ) :   0.7804 B(  6-C ,  7-H ) :   0.8759 B(  6-C ,  8-H ) :   0.9352
B(  6-C ,  9-H ) :   0.1077 B(  6-C , 10-H ) :   0.1023 B(  6-C , 11-H ) :   0.1955
B(  6-C , 12-H ) :   0.1992 B(  6-C , 13-H ) :   0.1976

Dispersion correction           -0.016119469
FINAL SINGLE POINT ENERGY      -766.653565736014

DIPOLE MOMENT
-------------
                                X             Y             Z
Electronic contribution:      6.15423      -7.84973      -7.77671
Nuclear contribution   :     -6.75719       7.84793       9.30968
                        -----------------------------------------
Total Dipole Moment    :     -0.60297      -0.00179       1.53297
                        -----------------------------------------
Magnitude (a.u.)       :      1.64729
Magnitude (Debye)      :      4.18707

Rotational constants in cm-1:     0.129104     0.054499     0.051192
Rotational constants in MHz :  3870.429564  1633.827608  1534.709243

                             ****ORCA TERMINATED NORMALLY****
TOTAL RUN TIME: 0 days 0 hours 0 minutes 8 seconds 295 msec
