                         Program Version 5.0.0 -  RELEASE  -
|  1> !TPSS D3BJ RIJCOSX def2-SVPD def2/J TightSCF
|  2> *xyz 0 1
|  3> C         -7.33044       -2.67899       -3.20681
|  4> S         -6.01966       -2.92697       -4.41913
|  5> O         -5.64583       -1.58838       -4.91931
|  6> O         -4.88196       -3.50370       -3.66724
|  7> F         -6.54927       -3.80515       -5.42507
|  8> C         -6.28692       -0.73588       -1.89353
|  9> C         -7.46900       -1.24615       -2.71383
| 10> H         -7.60191       -0.60135       -3.58533
| 11> H         -8.38979       -1.17344       -2.12692
| 12> H         -7.11825       -3.37982       -2.39805
| 13> H         -8.24184       -3.00474       -3.70651
| 14> H         -5.39124       -0.81034       -2.47415
| 15> H         -6.18709       -1.32597       -1.00655
| 16> H         -6.45393        0.28631       -1.62495
| 17> *
| 18> %MaxCore 64000
| 19>
| 20> %pal nprocs 8
| 21> end
| 22>
| 23> %scf
| 24>   MaxIter 150
| 25> end
| 26>
| 27>
| 28>                          ****END OF INPUT****

CARTESIAN COORDINATES (ANGSTROEM)
---------------------------------
  C     -7.330440   -2.678990   -3.206810
  S     -6.019660   -2.926970   -4.419130
  O     -5.645830   -1.588380   -4.919310
  O     -4.881960   -3.503700   -3.667240
  F     -6.549270   -3.805150   -5.425070
  C     -6.286920   -0.735880   -1.893530
  C     -7.469000   -1.246150   -2.713830
  H     -7.601910   -0.601350   -3.585330
  H     -8.389790   -1.173440   -2.126920
  H     -7.118250   -3.379820   -2.398050
  H     -8.241840   -3.004740   -3.706510
  H     -5.391240   -0.810340   -2.474150
  H     -6.187090   -1.325970   -1.006550
  H     -6.453930    0.286310   -1.624950

 Total Charge           Charge          ....    0
 Multiplicity           Mult            ....    1
 Number of Electrons    NEL             ....   66
 Basis Dimension        Dim             ....  212

ORBITAL ENERGIES
----------------

  NO   OCC          E(Eh)            E(eV)
   0   2.0000     -88.620808     -2411.4948
   1   2.0000     -24.543579      -667.8647
   2   2.0000     -18.904698      -514.4230
   3   2.0000     -18.901338      -514.3316
   4   2.0000     -10.063163      -273.8326
   5   2.0000     -10.029086      -272.9053
   6   2.0000      -9.995682      -271.9963
   7   2.0000      -7.981917      -217.1990
   8   2.0000      -5.972306      -162.5147
   9   2.0000      -5.965582      -162.3317
  10   2.0000      -5.963780      -162.2827
  11   2.0000      -1.296870       -35.2896
  12   2.0000      -1.021800       -27.8046
  13   2.0000      -0.924151       -25.1474
  14   2.0000      -0.770579       -20.9685
  15   2.0000      -0.698331       -19.0026
  16   2.0000      -0.651399       -17.7255
  17   2.0000      -0.583551       -15.8792
  18   2.0000      -0.533445       -14.5158
  19   2.0000      -0.529037       -14.3958
  20   2.0000      -0.505004       -13.7419
  21   2.0000      -0.448169       -12.1953
  22   2.0000      -0.442980       -12.0541
  23   2.0000      -0.415911       -11.3175
  24   2.0000      -0.399258       -10.8644
  25   2.0000      -0.383655       -10.4398
  26   2.0000      -0.343650        -9.3512
  27   2.0000      -0.339371        -9.2347
  28   2.0000      -0.331752        -9.0274
  29   2.0000      -0.322587        -8.7780
  30   2.0000      -0.286648        -7.8001
  31   2.0000      -0.279543        -7.6067
  32   2.0000      -0.257482        -7.0065
  33   0.0000      -0.020157        -0.5485
  34   0.0000      -0.004900        -0.1333
  35   0.0000       0.015752         0.4286
  36   0.0000       0.025229         0.6865
  37   0.0000       0.028011         0.7622

MULLIKEN ATOMIC CHARGES
-----------------------
   0 C :   -0.020845
   1 S :    1.442106
   2 O :   -0.692012
   3 O :   -0.660924
   4 F :   -0.405665
   5 C :    0.703676
   6 C :   -0.219335
   7 H :    0.055068
   8 H :   -0.164573
   9 H :    0.049208
  10 H :    0.037530
  11 H :   -0.097179
  12 H :    0.006552
  13 H :   -0.033607
Sum of atomic charges:    0.0000000

LOEWDIN ATOMIC CHARGES
----------------------
   0 C :   -0.044863
   1 S :    1.117624
   2 O :   -0.463627
   3 O :   -0.471827
   4 F :   -0.253097
   5 C :    0.154422
   6 C :   -0.066889
   7 H :    0.021612
   8 H :    0.027433
   9 H :    0.021566
  10 H :    0.008336
  11 H :   -0.023700
  12 H :   -0.013048
  13 H :   -0.013945

  Mayer bond orders larger than 0.100000
B(  0-C ,  1-S ) :   0.9090 B(  0-C ,  6-C ) :   1.2748 B(  0-C ,  7-H ) :   0.1330
B(  0-C ,  8-H ) :   0.1069 B(  0-C ,  9-H ) :   0.9482 B(  0-C , 10-H ) :   0.8863
B(  1-S ,  2-O ) :   1.4724 B(  1-S ,  3-O ) :   1.4846 B(  1-S ,  4-F ) :   0.6805
B(  5-C ,  6-C ) :   1.2873 B(  5-C , 11-H ) :   0.8453 B(  5-C , 12-H ) :   0.7831
B(  5-C , 13-H ) :   0.7766 B(  6-C ,  7-H ) :   0.8730 B(  6-C ,  8-H ) :   0.9412
B(  6-C ,  9-H ) :   0.1016 B(  6-C , 10-H ) :   0.1234 B(  6-C , 11-H ) :   0.1958
B(  6-C , 12-H ) :   0.2013 B(  6-C , 13-H ) :   0.1978

Dispersion correction           -0.016199517
FINAL SINGLE POINT ENERGY      -766.635458224151

DIPOLE MOMENT
-------------
                                X             Y             Z
Electronic contribution:      3.34181      -8.36595     -10.77026
Nuclear contribution   :     -4.96410       8.17213      11.20012
                        -----------------------------------------
Total Dipole Moment    :     -1.62229      -0.19383       0.42987
                        -----------------------------------------
Magnitude (a.u.)       :      1.68943
Magnitude (Debye)      :      4.29420

Rotational constants in cm-1:     0.133784     0.053405     0.050278
Rotational constants in MHz :  4010.731548  1601.045142  1507.298018

                             ****ORCA TERMINATED NORMALLY****
TOTAL RUN TIME: 0 days 0 hours 0 minutes 8 seconds 809 msec
