                         Program Version 5.0.0 -  RELEASE  -
|  1> !TPSS D3BJ RIJCOSX def2-SVPD def2/J TightSCF xyzfile
|  2>
|  3> *xyzfile 0 1 D1.xyz
|  4>
|  5> %MaxCore 64000
|  6>
|  7> %pal nprocs 4
|  8> end
|  9>
| 10> %scf
| 11>   MaxIter 150
| 12> end
| 13>
| 14>
| 15>                          ****END OF INPUT****

CARTESIAN COORDINATES (ANGSTROEM)
---------------------------------
  C     -2.160376   -1.369486   -3.467104
  C     -3.030108   -1.910857   -4.541074
  C     -2.047717    0.146583   -3.511774
  C     -7.330440   -2.678991   -3.206811
  S     -6.019659   -2.926965   -4.419128
  H     -3.477443   -2.791513   -4.257096
  H     -2.538013   -2.017860   -5.438075
  H     -3.891589   -1.376039   -4.714365
  F     -5.645830   -1.588384   -4.919307
  O     -4.881961   -3.503697   -3.667235
  H     -1.184438   -1.843997   -3.566393
  H     -2.598195   -1.708376   -2.528477
  O     -6.549267   -3.805150   -5.425071
  C     -3.328755    0.875037   -3.103669
  H     -1.740034    0.452343   -4.517126
  H     -1.232611    0.434938   -2.842208
  C     -3.628487    0.771601   -1.609363
  H     -4.175106    0.490791   -3.682203
  H     -3.237812    1.928663   -3.381480
  C     -4.975718    1.361432   -1.190644
  H     -2.830700    1.276234   -1.054766
  H     -3.594312   -0.275838   -1.294603
  C     -6.184720    0.784347   -1.926464
  H     -4.956292    2.445725   -1.342200
  H     -5.097256    1.205252   -0.114136
  C     -6.286921   -0.735882   -1.893531
  H     -6.163994    1.100199   -2.974250
  H     -7.094530    1.223459   -1.504509
  C     -7.468999   -1.246153   -2.713833
  H     -6.360641   -1.090347   -0.859176
  H     -5.369848   -1.171853   -2.295982
  H     -7.601914   -0.601349   -3.585329
  H     -8.389791   -1.173436   -2.126922
  H     -7.118254   -3.379818   -2.398055
  H     -8.241838   -3.004745   -3.706513

 Total Charge           Charge          ....    0
 Multiplicity           Mult            ....    1
 Number of Electrons    NEL             ....  122
 Basis Dimension        Dim             ....  464

ORBITAL ENERGIES
----------------

  NO   OCC          E(Eh)            E(eV)
   0   2.0000     -88.624843     -2411.6046
   1   2.0000     -24.530546      -667.5101
   2   2.0000     -18.919395      -514.8229
   3   2.0000     -18.904871      -514.4277
   4   2.0000     -10.064045      -273.8566
   5   2.0000     -10.034839      -273.0619
   6   2.0000     -10.014060      -272.4964
   7   2.0000     -10.006372      -272.2872
   8   2.0000      -9.999449      -272.0988
   9   2.0000      -9.992965      -271.9224
  10   2.0000      -9.990608      -271.8583
  11   2.0000      -9.982910      -271.6488
  12   2.0000      -9.973295      -271.3872
  13   2.0000      -9.929333      -270.1909
  14   2.0000      -7.984775      -217.2768
  15   2.0000      -5.975031      -162.5889
  16   2.0000      -5.968840      -162.4204
  17   2.0000      -5.966757      -162.3637
  18   2.0000      -1.271295       -34.5937
  19   2.0000      -1.041050       -28.3284
  20   2.0000      -0.945564       -25.7301
  21   2.0000      -0.783248       -21.3133
  22   2.0000      -0.751781       -20.4570
  23   2.0000      -0.724736       -19.7211
  24   2.0000      -0.699307       -19.0291
  25   2.0000      -0.661906       -18.0114
  26   2.0000      -0.648593       -17.6491
  27   2.0000      -0.615350       -16.7445
  28   2.0000      -0.583394       -15.8750
  29   2.0000      -0.567604       -15.4453
  30   2.0000      -0.538202       -14.6452
  31   2.0000      -0.527469       -14.3532
  32   2.0000      -0.514353       -13.9963
  33   2.0000      -0.501289       -13.6408
  34   2.0000      -0.496943       -13.5225
  35   2.0000      -0.454681       -12.3725
  36   2.0000      -0.448786       -12.2121
  37   2.0000      -0.433448       -11.7947
  38   2.0000      -0.426935       -11.6175
  39   2.0000      -0.419005       -11.4017
  40   2.0000      -0.409047       -11.1307
  41   2.0000      -0.398550       -10.8451
  42   2.0000      -0.392298       -10.6750
  43   2.0000      -0.388079       -10.5602
  44   2.0000      -0.370684       -10.0868
  45   2.0000      -0.357092        -9.7170
  46   2.0000      -0.353667        -9.6238
  47   2.0000      -0.346736        -9.4352
  48   2.0000      -0.340051        -9.2533
  49   2.0000      -0.329401        -8.9635
  50   2.0000      -0.320462        -8.7202
  51   2.0000      -0.316027        -8.5995
  52   2.0000      -0.303591        -8.2611
  53   2.0000      -0.298152        -8.1131
  54   2.0000      -0.294565        -8.0155
  55   2.0000      -0.288434        -7.8487
  56   2.0000      -0.281898        -7.6708
  57   2.0000      -0.273803        -7.4506
  58   2.0000      -0.270578        -7.3628
  59   2.0000      -0.268941        -7.3183
  60   2.0000      -0.241231        -6.5642
  61   0.0000      -0.029686        -0.8078
  62   0.0000       0.006758         0.1839
  63   0.0000       0.011132         0.3029
  64   0.0000       0.015782         0.4295
  65   0.0000       0.018968         0.5161

MULLIKEN ATOMIC CHARGES
-----------------------
   0 C :   -0.012052
   1 C :    1.773723
   2 C :    0.497916
   3 C :    0.387234
   4 S :    1.392606
   5 H :   -0.394739
   6 H :   -0.257995
   7 H :   -0.899187
   8 F :   -0.451428
   9 O :   -0.752459
  10 H :   -0.251700
  11 H :    0.000441
  12 O :   -0.725869
  13 C :    0.348992
  14 H :   -0.062133
  15 H :   -0.081769
  16 C :   -0.187526
  17 H :   -0.526840
  18 H :   -0.042335
  19 C :    0.621141
  20 H :   -0.317286
  21 H :    0.136678
  22 C :   -0.154621
  23 H :   -0.004021
  24 H :    0.030752
  25 C :    0.301633
  26 H :    0.227279
  27 H :   -0.395234
  28 C :    0.220548
  29 H :   -0.028155
  30 H :   -0.338813
  31 H :    0.094321
  32 H :   -0.177244
  33 H :    0.010843
  34 H :    0.017299
Sum of atomic charges:    0.0000000

LOEWDIN ATOMIC CHARGES
----------------------
   0 C :   -0.029054
   1 C :    0.135214
   2 C :   -0.020415
   3 C :   -0.020290
   4 S :    1.146517
   5 H :   -0.121318
   6 H :   -0.016633
   7 H :   -0.097031
   8 F :   -0.263237
   9 O :   -0.444668
  10 H :    0.020247
  11 H :    0.008320
  12 O :   -0.432186
  13 C :   -0.014793
  14 H :    0.021152
  15 H :    0.013375
  16 C :   -0.025969
  17 H :   -0.009984
  18 H :    0.022097
  19 C :   -0.021152
  20 H :    0.021125
  21 H :    0.002189
  22 C :   -0.029758
  23 H :    0.019356
  24 H :    0.018481
  25 C :   -0.014375
  26 H :    0.012865
  27 H :    0.021597
  28 C :   -0.035451
  29 H :    0.036835
  30 H :   -0.004600
  31 H :    0.019260
  32 H :    0.032443
  33 H :    0.031913
  34 H :    0.017927

  Mayer bond orders larger than 0.100000
B(  0-C ,  1-C ) :   0.9948 B(  0-C ,  2-C ) :   1.2008 B(  0-C ,  5-H ) :   0.4126
B(  0-C ,  6-H ) :   0.1130 B(  0-C ,  7-H ) :   0.4044 B(  0-C , 10-H ) :   0.9084
B(  0-C , 11-H ) :   0.7656 B(  0-C , 13-C ) :   0.1045 B(  0-C , 14-H ) :   0.1432
B(  0-C , 15-H ) :   0.1765 B(  1-C ,  6-H ) :   0.6339 B(  1-C ,  7-H ) :  -0.4518
B(  1-C , 11-H ) :   0.2209 B(  2-C ,  7-H ) :  -0.1054 B(  2-C , 11-H ) :   0.1067
B(  2-C , 13-C ) :   1.1886 B(  2-C , 14-H ) :   0.7212 B(  2-C , 15-H ) :   0.7485
B(  2-C , 17-H ) :   0.1602 B(  3-C ,  4-S ) :   0.8547 B(  3-C , 12-O ) :   0.1277
B(  3-C , 28-C ) :   1.2604 B(  3-C , 33-H ) :   0.8987 B(  3-C , 34-H ) :   0.7571
B(  4-S ,  8-F ) :   0.6076 B(  4-S ,  9-O ) :   1.4534 B(  4-S , 12-O ) :   1.4543
B(  5-H ,  6-H ) :  -0.1294 B(  5-H ,  7-H ) :   0.8700 B(  5-H ,  9-O ) :   0.1026
B(  6-H ,  7-H ) :   0.1486 B(  7-H ,  9-O ) :   0.1149 B(  7-H , 17-H ) :   0.1612
B(  9-O , 12-O ) :   0.1115 B( 11-H , 21-H ) :   0.1023 B( 13-C , 14-H ) :   0.1907
B( 13-C , 15-H ) :   0.1469 B( 13-C , 16-C ) :   1.1776 B( 13-C , 17-H ) :   0.7789
B( 13-C , 18-H ) :   0.7589 B( 13-C , 20-H ) :   0.1845 B( 14-H , 15-H ) :  -0.1364
B( 16-C , 17-H ) :   0.1988 B( 16-C , 18-H ) :   0.1841 B( 16-C , 19-C ) :   1.1794
B( 16-C , 20-H ) :   1.0064 B( 16-C , 21-H ) :   0.8560 B( 16-C , 22-C ) :   0.1485
B( 16-C , 23-H ) :   0.1489 B( 16-C , 24-H ) :   0.2484 B( 19-C , 22-C ) :   1.1474
B( 19-C , 23-H ) :   0.6912 B( 19-C , 24-H ) :   0.6898 B( 22-C , 23-H ) :   0.2168
B( 22-C , 24-H ) :   0.1200 B( 22-C , 25-C ) :   1.2465 B( 22-C , 26-H ) :   0.7830
B( 22-C , 27-H ) :   1.0589 B( 22-C , 28-C ) :   0.1357 B( 22-C , 29-H ) :   0.1014
B( 22-C , 30-H ) :   0.1439 B( 25-C , 27-H ) :   0.1814 B( 25-C , 28-C ) :   1.1361
B( 25-C , 29-H ) :   0.7295 B( 25-C , 30-H ) :   0.8497 B( 25-C , 32-H ) :   0.1791
B( 28-C , 29-H ) :   0.1241 B( 28-C , 31-H ) :   0.8609 B( 28-C , 32-H ) :   0.8228
B( 28-C , 34-H ) :   0.2134 B( 29-H , 30-H ) :   0.2296

Dispersion correction           -0.051207300
FINAL SINGLE POINT ENERGY     -1041.688825854323

DIPOLE MOMENT
-------------
                                X             Y             Z
Electronic contribution:    -10.82268     -16.22014     -13.17791
Nuclear contribution   :      9.63012      17.20461      14.03552
                        -----------------------------------------
Total Dipole Moment    :     -1.19256       0.98447       0.85760
                        -----------------------------------------
Magnitude (a.u.)       :      1.76830
Magnitude (Debye)      :      4.49465

Rotational constants in cm-1:     0.025899     0.015189     0.010690
Rotational constants in MHz :   776.424978   455.369614   320.488876

                             ****ORCA TERMINATED NORMALLY****
TOTAL RUN TIME: 0 days 0 hours 1 minutes 22 seconds 111 msec
