                         Program Version 5.0.0 -  RELEASE  -
|  1> !TPSS D3BJ RIJCOSX def2-SVPD def2/J TightSCF xyzfile
|  2>
|  3> *xyzfile 0 1 D2.xyz
|  4>
|  5> %MaxCore 64000
|  6>
|  7> %pal nprocs 4
|  8> end
|  9>
| 10> %scf
| 11>   MaxIter 150
| 12> end
| 13>
| 14>
| 15>                          ****END OF INPUT****

CARTESIAN COORDINATES (ANGSTROEM)
---------------------------------
  C     -2.160376   -1.369486   -3.467104
  C     -3.030108   -1.910857   -4.541074
  C     -2.047717    0.146583   -3.511774
  C     -7.330440   -2.678991   -3.206811
  S     -6.019659   -2.926965   -4.419128
  H     -3.477443   -2.791513   -4.257096
  H     -2.538013   -2.017860   -5.438075
  H     -3.891589   -1.376039   -4.714365
  O     -5.645830   -1.588384   -4.919307
  F     -4.881961   -3.503697   -3.667235
  H     -1.184438   -1.843997   -3.566393
  H     -2.598195   -1.708376   -2.528477
  O     -6.549267   -3.805150   -5.425071
  C     -3.328755    0.875037   -3.103669
  H     -1.740034    0.452343   -4.517126
  H     -1.232611    0.434938   -2.842208
  C     -3.628487    0.771601   -1.609363
  H     -4.175106    0.490791   -3.682203
  H     -3.237812    1.928663   -3.381480
  C     -4.975718    1.361432   -1.190644
  H     -2.830700    1.276234   -1.054766
  H     -3.594312   -0.275838   -1.294603
  C     -6.184720    0.784347   -1.926464
  H     -4.956292    2.445725   -1.342200
  H     -5.097256    1.205252   -0.114136
  C     -6.286921   -0.735882   -1.893531
  H     -6.163994    1.100199   -2.974250
  H     -7.094530    1.223459   -1.504509
  C     -7.468999   -1.246153   -2.713833
  H     -6.360641   -1.090347   -0.859176
  H     -5.369848   -1.171853   -2.295982
  H     -7.601914   -0.601349   -3.585329
  H     -8.389791   -1.173436   -2.126922
  H     -7.118254   -3.379818   -2.398055
  H     -8.241838   -3.004745   -3.706513

 Total Charge           Charge          ....    0
 Multiplicity           Mult            ....    1
 Number of Electrons    NEL             ....  122
 Basis Dimension        Dim             ....  464

ORBITAL ENERGIES
----------------

  NO   OCC          E(Eh)            E(eV)
   0   2.0000     -88.625115     -2411.6120
   1   2.0000     -24.527970      -667.4400
   2   2.0000     -18.919519      -514.8263
   3   2.0000     -18.908465      -514.5255
   4   2.0000     -10.064629      -273.8725
   5   2.0000     -10.028383      -272.8862
   6   2.0000     -10.011021      -272.4137
   7   2.0000     -10.001035      -272.1420
   8   2.0000      -9.995965      -272.0040
   9   2.0000      -9.990400      -271.8526
  10   2.0000      -9.985086      -271.7080
  11   2.0000      -9.981853      -271.6200
  12   2.0000      -9.975833      -271.4562
  13   2.0000      -9.932241      -270.2700
  14   2.0000      -7.984942      -217.2813
  15   2.0000      -5.975111      -162.5910
  16   2.0000      -5.969034      -162.4257
  17   2.0000      -5.966996      -162.3702
  18   2.0000      -1.269272       -34.5387
  19   2.0000      -1.041846       -28.3501
  20   2.0000      -0.947813       -25.7913
  21   2.0000      -0.778717       -21.1900
  22   2.0000      -0.749100       -20.3840
  23   2.0000      -0.723676       -19.6922
  24   2.0000      -0.699717       -19.0403
  25   2.0000      -0.661478       -17.9997
  26   2.0000      -0.647890       -17.6300
  27   2.0000      -0.611657       -16.6440
  28   2.0000      -0.580395       -15.7933
  29   2.0000      -0.566015       -15.4020
  30   2.0000      -0.528283       -14.3753
  31   2.0000      -0.522926       -14.2295
  32   2.0000      -0.518150       -14.0996
  33   2.0000      -0.506257       -13.7759
  34   2.0000      -0.494736       -13.4625
  35   2.0000      -0.457904       -12.4602
  36   2.0000      -0.444551       -12.0968
  37   2.0000      -0.432567       -11.7708
  38   2.0000      -0.427412       -11.6305
  39   2.0000      -0.419270       -11.4089
  40   2.0000      -0.403729       -10.9860
  41   2.0000      -0.393256       -10.7010
  42   2.0000      -0.390973       -10.6389
  43   2.0000      -0.386628       -10.5207
  44   2.0000      -0.366974        -9.9859
  45   2.0000      -0.356218        -9.6932
  46   2.0000      -0.349560        -9.5120
  47   2.0000      -0.343980        -9.3602
  48   2.0000      -0.336921        -9.1681
  49   2.0000      -0.326426        -8.8825
  50   2.0000      -0.320523        -8.7219
  51   2.0000      -0.309247        -8.4150
  52   2.0000      -0.301878        -8.2145
  53   2.0000      -0.295558        -8.0425
  54   2.0000      -0.294792        -8.0217
  55   2.0000      -0.284919        -7.7530
  56   2.0000      -0.282905        -7.6982
  57   2.0000      -0.277082        -7.5398
  58   2.0000      -0.267766        -7.2863
  59   2.0000      -0.266820        -7.2605
  60   2.0000      -0.250065        -6.8046
  61   0.0000      -0.020361        -0.5540
  62   0.0000      -0.003164        -0.0861
  63   0.0000       0.009313         0.2534
  64   0.0000       0.015980         0.4348
  65   0.0000       0.021985         0.5982

MULLIKEN ATOMIC CHARGES
-----------------------
   0 C :    0.010830
   1 C :    1.809946
   2 C :    0.490900
   3 C :    0.357511
   4 S :    1.412555
   5 H :   -0.498717
   6 H :   -0.261768
   7 H :   -0.835132
   8 O :   -0.727283
   9 F :   -0.496998
  10 H :   -0.251465
  11 H :   -0.002913
  12 O :   -0.729986
  13 C :    0.367711
  14 H :   -0.047459
  15 H :   -0.085031
  16 C :   -0.177141
  17 H :   -0.544603
  18 H :   -0.030385
  19 C :    0.619890
  20 H :   -0.312703
  21 H :    0.120975
  22 C :   -0.181107
  23 H :   -0.007198
  24 H :    0.028497
  25 C :    0.308975
  26 H :    0.237317
  27 H :   -0.384305
  28 C :    0.239559
  29 H :   -0.031316
  30 H :   -0.365983
  31 H :    0.145418
  32 H :   -0.188224
  33 H :    0.000415
  34 H :    0.009216
Sum of atomic charges:   -0.0000000

LOEWDIN ATOMIC CHARGES
----------------------
   0 C :   -0.034983
   1 C :    0.140056
   2 C :   -0.018169
   3 C :   -0.026690
   4 S :    1.145870
   5 H :   -0.095909
   6 H :   -0.013913
   7 H :   -0.115954
   8 O :   -0.438423
   9 F :   -0.272854
  10 H :    0.017348
  11 H :    0.003524
  12 O :   -0.432892
  13 C :   -0.009875
  14 H :    0.022632
  15 H :    0.012879
  16 C :   -0.027811
  17 H :   -0.004124
  18 H :    0.022547
  19 C :   -0.021782
  20 H :    0.019942
  21 H :   -0.000691
  22 C :   -0.025356
  23 H :    0.019330
  24 H :    0.017158
  25 C :   -0.017046
  26 H :    0.017857
  27 H :    0.021680
  28 C :   -0.029012
  29 H :    0.032573
  30 H :   -0.006646
  31 H :    0.023797
  32 H :    0.033171
  33 H :    0.019627
  34 H :    0.022138

  Mayer bond orders larger than 0.100000
B(  0-C ,  1-C ) :   0.9936 B(  0-C ,  2-C ) :   1.2054 B(  0-C ,  5-H ) :   0.3964
B(  0-C ,  6-H ) :   0.1014 B(  0-C ,  7-H ) :   0.3924 B(  0-C , 10-H ) :   0.9106
B(  0-C , 11-H ) :   0.7567 B(  0-C , 13-C ) :   0.1037 B(  0-C , 14-H ) :   0.1487
B(  0-C , 15-H ) :   0.1755 B(  1-C ,  5-H ) :  -0.1675 B(  1-C ,  6-H ) :   0.6197
B(  1-C ,  7-H ) :  -0.3415 B(  1-C , 11-H ) :   0.2098 B(  2-C ,  7-H ) :  -0.1124
B(  2-C , 11-H ) :   0.1144 B(  2-C , 13-C ) :   1.1869 B(  2-C , 14-H ) :   0.7119
B(  2-C , 15-H ) :   0.7546 B(  2-C , 17-H ) :   0.1593 B(  3-C ,  4-S ) :   0.8481
B(  3-C , 12-O ) :   0.1399 B(  3-C , 28-C ) :   1.2593 B(  3-C , 31-H ) :   0.1053
B(  3-C , 33-H ) :   0.8997 B(  3-C , 34-H ) :   0.7650 B(  4-S ,  8-O ) :   1.4493
B(  4-S ,  9-F ) :   0.5720 B(  4-S , 12-O ) :   1.4508 B(  5-H ,  6-H ) :  -0.1374
B(  5-H ,  7-H ) :   0.8615 B(  5-H ,  9-F ) :   0.1647 B(  6-H ,  7-H ) :   0.1825
B(  7-H ,  9-F ) :   0.1261 B(  7-H , 17-H ) :   0.1695 B(  8-O , 12-O ) :   0.1386
B( 11-H , 21-H ) :   0.1049 B( 13-C , 14-H ) :   0.1894 B( 13-C , 15-H ) :   0.1496
B( 13-C , 16-C ) :   1.1676 B( 13-C , 17-H ) :   0.7683 B( 13-C , 18-H ) :   0.7496
B( 13-C , 20-H ) :   0.1844 B( 14-H , 15-H ) :  -0.1338 B( 16-C , 17-H ) :   0.2054
B( 16-C , 18-H ) :   0.1847 B( 16-C , 19-C ) :   1.1799 B( 16-C , 20-H ) :   1.0001
B( 16-C , 21-H ) :   0.8562 B( 16-C , 22-C ) :   0.1494 B( 16-C , 23-H ) :   0.1487
B( 16-C , 24-H ) :   0.2502 B( 19-C , 22-C ) :   1.1449 B( 19-C , 23-H ) :   0.6937
B( 19-C , 24-H ) :   0.6868 B( 22-C , 23-H ) :   0.2150 B( 22-C , 24-H ) :   0.1203
B( 22-C , 25-C ) :   1.2649 B( 22-C , 26-H ) :   0.7758 B( 22-C , 27-H ) :   1.0592
B( 22-C , 28-C ) :   0.1405 B( 22-C , 29-H ) :   0.1016 B( 22-C , 30-H ) :   0.1546
B( 25-C , 26-H ) :   0.1017 B( 25-C , 27-H ) :   0.1756 B( 25-C , 28-C ) :   1.1469
B( 25-C , 29-H ) :   0.7133 B( 25-C , 30-H ) :   0.8373 B( 25-C , 32-H ) :   0.1868
B( 28-C , 29-H ) :   0.1232 B( 28-C , 31-H ) :   0.8382 B( 28-C , 32-H ) :   0.8261
B( 28-C , 34-H ) :   0.1914 B( 29-H , 30-H ) :   0.2659

Dispersion correction           -0.051358205
FINAL SINGLE POINT ENERGY     -1041.692354892029

DIPOLE MOMENT
-------------
                                X             Y             Z
Electronic contribution:     -9.51653     -19.47817     -11.12661
Nuclear contribution   :      8.71934      19.48829      12.54264
                        -----------------------------------------
Total Dipole Moment    :     -0.79719       0.01011       1.41603
                        -----------------------------------------
Magnitude (a.u.)       :      1.62504
Magnitude (Debye)      :      4.13053

Rotational constants in cm-1:     0.025810     0.015137     0.010647
Rotational constants in MHz :   773.773140   453.802427   319.195213

                             ****ORCA TERMINATED NORMALLY****
TOTAL RUN TIME: 0 days 0 hours 1 minutes 21 seconds 163 msec
