                         Program Version 5.0.0 -  RELEASE  -
|  1> !PBE D3BJ RIJCOSX def2-SVPD def2/J TightSCF
|  2> *xyz -1 1
|  3> C          4.90646       -3.10282       -5.95484
|  4> C          3.51177       -2.80621       -6.49228
|  5> H          2.73604       -3.37345       -5.97374
|  6> H          3.44490       -3.04083       -7.55528
|  7> S          3.00462       -1.09621       -6.38926
|  8> O          4.12886       -0.32965       -6.95372
|  9> O          1.78128       -1.00078       -7.13640
| 10> O          2.85155       -0.78368       -4.95679
| 11> H          5.62703       -2.52424       -6.49422
| 12> H          5.12164       -4.14387       -6.07654
| 13> H          4.95004       -2.84862       -4.91639
| 14> *
| 15>
| 16> %MaxCore 64000
| 17>
| 18> %pal nprocs 4
| 19> end
| 20>
| 21> %scf
| 22>   MaxIter 150
| 23> end
| 24>
| 25>
| 26>                          ****END OF INPUT****

CARTESIAN COORDINATES (ANGSTROEM)
---------------------------------
  C      4.906460   -3.102820   -5.954840
  C      3.511770   -2.806210   -6.492280
  H      2.736040   -3.373450   -5.973740
  H      3.444900   -3.040830   -7.555280
  S      3.004620   -1.096210   -6.389260
  O      4.128860   -0.329650   -6.953720
  O      1.781280   -1.000780   -7.136400
  O      2.851550   -0.783680   -4.956790
  H      5.627030   -2.524240   -6.494220
  H      5.121640   -4.143870   -6.076540
  H      4.950040   -2.848620   -4.916390

 Total Charge           Charge          ....   -1
 Multiplicity           Mult            ....    1
 Number of Electrons    NEL             ....   58
 Basis Dimension        Dim             ....  176

ORBITAL ENERGIES
----------------

  NO   OCC          E(Eh)            E(eV)
   0   2.0000     -88.052977     -2396.0433
   1   2.0000     -18.548294      -504.7247
   2   2.0000     -18.537260      -504.4245
   3   2.0000     -18.536835      -504.4129
   4   2.0000      -9.759752      -265.5763
   5   2.0000      -9.753147      -265.3966
   6   2.0000      -7.657409      -208.3687
   7   2.0000      -5.684430      -154.6812
   8   2.0000      -5.684315      -154.6781
   9   2.0000      -5.683600      -154.6586
  10   2.0000      -0.838721       -22.8228
  11   2.0000      -0.702482       -19.1155
  12   2.0000      -0.682370       -18.5682
  13   2.0000      -0.558912       -15.2088
  14   2.0000      -0.443416       -12.0660
  15   2.0000      -0.323791        -8.8108
  16   2.0000      -0.271765        -7.3951
  17   2.0000      -0.262689        -7.1481
  18   2.0000      -0.230442        -6.2707
  19   2.0000      -0.212757        -5.7894
  20   2.0000      -0.207421        -5.6442
  21   2.0000      -0.187755        -5.1091
  22   2.0000      -0.171214        -4.6590
  23   2.0000      -0.102992        -2.8025
  24   2.0000      -0.101977        -2.7749
  25   2.0000      -0.071287        -1.9398
  26   2.0000      -0.064404        -1.7525
  27   2.0000      -0.056750        -1.5442
  28   2.0000      -0.018443        -0.5019
  29   0.0000       0.126142         3.4325
  30   0.0000       0.153973         4.1898
  31   0.0000       0.163285         4.4432
  32   0.0000       0.169304         4.6070
  33   0.0000       0.190845         5.1932

MULLIKEN ATOMIC CHARGES
-----------------------
   0 C :    0.777278
   1 C :   -0.376162
   2 H :   -0.064863
   3 H :   -0.031662
   4 S :    1.176686
   5 O :   -0.775456
   6 O :   -0.729258
   7 O :   -0.773056
   8 H :   -0.043338
   9 H :   -0.108824
  10 H :   -0.051344
Sum of atomic charges:   -1.0000000

LOEWDIN ATOMIC CHARGES
----------------------
   0 C :    0.101967
   1 C :   -0.149568
   2 H :    0.003879
   3 H :    0.000944
   4 S :    0.801501
   5 O :   -0.564583
   6 O :   -0.550315
   7 O :   -0.568673
   8 H :   -0.022757
   9 H :   -0.035158
  10 H :   -0.017238

  Mayer bond orders larger than 0.100000
B(  0-C ,  1-C ) :   1.3186 B(  0-C ,  8-H ) :   0.8100 B(  0-C ,  9-H ) :   0.7351
B(  0-C , 10-H ) :   0.8001 B(  1-C ,  2-H ) :   0.9787 B(  1-C ,  3-H ) :   0.9769
B(  1-C ,  4-S ) :   0.9087 B(  1-C ,  8-H ) :   0.2144 B(  1-C ,  9-H ) :   0.2364
B(  1-C , 10-H ) :   0.2077 B(  4-S ,  5-O ) :   1.3107 B(  4-S ,  6-O ) :   1.3672
B(  4-S ,  7-O ) :   1.3088

Dispersion correction           -0.009670564
FINAL SINGLE POINT ENERGY      -702.288444148247

DIPOLE MOMENT
-------------
                                X             Y             Z
Electronic contribution:     -4.36963       6.42765      -0.65909
Nuclear contribution   :      5.05690      -8.21735       0.57889
                        -----------------------------------------
Total Dipole Moment    :      0.68727      -1.78970      -0.08020
                        -----------------------------------------
Magnitude (a.u.)       :      1.91881
Magnitude (Debye)      :      4.87722

Rotational constants in cm-1:     0.162547     0.083494     0.081672
Rotational constants in MHz :  4873.033504  2503.090885  2448.458543

                             ****ORCA TERMINATED NORMALLY****
TOTAL RUN TIME: 0 days 0 hours 0 minutes 6 seconds 5 msec
