                         Program Version 5.0.0 -  RELEASE  -
|  1> !PBE D3BJ RIJCOSX def2-SVPD def2/J TightSCF
|  2> *xyz 1 1
|  3> C          4.49059        1.15590       -2.46929
|  4> N          4.30539        1.22276       -3.90832
|  5> C          4.63192        2.24637       -4.67096
|  6> N          4.54169        2.14399       -5.98714
|  7> N          5.08409        3.39358       -4.11855
|  8> H          4.92067        3.57050       -3.13587
|  9> H          5.25465        4.19739       -4.70696
| 10> H          3.82453        0.44911       -4.35093
| 11> H          4.34337        1.24932       -6.41665
| 12> H          4.67671        2.95662       -6.57411
| 13> C          5.94213        0.93950       -2.03689
| 14> H          3.86431        0.32853       -2.13661
| 15> H          4.07623        2.04999       -1.98901
| 16> H          6.32982        0.06401       -2.51451
| 17> H          5.98308        0.81426       -0.97504
| 18> H          6.52865        1.78889       -2.31873
| 19> *
| 20>
| 21> %MaxCore 64000
| 22>
| 23> %pal nprocs 4
| 24> end
| 25>
| 26> %scf
| 27>   MaxIter 150
| 28> end
| 29>
| 30>
| 31>                          ****END OF INPUT****

CARTESIAN COORDINATES (ANGSTROEM)
---------------------------------
  C      4.490590    1.155900   -2.469290
  N      4.305390    1.222760   -3.908320
  C      4.631920    2.246370   -4.670960
  N      4.541690    2.143990   -5.987140
  N      5.084090    3.393580   -4.118550
  H      4.920670    3.570500   -3.135870
  H      5.254650    4.197390   -4.706960
  H      3.824530    0.449110   -4.350930
  H      4.343370    1.249320   -6.416650
  H      4.676710    2.956620   -6.574110
  C      5.942130    0.939500   -2.036890
  H      3.864310    0.328530   -2.136610
  H      4.076230    2.049990   -1.989010
  H      6.329820    0.064010   -2.514510
  H      5.983080    0.814260   -0.975040
  H      6.528650    1.788890   -2.318730

 Total Charge           Charge          ....    1
 Multiplicity           Mult            ....    1
 Number of Electrons    NEL             ....   48
 Basis Dimension        Dim             ....  200

ORBITAL ENERGIES
----------------

  NO   OCC          E(Eh)            E(eV)
   0   2.0000     -14.225144      -387.0858
   1   2.0000     -14.223015      -387.0279
   2   2.0000     -14.220687      -386.9646
   3   2.0000     -10.218599      -278.0622
   4   2.0000     -10.103457      -274.9290
   5   2.0000     -10.031817      -272.9796
   6   2.0000      -1.124071       -30.5875
   7   2.0000      -1.021437       -27.7947
   8   2.0000      -1.006238       -27.3811
   9   2.0000      -0.857416       -23.3315
  10   2.0000      -0.781373       -21.2622
  11   2.0000      -0.742289       -20.1987
  12   2.0000      -0.733020       -19.9465
  13   2.0000      -0.688157       -18.7257
  14   2.0000      -0.644076       -17.5262
  15   2.0000      -0.642398       -17.4805
  16   2.0000      -0.612689       -16.6721
  17   2.0000      -0.578762       -15.7489
  18   2.0000      -0.556790       -15.1510
  19   2.0000      -0.515716       -14.0333
  20   2.0000      -0.487682       -13.2705
  21   2.0000      -0.468887       -12.7591
  22   2.0000      -0.435765       -11.8578
  23   2.0000      -0.413871       -11.2620
  24   0.0000      -0.202326        -5.5056
  25   0.0000      -0.176794        -4.8108
  26   0.0000      -0.144172        -3.9231
  27   0.0000      -0.137979        -3.7546
  28   0.0000      -0.117309        -3.1921

MULLIKEN ATOMIC CHARGES
-----------------------
   0 C :    0.290448
   1 N :   -0.366666
   2 C :    1.458669
   3 N :   -0.032574
   4 N :    0.004093
   5 H :   -0.041369
   6 H :   -0.187918
   7 H :   -0.255993
   8 H :   -0.069346
   9 H :   -0.060111
  10 C :    0.701004
  11 H :   -0.343760
  12 H :    0.001055
  13 H :   -0.054639
  14 H :    0.001870
  15 H :   -0.044764
Sum of atomic charges:    1.0000000

LOEWDIN ATOMIC CHARGES
----------------------
   0 C :    0.032624
   1 N :    0.050136
   2 C :   -0.054074
   3 N :    0.272845
   4 N :    0.294800
   5 H :    0.014612
   6 H :    0.033922
   7 H :    0.060374
   8 H :    0.040159
   9 H :    0.039363
  10 C :    0.163510
  11 H :    0.042288
  12 H :    0.030425
  13 H :   -0.003314
  14 H :    0.004160
  15 H :   -0.021829

  Mayer bond orders larger than 0.100000
B(  0-C ,  1-N ) :   0.9262 B(  0-C ,  2-C ) :  -0.1046 B(  0-C ,  7-H ) :  -0.1588
B(  0-C , 10-C ) :   1.3088 B(  0-C , 11-H ) :   0.8817 B(  0-C , 12-H ) :   0.8548
B(  0-C , 13-H ) :   0.2452 B(  0-C , 14-H ) :   0.1606 B(  0-C , 15-H ) :   0.1992
B(  1-N ,  2-C ) :   0.9622 B(  1-N ,  3-N ) :   0.3020 B(  1-N ,  4-N ) :   0.2700
B(  1-N ,  7-H ) :   1.3160 B(  1-N , 11-H ) :   0.1859 B(  1-N , 12-H ) :   0.1034
B(  2-C ,  3-N ) :   0.7842 B(  2-C ,  4-N ) :   0.8597 B(  2-C ,  5-H ) :  -0.1352
B(  2-C ,  6-H ) :  -0.1869 B(  2-C ,  7-H ) :  -0.2742 B(  2-C ,  8-H ) :  -0.1846
B(  2-C ,  9-H ) :  -0.1505 B(  3-N ,  4-N ) :   0.1948 B(  3-N ,  8-H ) :   1.2003
B(  3-N ,  9-H ) :   1.2290 B(  4-N ,  5-H ) :   1.0823 B(  4-N ,  6-H ) :   1.2899
B(  5-H ,  6-H ) :  -0.2111 B(  8-H ,  9-H ) :  -0.1830 B( 10-C , 13-H ) :   0.7983
B( 10-C , 14-H ) :   0.8170 B( 10-C , 15-H ) :   0.8076

Dispersion correction           -0.012437358
FINAL SINGLE POINT ENERGY      -283.867087360697

DIPOLE MOMENT
-------------
                                X             Y             Z
Electronic contribution:     -1.79707       1.56829      -4.44629
Nuclear contribution   :      1.34333      -1.11039       3.43667
                        -----------------------------------------
Total Dipole Moment    :     -0.45374       0.45790      -1.00963
                        -----------------------------------------
Magnitude (a.u.)       :      1.19787
Magnitude (Debye)      :      3.04475

Rotational constants in cm-1:     0.227161     0.075356     0.065003
Rotational constants in MHz :  6810.114531  2259.122204  1948.738523

                             ****ORCA TERMINATED NORMALLY****
TOTAL RUN TIME: 0 days 0 hours 0 minutes 7 seconds 366 msec
