                         Program Version 5.0.0 -  RELEASE  -
|  1> !PBE D3BJ RIJCOSX def2-SVPD def2/J TightSCF
|  2> *xyz 0 1
|  3> C          4.90646       -3.10282       -5.95484
|  4> C          3.51177       -2.80621       -6.49228
|  5> H          2.73604       -3.37345       -5.97374
|  6> H          3.44490       -3.04083       -7.55528
|  7> S          3.00462       -1.09621       -6.38926
|  8> F          4.12886       -0.32965       -6.95372
|  9> O          1.78128       -1.00078       -7.13640
| 10> O          2.85155       -0.78368       -4.95679
| 11> H          5.62703       -2.52424       -6.49422
| 12> H          5.12164       -4.14387       -6.07654
| 13> H          4.95004       -2.84862       -4.91639
| 14> *
| 15>
| 16> %MaxCore 64000
| 17>
| 18> %pal nprocs 4
| 19> end
| 20>
| 21> %scf
| 22>   MaxIter 150
| 23> end
| 24>
| 25>
| 26>                          ****END OF INPUT****

CARTESIAN COORDINATES (ANGSTROEM)
---------------------------------
  C      4.906460   -3.102820   -5.954840
  C      3.511770   -2.806210   -6.492280
  H      2.736040   -3.373450   -5.973740
  H      3.444900   -3.040830   -7.555280
  S      3.004620   -1.096210   -6.389260
  F      4.128860   -0.329650   -6.953720
  O      1.781280   -1.000780   -7.136400
  O      2.851550   -0.783680   -4.956790
  H      5.627030   -2.524240   -6.494220
  H      5.121640   -4.143870   -6.076540
  H      4.950040   -2.848620   -4.916390

 Total Charge           Charge          ....    0
 Multiplicity           Mult            ....    1
 Number of Electrons    NEL             ....   58
 Basis Dimension        Dim             ....  176

ORBITAL ENERGIES
----------------

  NO   OCC          E(Eh)            E(eV)
   0   2.0000     -88.307333     -2402.9647
   1   2.0000     -24.374305      -663.2586
   2   2.0000     -18.780112      -511.0328
   3   2.0000     -18.768748      -510.7236
   4   2.0000      -9.960610      -271.0420
   5   2.0000      -9.921507      -269.9779
   6   2.0000      -7.912779      -215.3177
   7   2.0000      -5.943955      -161.7433
   8   2.0000      -5.937658      -161.5719
   9   2.0000      -5.936033      -161.5277
  10   2.0000      -1.246843       -33.9283
  11   2.0000      -1.023161       -27.8416
  12   2.0000      -0.924963       -25.1695
  13   2.0000      -0.754555       -20.5325
  14   2.0000      -0.659209       -17.9380
  15   2.0000      -0.614329       -16.7167
  16   2.0000      -0.526780       -14.3344
  17   2.0000      -0.506100       -13.7717
  18   2.0000      -0.489946       -13.3321
  19   2.0000      -0.448983       -12.2174
  20   2.0000      -0.427495       -11.6327
  21   2.0000      -0.408493       -11.1157
  22   2.0000      -0.392890       -10.6911
  23   2.0000      -0.369815       -10.0632
  24   2.0000      -0.357736        -9.7345
  25   2.0000      -0.337604        -9.1867
  26   2.0000      -0.295739        -8.0475
  27   2.0000      -0.284426        -7.7396
  28   2.0000      -0.266784        -7.2596
  29   0.0000      -0.031967        -0.8699
  30   0.0000       0.003984         0.1084
  31   0.0000       0.014362         0.3908
  32   0.0000       0.019672         0.5353
  33   0.0000       0.026204         0.7130

MULLIKEN ATOMIC CHARGES
-----------------------
   0 C :    0.801240
   1 C :   -0.376227
   2 H :   -0.019434
   3 H :    0.008161
   4 S :    1.351871
   5 F :   -0.377518
   6 O :   -0.595813
   7 O :   -0.643058
   8 H :   -0.040140
   9 H :   -0.080008
  10 H :   -0.029076
Sum of atomic charges:    0.0000000

LOEWDIN ATOMIC CHARGES
----------------------
   0 C :    0.132868
   1 C :   -0.101759
   2 H :    0.037637
   3 H :    0.021788
   4 S :    1.066388
   5 F :   -0.252820
   6 O :   -0.435458
   7 O :   -0.451853
   8 H :   -0.010225
   9 H :   -0.004419
  10 H :   -0.002146

  Mayer bond orders larger than 0.100000
B(  0-C ,  1-C ) :   1.3427 B(  0-C ,  8-H ) :   0.8048 B(  0-C ,  9-H ) :   0.7309
B(  0-C , 10-H ) :   0.8059 B(  1-C ,  2-H ) :   0.9695 B(  1-C ,  3-H ) :   0.9712
B(  1-C ,  4-S ) :   0.9841 B(  1-C ,  8-H ) :   0.2005 B(  1-C ,  9-H ) :   0.2265
B(  1-C , 10-H ) :   0.2013 B(  4-S ,  5-F ) :   0.6734 B(  4-S ,  6-O ) :   1.5743
B(  4-S ,  7-O ) :   1.5159

Dispersion correction           -0.009208151
FINAL SINGLE POINT ENERGY      -726.773580271166

DIPOLE MOMENT
-------------
                                X             Y             Z
Electronic contribution:     -3.02353       8.19671      -1.72377
Nuclear contribution   :      4.18919      -9.36357       1.23251
                        -----------------------------------------
Total Dipole Moment    :      1.16566      -1.16686      -0.49126
                        -----------------------------------------
Magnitude (a.u.)       :      1.72095
Magnitude (Debye)      :      4.37431

Rotational constants in cm-1:     0.153152     0.082513     0.079874
Rotational constants in MHz :  4591.373714  2473.673397  2394.575279

                             ****ORCA TERMINATED NORMALLY****
TOTAL RUN TIME: 0 days 0 hours 0 minutes 6 seconds 374 msec
