                         Program Version 5.0.0 -  RELEASE  -
|  1> !PBE D3BJ RIJCOSX def2-SVPD def2/J TightSCF
|  2> *xyz 0 1
|  3> C          4.49059        1.15590       -2.46929
|  4> C          4.30539        1.22276       -3.90832
|  5> C          4.63192        2.24637       -4.67096
|  6> N          4.54169        2.14399       -5.98714
|  7> N          5.08409        3.39358       -4.11855
|  8> H          4.92067        3.57050       -3.13587
|  9> H          5.25465        4.19739       -4.70696
| 10> H          3.82453        0.44911       -4.35093
| 11> H          4.34337        1.24932       -6.41665
| 12> H          4.67671        2.95662       -6.57411
| 13> C          5.94213        0.93950       -2.03689
| 14> H          3.86431        0.32853       -2.13661
| 15> H          4.07623        2.04999       -1.98901
| 16> H          6.32982        0.06401       -2.51451
| 17> H          5.98308        0.81426       -0.97504
| 18> H          6.52865        1.78889       -2.31873
| 19> *
| 20>
| 21> %MaxCore 64000
| 22>
| 23> %pal nprocs 4
| 24> end
| 25>
| 26> %scf
| 27>   MaxIter 150
| 28> end
| 29>
| 30>
| 31>                          ****END OF INPUT****

CARTESIAN COORDINATES (ANGSTROEM)
---------------------------------
  C      4.490590    1.155900   -2.469290
  C      4.305390    1.222760   -3.908320
  C      4.631920    2.246370   -4.670960
  N      4.541690    2.143990   -5.987140
  N      5.084090    3.393580   -4.118550
  H      4.920670    3.570500   -3.135870
  H      5.254650    4.197390   -4.706960
  H      3.824530    0.449110   -4.350930
  H      4.343370    1.249320   -6.416650
  H      4.676710    2.956620   -6.574110
  C      5.942130    0.939500   -2.036890
  H      3.864310    0.328530   -2.136610
  H      4.076230    2.049990   -1.989010
  H      6.329820    0.064010   -2.514510
  H      5.983080    0.814260   -0.975040
  H      6.528650    1.788890   -2.318730

 Total Charge           Charge          ....    0
 Multiplicity           Mult            ....    1
 Number of Electrons    NEL             ....   48
 Basis Dimension        Dim             ....  200

ORBITAL ENERGIES
----------------

  NO   OCC          E(Eh)            E(eV)
   0   2.0000     -14.002294      -381.0218
   1   2.0000     -14.000174      -380.9641
   2   2.0000      -9.931798      -270.2580
   3   2.0000      -9.870944      -268.6020
   4   2.0000      -9.859054      -268.2785
   5   2.0000      -9.818565      -267.1767
   6   2.0000      -0.870583       -23.6898
   7   2.0000      -0.786430       -21.3999
   8   2.0000      -0.693485       -18.8707
   9   2.0000      -0.621275       -16.9057
  10   2.0000      -0.553599       -15.0642
  11   2.0000      -0.520620       -14.1668
  12   2.0000      -0.491269       -13.3681
  13   2.0000      -0.454695       -12.3729
  14   2.0000      -0.428516       -11.6605
  15   2.0000      -0.389283       -10.5929
  16   2.0000      -0.372985       -10.1494
  17   2.0000      -0.344613        -9.3774
  18   2.0000      -0.336640        -9.1604
  19   2.0000      -0.308487        -8.3944
  20   2.0000      -0.285926        -7.7805
  21   2.0000      -0.274227        -7.4621
  22   2.0000      -0.222747        -6.0613
  23   2.0000      -0.130837        -3.5603
  24   0.0000      -0.006859        -0.1866
  25   0.0000       0.018682         0.5084
  26   0.0000       0.029668         0.8073
  27   0.0000       0.038928         1.0593
  28   0.0000       0.054990         1.4964

MULLIKEN ATOMIC CHARGES
-----------------------
   0 C :   -0.218388
   1 C :   -0.359907
   2 C :    1.121777
   3 N :    0.005955
   4 N :    0.009823
   5 H :   -0.056840
   6 H :   -0.288467
   7 H :   -0.402073
   8 H :   -0.062420
   9 H :   -0.183162
  10 C :    0.666237
  11 H :   -0.045619
  12 H :   -0.042130
  13 H :   -0.051940
  14 H :   -0.027688
  15 H :   -0.065157
Sum of atomic charges:   -0.0000000

LOEWDIN ATOMIC CHARGES
----------------------
   0 C :   -0.108932
   1 C :   -0.038753
   2 C :   -0.229437
   3 N :    0.187788
   4 N :    0.217607
   5 H :   -0.015665
   6 H :   -0.016129
   7 H :   -0.049824
   8 H :    0.006370
   9 H :   -0.012621
  10 C :    0.119365
  11 H :    0.015273
  12 H :    0.004717
  13 H :   -0.018929
  14 H :   -0.027985
  15 H :   -0.032844

  Mayer bond orders larger than 0.100000
B(  0-C ,  1-C ) :   1.2624 B(  0-C ,  7-H ) :   0.3206 B(  0-C , 10-C ) :   1.2896
B(  0-C , 11-H ) :   0.8071 B(  0-C , 12-H ) :   0.8586 B(  0-C , 13-H ) :   0.1952
B(  0-C , 14-H ) :   0.1769 B(  0-C , 15-H ) :   0.2267 B(  1-C ,  2-C ) :   1.3794
B(  1-C ,  3-N ) :   0.4478 B(  1-C ,  4-N ) :   0.2556 B(  1-C ,  7-H ) :   0.9512
B(  1-C , 11-H ) :   0.3136 B(  1-C , 12-H ) :   0.1705 B(  2-C ,  3-N ) :   0.7644
B(  2-C ,  4-N ) :   0.8992 B(  2-C ,  6-H ) :  -0.1856 B(  2-C ,  8-H ) :  -0.1017
B(  3-N ,  4-N ) :   0.1418 B(  3-N ,  8-H ) :   1.1807 B(  3-N ,  9-H ) :   1.2436
B(  4-N ,  5-H ) :   1.0619 B(  4-N ,  6-H ) :   1.3372 B(  5-H ,  6-H ) :  -0.1934
B(  7-H , 11-H ) :  -0.1079 B(  8-H ,  9-H ) :  -0.1723 B( 10-C , 13-H ) :   0.8386
B( 10-C , 14-H ) :   0.8133 B( 10-C , 15-H ) :   0.8019

Dispersion correction           -0.012896785
FINAL SINGLE POINT ENERGY      -267.401023826977

DIPOLE MOMENT
-------------
                                X             Y             Z
Electronic contribution:     -1.26700       1.96612      -4.13893
Nuclear contribution   :      1.23062      -1.24683       3.43056
                        -----------------------------------------
Total Dipole Moment    :     -0.03638       0.71929      -0.70836
                        -----------------------------------------
Magnitude (a.u.)       :      1.01019
Magnitude (Debye)      :      2.56770

Rotational constants in cm-1:     0.231477     0.075416     0.065327
Rotational constants in MHz :  6939.497385  2260.912204  1958.442932

                             ****ORCA TERMINATED NORMALLY****
TOTAL RUN TIME: 0 days 0 hours 0 minutes 8 seconds 932 msec
