                         Program Version 5.0.0 -  RELEASE  -
|  1> !PBE D3BJ RIJCOSX def2-SVPD def2/J TightSCF
|  2> *xyz 0 1
|  3> C          4.90646       -3.10282       -5.95484
|  4> C          3.51177       -2.80621       -6.49228
|  5> H          2.73604       -3.37345       -5.97374
|  6> H          3.44490       -3.04083       -7.55528
|  7> S          3.00462       -1.09621       -6.38926
|  8> O          4.12886       -0.32965       -6.95372
|  9> F          1.78128       -1.00078       -7.13640
| 10> O          2.85155       -0.78368       -4.95679
| 11> H          5.62703       -2.52424       -6.49422
| 12> H          5.12164       -4.14387       -6.07654
| 13> H          4.95004       -2.84862       -4.91639
| 14> *
| 15>
| 16> %MaxCore 64000
| 17>
| 18> %pal nprocs 4
| 19> end
| 20>
| 21> %scf
| 22>   MaxIter 150
| 23> end
| 24>
| 25>
| 26>                          ****END OF INPUT****

CARTESIAN COORDINATES (ANGSTROEM)
---------------------------------
  C      4.906460   -3.102820   -5.954840
  C      3.511770   -2.806210   -6.492280
  H      2.736040   -3.373450   -5.973740
  H      3.444900   -3.040830   -7.555280
  S      3.004620   -1.096210   -6.389260
  O      4.128860   -0.329650   -6.953720
  F      1.781280   -1.000780   -7.136400
  O      2.851550   -0.783680   -4.956790
  H      5.627030   -2.524240   -6.494220
  H      5.121640   -4.143870   -6.076540
  H      4.950040   -2.848620   -4.916390

 Total Charge           Charge          ....    0
 Multiplicity           Mult            ....    1
 Number of Electrons    NEL             ....   58
 Basis Dimension        Dim             ....  176

ORBITAL ENERGIES
----------------

  NO   OCC          E(Eh)            E(eV)
   0   2.0000     -88.309472     -2403.0229
   1   2.0000     -24.392107      -663.7430
   2   2.0000     -18.768836      -510.7260
   3   2.0000     -18.768774      -510.7243
   4   2.0000      -9.961516      -271.0666
   5   2.0000      -9.917494      -269.8687
   6   2.0000      -7.914850      -215.3740
   7   2.0000      -5.946163      -161.8033
   8   2.0000      -5.939536      -161.6230
   9   2.0000      -5.937987      -161.5808
  10   2.0000      -1.277098       -34.7516
  11   2.0000      -1.010464       -27.4961
  12   2.0000      -0.911622       -24.8065
  13   2.0000      -0.751989       -20.4627
  14   2.0000      -0.673302       -18.3215
  15   2.0000      -0.615672       -16.7533
  16   2.0000      -0.528846       -14.3906
  17   2.0000      -0.527559       -14.3556
  18   2.0000      -0.500685       -13.6243
  19   2.0000      -0.449734       -12.2379
  20   2.0000      -0.431216       -11.7340
  21   2.0000      -0.393881       -10.7180
  22   2.0000      -0.390070       -10.6143
  23   2.0000      -0.367876       -10.0104
  24   2.0000      -0.348215        -9.4754
  25   2.0000      -0.333858        -9.0847
  26   2.0000      -0.284779        -7.7492
  27   2.0000      -0.281831        -7.6690
  28   2.0000      -0.255829        -6.9615
  29   0.0000      -0.027269        -0.7420
  30   0.0000      -0.007199        -0.1959
  31   0.0000       0.015948         0.4340
  32   0.0000       0.022224         0.6047
  33   0.0000       0.026177         0.7123

MULLIKEN ATOMIC CHARGES
-----------------------
   0 C :    0.785698
   1 C :   -0.406365
   2 H :   -0.012754
   3 H :    0.018485
   4 S :    1.376903
   5 O :   -0.634952
   6 F :   -0.360717
   7 O :   -0.632949
   8 H :   -0.023144
   9 H :   -0.077110
  10 H :   -0.033095
Sum of atomic charges:   -0.0000000

LOEWDIN ATOMIC CHARGES
----------------------
   0 C :    0.148069
   1 C :   -0.114562
   2 H :    0.023568
   3 H :    0.019443
   4 S :    1.070786
   5 O :   -0.452061
   6 F :   -0.238038
   7 O :   -0.453024
   8 H :   -0.003735
   9 H :   -0.002008
  10 H :    0.001563

  Mayer bond orders larger than 0.100000
B(  0-C ,  1-C ) :   1.3914 B(  0-C ,  8-H ) :   0.8036 B(  0-C ,  9-H ) :   0.7357
B(  0-C , 10-H ) :   0.7965 B(  1-C ,  2-H ) :   0.9592 B(  1-C ,  3-H ) :   0.9483
B(  1-C ,  4-S ) :   0.9574 B(  1-C ,  8-H ) :   0.2092 B(  1-C ,  9-H ) :   0.2241
B(  1-C , 10-H ) :   0.2020 B(  4-S ,  5-O ) :   1.5122 B(  4-S ,  6-F ) :   0.7236
B(  4-S ,  7-O ) :   1.5054

Dispersion correction           -0.009260655
FINAL SINGLE POINT ENERGY      -726.758473459227

DIPOLE MOMENT
-------------
                                X             Y             Z
Electronic contribution:     -6.91968       7.09603      -2.02438
Nuclear contribution   :      6.63544      -8.66423       1.42287
                        -----------------------------------------
Total Dipole Moment    :     -0.28424      -1.56820      -0.60151
                        -----------------------------------------
Magnitude (a.u.)       :      1.70348
Magnitude (Debye)      :      4.32991

Rotational constants in cm-1:     0.158118     0.080978     0.078216
Rotational constants in MHz :  4740.271775  2427.649826  2344.849020

                             ****ORCA TERMINATED NORMALLY****
TOTAL RUN TIME: 0 days 0 hours 0 minutes 6 seconds 273 msec
