                         Program Version 5.0.0 -  RELEASE  -
|  1> !PBE D3BJ RIJCOSX def2-SVPD def2/J TightSCF
|  2> *xyz 0 1
|  3> C          4.49059        1.15590       -2.46929
|  4> N          4.30539        1.22276       -3.90832
|  5> C          4.63192        2.24637       -4.67096
|  6> C          4.54169        2.14399       -5.98714
|  7> N          5.08409        3.39358       -4.11855
|  8> H          4.92067        3.57050       -3.13587
|  9> H          5.25465        4.19739       -4.70696
| 10> H          3.82453        0.44911       -4.35093
| 11> H          4.34337        1.24932       -6.41665
| 12> H          4.67671        2.95662       -6.57411
| 13> C          5.94213        0.93950       -2.03689
| 14> H          3.86431        0.32853       -2.13661
| 15> H          4.07623        2.04999       -1.98901
| 16> H          6.32982        0.06401       -2.51451
| 17> H          5.98308        0.81426       -0.97504
| 18> H          6.52865        1.78889       -2.31873
| 19> *
| 20>
| 21> %MaxCore 64000
| 22>
| 23> %pal nprocs 4
| 24> end
| 25>
| 26> %scf
| 27>   MaxIter 150
| 28> end
| 29>
| 30>
| 31>                          ****END OF INPUT****

CARTESIAN COORDINATES (ANGSTROEM)
---------------------------------
  C      4.490590    1.155900   -2.469290
  N      4.305390    1.222760   -3.908320
  C      4.631920    2.246370   -4.670960
  C      4.541690    2.143990   -5.987140
  N      5.084090    3.393580   -4.118550
  H      4.920670    3.570500   -3.135870
  H      5.254650    4.197390   -4.706960
  H      3.824530    0.449110   -4.350930
  H      4.343370    1.249320   -6.416650
  H      4.676710    2.956620   -6.574110
  C      5.942130    0.939500   -2.036890
  H      3.864310    0.328530   -2.136610
  H      4.076230    2.049990   -1.989010
  H      6.329820    0.064010   -2.514510
  H      5.983080    0.814260   -0.975040
  H      6.528650    1.788890   -2.318730

 Total Charge           Charge          ....    0
 Multiplicity           Mult            ....    1
 Number of Electrons    NEL             ....   48
 Basis Dimension        Dim             ....  200

ORBITAL ENERGIES
----------------

  NO   OCC          E(Eh)            E(eV)
   0   2.0000     -14.002467      -381.0265
   1   2.0000     -13.999599      -380.9485
   2   2.0000      -9.935981      -270.3718
   3   2.0000      -9.932770      -270.2844
   4   2.0000      -9.884342      -268.9666
   5   2.0000      -9.807279      -266.8696
   6   2.0000      -0.878524       -23.9058
   7   2.0000      -0.797155       -21.6917
   8   2.0000      -0.694784       -18.9060
   9   2.0000      -0.627933       -17.0869
  10   2.0000      -0.565544       -15.3892
  11   2.0000      -0.540329       -14.7031
  12   2.0000      -0.482975       -13.1424
  13   2.0000      -0.447688       -12.1822
  14   2.0000      -0.433465       -11.7952
  15   2.0000      -0.399966       -10.8836
  16   2.0000      -0.376698       -10.2505
  17   2.0000      -0.355964        -9.6863
  18   2.0000      -0.336143        -9.1469
  19   2.0000      -0.331384        -9.0174
  20   2.0000      -0.315665        -8.5897
  21   2.0000      -0.309621        -8.4252
  22   2.0000      -0.213957        -5.8221
  23   2.0000      -0.131545        -3.5795
  24   0.0000      -0.008215        -0.2235
  25   0.0000       0.016866         0.4590
  26   0.0000       0.025796         0.7019
  27   0.0000       0.034297         0.9333
  28   0.0000       0.052958         1.4411

MULLIKEN ATOMIC CHARGES
-----------------------
   0 C :    0.283349
   1 N :   -0.288148
   2 C :    0.782041
   3 C :    0.303234
   4 N :    0.150448
   5 H :   -0.136002
   6 H :   -0.214824
   7 H :   -0.303870
   8 H :   -0.277320
   9 H :   -0.369547
  10 C :    0.684411
  11 H :   -0.395395
  12 H :   -0.043209
  13 H :   -0.069682
  14 H :   -0.054031
  15 H :   -0.051455
Sum of atomic charges:    0.0000000

LOEWDIN ATOMIC CHARGES
----------------------
   0 C :   -0.000553
   1 N :   -0.008684
   2 C :   -0.248351
   3 C :    0.141760
   4 N :    0.214002
   5 H :   -0.030080
   6 H :    0.001526
   7 H :    0.034088
   8 H :   -0.098827
   9 H :   -0.101172
  10 C :    0.134347
  11 H :    0.020073
  12 H :    0.009124
  13 H :   -0.016062
  14 H :   -0.021103
  15 H :   -0.030088

  Mayer bond orders larger than 0.100000
B(  0-C ,  1-N ) :   0.9217 B(  0-C ,  7-H ) :  -0.1731 B(  0-C , 10-C ) :   1.2872
B(  0-C , 11-H ) :   0.8916 B(  0-C , 12-H ) :   0.8600 B(  0-C , 13-H ) :   0.2504
B(  0-C , 14-H ) :   0.1760 B(  0-C , 15-H ) :   0.2096 B(  1-N ,  2-C ) :   1.0248
B(  1-N ,  3-C ) :   0.2664 B(  1-N ,  4-N ) :   0.2111 B(  1-N ,  7-H ) :   1.2929
B(  1-N , 11-H ) :   0.1865 B(  1-N , 12-H ) :   0.1304 B(  2-C ,  3-C ) :   1.2502
B(  2-C ,  4-N ) :   0.9022 B(  2-C ,  6-H ) :  -0.1269 B(  2-C ,  7-H ) :  -0.2318
B(  2-C ,  9-H ) :   0.1522 B(  3-C ,  4-N ) :   0.2332 B(  3-C ,  8-H ) :   0.8478
B(  3-C ,  9-H ) :   0.7934 B(  4-N ,  5-H ) :   1.0564 B(  4-N ,  6-H ) :   1.2355
B(  5-H ,  6-H ) :  -0.1963 B(  8-H ,  9-H ) :   0.1145 B( 10-C , 13-H ) :   0.8000
B( 10-C , 14-H ) :   0.8340 B( 10-C , 15-H ) :   0.8113

Dispersion correction           -0.012787648
FINAL SINGLE POINT ENERGY      -267.391894485868

DIPOLE MOMENT
-------------
                                X             Y             Z
Electronic contribution:     -1.41978       1.07844      -1.97022
Nuclear contribution   :      1.28075      -1.05140       2.98955
                        -----------------------------------------
Total Dipole Moment    :     -0.13904       0.02704       1.01934
                        -----------------------------------------
Magnitude (a.u.)       :      1.02913
Magnitude (Debye)      :      2.61584

Rotational constants in cm-1:     0.229858     0.078444     0.067377
Rotational constants in MHz :  6890.979812  2351.691803  2019.910665

                             ****ORCA TERMINATED NORMALLY****
TOTAL RUN TIME: 0 days 0 hours 0 minutes 7 seconds 997 msec
