                         Program Version 5.0.0 -  RELEASE  -
|  1> !PBE D3BJ RIJCOSX def2-SVPD def2/J TightSCF
|  2> *xyz 0 1
|  3> C          4.90646       -3.10282       -5.95484
|  4> C          3.51177       -2.80621       -6.49228
|  5> H          2.73604       -3.37345       -5.97374
|  6> H          3.44490       -3.04083       -7.55528
|  7> S          3.00462       -1.09621       -6.38926
|  8> O          4.12886       -0.32965       -6.95372
|  9> O          1.78128       -1.00078       -7.13640
| 10> F          2.85155       -0.78368       -4.95679
| 11> H          5.62703       -2.52424       -6.49422
| 12> H          5.12164       -4.14387       -6.07654
| 13> H          4.95004       -2.84862       -4.91639
| 14> *
| 15>
| 16> %MaxCore 64000
| 17>
| 18> %pal nprocs 4
| 19> end
| 20>
| 21> %scf
| 22>   MaxIter 150
| 23> end
| 24>
| 25>
| 26>                          ****END OF INPUT****

CARTESIAN COORDINATES (ANGSTROEM)
---------------------------------
  C      4.906460   -3.102820   -5.954840
  C      3.511770   -2.806210   -6.492280
  H      2.736040   -3.373450   -5.973740
  H      3.444900   -3.040830   -7.555280
  S      3.004620   -1.096210   -6.389260
  O      4.128860   -0.329650   -6.953720
  O      1.781280   -1.000780   -7.136400
  F      2.851550   -0.783680   -4.956790
  H      5.627030   -2.524240   -6.494220
  H      5.121640   -4.143870   -6.076540
  H      4.950040   -2.848620   -4.916390

 Total Charge           Charge          ....    0
 Multiplicity           Mult            ....    1
 Number of Electrons    NEL             ....   58
 Basis Dimension        Dim             ....  176

ORBITAL ENERGIES
----------------

  NO   OCC          E(Eh)            E(eV)
   0   2.0000     -88.307376     -2402.9659
   1   2.0000     -24.373893      -663.2474
   2   2.0000     -18.780321      -511.0385
   3   2.0000     -18.769135      -510.7341
   4   2.0000      -9.960488      -271.0387
   5   2.0000      -9.918624      -269.8995
   6   2.0000      -7.912815      -215.3186
   7   2.0000      -5.943950      -161.7431
   8   2.0000      -5.937692      -161.5728
   9   2.0000      -5.936113      -161.5298
  10   2.0000      -1.245909       -33.9029
  11   2.0000      -1.023253       -27.8441
  12   2.0000      -0.926600       -25.2141
  13   2.0000      -0.752351       -20.4725
  14   2.0000      -0.658656       -17.9229
  15   2.0000      -0.613242       -16.6872
  16   2.0000      -0.524136       -14.2625
  17   2.0000      -0.504908       -13.7392
  18   2.0000      -0.491672       -13.3791
  19   2.0000      -0.447778       -12.1847
  20   2.0000      -0.429966       -11.7000
  21   2.0000      -0.408760       -11.1229
  22   2.0000      -0.389753       -10.6057
  23   2.0000      -0.365940        -9.9577
  24   2.0000      -0.357916        -9.7394
  25   2.0000      -0.335585        -9.1317
  26   2.0000      -0.295709        -8.0466
  27   2.0000      -0.285083        -7.7575
  28   2.0000      -0.268421        -7.3041
  29   0.0000      -0.031695        -0.8625
  30   0.0000       0.000829         0.0226
  31   0.0000       0.012662         0.3446
  32   0.0000       0.020778         0.5654
  33   0.0000       0.025362         0.6901

MULLIKEN ATOMIC CHARGES
-----------------------
   0 C :    0.813383
   1 C :   -0.391469
   2 H :   -0.021757
   3 H :    0.014162
   4 S :    1.357564
   5 O :   -0.646496
   6 O :   -0.598256
   7 F :   -0.377120
   8 H :   -0.020260
   9 H :   -0.077786
  10 H :   -0.051965
Sum of atomic charges:   -0.0000000

LOEWDIN ATOMIC CHARGES
----------------------
   0 C :    0.133662
   1 C :   -0.103447
   2 H :    0.023299
   3 H :    0.034183
   4 S :    1.067871
   5 O :   -0.449859
   6 O :   -0.435747
   7 F :   -0.253060
   8 H :   -0.006046
   9 H :   -0.004763
  10 H :   -0.006093

  Mayer bond orders larger than 0.100000
B(  0-C ,  1-C ) :   1.3500 B(  0-C ,  8-H ) :   0.8116 B(  0-C ,  9-H ) :   0.7285
B(  0-C , 10-H ) :   0.7926 B(  1-C ,  2-H ) :   0.9659 B(  1-C ,  3-H ) :   0.9678
B(  1-C ,  4-S ) :   0.9871 B(  1-C ,  8-H ) :   0.2097 B(  1-C ,  9-H ) :   0.2238
B(  1-C , 10-H ) :   0.2018 B(  4-S ,  5-O ) :   1.5213 B(  4-S ,  6-O ) :   1.5716
B(  4-S ,  7-F ) :   0.6635

Dispersion correction           -0.009223789
FINAL SINGLE POINT ENERGY      -726.773984122790

DIPOLE MOMENT
-------------
                                X             Y             Z
Electronic contribution:     -5.15161       7.45311       1.60410
Nuclear contribution   :      5.52019      -8.89046      -0.84835
                        -----------------------------------------
Total Dipole Moment    :      0.36858      -1.43735       0.75574
                        -----------------------------------------
Magnitude (a.u.)       :      1.66522
Magnitude (Debye)      :      4.23266

Rotational constants in cm-1:     0.153332     0.082132     0.079755
Rotational constants in MHz :  4596.775407  2462.251277  2391.008596

                             ****ORCA TERMINATED NORMALLY****
TOTAL RUN TIME: 0 days 0 hours 0 minutes 6 seconds 624 msec
