                         Program Version 5.0.0 -  RELEASE  -
|  1> !PBE D3BJ RIJCOSX def2-SVPD def2/J TightSCF
|  2> *xyz 0 1
|  3> C          4.49059        1.15590       -2.46929
|  4> N          4.30539        1.22276       -3.90832
|  5> C          4.63192        2.24637       -4.67096
|  6> N          4.54169        2.14399       -5.98714
|  7> C          5.08409        3.39358       -4.11855
|  8> H          4.92067        3.57050       -3.13587
|  9> H          5.25465        4.19739       -4.70696
| 10> H          3.82453        0.44911       -4.35093
| 11> H          4.34337        1.24932       -6.41665
| 12> H          4.67671        2.95662       -6.57411
| 13> C          5.94213        0.93950       -2.03689
| 14> H          3.86431        0.32853       -2.13661
| 15> H          4.07623        2.04999       -1.98901
| 16> H          6.32982        0.06401       -2.51451
| 17> H          5.98308        0.81426       -0.97504
| 18> H          6.52865        1.78889       -2.31873
| 19> *
| 20>
| 21> %MaxCore 64000
| 22>
| 23> %pal nprocs 4
| 24> end
| 25>
| 26> %scf
| 27>   MaxIter 150
| 28> end
| 29>
| 30>
| 31>                          ****END OF INPUT****

CARTESIAN COORDINATES (ANGSTROEM)
---------------------------------
  C      4.490590    1.155900   -2.469290
  N      4.305390    1.222760   -3.908320
  C      4.631920    2.246370   -4.670960
  N      4.541690    2.143990   -5.987140
  C      5.084090    3.393580   -4.118550
  H      4.920670    3.570500   -3.135870
  H      5.254650    4.197390   -4.706960
  H      3.824530    0.449110   -4.350930
  H      4.343370    1.249320   -6.416650
  H      4.676710    2.956620   -6.574110
  C      5.942130    0.939500   -2.036890
  H      3.864310    0.328530   -2.136610
  H      4.076230    2.049990   -1.989010
  H      6.329820    0.064010   -2.514510
  H      5.983080    0.814260   -0.975040
  H      6.528650    1.788890   -2.318730

 Total Charge           Charge          ....    0
 Multiplicity           Mult            ....    1
 Number of Electrons    NEL             ....   48
 Basis Dimension        Dim             ....  200

ORBITAL ENERGIES
----------------

  NO   OCC          E(Eh)            E(eV)
   0   2.0000     -14.006297      -381.1307
   1   2.0000     -14.001989      -381.0135
   2   2.0000      -9.935584      -270.3610
   3   2.0000      -9.927943      -270.1531
   4   2.0000      -9.874505      -268.6989
   5   2.0000      -9.809217      -266.9224
   6   2.0000      -0.882165       -24.0049
   7   2.0000      -0.803872       -21.8745
   8   2.0000      -0.677010       -18.4224
   9   2.0000      -0.633260       -17.2319
  10   2.0000      -0.575183       -15.6515
  11   2.0000      -0.503824       -13.7097
  12   2.0000      -0.501761       -13.6536
  13   2.0000      -0.469494       -12.7756
  14   2.0000      -0.423275       -11.5179
  15   2.0000      -0.391427       -10.6513
  16   2.0000      -0.367316        -9.9952
  17   2.0000      -0.349637        -9.5141
  18   2.0000      -0.335650        -9.1335
  19   2.0000      -0.320027        -8.7084
  20   2.0000      -0.317339        -8.6352
  21   2.0000      -0.302208        -8.2235
  22   2.0000      -0.210438        -5.7263
  23   2.0000      -0.133757        -3.6397
  24   0.0000      -0.006534        -0.1778
  25   0.0000       0.017197         0.4679
  26   0.0000       0.024855         0.6763
  27   0.0000       0.037281         1.0145
  28   0.0000       0.057407         1.5621

MULLIKEN ATOMIC CHARGES
-----------------------
   0 C :    0.280331
   1 N :   -0.343858
   2 C :    0.695712
   3 N :    0.084296
   4 C :    0.366552
   5 H :   -0.105859
   6 H :   -0.509765
   7 H :   -0.374818
   8 H :   -0.187894
   9 H :   -0.083307
  10 C :    0.697770
  11 H :   -0.385733
  12 H :    0.066225
  13 H :   -0.090234
  14 H :   -0.036182
  15 H :   -0.073235
Sum of atomic charges:    0.0000000

LOEWDIN ATOMIC CHARGES
----------------------
   0 C :    0.006335
   1 N :   -0.014456
   2 C :   -0.248106
   3 N :    0.192948
   4 C :    0.163433
   5 H :   -0.114885
   6 H :   -0.105764
   7 H :    0.018676
   8 H :   -0.010845
   9 H :    0.007093
  10 C :    0.137920
  11 H :    0.018940
  12 H :    0.017420
  13 H :   -0.019673
  14 H :   -0.019790
  15 H :   -0.029248

  Mayer bond orders larger than 0.100000
B(  0-C ,  1-N ) :   0.9200 B(  0-C ,  2-C ) :  -0.1064 B(  0-C ,  5-H ) :   0.1101
B(  0-C ,  7-H ) :  -0.1628 B(  0-C , 10-C ) :   1.2646 B(  0-C , 11-H ) :   0.9326
B(  0-C , 12-H ) :   0.8348 B(  0-C , 13-H ) :   0.2368 B(  0-C , 14-H ) :   0.1683
B(  0-C , 15-H ) :   0.2026 B(  1-N ,  2-C ) :   0.9498 B(  1-N ,  3-N ) :   0.2086
B(  1-N ,  4-C ) :   0.3929 B(  1-N ,  7-H ) :   1.4132 B(  1-N , 11-H ) :   0.1630
B(  2-C ,  3-N ) :   0.8875 B(  2-C ,  4-C ) :   1.6017 B(  2-C ,  5-H ) :   0.2681
B(  2-C ,  6-H ) :   0.1885 B(  2-C ,  7-H ) :  -0.3226 B(  2-C ,  8-H ) :  -0.1045
B(  3-N ,  4-C ) :   0.2788 B(  3-N ,  8-H ) :   1.2107 B(  3-N ,  9-H ) :   1.2049
B(  4-C ,  5-H ) :   0.6495 B(  4-C ,  6-H ) :   0.8551 B(  5-H ,  6-H ) :   0.1428
B(  8-H ,  9-H ) :  -0.1751 B( 10-C , 13-H ) :   0.7999 B( 10-C , 14-H ) :   0.8257
B( 10-C , 15-H ) :   0.8252

Dispersion correction           -0.012864831
FINAL SINGLE POINT ENERGY      -267.391904429852

DIPOLE MOMENT
-------------
                                X             Y             Z
Electronic contribution:     -1.88814      -0.10867      -3.83601
Nuclear contribution   :      1.39581      -0.78630       3.38596
                        -----------------------------------------
Total Dipole Moment    :     -0.49232      -0.89497      -0.45005
                        -----------------------------------------
Magnitude (a.u.)       :      1.11620
Magnitude (Debye)      :      2.83715

Rotational constants in cm-1:     0.239249     0.075811     0.066261
Rotational constants in MHz :  7172.504830  2272.756282  1986.457543

                             ****ORCA TERMINATED NORMALLY****
TOTAL RUN TIME: 0 days 0 hours 0 minutes 8 seconds 151 msec
