                         Program Version 5.0.0 -  RELEASE  -
|  1> !PBE D3BJ RIJCOSX def2-SVPD def2/J TightSCF xyzfile
|  2>
|  3> *xyzfile 0 1 D8.xyz
|  4>
|  5> %MaxCore 64000
|  6>
|  7> %pal nprocs 4
|  8> end
|  9>
| 10> %scf
| 11>   MaxIter 150
| 12> end
| 13>
| 14>
| 15>                          ****END OF INPUT****

CARTESIAN COORDINATES (ANGSTROEM)
---------------------------------
  C      4.490588    1.155899   -2.469290
  N      4.305394    1.222762   -3.908317
  C      4.906458   -3.102816   -5.954844
  C      3.511771   -2.806215   -6.492283
  H      2.736044   -3.373445   -5.973736
  H      3.444904   -3.040831   -7.555281
  S      3.004618   -1.096206   -6.389259
  C      4.631918    2.246365   -4.670958
  C      4.541686    2.143990   -5.987139
  N      5.084086    3.393584   -4.118545
  H      4.920675    3.570501   -3.135870
  H      5.254652    4.197390   -4.706956
  H      3.824530    0.449113   -4.350926
  H      4.343373    1.249318   -6.416646
  H      4.676712    2.956624   -6.574113
  O      4.128856   -0.329647   -6.953717
  O      1.781285   -1.000779   -7.136399
  C      5.942129    0.939500   -2.036893
  H      3.864305    0.328532   -2.136611
  H      4.076233    2.049994   -1.989010
  C      6.462677   -3.117775   -3.944671
  C      5.024977   -3.025679   -4.437625
  H      4.423321   -3.818693   -3.977648
  H      4.579350   -2.087131   -4.108727
  H      5.201533   -4.100207   -6.296905
  H      5.605922   -2.397822   -6.413368
  C      6.559957   -0.356290   -2.559086
  H      5.967976    0.952567   -0.942444
  H      6.547184    1.788331   -2.368849
  C      6.006283   -1.615917   -1.899301
  H      7.642360   -0.318000   -2.402059
  H      6.414855   -0.403433   -3.642587
  C      6.608718   -2.917014   -2.435655
  H      6.190324   -1.561115   -0.820948
  H      4.919250   -1.651245   -2.016586
  H      7.066975   -2.374258   -4.475514
  H      6.887808   -4.089747   -4.215332
  H      6.135197   -3.755573   -1.915159
  H      7.671142   -2.955503   -2.172291
  F      2.851546   -0.783683   -4.956789

 Total Charge           Charge          ....    0
 Multiplicity           Mult            ....    1
 Number of Electrons    NEL             ....  144
 Basis Dimension        Dim             ....  540

ORBITAL ENERGIES
----------------

  NO   OCC          E(Eh)            E(eV)
   0   2.0000     -88.315537     -2403.1879
   1   2.0000     -24.391545      -663.7277
   2   2.0000     -18.785982      -511.1926
   3   2.0000     -18.773972      -510.8657
   4   2.0000     -13.987129      -380.6091
   5   2.0000     -13.986369      -380.5885
   6   2.0000      -9.960379      -271.0357
   7   2.0000      -9.927183      -270.1324
   8   2.0000      -9.925683      -270.0916
   9   2.0000      -9.915849      -269.8240
  10   2.0000      -9.912442      -269.7313
  11   2.0000      -9.903043      -269.4755
  12   2.0000      -9.899193      -269.3707
  13   2.0000      -9.896021      -269.2844
  14   2.0000      -9.890427      -269.1322
  15   2.0000      -9.890261      -269.1277
  16   2.0000      -9.780361      -266.1371
  17   2.0000      -7.919715      -215.5064
  18   2.0000      -5.951118      -161.9381
  19   2.0000      -5.944609      -161.7610
  20   2.0000      -5.942872      -161.7138
  21   2.0000      -1.264271       -34.4026
  22   2.0000      -1.030126       -28.0311
  23   2.0000      -0.934132       -25.4190
  24   2.0000      -0.866349       -23.5746
  25   2.0000      -0.786200       -21.3936
  26   2.0000      -0.769163       -20.9300
  27   2.0000      -0.739249       -20.1160
  28   2.0000      -0.712995       -19.4016
  29   2.0000      -0.681680       -18.5495
  30   2.0000      -0.662367       -18.0239
  31   2.0000      -0.639630       -17.4052
  32   2.0000      -0.607775       -16.5384
  33   2.0000      -0.585790       -15.9402
  34   2.0000      -0.566918       -15.4266
  35   2.0000      -0.548737       -14.9319
  36   2.0000      -0.534998       -14.5580
  37   2.0000      -0.526654       -14.3310
  38   2.0000      -0.513422       -13.9709
  39   2.0000      -0.504033       -13.7154
  40   2.0000      -0.498330       -13.5602
  41   2.0000      -0.465999       -12.6805
  42   2.0000      -0.451809       -12.2943
  43   2.0000      -0.441521       -12.0144
  44   2.0000      -0.435544       -11.8517
  45   2.0000      -0.433528       -11.7969
  46   2.0000      -0.424807       -11.5596
  47   2.0000      -0.419570       -11.4171
  48   2.0000      -0.414738       -11.2856
  49   2.0000      -0.399174       -10.8621
  50   2.0000      -0.396387       -10.7862
  51   2.0000      -0.388184       -10.5630
  52   2.0000      -0.372564       -10.1380
  53   2.0000      -0.358491        -9.7550
  54   2.0000      -0.349747        -9.5171
  55   2.0000      -0.348363        -9.4794
  56   2.0000      -0.340634        -9.2691
  57   2.0000      -0.333531        -9.0758
  58   2.0000      -0.327191        -8.9033
  59   2.0000      -0.322385        -8.7725
  60   2.0000      -0.320650        -8.7253
  61   2.0000      -0.307157        -8.3582
  62   2.0000      -0.304301        -8.2804
  63   2.0000      -0.301371        -8.2007
  64   2.0000      -0.296008        -8.0548
  65   2.0000      -0.283799        -7.7226
  66   2.0000      -0.280805        -7.6411
  67   2.0000      -0.275971        -7.5096
  68   2.0000      -0.275612        -7.4998
  69   2.0000      -0.253061        -6.8861
  70   2.0000      -0.202348        -5.5062
  71   2.0000      -0.115711        -3.1487
  72   0.0000      -0.034615        -0.9419
  73   0.0000      -0.007611        -0.2071
  74   0.0000      -0.004606        -0.1253
  75   0.0000       0.002513         0.0684
  76   0.0000       0.009246         0.2516

MULLIKEN ATOMIC CHARGES
-----------------------
   0 C :    1.043155
   1 N :    0.322647
   2 C :    0.234026
   3 C :    0.279140
   4 H :    0.017544
   5 H :    0.021649
   6 S :    1.339047
   7 C :    1.048671
   8 C :    0.446117
   9 N :    0.253689
  10 H :   -0.079980
  11 H :   -0.244863
  12 H :   -1.089930
  13 H :   -0.289062
  14 H :   -0.660713
  15 O :   -0.689935
  16 O :   -0.655267
  17 C :    0.290040
  18 H :   -0.337442
  19 H :   -0.197593
  20 C :   -0.009937
  21 C :    0.170322
  22 H :    0.044644
  23 H :   -0.490384
  24 H :   -0.090696
  25 H :    0.087998
  26 C :    0.146316
  27 H :   -0.169429
  28 H :   -0.035067
  29 C :   -0.172908
  30 H :   -0.168869
  31 H :   -0.095192
  32 C :    0.655724
  33 H :   -0.370491
  34 H :    0.181440
  35 H :    0.149932
  36 H :   -0.357918
  37 H :   -0.039692
  38 H :    0.013184
  39 F :   -0.499917
Sum of atomic charges:    0.0000000

LOEWDIN ATOMIC CHARGES
----------------------
   0 C :    0.051832
   1 N :    0.016710
   2 C :   -0.035460
   3 C :   -0.048333
   4 H :    0.028312
   5 H :    0.037911
   6 S :    1.108462
   7 C :   -0.224412
   8 C :    0.177732
   9 N :    0.211300
  10 H :   -0.033480
  11 H :   -0.000428
  12 H :   -0.057953
  13 H :   -0.190292
  14 H :   -0.092081
  15 O :   -0.418532
  16 O :   -0.412826
  17 C :   -0.022452
  18 H :    0.013977
  19 H :    0.010382
  20 C :   -0.034034
  21 C :   -0.034641
  22 H :    0.041791
  23 H :   -0.013342
  24 H :    0.039433
  25 H :    0.032591
  26 C :   -0.032072
  27 H :    0.020872
  28 H :    0.012934
  29 C :   -0.042179
  30 H :    0.028955
  31 H :    0.011824
  32 C :   -0.030941
  33 H :    0.025614
  34 H :    0.003532
  35 H :    0.022807
  36 H :    0.027285
  37 H :    0.022922
  38 H :    0.025333
  39 F :   -0.249055

  Mayer bond orders larger than 0.100000
B(  0-C ,  1-N ) :   0.9976 B(  0-C , 12-H ) :  -0.5180 B(  0-C , 17-C ) :   1.1098
B(  0-C , 18-H ) :   0.5928 B(  0-C , 19-H ) :   0.8327 B(  0-C , 26-C ) :   0.1520
B(  0-C , 27-H ) :   0.1275 B(  0-C , 28-H ) :   0.1139 B(  1-N ,  7-C ) :   1.1304
B(  1-N ,  8-C ) :   0.1902 B(  1-N ,  9-N ) :   0.3597 B(  1-N , 12-H ) :   0.7148
B(  1-N , 18-H ) :   0.2729 B(  1-N , 39-F ) :  -0.1138 B(  2-C ,  3-C ) :   1.2593
B(  2-C ,  5-H ) :   0.2607 B(  2-C , 20-C ) :   0.1339 B(  2-C , 21-C ) :   1.1752
B(  2-C , 22-H ) :   0.1151 B(  2-C , 24-H ) :   0.7776 B(  2-C , 25-H ) :   0.8467
B(  3-C ,  4-H ) :   0.8985 B(  3-C ,  5-H ) :   0.6902 B(  3-C ,  6-S ) :   0.9583
B(  3-C , 16-O ) :   0.1160 B(  3-C , 21-C ) :   0.1345 B(  3-C , 25-H ) :   0.1138
B(  6-S , 15-O ) :   1.4901 B(  6-S , 16-O ) :   1.4656 B(  6-S , 39-F ) :   0.6098
B(  7-C ,  8-C ) :   1.1289 B(  7-C ,  9-N ) :   0.7707 B(  7-C , 12-H ) :  -0.7716
B(  7-C , 14-H ) :   0.1762 B(  8-C ,  9-N ) :   0.3478 B(  8-C , 13-H ) :   0.5407
B(  8-C , 14-H ) :   0.7757 B(  9-N , 10-H ) :   0.9758 B(  9-N , 11-H ) :   1.2293
B(  9-N , 19-H ) :   0.1006 B( 10-H , 11-H ) :  -0.1922 B( 12-H , 18-H ) :   0.1141
B( 12-H , 39-F ) :   0.2136 B( 13-H , 14-H ) :  -0.1740 B( 16-O , 39-F ) :   0.1019
B( 17-C , 18-H ) :   0.1300 B( 17-C , 19-H ) :   0.1151 B( 17-C , 26-C ) :   1.2315
B( 17-C , 27-H ) :   0.9237 B( 17-C , 28-H ) :   0.6992 B( 17-C , 31-H ) :   0.1386
B( 18-H , 19-H ) :  -0.1902 B( 20-C , 21-C ) :   1.2560 B( 20-C , 22-H ) :   0.1213
B( 20-C , 23-H ) :   0.1399 B( 20-C , 29-C ) :   0.1630 B( 20-C , 32-C ) :   1.1542
B( 20-C , 35-H ) :   0.8202 B( 20-C , 36-H ) :   0.9358 B( 20-C , 37-H ) :   0.1206
B( 20-C , 38-H ) :   0.2316 B( 21-C , 22-H ) :   0.6996 B( 21-C , 23-H ) :   0.8314
B( 21-C , 24-H ) :   0.2026 B( 21-C , 25-H ) :   0.1092 B( 21-C , 35-H ) :   0.1058
B( 21-C , 36-H ) :   0.2095 B( 22-H , 23-H ) :   0.1922 B( 23-H , 34-H ) :   0.1309
B( 26-C , 28-H ) :   0.2146 B( 26-C , 29-C ) :   1.2389 B( 26-C , 30-H ) :   0.8397
B( 26-C , 31-H ) :   0.8851 B( 26-C , 33-H ) :   0.1479 B( 27-H , 28-H ) :  -0.1087
B( 29-C , 30-H ) :   0.1678 B( 29-C , 31-H ) :   0.1161 B( 29-C , 32-C ) :   1.1486
B( 29-C , 33-H ) :   1.0276 B( 29-C , 34-H ) :   0.7994 B( 29-C , 37-H ) :   0.2991
B( 29-C , 38-H ) :   0.1436 B( 32-C , 37-H ) :   0.6355 B( 32-C , 38-H ) :   0.6684
B( 37-H , 38-H ) :  -0.1087

Dispersion correction           -0.048422267
FINAL SINGLE POINT ENERGY     -1189.134115412395

DIPOLE MOMENT
-------------
                                X             Y             Z
Electronic contribution:    -18.44047       3.21958     -16.24777
Nuclear contribution   :     18.77618      -4.78855      17.68602
                        -----------------------------------------
Total Dipole Moment    :      0.33571      -1.56897       1.43825
                        -----------------------------------------
Magnitude (a.u.)       :      2.15475
Magnitude (Debye)      :      5.47693

Rotational constants in cm-1:     0.014368     0.012319     0.007509
Rotational constants in MHz :   430.738566   369.302170   225.105103

                             ****ORCA TERMINATED NORMALLY****
TOTAL RUN TIME: 0 days 0 hours 1 minutes 9 seconds 196 msec
