                         Program Version 5.0.0 -  RELEASE  -
|  1> !BLYP D3BJ RIJCOSX def2-SVP def2/J TightSCF
|  2> *xyz -1 1
|  3> C          4.90646       -3.10282       -5.95484
|  4> C          3.51177       -2.80621       -6.49228
|  5> H          2.73604       -3.37345       -5.97374
|  6> H          3.44490       -3.04083       -7.55528
|  7> S          3.00462       -1.09621       -6.38926
|  8> O          4.12886       -0.32965       -6.95372
|  9> O          1.78128       -1.00078       -7.13640
| 10> O          2.85155       -0.78368       -4.95679
| 11> H          5.62703       -2.52424       -6.49422
| 12> H          5.12164       -4.14387       -6.07654
| 13> H          4.95004       -2.84862       -4.91639
| 14> *
| 15>
| 16> %MaxCore 64000
| 17>
| 18> %pal nprocs 4
| 19> end
| 20>
| 21> %scf
| 22>   MaxIter 150
| 23> end
| 24>
| 25>
| 26>                          ****END OF INPUT****

CARTESIAN COORDINATES (ANGSTROEM)
---------------------------------
  C      4.906460   -3.102820   -5.954840
  C      3.511770   -2.806210   -6.492280
  H      2.736040   -3.373450   -5.973740
  H      3.444900   -3.040830   -7.555280
  S      3.004620   -1.096210   -6.389260
  O      4.128860   -0.329650   -6.953720
  O      1.781280   -1.000780   -7.136400
  O      2.851550   -0.783680   -4.956790
  H      5.627030   -2.524240   -6.494220
  H      5.121640   -4.143870   -6.076540
  H      4.950040   -2.848620   -4.916390

 Total Charge           Charge          ....   -1
 Multiplicity           Mult            ....    1
 Number of Electrons    NEL             ....   58
 Basis Dimension        Dim             ....  113

ORBITAL ENERGIES
----------------

  NO   OCC          E(Eh)            E(eV)
   0   2.0000     -88.079161     -2396.7558
   1   2.0000     -18.527847      -504.1684
   2   2.0000     -18.515704      -503.8379
   3   2.0000     -18.514488      -503.8048
   4   2.0000      -9.768962      -265.8270
   5   2.0000      -9.762697      -265.6565
   6   2.0000      -7.622811      -207.4272
   7   2.0000      -5.657366      -153.9448
   8   2.0000      -5.657300      -153.9430
   9   2.0000      -5.656985      -153.9344
  10   2.0000      -0.793608       -21.5952
  11   2.0000      -0.656298       -17.8588
  12   2.0000      -0.635398       -17.2900
  13   2.0000      -0.533751       -14.5241
  14   2.0000      -0.418843       -11.3973
  15   2.0000      -0.292091        -7.9482
  16   2.0000      -0.250411        -6.8140
  17   2.0000      -0.229845        -6.2544
  18   2.0000      -0.199470        -5.4278
  19   2.0000      -0.178142        -4.8475
  20   2.0000      -0.176873        -4.8130
  21   2.0000      -0.153265        -4.1706
  22   2.0000      -0.143631        -3.9084
  23   2.0000      -0.056798        -1.5455
  24   2.0000      -0.056314        -1.5324
  25   2.0000      -0.030274        -0.8238
  26   2.0000      -0.022077        -0.6008
  27   2.0000      -0.011902        -0.3239
  28   2.0000       0.025991         0.7072
  29   0.0000       0.184040         5.0080
  30   0.0000       0.232196         6.3184
  31   0.0000       0.238010         6.4766
  32   0.0000       0.245613         6.6835
  33   0.0000       0.273880         7.4526

MULLIKEN ATOMIC CHARGES
-----------------------
   0 C :    0.123539
   1 C :   -0.015749
   2 H :   -0.044937
   3 H :   -0.045375
   4 S :    0.750730
   5 O :   -0.557748
   6 O :   -0.518715
   7 O :   -0.560691
   8 H :   -0.028948
   9 H :   -0.070188
  10 H :   -0.031918
Sum of atomic charges:   -1.0000000

LOEWDIN ATOMIC CHARGES
----------------------
   0 C :   -0.061314
   1 C :   -0.179061
   2 H :   -0.004005
   3 H :   -0.003699
   4 S :    1.060883
   5 O :   -0.618131
   6 O :   -0.581358
   7 O :   -0.622291
   8 H :    0.008027
   9 H :   -0.006522
  10 H :    0.007472

  Mayer bond orders larger than 0.100000
B(  0-C ,  1-C ) :   1.0819 B(  0-C ,  8-H ) :   0.9529 B(  0-C ,  9-H ) :   0.9431
B(  0-C , 10-H ) :   0.9555 B(  1-C ,  2-H ) :   0.9245 B(  1-C ,  3-H ) :   0.9233
B(  1-C ,  4-S ) :   0.8665 B(  4-S ,  5-O ) :   1.6005 B(  4-S ,  6-O ) :   1.6531
B(  4-S ,  7-O ) :   1.6068

Dispersion correction           -0.020546471
FINAL SINGLE POINT ENERGY      -702.641531531112

DIPOLE MOMENT
-------------
                                X             Y             Z
Electronic contribution:     -4.50101       6.69206      -0.66456
Nuclear contribution   :      5.05690      -8.21735       0.57889
                        -----------------------------------------
Total Dipole Moment    :      0.55589      -1.52529      -0.08566
                        -----------------------------------------
Magnitude (a.u.)       :      1.62569
Magnitude (Debye)      :      4.13218

Rotational constants in cm-1:     0.162547     0.083494     0.081672
Rotational constants in MHz :  4873.033504  2503.090885  2448.458543

                             ****ORCA TERMINATED NORMALLY****
TOTAL RUN TIME: 0 days 0 hours 0 minutes 3 seconds 583 msec
