                         Program Version 5.0.0 -  RELEASE  -
|  1> !BLYP D3BJ RIJCOSX def2-SVP def2/J TightSCF
|  2> *xyz 1 1
|  3> C          4.49059        1.15590       -2.46929
|  4> N          4.30539        1.22276       -3.90832
|  5> C          4.63192        2.24637       -4.67096
|  6> N          4.54169        2.14399       -5.98714
|  7> N          5.08409        3.39358       -4.11855
|  8> H          4.92067        3.57050       -3.13587
|  9> H          5.25465        4.19739       -4.70696
| 10> H          3.82453        0.44911       -4.35093
| 11> H          4.34337        1.24932       -6.41665
| 12> H          4.67671        2.95662       -6.57411
| 13> C          5.94213        0.93950       -2.03689
| 14> H          3.86431        0.32853       -2.13661
| 15> H          4.07623        2.04999       -1.98901
| 16> H          6.32982        0.06401       -2.51451
| 17> H          5.98308        0.81426       -0.97504
| 18> H          6.52865        1.78889       -2.31873
| 19> *
| 20>
| 21> %MaxCore 64000
| 22>
| 23> %pal nprocs 4
| 24> end
| 25>
| 26> %scf
| 27>   MaxIter 150
| 28> end
| 29>
| 30>
| 31>                          ****END OF INPUT****

CARTESIAN COORDINATES (ANGSTROEM)
---------------------------------
  C      4.490590    1.155900   -2.469290
  N      4.305390    1.222760   -3.908320
  C      4.631920    2.246370   -4.670960
  N      4.541690    2.143990   -5.987140
  N      5.084090    3.393580   -4.118550
  H      4.920670    3.570500   -3.135870
  H      5.254650    4.197390   -4.706960
  H      3.824530    0.449110   -4.350930
  H      4.343370    1.249320   -6.416650
  H      4.676710    2.956620   -6.574110
  C      5.942130    0.939500   -2.036890
  H      3.864310    0.328530   -2.136610
  H      4.076230    2.049990   -1.989010
  H      6.329820    0.064010   -2.514510
  H      5.983080    0.814260   -0.975040
  H      6.528650    1.788890   -2.318730

 Total Charge           Charge          ....    1
 Multiplicity           Mult            ....    1
 Number of Electrons    NEL             ....   48
 Basis Dimension        Dim             ....  134

ORBITAL ENERGIES
----------------

  NO   OCC          E(Eh)            E(eV)
   0   2.0000     -14.242569      -387.5600
   1   2.0000     -14.239885      -387.4870
   2   2.0000     -14.239159      -387.4672
   3   2.0000     -10.243111      -278.7292
   4   2.0000     -10.126016      -275.5429
   5   2.0000     -10.056634      -273.6549
   6   2.0000      -1.110048       -30.2059
   7   2.0000      -1.008180       -27.4340
   8   2.0000      -0.993453       -27.0332
   9   2.0000      -0.844634       -22.9837
  10   2.0000      -0.769734       -20.9455
  11   2.0000      -0.730849       -19.8874
  12   2.0000      -0.721637       -19.6367
  13   2.0000      -0.678340       -18.4586
  14   2.0000      -0.635261       -17.2863
  15   2.0000      -0.633426       -17.2364
  16   2.0000      -0.602016       -16.3817
  17   2.0000      -0.567664       -15.4469
  18   2.0000      -0.547339       -14.8939
  19   2.0000      -0.505100       -13.7445
  20   2.0000      -0.479173       -13.0390
  21   2.0000      -0.461555       -12.5596
  22   2.0000      -0.424094       -11.5402
  23   2.0000      -0.402876       -10.9628
  24   0.0000      -0.184116        -5.0100
  25   0.0000      -0.162897        -4.4326
  26   0.0000      -0.129680        -3.5288
  27   0.0000      -0.122638        -3.3372
  28   0.0000      -0.104934        -2.8554

MULLIKEN ATOMIC CHARGES
-----------------------
   0 C :    0.045119
   1 N :   -0.008471
   2 C :   -0.111996
   3 N :    0.082792
   4 N :    0.039654
   5 H :    0.146918
   6 H :    0.145521
   7 H :    0.143164
   8 H :    0.150233
   9 H :    0.150935
  10 C :    0.090269
  11 H :    0.035070
  12 H :    0.027505
  13 H :    0.020442
  14 H :    0.040941
  15 H :    0.001905
Sum of atomic charges:    1.0000000

LOEWDIN ATOMIC CHARGES
----------------------
   0 C :    0.041589
   1 N :    0.055882
   2 C :    0.112098
   3 N :    0.071526
   4 N :    0.057882
   5 H :    0.101187
   6 H :    0.104742
   7 H :    0.104376
   8 H :    0.107583
   9 H :    0.107488
  10 C :   -0.034102
  11 H :    0.045212
  12 H :    0.027063
  13 H :    0.031934
  14 H :    0.044882
  15 H :    0.020659

  Mayer bond orders larger than 0.100000
B(  0-C ,  1-N ) :   0.9750 B(  0-C , 10-C ) :   1.1217 B(  0-C , 11-H ) :   0.9356
B(  0-C , 12-H ) :   0.9384 B(  1-N ,  2-C ) :   1.3853 B(  1-N ,  7-H ) :   0.9114
B(  2-C ,  3-N ) :   1.4049 B(  2-C ,  4-N ) :   1.3780 B(  3-N ,  8-H ) :   0.9239
B(  3-N ,  9-H ) :   0.9246 B(  4-N ,  5-H ) :   0.9220 B(  4-N ,  6-H ) :   0.9271
B( 10-C , 13-H ) :   0.9603 B( 10-C , 14-H ) :   0.9553 B( 10-C , 15-H ) :   0.9614

Dispersion correction           -0.025127171
FINAL SINGLE POINT ENERGY      -284.080767997162

DIPOLE MOMENT
-------------
                                X             Y             Z
Electronic contribution:     -1.82582       1.61926      -4.55107
Nuclear contribution   :      1.34333      -1.11039       3.43667
                        -----------------------------------------
Total Dipole Moment    :     -0.48249       0.50887      -1.11440
                        -----------------------------------------
Magnitude (a.u.)       :      1.31668
Magnitude (Debye)      :      3.34673

Rotational constants in cm-1:     0.227161     0.075356     0.065003
Rotational constants in MHz :  6810.114531  2259.122204  1948.738523

                             ****ORCA TERMINATED NORMALLY****
TOTAL RUN TIME: 0 days 0 hours 0 minutes 4 seconds 414 msec
