                         Program Version 5.0.0 -  RELEASE  -
|  1> !BLYP D3BJ RIJCOSX def2-SVP def2/J TightSCF
|  2> *xyz 0 1
|  3> C          4.90646       -3.10282       -5.95484
|  4> C          3.51177       -2.80621       -6.49228
|  5> H          2.73604       -3.37345       -5.97374
|  6> H          3.44490       -3.04083       -7.55528
|  7> S          3.00462       -1.09621       -6.38926
|  8> F          4.12886       -0.32965       -6.95372
|  9> O          1.78128       -1.00078       -7.13640
| 10> O          2.85155       -0.78368       -4.95679
| 11> H          5.62703       -2.52424       -6.49422
| 12> H          5.12164       -4.14387       -6.07654
| 13> H          4.95004       -2.84862       -4.91639
| 14> *
| 15>
| 16> %MaxCore 64000
| 17>
| 18> %pal nprocs 4
| 19> end
| 20>
| 21> %scf
| 22>   MaxIter 150
| 23> end
| 24>
| 25>
| 26>                          ****END OF INPUT****

CARTESIAN COORDINATES (ANGSTROEM)
---------------------------------
  C      4.906460   -3.102820   -5.954840
  C      3.511770   -2.806210   -6.492280
  H      2.736040   -3.373450   -5.973740
  H      3.444900   -3.040830   -7.555280
  S      3.004620   -1.096210   -6.389260
  F      4.128860   -0.329650   -6.953720
  O      1.781280   -1.000780   -7.136400
  O      2.851550   -0.783680   -4.956790
  H      5.627030   -2.524240   -6.494220
  H      5.121640   -4.143870   -6.076540
  H      4.950040   -2.848620   -4.916390

 Total Charge           Charge          ....    0
 Multiplicity           Mult            ....    1
 Number of Electrons    NEL             ....   58
 Basis Dimension        Dim             ....  113

ORBITAL ENERGIES
----------------

  NO   OCC          E(Eh)            E(eV)
   0   2.0000     -88.349645     -2404.1161
   1   2.0000     -24.380509      -663.4274
   2   2.0000     -18.779303      -511.0108
   3   2.0000     -18.767151      -510.6801
   4   2.0000      -9.974703      -271.4255
   5   2.0000      -9.944505      -270.6037
   6   2.0000      -7.895793      -214.8555
   7   2.0000      -5.934550      -161.4873
   8   2.0000      -5.928157      -161.3134
   9   2.0000      -5.926701      -161.2737
  10   2.0000      -1.222996       -33.2794
  11   2.0000      -0.997217       -27.1356
  12   2.0000      -0.897999       -24.4358
  13   2.0000      -0.737971       -20.0812
  14   2.0000      -0.638982       -17.3876
  15   2.0000      -0.595978       -16.2174
  16   2.0000      -0.509193       -13.8559
  17   2.0000      -0.484312       -13.1788
  18   2.0000      -0.466525       -12.6948
  19   2.0000      -0.434703       -11.8289
  20   2.0000      -0.408856       -11.1256
  21   2.0000      -0.389380       -10.5956
  22   2.0000      -0.369214       -10.0468
  23   2.0000      -0.357628        -9.7316
  24   2.0000      -0.344946        -9.3865
  25   2.0000      -0.314800        -8.5661
  26   2.0000      -0.272144        -7.4054
  27   2.0000      -0.259255        -7.0547
  28   2.0000      -0.241251        -6.5648
  29   0.0000       0.002405         0.0654
  30   0.0000       0.034243         0.9318
  31   0.0000       0.060527         1.6470
  32   0.0000       0.065398         1.7796
  33   0.0000       0.072303         1.9675

MULLIKEN ATOMIC CHARGES
-----------------------
   0 C :    0.085027
   1 C :   -0.063910
   2 H :    0.058607
   3 H :    0.029860
   4 S :    0.836688
   5 F :   -0.169085
   6 O :   -0.382724
   7 O :   -0.426303
   8 H :    0.001226
   9 H :    0.011575
  10 H :    0.019038
Sum of atomic charges:   -0.0000000

LOEWDIN ATOMIC CHARGES
----------------------
   0 C :   -0.048981
   1 C :   -0.142219
   2 H :    0.045529
   3 H :    0.027243
   4 S :    1.120406
   5 F :   -0.135570
   6 O :   -0.452724
   7 O :   -0.493759
   8 H :    0.020699
   9 H :    0.031861
  10 H :    0.027515

  Mayer bond orders larger than 0.100000
B(  0-C ,  1-C ) :   1.0777 B(  0-C ,  8-H ) :   0.9663 B(  0-C ,  9-H ) :   0.9522
B(  0-C , 10-H ) :   0.9644 B(  1-C ,  2-H ) :   0.9294 B(  1-C ,  3-H ) :   0.9234
B(  1-C ,  4-S ) :   0.9057 B(  4-S ,  5-F ) :   1.0005 B(  4-S ,  6-O ) :   1.8024
B(  4-S ,  7-O ) :   1.7629

Dispersion correction           -0.019523440
FINAL SINGLE POINT ENERGY      -727.170581461717

DIPOLE MOMENT
-------------
                                X             Y             Z
Electronic contribution:     -3.08431       8.33249      -1.72856
Nuclear contribution   :      4.18919      -9.36357       1.23251
                        -----------------------------------------
Total Dipole Moment    :      1.10488      -1.03108      -0.49605
                        -----------------------------------------
Magnitude (a.u.)       :      1.59058
Magnitude (Debye)      :      4.04294

Rotational constants in cm-1:     0.153152     0.082513     0.079874
Rotational constants in MHz :  4591.373714  2473.673397  2394.575279

                             ****ORCA TERMINATED NORMALLY****
TOTAL RUN TIME: 0 days 0 hours 0 minutes 3 seconds 566 msec
