                         Program Version 5.0.0 -  RELEASE  -
|  1> !BLYP D3BJ RIJCOSX def2-SVP def2/J TightSCF
|  2> *xyz 0 1
|  3> C          4.49059        1.15590       -2.46929
|  4> C          4.30539        1.22276       -3.90832
|  5> C          4.63192        2.24637       -4.67096
|  6> N          4.54169        2.14399       -5.98714
|  7> N          5.08409        3.39358       -4.11855
|  8> H          4.92067        3.57050       -3.13587
|  9> H          5.25465        4.19739       -4.70696
| 10> H          3.82453        0.44911       -4.35093
| 11> H          4.34337        1.24932       -6.41665
| 12> H          4.67671        2.95662       -6.57411
| 13> C          5.94213        0.93950       -2.03689
| 14> H          3.86431        0.32853       -2.13661
| 15> H          4.07623        2.04999       -1.98901
| 16> H          6.32982        0.06401       -2.51451
| 17> H          5.98308        0.81426       -0.97504
| 18> H          6.52865        1.78889       -2.31873
| 19> *
| 20>
| 21> %MaxCore 64000
| 22>
| 23> %pal nprocs 4
| 24> end
| 25>
| 26> %scf
| 27>   MaxIter 150
| 28> end
| 29>
| 30>
| 31>                          ****END OF INPUT****

CARTESIAN COORDINATES (ANGSTROEM)
---------------------------------
  C      4.490590    1.155900   -2.469290
  C      4.305390    1.222760   -3.908320
  C      4.631920    2.246370   -4.670960
  N      4.541690    2.143990   -5.987140
  N      5.084090    3.393580   -4.118550
  H      4.920670    3.570500   -3.135870
  H      5.254650    4.197390   -4.706960
  H      3.824530    0.449110   -4.350930
  H      4.343370    1.249320   -6.416650
  H      4.676710    2.956620   -6.574110
  C      5.942130    0.939500   -2.036890
  H      3.864310    0.328530   -2.136610
  H      4.076230    2.049990   -1.989010
  H      6.329820    0.064010   -2.514510
  H      5.983080    0.814260   -0.975040
  H      6.528650    1.788890   -2.318730

 Total Charge           Charge          ....    0
 Multiplicity           Mult            ....    1
 Number of Electrons    NEL             ....   48
 Basis Dimension        Dim             ....  134

ORBITAL ENERGIES
----------------

  NO   OCC          E(Eh)            E(eV)
   0   2.0000     -14.013251      -381.3200
   1   2.0000     -14.011651      -381.2764
   2   2.0000      -9.948972      -270.7253
   3   2.0000      -9.887791      -269.0605
   4   2.0000      -9.880265      -268.8557
   5   2.0000      -9.830733      -267.5078
   6   2.0000      -0.849362       -23.1123
   7   2.0000      -0.766886       -20.8680
   8   2.0000      -0.673979       -18.3399
   9   2.0000      -0.603466       -16.4211
  10   2.0000      -0.537048       -14.6138
  11   2.0000      -0.503698       -13.7063
  12   2.0000      -0.474189       -12.9033
  13   2.0000      -0.439506       -11.9596
  14   2.0000      -0.413476       -11.2513
  15   2.0000      -0.374432       -10.1888
  16   2.0000      -0.357288        -9.7223
  17   2.0000      -0.330222        -8.9858
  18   2.0000      -0.318948        -8.6790
  19   2.0000      -0.292989        -7.9726
  20   2.0000      -0.272283        -7.4092
  21   2.0000      -0.262221        -7.1354
  22   2.0000      -0.203272        -5.5313
  23   2.0000      -0.109581        -2.9819
  24   0.0000       0.020336         0.5534
  25   0.0000       0.051355         1.3974
  26   0.0000       0.064678         1.7600
  27   0.0000       0.078504         2.1362
  28   0.0000       0.086705         2.3594

MULLIKEN ATOMIC CHARGES
-----------------------
   0 C :    0.127476
   1 C :   -0.139740
   2 C :   -0.135459
   3 N :    0.047486
   4 N :    0.009264
   5 H :    0.094880
   6 H :    0.073849
   7 H :   -0.146290
   8 H :    0.092651
   9 H :    0.071246
  10 C :    0.133084
  11 H :   -0.056298
  12 H :   -0.061169
  13 H :   -0.034829
  14 H :   -0.040583
  15 H :   -0.035568
Sum of atomic charges:   -0.0000000

LOEWDIN ATOMIC CHARGES
----------------------
   0 C :   -0.029094
   1 C :   -0.209526
   2 C :    0.008300
   3 N :   -0.000031
   4 N :   -0.009922
   5 H :    0.071564
   6 H :    0.058311
   7 H :   -0.016129
   8 H :    0.077291
   9 H :    0.057331
  10 C :   -0.043038
  11 H :    0.017675
  12 H :   -0.003739
  13 H :    0.011140
  14 H :    0.004286
  15 H :    0.005581

  Mayer bond orders larger than 0.100000
B(  0-C ,  1-C ) :   1.0904 B(  0-C , 10-C ) :   1.1153 B(  0-C , 11-H ) :   0.8909
B(  0-C , 12-H ) :   0.9052 B(  1-C ,  2-C ) :   1.6594 B(  1-C ,  7-H ) :   0.9287
B(  2-C ,  3-N ) :   1.2658 B(  2-C ,  4-N ) :   1.2572 B(  3-N ,  8-H ) :   0.9354
B(  3-N ,  9-H ) :   0.9413 B(  4-N ,  5-H ) :   0.9323 B(  4-N ,  6-H ) :   0.9446
B( 10-C , 13-H ) :   0.9543 B( 10-C , 14-H ) :   0.9496 B( 10-C , 15-H ) :   0.9624

Dispersion correction           -0.026253614
FINAL SINGLE POINT ENERGY      -267.592008595340

DIPOLE MOMENT
-------------
                                X             Y             Z
Electronic contribution:     -1.24249       2.11881      -4.29157
Nuclear contribution   :      1.23062      -1.24683       3.43056
                        -----------------------------------------
Total Dipole Moment    :     -0.01188       0.87198      -0.86101
                        -----------------------------------------
Magnitude (a.u.)       :      1.22549
Magnitude (Debye)      :      3.11496

Rotational constants in cm-1:     0.231477     0.075416     0.065327
Rotational constants in MHz :  6939.497385  2260.912204  1958.442932

                             ****ORCA TERMINATED NORMALLY****
TOTAL RUN TIME: 0 days 0 hours 0 minutes 4 seconds 642 msec
