                         Program Version 5.0.0 -  RELEASE  -
|  1> !BLYP D3BJ RIJCOSX def2-SVP def2/J TightSCF
|  2> *xyz 0 1
|  3> C          4.90646       -3.10282       -5.95484
|  4> C          3.51177       -2.80621       -6.49228
|  5> H          2.73604       -3.37345       -5.97374
|  6> H          3.44490       -3.04083       -7.55528
|  7> S          3.00462       -1.09621       -6.38926
|  8> O          4.12886       -0.32965       -6.95372
|  9> F          1.78128       -1.00078       -7.13640
| 10> O          2.85155       -0.78368       -4.95679
| 11> H          5.62703       -2.52424       -6.49422
| 12> H          5.12164       -4.14387       -6.07654
| 13> H          4.95004       -2.84862       -4.91639
| 14> *
| 15>
| 16> %MaxCore 64000
| 17>
| 18> %pal nprocs 4
| 19> end
| 20>
| 21> %scf
| 22>   MaxIter 150
| 23> end
| 24>
| 25>
| 26>                          ****END OF INPUT****

CARTESIAN COORDINATES (ANGSTROEM)
---------------------------------
  C      4.906460   -3.102820   -5.954840
  C      3.511770   -2.806210   -6.492280
  H      2.736040   -3.373450   -5.973740
  H      3.444900   -3.040830   -7.555280
  S      3.004620   -1.096210   -6.389260
  O      4.128860   -0.329650   -6.953720
  F      1.781280   -1.000780   -7.136400
  O      2.851550   -0.783680   -4.956790
  H      5.627030   -2.524240   -6.494220
  H      5.121640   -4.143870   -6.076540
  H      4.950040   -2.848620   -4.916390

 Total Charge           Charge          ....    0
 Multiplicity           Mult            ....    1
 Number of Electrons    NEL             ....   58
 Basis Dimension        Dim             ....  113

ORBITAL ENERGIES
----------------

  NO   OCC          E(Eh)            E(eV)
   0   2.0000     -88.351124     -2404.1563
   1   2.0000     -24.398514      -663.9173
   2   2.0000     -18.766707      -510.6681
   3   2.0000     -18.766388      -510.6594
   4   2.0000      -9.975552      -271.4486
   5   2.0000      -9.939865      -270.4775
   6   2.0000      -7.897275      -214.8958
   7   2.0000      -5.936138      -161.5305
   8   2.0000      -5.929450      -161.3485
   9   2.0000      -5.928056      -161.3106
  10   2.0000      -1.253731       -34.1158
  11   2.0000      -0.983655       -26.7666
  12   2.0000      -0.883893       -24.0519
  13   2.0000      -0.734748       -19.9935
  14   2.0000      -0.651958       -17.7407
  15   2.0000      -0.598075       -16.2745
  16   2.0000      -0.511392       -13.9157
  17   2.0000      -0.506326       -13.7778
  18   2.0000      -0.477906       -13.0045
  19   2.0000      -0.436416       -11.8755
  20   2.0000      -0.408794       -11.1238
  21   2.0000      -0.376123       -10.2348
  22   2.0000      -0.365662        -9.9502
  23   2.0000      -0.354987        -9.6597
  24   2.0000      -0.336669        -9.1612
  25   2.0000      -0.308509        -8.3950
  26   2.0000      -0.260837        -7.0977
  27   2.0000      -0.254829        -6.9343
  28   2.0000      -0.229243        -6.2380
  29   0.0000       0.010668         0.2903
  30   0.0000       0.024582         0.6689
  31   0.0000       0.057873         1.5748
  32   0.0000       0.060394         1.6434
  33   0.0000       0.072199         1.9646

MULLIKEN ATOMIC CHARGES
-----------------------
   0 C :    0.099982
   1 C :   -0.054760
   2 H :    0.029170
   3 H :    0.022596
   4 S :    0.828609
   5 O :   -0.422910
   6 F :   -0.129724
   7 O :   -0.423181
   8 H :    0.021423
   9 H :    0.008715
  10 H :    0.020079
Sum of atomic charges:    0.0000000

LOEWDIN ATOMIC CHARGES
----------------------
   0 C :   -0.033964
   1 C :   -0.143440
   2 H :    0.026772
   3 H :    0.024157
   4 S :    1.113525
   5 O :   -0.489043
   6 F :   -0.098718
   7 O :   -0.491113
   8 H :    0.030068
   9 H :    0.031451
  10 H :    0.030307

  Mayer bond orders larger than 0.100000
B(  0-C ,  1-C ) :   1.1035 B(  0-C ,  8-H ) :   0.9622 B(  0-C ,  9-H ) :   0.9520
B(  0-C , 10-H ) :   0.9655 B(  1-C ,  2-H ) :   0.9204 B(  1-C ,  3-H ) :   0.9178
B(  1-C ,  4-S ) :   0.9039 B(  4-S ,  5-O ) :   1.7535 B(  4-S ,  6-F ) :   1.0474
B(  4-S ,  7-O ) :   1.7591

Dispersion correction           -0.019640129
FINAL SINGLE POINT ENERGY      -727.154744464266

DIPOLE MOMENT
-------------
                                X             Y             Z
Electronic contribution:     -7.00086       7.22842      -2.03805
Nuclear contribution   :      6.63544      -8.66423       1.42287
                        -----------------------------------------
Total Dipole Moment    :     -0.36541      -1.43581      -0.61519
                        -----------------------------------------
Magnitude (a.u.)       :      1.60422
Magnitude (Debye)      :      4.07761

Rotational constants in cm-1:     0.158118     0.080978     0.078216
Rotational constants in MHz :  4740.271775  2427.649826  2344.849020

                             ****ORCA TERMINATED NORMALLY****
TOTAL RUN TIME: 0 days 0 hours 0 minutes 3 seconds 934 msec
