                         Program Version 5.0.0 -  RELEASE  -
|  1> !BLYP D3BJ RIJCOSX def2-SVP def2/J TightSCF
|  2> *xyz 0 1
|  3> C          4.90646       -3.10282       -5.95484
|  4> C          3.51177       -2.80621       -6.49228
|  5> H          2.73604       -3.37345       -5.97374
|  6> H          3.44490       -3.04083       -7.55528
|  7> S          3.00462       -1.09621       -6.38926
|  8> O          4.12886       -0.32965       -6.95372
|  9> O          1.78128       -1.00078       -7.13640
| 10> F          2.85155       -0.78368       -4.95679
| 11> H          5.62703       -2.52424       -6.49422
| 12> H          5.12164       -4.14387       -6.07654
| 13> H          4.95004       -2.84862       -4.91639
| 14> *
| 15>
| 16> %MaxCore 64000
| 17>
| 18> %pal nprocs 4
| 19> end
| 20>
| 21> %scf
| 22>   MaxIter 150
| 23> end
| 24>
| 25>
| 26>                          ****END OF INPUT****

CARTESIAN COORDINATES (ANGSTROEM)
---------------------------------
  C      4.906460   -3.102820   -5.954840
  C      3.511770   -2.806210   -6.492280
  H      2.736040   -3.373450   -5.973740
  H      3.444900   -3.040830   -7.555280
  S      3.004620   -1.096210   -6.389260
  O      4.128860   -0.329650   -6.953720
  O      1.781280   -1.000780   -7.136400
  F      2.851550   -0.783680   -4.956790
  H      5.627030   -2.524240   -6.494220
  H      5.121640   -4.143870   -6.076540
  H      4.950040   -2.848620   -4.916390

 Total Charge           Charge          ....    0
 Multiplicity           Mult            ....    1
 Number of Electrons    NEL             ....   58
 Basis Dimension        Dim             ....  113

ORBITAL ENERGIES
----------------

  NO   OCC          E(Eh)            E(eV)
   0   2.0000     -88.349942     -2404.1242
   1   2.0000     -24.379783      -663.4076
   2   2.0000     -18.779625      -511.0196
   3   2.0000     -18.768145      -510.7072
   4   2.0000      -9.974607      -271.4228
   5   2.0000      -9.941421      -270.5198
   6   2.0000      -7.896065      -214.8628
   7   2.0000      -5.934771      -161.4933
   8   2.0000      -5.928442      -161.3211
   9   2.0000      -5.927021      -161.2824
  10   2.0000      -1.221794       -33.2467
  11   2.0000      -0.997577       -27.1455
  12   2.0000      -0.900049       -24.4916
  13   2.0000      -0.735653       -20.0181
  14   2.0000      -0.638187       -17.3659
  15   2.0000      -0.594734       -16.1835
  16   2.0000      -0.506465       -13.7816
  17   2.0000      -0.482852       -13.1391
  18   2.0000      -0.468510       -12.7488
  19   2.0000      -0.433280       -11.7902
  20   2.0000      -0.410901       -11.1812
  21   2.0000      -0.388337       -10.5672
  22   2.0000      -0.367570       -10.0021
  23   2.0000      -0.353252        -9.6125
  24   2.0000      -0.345023        -9.3885
  25   2.0000      -0.313662        -8.5352
  26   2.0000      -0.272131        -7.4051
  27   2.0000      -0.260486        -7.0882
  28   2.0000      -0.243286        -6.6202
  29   0.0000       0.002894         0.0787
  30   0.0000       0.031334         0.8526
  31   0.0000       0.059872         1.6292
  32   0.0000       0.065443         1.7808
  33   0.0000       0.071087         1.9344

MULLIKEN ATOMIC CHARGES
-----------------------
   0 C :    0.090066
   1 C :   -0.065943
   2 H :    0.028057
   3 H :    0.056950
   4 S :    0.837987
   5 O :   -0.425826
   6 O :   -0.383937
   7 F :   -0.169166
   8 H :    0.023487
   9 H :    0.007867
  10 H :    0.000458
Sum of atomic charges:   -0.0000000

LOEWDIN ATOMIC CHARGES
----------------------
   0 C :   -0.047269
   1 C :   -0.142780
   2 H :    0.025745
   3 H :    0.045163
   4 S :    1.120146
   5 O :   -0.490804
   6 O :   -0.453384
   7 F :   -0.137648
   8 H :    0.028942
   9 H :    0.030418
  10 H :    0.021472

  Mayer bond orders larger than 0.100000
B(  0-C ,  1-C ) :   1.0791 B(  0-C ,  8-H ) :   0.9622 B(  0-C ,  9-H ) :   0.9504
B(  0-C , 10-H ) :   0.9672 B(  1-C ,  2-H ) :   0.9241 B(  1-C ,  3-H ) :   0.9281
B(  1-C ,  4-S ) :   0.9032 B(  4-S ,  5-O ) :   1.7588 B(  4-S ,  6-O ) :   1.8039
B(  4-S ,  7-F ) :   1.0033

Dispersion correction           -0.019560807
FINAL SINGLE POINT ENERGY      -727.171198535671

DIPOLE MOMENT
-------------
                                X             Y             Z
Electronic contribution:     -5.22253       7.58857       1.60532
Nuclear contribution   :      5.52019      -8.89046      -0.84835
                        -----------------------------------------
Total Dipole Moment    :      0.29766      -1.30188       0.75697
                        -----------------------------------------
Magnitude (a.u.)       :      1.53509
Magnitude (Debye)      :      3.90189

Rotational constants in cm-1:     0.153332     0.082132     0.079755
Rotational constants in MHz :  4596.775407  2462.251277  2391.008596

                             ****ORCA TERMINATED NORMALLY****
TOTAL RUN TIME: 0 days 0 hours 0 minutes 3 seconds 606 msec
