                         Program Version 5.0.0 -  RELEASE  -
|  1> !BLYP D3BJ RIJCOSX def2-SVP def2/J TightSCF
|  2> *xyz 0 1
|  3> C          4.49059        1.15590       -2.46929
|  4> N          4.30539        1.22276       -3.90832
|  5> C          4.63192        2.24637       -4.67096
|  6> N          4.54169        2.14399       -5.98714
|  7> C          5.08409        3.39358       -4.11855
|  8> H          4.92067        3.57050       -3.13587
|  9> H          5.25465        4.19739       -4.70696
| 10> H          3.82453        0.44911       -4.35093
| 11> H          4.34337        1.24932       -6.41665
| 12> H          4.67671        2.95662       -6.57411
| 13> C          5.94213        0.93950       -2.03689
| 14> H          3.86431        0.32853       -2.13661
| 15> H          4.07623        2.04999       -1.98901
| 16> H          6.32982        0.06401       -2.51451
| 17> H          5.98308        0.81426       -0.97504
| 18> H          6.52865        1.78889       -2.31873
| 19> *
| 20>
| 21> %MaxCore 64000
| 22>
| 23> %pal nprocs 4
| 24> end
| 25>
| 26> %scf
| 27>   MaxIter 150
| 28> end
| 29>
| 30>
| 31>                          ****END OF INPUT****

CARTESIAN COORDINATES (ANGSTROEM)
---------------------------------
  C      4.490590    1.155900   -2.469290
  N      4.305390    1.222760   -3.908320
  C      4.631920    2.246370   -4.670960
  N      4.541690    2.143990   -5.987140
  C      5.084090    3.393580   -4.118550
  H      4.920670    3.570500   -3.135870
  H      5.254650    4.197390   -4.706960
  H      3.824530    0.449110   -4.350930
  H      4.343370    1.249320   -6.416650
  H      4.676710    2.956620   -6.574110
  C      5.942130    0.939500   -2.036890
  H      3.864310    0.328530   -2.136610
  H      4.076230    2.049990   -1.989010
  H      6.329820    0.064010   -2.514510
  H      5.983080    0.814260   -0.975040
  H      6.528650    1.788890   -2.318730

 Total Charge           Charge          ....    0
 Multiplicity           Mult            ....    1
 Number of Electrons    NEL             ....   48
 Basis Dimension        Dim             ....  134

ORBITAL ENERGIES
----------------

  NO   OCC          E(Eh)            E(eV)
   0   2.0000     -14.015002      -381.3676
   1   2.0000     -14.014355      -381.3500
   2   2.0000      -9.953101      -270.8376
   3   2.0000      -9.947921      -270.6967
   4   2.0000      -9.897667      -269.3292
   5   2.0000      -9.825027      -267.3526
   6   2.0000      -0.861896       -23.4534
   7   2.0000      -0.784869       -21.3574
   8   2.0000      -0.661361       -17.9966
   9   2.0000      -0.614649       -16.7254
  10   2.0000      -0.560096       -15.2410
  11   2.0000      -0.489104       -13.3092
  12   2.0000      -0.485019       -13.1980
  13   2.0000      -0.454700       -12.3730
  14   2.0000      -0.408964       -11.1285
  15   2.0000      -0.379108       -10.3161
  16   2.0000      -0.352438        -9.5903
  17   2.0000      -0.335294        -9.1238
  18   2.0000      -0.323437        -8.8012
  19   2.0000      -0.306932        -8.3520
  20   2.0000      -0.301847        -8.2137
  21   2.0000      -0.292589        -7.9617
  22   2.0000      -0.193339        -5.2610
  23   2.0000      -0.112897        -3.0721
  24   0.0000       0.020546         0.5591
  25   0.0000       0.049285         1.3411
  26   0.0000       0.062014         1.6875
  27   0.0000       0.075653         2.0586
  28   0.0000       0.093087         2.5330

MULLIKEN ATOMIC CHARGES
-----------------------
   0 C :    0.115282
   1 N :   -0.040493
   2 C :   -0.139843
   3 N :    0.029621
   4 C :   -0.019898
   5 H :   -0.084063
   6 H :   -0.111317
   7 H :    0.069949
   8 H :    0.071585
   9 H :    0.099074
  10 C :    0.109632
  11 H :   -0.036309
  12 H :   -0.010427
  13 H :   -0.028310
  14 H :   -0.023370
  15 H :   -0.001113
Sum of atomic charges:   -0.0000000

LOEWDIN ATOMIC CHARGES
----------------------
   0 C :    0.045745
   1 N :   -0.001767
   2 C :    0.013726
   3 N :    0.002655
   4 C :   -0.252878
   5 H :   -0.014966
   6 H :   -0.018479
   7 H :    0.059335
   8 H :    0.057052
   9 H :    0.078901
  10 C :   -0.047084
  11 H :    0.013603
  12 H :    0.013868
  13 H :    0.011914
  14 H :    0.016306
  15 H :    0.022068

  Mayer bond orders larger than 0.100000
B(  0-C ,  1-N ) :   1.0529 B(  0-C , 10-C ) :   1.1271 B(  0-C , 11-H ) :   0.9384
B(  0-C , 12-H ) :   0.9248 B(  1-N ,  2-C ) :   1.2134 B(  1-N ,  7-H ) :   0.9302
B(  2-C ,  3-N ) :   1.2574 B(  2-C ,  4-C ) :   1.7185 B(  3-N ,  8-H ) :   0.9443
B(  3-N ,  9-H ) :   0.9384 B(  4-C ,  5-H ) :   0.9071 B(  4-C ,  6-H ) :   0.9139
B( 10-C , 13-H ) :   0.9545 B( 10-C , 14-H ) :   0.9509 B( 10-C , 15-H ) :   0.9564

Dispersion correction           -0.026154205
FINAL SINGLE POINT ENERGY      -267.585882265344

DIPOLE MOMENT
-------------
                                X             Y             Z
Electronic contribution:     -1.93416      -0.16616      -3.98365
Nuclear contribution   :      1.39581      -0.78630       3.38596
                        -----------------------------------------
Total Dipole Moment    :     -0.53835      -0.95246      -0.59768
                        -----------------------------------------
Magnitude (a.u.)       :      1.24669
Magnitude (Debye)      :      3.16883

Rotational constants in cm-1:     0.239249     0.075811     0.066261
Rotational constants in MHz :  7172.504830  2272.756282  1986.457543

                             ****ORCA TERMINATED NORMALLY****
TOTAL RUN TIME: 0 days 0 hours 0 minutes 4 seconds 430 msec
