                         Program Version 5.0.0 -  RELEASE  -
|  1> !BLYP D3BJ RIJCOSX def2-TZVP def2/J TightSCF xyzfile
|  2>
|  3> *xyzfile 0 1 D1.xyz
|  4>
|  5> %MaxCore 64000
|  6>
|  7> %pal nprocs 18
|  8> end
|  9>
| 10> %scf
| 11>   MaxIter 150
| 12> end
| 13>
| 14>
| 15>                          ****END OF INPUT****

CARTESIAN COORDINATES (ANGSTROEM)
---------------------------------
  C      4.490588    1.155899   -2.469290
  C      4.305394    1.222762   -3.908317
  C      4.906458   -3.102816   -5.954844
  C      3.511771   -2.806215   -6.492283
  H      2.736044   -3.373445   -5.973736
  H      3.444904   -3.040831   -7.555281
  S      3.004618   -1.096206   -6.389259
  C      4.631918    2.246365   -4.670958
  N      4.541686    2.143990   -5.987139
  N      5.084086    3.393584   -4.118545
  H      4.920675    3.570501   -3.135870
  H      5.254652    4.197390   -4.706956
  H      3.824530    0.449113   -4.350926
  H      4.343373    1.249318   -6.416646
  H      4.676712    2.956624   -6.574113
  F      4.128856   -0.329647   -6.953717
  O      1.781285   -1.000779   -7.136399
  C      5.942129    0.939500   -2.036893
  H      3.864305    0.328532   -2.136611
  H      4.076233    2.049994   -1.989010
  C      6.462677   -3.117775   -3.944671
  C      5.024977   -3.025679   -4.437625
  H      4.423321   -3.818693   -3.977648
  H      4.579350   -2.087131   -4.108727
  H      5.201533   -4.100207   -6.296905
  H      5.605922   -2.397822   -6.413368
  C      6.559957   -0.356290   -2.559086
  H      5.967976    0.952567   -0.942444
  H      6.547184    1.788331   -2.368849
  C      6.006283   -1.615917   -1.899301
  H      7.642360   -0.318000   -2.402059
  H      6.414855   -0.403433   -3.642587
  C      6.608718   -2.917014   -2.435655
  H      6.190324   -1.561115   -0.820948
  H      4.919250   -1.651245   -2.016586
  H      7.066975   -2.374258   -4.475514
  H      6.887808   -4.089747   -4.215332
  H      6.135197   -3.755573   -1.915159
  H      7.671142   -2.955503   -2.172291
  O      2.851546   -0.783683   -4.956789

 Total Charge           Charge          ....    0
 Multiplicity           Mult            ....    1
 Number of Electrons    NEL             ....  144
 Basis Dimension        Dim             ....  671

ORBITAL ENERGIES
----------------

  NO   OCC          E(Eh)            E(eV)
   0   2.0000     -88.340356     -2403.8633
   1   2.0000     -24.402681      -664.0307
   2   2.0000     -18.790298      -511.3100
   3   2.0000     -18.778077      -510.9775
   4   2.0000     -13.991500      -380.7281
   5   2.0000     -13.987035      -380.6066
   6   2.0000      -9.964306      -271.1426
   7   2.0000      -9.930603      -270.2255
   8   2.0000      -9.924084      -270.0481
   9   2.0000      -9.901089      -269.4223
  10   2.0000      -9.896882      -269.3079
  11   2.0000      -9.890617      -269.1374
  12   2.0000      -9.881535      -268.8902
  13   2.0000      -9.874609      -268.7018
  14   2.0000      -9.869249      -268.5559
  15   2.0000      -9.862770      -268.3796
  16   2.0000      -9.796135      -266.5664
  17   2.0000      -7.872336      -214.2172
  18   2.0000      -5.904806      -160.6779
  19   2.0000      -5.897737      -160.4856
  20   2.0000      -5.897366      -160.4755
  21   2.0000      -1.266099       -34.4523
  22   2.0000      -1.019467       -27.7411
  23   2.0000      -0.927463       -25.2375
  24   2.0000      -0.855705       -23.2849
  25   2.0000      -0.775088       -21.0912
  26   2.0000      -0.759950       -20.6793
  27   2.0000      -0.722914       -19.6715
  28   2.0000      -0.696177       -18.9439
  29   2.0000      -0.674302       -18.3487
  30   2.0000      -0.651391       -17.7253
  31   2.0000      -0.627003       -17.0616
  32   2.0000      -0.598560       -16.2877
  33   2.0000      -0.570453       -15.5228
  34   2.0000      -0.547932       -14.9100
  35   2.0000      -0.540059       -14.6957
  36   2.0000      -0.522470       -14.2171
  37   2.0000      -0.516524       -14.0553
  38   2.0000      -0.497819       -13.5463
  39   2.0000      -0.496137       -13.5006
  40   2.0000      -0.479467       -13.0469
  41   2.0000      -0.469789       -12.7836
  42   2.0000      -0.441899       -12.0247
  43   2.0000      -0.435189       -11.8421
  44   2.0000      -0.429999       -11.7009
  45   2.0000      -0.416186       -11.3250
  46   2.0000      -0.406693       -11.0667
  47   2.0000      -0.399768       -10.8782
  48   2.0000      -0.396200       -10.7812
  49   2.0000      -0.394335       -10.7304
  50   2.0000      -0.374296       -10.1851
  51   2.0000      -0.366846        -9.9824
  52   2.0000      -0.363832        -9.9004
  53   2.0000      -0.351962        -9.5774
  54   2.0000      -0.340193        -9.2571
  55   2.0000      -0.331039        -9.0080
  56   2.0000      -0.329206        -8.9582
  57   2.0000      -0.322197        -8.7674
  58   2.0000      -0.313566        -8.5326
  59   2.0000      -0.306317        -8.3353
  60   2.0000      -0.300255        -8.1704
  61   2.0000      -0.293703        -7.9921
  62   2.0000      -0.290718        -7.9108
  63   2.0000      -0.278740        -7.5849
  64   2.0000      -0.276067        -7.5122
  65   2.0000      -0.265807        -7.2330
  66   2.0000      -0.263363        -7.1665
  67   2.0000      -0.256370        -6.9762
  68   2.0000      -0.249080        -6.7778
  69   2.0000      -0.232002        -6.3131
  70   2.0000      -0.204821        -5.5735
  71   2.0000      -0.109009        -2.9663
  72   0.0000      -0.025600        -0.6966
  73   0.0000       0.007397         0.2013
  74   0.0000       0.010427         0.2837
  75   0.0000       0.023084         0.6281
  76   0.0000       0.026961         0.7336

MULLIKEN ATOMIC CHARGES
-----------------------
   0 C :   -0.272604
   1 C :   -0.328113
   2 C :   -0.159383
   3 C :   -0.180767
   4 H :    0.135625
   5 H :    0.133934
   6 S :    0.791413
   7 C :    0.331726
   8 N :   -0.437615
   9 N :   -0.435810
  10 H :    0.217128
  11 H :    0.181913
  12 H :    0.146911
  13 H :    0.218596
  14 H :    0.182059
  15 F :   -0.129689
  16 O :   -0.367272
  17 C :   -0.046747
  18 H :    0.074653
  19 H :    0.049944
  20 C :   -0.141836
  21 C :   -0.260927
  22 H :    0.068206
  23 H :    0.159858
  24 H :    0.095027
  25 H :    0.094584
  26 C :   -0.127372
  27 H :    0.040002
  28 H :    0.063514
  29 C :   -0.201585
  30 H :    0.056858
  31 H :    0.080892
  32 C :   -0.093731
  33 H :    0.065886
  34 H :    0.095986
  35 H :    0.085457
  36 H :    0.069120
  37 H :    0.066799
  38 H :    0.070443
  39 O :   -0.393086
Sum of atomic charges:   -0.0000000

LOEWDIN ATOMIC CHARGES
----------------------
   0 C :   -0.280726
   1 C :   -0.280001
   2 C :   -0.279657
   3 C :   -0.359829
   4 H :    0.150686
   5 H :    0.139102
   6 S :    0.524226
   7 C :   -0.465422
   8 N :   -0.013600
   9 N :   -0.014032
  10 H :    0.167717
  11 H :    0.151529
  12 H :    0.107389
  13 H :    0.144833
  14 H :    0.152388
  15 F :    0.083283
  16 O :   -0.231987
  17 C :   -0.257938
  18 H :    0.138372
  19 H :    0.120565
  20 C :   -0.263986
  21 C :   -0.266869
  22 H :    0.133634
  23 H :    0.142117
  24 H :    0.141481
  25 H :    0.135828
  26 C :   -0.261538
  27 H :    0.123604
  28 H :    0.128366
  29 C :   -0.263474
  30 H :    0.128420
  31 H :    0.131764
  32 C :   -0.260638
  33 H :    0.131530
  34 H :    0.131224
  35 H :    0.132424
  36 H :    0.129814
  37 H :    0.130933
  38 H :    0.132007
  39 O :   -0.233540

  Mayer bond orders larger than 0.100000
B(  0-C ,  1-C ) :   1.0185 B(  0-C , 17-C ) :   0.9430 B(  0-C , 18-H ) :   0.9928
B(  0-C , 19-H ) :   0.9611 B(  1-C ,  7-C ) :   1.6065 B(  1-C , 12-H ) :   0.9573
B(  2-C ,  3-C ) :   0.9415 B(  2-C , 21-C ) :   0.9480 B(  2-C , 24-H ) :   0.9476
B(  2-C , 25-H ) :   0.9693 B(  3-C ,  4-H ) :   0.9409 B(  3-C ,  5-H ) :   0.9492
B(  3-C ,  6-S ) :   0.8976 B(  6-S , 15-F ) :   1.0442 B(  6-S , 16-O ) :   1.9952
B(  6-S , 39-O ) :   1.8399 B(  7-C ,  8-N ) :   1.1413 B(  7-C ,  9-N ) :   1.1201
B(  8-N , 13-H ) :   0.9047 B(  8-N , 14-H ) :   0.9312 B(  9-N , 10-H ) :   0.9195
B(  9-N , 11-H ) :   0.9365 B( 17-C , 26-C ) :   0.9861 B( 17-C , 27-H ) :   0.9537
B( 17-C , 28-H ) :   0.9527 B( 20-C , 21-C ) :   0.9629 B( 20-C , 32-C ) :   0.9780
B( 20-C , 35-H ) :   0.9665 B( 20-C , 36-H ) :   0.9604 B( 21-C , 22-H ) :   0.9567
B( 21-C , 23-H ) :   0.9660 B( 26-C , 29-C ) :   0.9625 B( 26-C , 30-H ) :   0.9595
B( 26-C , 31-H ) :   0.9595 B( 29-C , 32-C ) :   0.9611 B( 29-C , 33-H ) :   0.9555
B( 29-C , 34-H ) :   0.9781 B( 32-C , 37-H ) :   0.9641 B( 32-C , 38-H ) :   0.9598

Dispersion correction           -0.097268956
FINAL SINGLE POINT ENERGY     -1191.013163967827

DIPOLE MOMENT
-------------
                                X             Y             Z
Electronic contribution:    -16.39132       4.99353     -21.50392
Nuclear contribution   :     17.24138      -5.45913      20.34076
                        -----------------------------------------
Total Dipole Moment    :      0.85007      -0.46560      -1.16316
                        -----------------------------------------
Magnitude (a.u.)       :      1.51405
Magnitude (Debye)      :      3.84840

Rotational constants in cm-1:     0.014201     0.012275     0.007453
Rotational constants in MHz :   425.728191   368.008875   223.435232

                             ****ORCA TERMINATED NORMALLY****
TOTAL RUN TIME: 0 days 0 hours 0 minutes 34 seconds 605 msec
