                         Program Version 5.0.0 -  RELEASE  -
|  1> !BLYP D3BJ RIJCOSX def2-TZVP def2/J TightSCF xyzfile
|  2>
|  3> *xyzfile 0 1 D5.xyz
|  4>
|  5> %MaxCore 64000
|  6>
|  7> %pal nprocs 18
|  8> end
|  9>
| 10> %scf
| 11>   MaxIter 150
| 12> end
| 13>
| 14>
| 15>                          ****END OF INPUT****

CARTESIAN COORDINATES (ANGSTROEM)
---------------------------------
  C      4.490588    1.155899   -2.469290
  N      4.305394    1.222762   -3.908317
  C      4.906458   -3.102816   -5.954844
  C      3.511771   -2.806215   -6.492283
  H      2.736044   -3.373445   -5.973736
  H      3.444904   -3.040831   -7.555281
  S      3.004618   -1.096206   -6.389259
  C      4.631918    2.246365   -4.670958
  C      4.541686    2.143990   -5.987139
  N      5.084086    3.393584   -4.118545
  H      4.920675    3.570501   -3.135870
  H      5.254652    4.197390   -4.706956
  H      3.824530    0.449113   -4.350926
  H      4.343373    1.249318   -6.416646
  H      4.676712    2.956624   -6.574113
  O      4.128856   -0.329647   -6.953717
  F      1.781285   -1.000779   -7.136399
  C      5.942129    0.939500   -2.036893
  H      3.864305    0.328532   -2.136611
  H      4.076233    2.049994   -1.989010
  C      6.462677   -3.117775   -3.944671
  C      5.024977   -3.025679   -4.437625
  H      4.423321   -3.818693   -3.977648
  H      4.579350   -2.087131   -4.108727
  H      5.201533   -4.100207   -6.296905
  H      5.605922   -2.397822   -6.413368
  C      6.559957   -0.356290   -2.559086
  H      5.967976    0.952567   -0.942444
  H      6.547184    1.788331   -2.368849
  C      6.006283   -1.615917   -1.899301
  H      7.642360   -0.318000   -2.402059
  H      6.414855   -0.403433   -3.642587
  C      6.608718   -2.917014   -2.435655
  H      6.190324   -1.561115   -0.820948
  H      4.919250   -1.651245   -2.016586
  H      7.066975   -2.374258   -4.475514
  H      6.887808   -4.089747   -4.215332
  H      6.135197   -3.755573   -1.915159
  H      7.671142   -2.955503   -2.172291
  O      2.851546   -0.783683   -4.956789

 Total Charge           Charge          ....    0
 Multiplicity           Mult            ....    1
 Number of Electrons    NEL             ....  144
 Basis Dimension        Dim             ....  671

ORBITAL ENERGIES
----------------

  NO   OCC          E(Eh)            E(eV)
   0   2.0000     -88.348243     -2404.0779
   1   2.0000     -24.411562      -664.2724
   2   2.0000     -18.791011      -511.3294
   3   2.0000     -18.781078      -511.0591
   4   2.0000     -13.976616      -380.3231
   5   2.0000     -13.963974      -379.9791
   6   2.0000      -9.968549      -271.2580
   7   2.0000      -9.931627      -270.2533
   8   2.0000      -9.917582      -269.8711
   9   2.0000      -9.910494      -269.6782
  10   2.0000      -9.905035      -269.5297
  11   2.0000      -9.900067      -269.3945
  12   2.0000      -9.896257      -269.2908
  13   2.0000      -9.890625      -269.1376
  14   2.0000      -9.884930      -268.9826
  15   2.0000      -9.884072      -268.9593
  16   2.0000      -9.774713      -265.9835
  17   2.0000      -7.879785      -214.4199
  18   2.0000      -5.911934      -160.8719
  19   2.0000      -5.905512      -160.6972
  20   2.0000      -5.904890      -160.6802
  21   2.0000      -1.283961       -34.9384
  22   2.0000      -1.015804       -27.6414
  23   2.0000      -0.923111       -25.1191
  24   2.0000      -0.845927       -23.0189
  25   2.0000      -0.769435       -20.9374
  26   2.0000      -0.761276       -20.7154
  27   2.0000      -0.727599       -19.7990
  28   2.0000      -0.701192       -19.0804
  29   2.0000      -0.674601       -18.3568
  30   2.0000      -0.651177       -17.7194
  31   2.0000      -0.624919       -17.0049
  32   2.0000      -0.597022       -16.2458
  33   2.0000      -0.572300       -15.5731
  34   2.0000      -0.552653       -15.0385
  35   2.0000      -0.532054       -14.4779
  36   2.0000      -0.525525       -14.3003
  37   2.0000      -0.522055       -14.2058
  38   2.0000      -0.512770       -13.9532
  39   2.0000      -0.496709       -13.5161
  40   2.0000      -0.485966       -13.2238
  41   2.0000      -0.454362       -12.3638
  42   2.0000      -0.446279       -12.1439
  43   2.0000      -0.434314       -11.8183
  44   2.0000      -0.421720       -11.4756
  45   2.0000      -0.416590       -11.3360
  46   2.0000      -0.409250       -11.1363
  47   2.0000      -0.406651       -11.0655
  48   2.0000      -0.393876       -10.7179
  49   2.0000      -0.390856       -10.6357
  50   2.0000      -0.378492       -10.2993
  51   2.0000      -0.373052       -10.1513
  52   2.0000      -0.361721        -9.8429
  53   2.0000      -0.345538        -9.4026
  54   2.0000      -0.338374        -9.2076
  55   2.0000      -0.336681        -9.1615
  56   2.0000      -0.328017        -8.9258
  57   2.0000      -0.321588        -8.7509
  58   2.0000      -0.311067        -8.4646
  59   2.0000      -0.307943        -8.3796
  60   2.0000      -0.306545        -8.3415
  61   2.0000      -0.295635        -8.0446
  62   2.0000      -0.292191        -7.9509
  63   2.0000      -0.285648        -7.7729
  64   2.0000      -0.278452        -7.5771
  65   2.0000      -0.270678        -7.3655
  66   2.0000      -0.267251        -7.2723
  67   2.0000      -0.265197        -7.2164
  68   2.0000      -0.260396        -7.0857
  69   2.0000      -0.243618        -6.6292
  70   2.0000      -0.180149        -4.9021
  71   2.0000      -0.096392        -2.6230
  72   0.0000      -0.018783        -0.5111
  73   0.0000      -0.001216        -0.0331
  74   0.0000       0.018446         0.5020
  75   0.0000       0.021337         0.5806
  76   0.0000       0.025222         0.6863

MULLIKEN ATOMIC CHARGES
-----------------------
   0 C :   -0.201106
   1 N :   -0.261226
   2 C :   -0.141735
   3 C :   -0.174999
   4 H :    0.114368
   5 H :    0.128691
   6 S :    0.815498
   7 C :    0.387755
   8 C :   -0.599413
   9 N :   -0.449574
  10 H :    0.192879
  11 H :    0.202230
  12 H :    0.232194
  13 H :    0.147997
  14 H :    0.048237
  15 O :   -0.386972
  16 F :   -0.072929
  17 C :   -0.023101
  18 H :    0.100817
  19 H :    0.082456
  20 C :   -0.153536
  21 C :   -0.252783
  22 H :    0.065761
  23 H :    0.134474
  24 H :    0.094181
  25 H :    0.122070
  26 C :   -0.194192
  27 H :    0.045663
  28 H :    0.078860
  29 C :   -0.192127
  30 H :    0.067831
  31 H :    0.112037
  32 C :   -0.095044
  33 H :    0.069068
  34 H :    0.089457
  35 H :    0.096712
  36 H :    0.071123
  37 H :    0.068349
  38 H :    0.074349
  39 O :   -0.444318
Sum of atomic charges:   -0.0000000

LOEWDIN ATOMIC CHARGES
----------------------
   0 C :   -0.296187
   1 N :    0.131531
   2 C :   -0.266119
   3 C :   -0.366910
   4 H :    0.136943
   5 H :    0.138238
   6 S :    0.530934
   7 C :   -0.469505
   8 C :   -0.353752
   9 N :   -0.017090
  10 H :    0.150941
  11 H :    0.165700
  12 H :    0.163521
  13 H :    0.083926
  14 H :    0.086939
  15 O :   -0.229452
  16 F :    0.123353
  17 C :   -0.265785
  18 H :    0.129524
  19 H :    0.117508
  20 C :   -0.262228
  21 C :   -0.265204
  22 H :    0.132296
  23 H :    0.138505
  24 H :    0.143389
  25 H :    0.147699
  26 C :   -0.262091
  27 H :    0.128515
  28 H :    0.132135
  29 C :   -0.265231
  30 H :    0.132286
  31 H :    0.137713
  32 C :   -0.259746
  33 H :    0.131811
  34 H :    0.128931
  35 H :    0.135497
  36 H :    0.130890
  37 H :    0.131339
  38 H :    0.133219
  39 O :   -0.263982

  Mayer bond orders larger than 0.100000
B(  0-C ,  1-N ) :   0.9837 B(  0-C , 17-C ) :   0.9158 B(  0-C , 18-H ) :   0.9807
B(  0-C , 19-H ) :   0.9740 B(  1-N ,  7-C ) :   1.2002 B(  1-N , 12-H ) :   0.8748
B(  2-C ,  3-C ) :   0.9571 B(  2-C , 21-C ) :   0.9795 B(  2-C , 24-H ) :   0.9440
B(  2-C , 25-H ) :   0.9539 B(  3-C ,  4-H ) :   0.9307 B(  3-C ,  5-H ) :   0.9367
B(  3-C ,  6-S ) :   0.9102 B(  6-S , 15-O ) :   1.8516 B(  6-S , 16-F ) :   1.1659
B(  6-S , 39-O ) :   1.7760 B(  7-C ,  8-C ) :   1.5449 B(  7-C ,  9-N ) :   1.1047
B(  8-C , 13-H ) :   1.0042 B(  8-C , 14-H ) :   0.9951 B(  9-N , 10-H ) :   0.9253
B(  9-N , 11-H ) :   0.9320 B( 17-C , 26-C ) :   0.9653 B( 17-C , 27-H ) :   0.9472
B( 17-C , 28-H ) :   0.9532 B( 20-C , 21-C ) :   0.9691 B( 20-C , 32-C ) :   0.9734
B( 20-C , 35-H ) :   0.9694 B( 20-C , 36-H ) :   0.9595 B( 21-C , 22-H ) :   0.9563
B( 21-C , 23-H ) :   0.9637 B( 26-C , 29-C ) :   0.9604 B( 26-C , 30-H ) :   0.9580
B( 26-C , 31-H ) :   0.9664 B( 29-C , 32-C ) :   0.9656 B( 29-C , 33-H ) :   0.9556
B( 29-C , 34-H ) :   0.9762 B( 32-C , 37-H ) :   0.9643 B( 32-C , 38-H ) :   0.9609

Dispersion correction           -0.097338356
FINAL SINGLE POINT ENERGY     -1191.003154383968

DIPOLE MOMENT
-------------
                                X             Y             Z
Electronic contribution:    -20.62622       2.76643     -20.21845
Nuclear contribution   :     20.03262      -4.53368      20.24480
                        -----------------------------------------
Total Dipole Moment    :     -0.59359      -1.76725       0.02635
                        -----------------------------------------
Magnitude (a.u.)       :      1.86447
Magnitude (Debye)      :      4.73910

Rotational constants in cm-1:     0.014367     0.012055     0.007393
Rotational constants in MHz :   430.711297   361.391195   221.649333

                             ****ORCA TERMINATED NORMALLY****
TOTAL RUN TIME: 0 days 0 hours 0 minutes 35 seconds 245 msec
