                         Program Version 5.0.0 -  RELEASE  -
|  1> !BLYP D3BJ RIJCOSX def2-TZVP def2/J TightSCF xyzfile
|  2>
|  3> *xyzfile 0 1 D7.xyz
|  4>
|  5> %MaxCore 64000
|  6>
|  7> %pal nprocs 18
|  8> end
|  9>
| 10> %scf
| 11>   MaxIter 150
| 12> end
| 13>
| 14>
| 15>                          ****END OF INPUT****

CARTESIAN COORDINATES (ANGSTROEM)
---------------------------------
  C      4.490588    1.155899   -2.469290
  C      4.305394    1.222762   -3.908317
  C      4.906458   -3.102816   -5.954844
  C      3.511771   -2.806215   -6.492283
  H      2.736044   -3.373445   -5.973736
  H      3.444904   -3.040831   -7.555281
  S      3.004618   -1.096206   -6.389259
  C      4.631918    2.246365   -4.670958
  N      4.541686    2.143990   -5.987139
  N      5.084086    3.393584   -4.118545
  H      4.920675    3.570501   -3.135870
  H      5.254652    4.197390   -4.706956
  H      3.824530    0.449113   -4.350926
  H      4.343373    1.249318   -6.416646
  H      4.676712    2.956624   -6.574113
  O      4.128856   -0.329647   -6.953717
  O      1.781285   -1.000779   -7.136399
  C      5.942129    0.939500   -2.036893
  H      3.864305    0.328532   -2.136611
  H      4.076233    2.049994   -1.989010
  C      6.462677   -3.117775   -3.944671
  C      5.024977   -3.025679   -4.437625
  H      4.423321   -3.818693   -3.977648
  H      4.579350   -2.087131   -4.108727
  H      5.201533   -4.100207   -6.296905
  H      5.605922   -2.397822   -6.413368
  C      6.559957   -0.356290   -2.559086
  H      5.967976    0.952567   -0.942444
  H      6.547184    1.788331   -2.368849
  C      6.006283   -1.615917   -1.899301
  H      7.642360   -0.318000   -2.402059
  H      6.414855   -0.403433   -3.642587
  C      6.608718   -2.917014   -2.435655
  H      6.190324   -1.561115   -0.820948
  H      4.919250   -1.651245   -2.016586
  H      7.066975   -2.374258   -4.475514
  H      6.887808   -4.089747   -4.215332
  H      6.135197   -3.755573   -1.915159
  H      7.671142   -2.955503   -2.172291
  F      2.851546   -0.783683   -4.956789

 Total Charge           Charge          ....    0
 Multiplicity           Mult            ....    1
 Number of Electrons    NEL             ....  144
 Basis Dimension        Dim             ....  671

ORBITAL ENERGIES
----------------

  NO   OCC          E(Eh)            E(eV)
   0   2.0000     -88.343415     -2403.9465
   1   2.0000     -24.388654      -663.6490
   2   2.0000     -18.791706      -511.3483
   3   2.0000     -18.788573      -511.2631
   4   2.0000     -13.992258      -380.7487
   5   2.0000     -13.970509      -380.1569
   6   2.0000      -9.964899      -271.1587
   7   2.0000      -9.927785      -270.1488
   8   2.0000      -9.926003      -270.1003
   9   2.0000      -9.909765      -269.6584
  10   2.0000      -9.900619      -269.4095
  11   2.0000      -9.894447      -269.2416
  12   2.0000      -9.886452      -269.0240
  13   2.0000      -9.877648      -268.7845
  14   2.0000      -9.872708      -268.6500
  15   2.0000      -9.869337      -268.5583
  16   2.0000      -9.805828      -266.8301
  17   2.0000      -7.875062      -214.2913
  18   2.0000      -5.907309      -160.7460
  19   2.0000      -5.900796      -160.5688
  20   2.0000      -5.900154      -160.5513
  21   2.0000      -1.253500       -34.1095
  22   2.0000      -1.022636       -27.8273
  23   2.0000      -0.934709       -25.4347
  24   2.0000      -0.850991       -23.1566
  25   2.0000      -0.768013       -20.8987
  26   2.0000      -0.760135       -20.6843
  27   2.0000      -0.726229       -19.7617
  28   2.0000      -0.699290       -19.0286
  29   2.0000      -0.676858       -18.4182
  30   2.0000      -0.645103       -17.5541
  31   2.0000      -0.631641       -17.1878
  32   2.0000      -0.597515       -16.2592
  33   2.0000      -0.573076       -15.5942
  34   2.0000      -0.553709       -15.0672
  35   2.0000      -0.525783       -14.3073
  36   2.0000      -0.518348       -14.1050
  37   2.0000      -0.511866       -13.9286
  38   2.0000      -0.507868       -13.8198
  39   2.0000      -0.489374       -13.3165
  40   2.0000      -0.482604       -13.1323
  41   2.0000      -0.467261       -12.7148
  42   2.0000      -0.440903       -11.9976
  43   2.0000      -0.431520       -11.7423
  44   2.0000      -0.429428       -11.6853
  45   2.0000      -0.420544       -11.4436
  46   2.0000      -0.417520       -11.3613
  47   2.0000      -0.403945       -10.9919
  48   2.0000      -0.396361       -10.7855
  49   2.0000      -0.387344       -10.5402
  50   2.0000      -0.376654       -10.2493
  51   2.0000      -0.371082       -10.0977
  52   2.0000      -0.367833       -10.0092
  53   2.0000      -0.351225        -9.5573
  54   2.0000      -0.342934        -9.3317
  55   2.0000      -0.332823        -9.0566
  56   2.0000      -0.327415        -8.9094
  57   2.0000      -0.323130        -8.7928
  58   2.0000      -0.313075        -8.5192
  59   2.0000      -0.308650        -8.3988
  60   2.0000      -0.298456        -8.1214
  61   2.0000      -0.296143        -8.0585
  62   2.0000      -0.289806        -7.8860
  63   2.0000      -0.283823        -7.7232
  64   2.0000      -0.283117        -7.7040
  65   2.0000      -0.275978        -7.5098
  66   2.0000      -0.274597        -7.4722
  67   2.0000      -0.261394        -7.1129
  68   2.0000      -0.254837        -6.9345
  69   2.0000      -0.250259        -6.8099
  70   2.0000      -0.198981        -5.4145
  71   2.0000      -0.111435        -3.0323
  72   0.0000      -0.018326        -0.4987
  73   0.0000       0.005627         0.1531
  74   0.0000       0.011091         0.3018
  75   0.0000       0.023809         0.6479
  76   0.0000       0.024419         0.6645

MULLIKEN ATOMIC CHARGES
-----------------------
   0 C :   -0.248401
   1 C :   -0.348393
   2 C :   -0.117869
   3 C :   -0.199744
   4 H :    0.121840
   5 H :    0.148074
   6 S :    0.813280
   7 C :    0.314292
   8 N :   -0.425704
   9 N :   -0.434133
  10 H :    0.214496
  11 H :    0.185994
  12 H :    0.117206
  13 H :    0.246773
  14 H :    0.174218
  15 O :   -0.443579
  16 O :   -0.371823
  17 C :   -0.039114
  18 H :    0.058955
  19 H :    0.053441
  20 C :   -0.149792
  21 C :   -0.260863
  22 H :    0.073481
  23 H :    0.112347
  24 H :    0.089679
  25 H :    0.116167
  26 C :   -0.145737
  27 H :    0.040144
  28 H :    0.067068
  29 C :   -0.196228
  30 H :    0.059801
  31 H :    0.101754
  32 C :   -0.095354
  33 H :    0.068946
  34 H :    0.084516
  35 H :    0.094578
  36 H :    0.072790
  37 H :    0.067440
  38 H :    0.073128
  39 F :   -0.093674
Sum of atomic charges:   -0.0000000

LOEWDIN ATOMIC CHARGES
----------------------
   0 C :   -0.285514
   1 C :   -0.299231
   2 C :   -0.276253
   3 C :   -0.360289
   4 H :    0.138557
   5 H :    0.150837
   6 S :    0.535839
   7 C :   -0.458618
   8 N :   -0.001237
   9 N :   -0.011254
  10 H :    0.166376
  11 H :    0.153674
  12 H :    0.104074
  13 H :    0.143127
  14 H :    0.150745
  15 O :   -0.258359
  16 O :   -0.231624
  17 C :   -0.257723
  18 H :    0.134146
  19 H :    0.121131
  20 C :   -0.261181
  21 C :   -0.268354
  22 H :    0.133109
  23 H :    0.133141
  24 H :    0.141170
  25 H :    0.144870
  26 C :   -0.261600
  27 H :    0.123630
  28 H :    0.129665
  29 C :   -0.264339
  30 H :    0.129626
  31 H :    0.134815
  32 C :   -0.260598
  33 H :    0.132100
  34 H :    0.127396
  35 H :    0.135521
  36 H :    0.131673
  37 H :    0.130755
  38 H :    0.133043
  39 F :    0.097154

  Mayer bond orders larger than 0.100000
B(  0-C ,  1-C ) :   1.0168 B(  0-C , 17-C ) :   0.9439 B(  0-C , 18-H ) :   0.9848
B(  0-C , 19-H ) :   0.9635 B(  1-C ,  7-C ) :   1.6020 B(  1-C , 12-H ) :   0.9797
B(  2-C ,  3-C ) :   0.9366 B(  2-C , 21-C ) :   0.9701 B(  2-C , 24-H ) :   0.9425
B(  2-C , 25-H ) :   0.9536 B(  3-C ,  4-H ) :   0.9447 B(  3-C ,  5-H ) :   0.9459
B(  3-C ,  6-S ) :   0.8993 B(  6-S , 15-O ) :   1.7560 B(  6-S , 16-O ) :   1.9984
B(  6-S , 39-F ) :   1.1051 B(  7-C ,  8-N ) :   1.1969 B(  7-C ,  9-N ) :   1.1265
B(  8-N , 13-H ) :   0.8537 B(  8-N , 14-H ) :   0.9336 B(  9-N , 10-H ) :   0.9193
B(  9-N , 11-H ) :   0.9350 B( 13-H , 15-O ) :   0.1091 B( 17-C , 26-C ) :   0.9832
B( 17-C , 27-H ) :   0.9527 B( 17-C , 28-H ) :   0.9538 B( 20-C , 21-C ) :   0.9752
B( 20-C , 32-C ) :   0.9730 B( 20-C , 35-H ) :   0.9682 B( 20-C , 36-H ) :   0.9608
B( 21-C , 22-H ) :   0.9552 B( 21-C , 23-H ) :   0.9654 B( 26-C , 29-C ) :   0.9578
B( 26-C , 30-H ) :   0.9596 B( 26-C , 31-H ) :   0.9632 B( 29-C , 32-C ) :   0.9612
B( 29-C , 33-H ) :   0.9559 B( 29-C , 34-H ) :   0.9790 B( 32-C , 37-H ) :   0.9651
B( 32-C , 38-H ) :   0.9599

Dispersion correction           -0.097074842
FINAL SINGLE POINT ENERGY     -1191.026958035833

DIPOLE MOMENT
-------------
                                X             Y             Z
Electronic contribution:    -18.46411       4.18678     -18.14345
Nuclear contribution   :     18.74089      -4.92611      17.99644
                        -----------------------------------------
Total Dipole Moment    :      0.27678      -0.73933      -0.14700
                        -----------------------------------------
Magnitude (a.u.)       :      0.80301
Magnitude (Debye)      :      2.04109

Rotational constants in cm-1:     0.014210     0.012324     0.007480
Rotational constants in MHz :   425.991442   369.455467   224.259162

                             ****ORCA TERMINATED NORMALLY****
TOTAL RUN TIME: 0 days 0 hours 0 minutes 36 seconds 693 msec
