                         Program Version 5.0.0 -  RELEASE  -
|  1> !BLYP D3BJ RIJCOSX def2-TZVP def2/J TightSCF xyzfile
|  2>
|  3> *xyzfile 0 1 D8.xyz
|  4>
|  5> %MaxCore 64000
|  6>
|  7> %pal nprocs 18
|  8> end
|  9>
| 10> %scf
| 11>   MaxIter 150
| 12> end
| 13>
| 14>
| 15>                          ****END OF INPUT****

CARTESIAN COORDINATES (ANGSTROEM)
---------------------------------
  C      4.490588    1.155899   -2.469290
  N      4.305394    1.222762   -3.908317
  C      4.906458   -3.102816   -5.954844
  C      3.511771   -2.806215   -6.492283
  H      2.736044   -3.373445   -5.973736
  H      3.444904   -3.040831   -7.555281
  S      3.004618   -1.096206   -6.389259
  C      4.631918    2.246365   -4.670958
  C      4.541686    2.143990   -5.987139
  N      5.084086    3.393584   -4.118545
  H      4.920675    3.570501   -3.135870
  H      5.254652    4.197390   -4.706956
  H      3.824530    0.449113   -4.350926
  H      4.343373    1.249318   -6.416646
  H      4.676712    2.956624   -6.574113
  O      4.128856   -0.329647   -6.953717
  O      1.781285   -1.000779   -7.136399
  C      5.942129    0.939500   -2.036893
  H      3.864305    0.328532   -2.136611
  H      4.076233    2.049994   -1.989010
  C      6.462677   -3.117775   -3.944671
  C      5.024977   -3.025679   -4.437625
  H      4.423321   -3.818693   -3.977648
  H      4.579350   -2.087131   -4.108727
  H      5.201533   -4.100207   -6.296905
  H      5.605922   -2.397822   -6.413368
  C      6.559957   -0.356290   -2.559086
  H      5.967976    0.952567   -0.942444
  H      6.547184    1.788331   -2.368849
  C      6.006283   -1.615917   -1.899301
  H      7.642360   -0.318000   -2.402059
  H      6.414855   -0.403433   -3.642587
  C      6.608718   -2.917014   -2.435655
  H      6.190324   -1.561115   -0.820948
  H      4.919250   -1.651245   -2.016586
  H      7.066975   -2.374258   -4.475514
  H      6.887808   -4.089747   -4.215332
  H      6.135197   -3.755573   -1.915159
  H      7.671142   -2.955503   -2.172291
  F      2.851546   -0.783683   -4.956789

 Total Charge           Charge          ....    0
 Multiplicity           Mult            ....    1
 Number of Electrons    NEL             ....  144
 Basis Dimension        Dim             ....  671

ORBITAL ENERGIES
----------------

  NO   OCC          E(Eh)            E(eV)
   0   2.0000     -88.338367     -2403.8092
   1   2.0000     -24.400297      -663.9658
   2   2.0000     -18.788260      -511.2545
   3   2.0000     -18.776415      -510.9322
   4   2.0000     -13.988271      -380.6402
   5   2.0000     -13.987279      -380.6132
   6   2.0000      -9.964179      -271.1391
   7   2.0000      -9.933918      -270.3156
   8   2.0000      -9.929968      -270.2082
   9   2.0000      -9.922866      -270.0149
  10   2.0000      -9.917134      -269.8589
  11   2.0000      -9.908178      -269.6152
  12   2.0000      -9.904541      -269.5163
  13   2.0000      -9.901128      -269.4234
  14   2.0000      -9.896019      -269.2844
  15   2.0000      -9.895693      -269.2755
  16   2.0000      -9.785066      -266.2652
  17   2.0000      -7.870379      -214.1639
  18   2.0000      -5.902869      -160.6252
  19   2.0000      -5.895722      -160.4308
  20   2.0000      -5.895425      -160.4227
  21   2.0000      -1.263732       -34.3879
  22   2.0000      -1.017362       -27.6838
  23   2.0000      -0.926261       -25.2048
  24   2.0000      -0.862893       -23.4805
  25   2.0000      -0.784312       -21.3422
  26   2.0000      -0.763031       -20.7631
  27   2.0000      -0.734360       -19.9829
  28   2.0000      -0.708123       -19.2690
  29   2.0000      -0.676284       -18.4026
  30   2.0000      -0.655910       -17.8482
  31   2.0000      -0.634278       -17.2596
  32   2.0000      -0.603256       -16.4154
  33   2.0000      -0.581477       -15.8228
  34   2.0000      -0.562439       -15.3047
  35   2.0000      -0.542096       -14.7512
  36   2.0000      -0.530163       -14.4265
  37   2.0000      -0.520230       -14.1562
  38   2.0000      -0.507288       -13.8040
  39   2.0000      -0.497147       -13.5280
  40   2.0000      -0.493167       -13.4198
  41   2.0000      -0.459509       -12.5039
  42   2.0000      -0.444488       -12.0951
  43   2.0000      -0.434352       -11.8193
  44   2.0000      -0.427412       -11.6305
  45   2.0000      -0.425207       -11.5705
  46   2.0000      -0.417937       -11.3727
  47   2.0000      -0.411054       -11.1853
  48   2.0000      -0.406936       -11.0733
  49   2.0000      -0.391556       -10.6548
  50   2.0000      -0.389155       -10.5894
  51   2.0000      -0.381097       -10.3702
  52   2.0000      -0.366426        -9.9710
  53   2.0000      -0.351354        -9.5608
  54   2.0000      -0.343685        -9.3521
  55   2.0000      -0.341586        -9.2950
  56   2.0000      -0.335011        -9.1161
  57   2.0000      -0.327375        -8.9083
  58   2.0000      -0.321753        -8.7553
  59   2.0000      -0.317023        -8.6266
  60   2.0000      -0.314997        -8.5715
  61   2.0000      -0.302879        -8.2418
  62   2.0000      -0.297895        -8.1061
  63   2.0000      -0.296470        -8.0674
  64   2.0000      -0.289823        -7.8865
  65   2.0000      -0.278885        -7.5889
  66   2.0000      -0.277124        -7.5409
  67   2.0000      -0.271446        -7.3864
  68   2.0000      -0.269130        -7.3234
  69   2.0000      -0.247555        -6.7363
  70   2.0000      -0.195597        -5.3225
  71   2.0000      -0.108340        -2.9481
  72   0.0000      -0.021901        -0.5960
  73   0.0000       0.002944         0.0801
  74   0.0000       0.008497         0.2312
  75   0.0000       0.019648         0.5347
  76   0.0000       0.019804         0.5389

MULLIKEN ATOMIC CHARGES
-----------------------
   0 C :   -0.206706
   1 N :   -0.271215
   2 C :   -0.119384
   3 C :   -0.200871
   4 H :    0.116909
   5 H :    0.150457
   6 S :    0.797779
   7 C :    0.395526
   8 C :   -0.590088
   9 N :   -0.448362
  10 H :    0.193832
  11 H :    0.207430
  12 H :    0.196878
  13 H :    0.159499
  14 H :    0.054434
  15 O :   -0.395618
  16 O :   -0.368344
  17 C :   -0.019760
  18 H :    0.096022
  19 H :    0.092992
  20 C :   -0.156017
  21 C :   -0.245782
  22 H :    0.077281
  23 H :    0.079759
  24 H :    0.090076
  25 H :    0.122030
  26 C :   -0.203217
  27 H :    0.051951
  28 H :    0.084125
  29 C :   -0.188944
  30 H :    0.074032
  31 H :    0.115545
  32 C :   -0.098583
  33 H :    0.074433
  34 H :    0.081385
  35 H :    0.100221
  36 H :    0.077834
  37 H :    0.072072
  38 H :    0.078096
  39 F :   -0.127706
Sum of atomic charges:    0.0000000

LOEWDIN ATOMIC CHARGES
----------------------
   0 C :   -0.296495
   1 N :    0.122572
   2 C :   -0.275857
   3 C :   -0.362720
   4 H :    0.136091
   5 H :    0.152053
   6 S :    0.525667
   7 C :   -0.471067
   8 C :   -0.336373
   9 N :   -0.014819
  10 H :    0.151376
  11 H :    0.168338
  12 H :    0.163045
  13 H :    0.084686
  14 H :    0.089835
  15 O :   -0.232919
  16 O :   -0.229881
  17 C :   -0.264382
  18 H :    0.127378
  19 H :    0.120517
  20 C :   -0.260379
  21 C :   -0.269106
  22 H :    0.133778
  23 H :    0.127003
  24 H :    0.141540
  25 H :    0.146478
  26 C :   -0.262151
  27 H :    0.130595
  28 H :    0.133833
  29 C :   -0.265678
  30 H :    0.134309
  31 H :    0.137350
  32 C :   -0.259266
  33 H :    0.133178
  34 H :    0.125715
  35 H :    0.136497
  36 H :    0.133569
  37 H :    0.132217
  38 H :    0.134459
  39 F :    0.079012

  Mayer bond orders larger than 0.100000
B(  0-C ,  1-N ) :   0.9781 B(  0-C , 17-C ) :   0.9128 B(  0-C , 18-H ) :   0.9797
B(  0-C , 19-H ) :   0.9786 B(  1-N ,  7-C ) :   1.1798 B(  1-N , 12-H ) :   0.9135
B(  2-C ,  3-C ) :   0.9355 B(  2-C , 21-C ) :   0.9738 B(  2-C , 24-H ) :   0.9420
B(  2-C , 25-H ) :   0.9520 B(  3-C ,  4-H ) :   0.9440 B(  3-C ,  5-H ) :   0.9450
B(  3-C ,  6-S ) :   0.9016 B(  6-S , 15-O ) :   1.8242 B(  6-S , 16-O ) :   1.9966
B(  6-S , 39-F ) :   1.0402 B(  7-C ,  8-C ) :   1.5563 B(  7-C ,  9-N ) :   1.1032
B(  8-C , 13-H ) :   1.0003 B(  8-C , 14-H ) :   0.9981 B(  9-N , 10-H ) :   0.9245
B(  9-N , 11-H ) :   0.9307 B( 17-C , 26-C ) :   0.9619 B( 17-C , 27-H ) :   0.9478
B( 17-C , 28-H ) :   0.9533 B( 20-C , 21-C ) :   0.9735 B( 20-C , 32-C ) :   0.9681
B( 20-C , 35-H ) :   0.9706 B( 20-C , 36-H ) :   0.9609 B( 21-C , 22-H ) :   0.9557
B( 21-C , 23-H ) :   0.9657 B( 26-C , 29-C ) :   0.9547 B( 26-C , 30-H ) :   0.9590
B( 26-C , 31-H ) :   0.9691 B( 29-C , 32-C ) :   0.9649 B( 29-C , 33-H ) :   0.9556
B( 29-C , 34-H ) :   0.9773 B( 32-C , 37-H ) :   0.9656 B( 32-C , 38-H ) :   0.9613

Dispersion correction           -0.096532134
FINAL SINGLE POINT ENERGY     -1191.006550408987

DIPOLE MOMENT
-------------
                                X             Y             Z
Electronic contribution:    -18.48856       3.28473     -16.26771
Nuclear contribution   :     18.77618      -4.78855      17.68602
                        -----------------------------------------
Total Dipole Moment    :      0.28762      -1.50381       1.41832
                        -----------------------------------------
Magnitude (a.u.)       :      2.08706
Magnitude (Debye)      :      5.30488

Rotational constants in cm-1:     0.014368     0.012319     0.007509
Rotational constants in MHz :   430.738566   369.302170   225.105103

                             ****ORCA TERMINATED NORMALLY****
TOTAL RUN TIME: 0 days 0 hours 0 minutes 31 seconds 315 msec
