                         Program Version 5.0.0 -  RELEASE  -
|  1> !BLYP D3BJ RIJCOSX def2-TZVP def2/J TightSCF xyzfile
|  2>
|  3> *xyzfile 0 1 D9.xyz
|  4>
|  5> %MaxCore 64000
|  6>
|  7> %pal nprocs 18
|  8> end
|  9>
| 10> %scf
| 11>   MaxIter 150
| 12> end
| 13>
| 14>
| 15>                          ****END OF INPUT****

CARTESIAN COORDINATES (ANGSTROEM)
---------------------------------
  C      4.490588    1.155899   -2.469290
  N      4.305394    1.222762   -3.908317
  C      4.906458   -3.102816   -5.954844
  C      3.511771   -2.806215   -6.492283
  H      2.736044   -3.373445   -5.973736
  H      3.444904   -3.040831   -7.555281
  S      3.004618   -1.096206   -6.389259
  C      4.631918    2.246365   -4.670958
  N      4.541686    2.143990   -5.987139
  C      5.084086    3.393584   -4.118545
  H      4.920675    3.570501   -3.135870
  H      5.254652    4.197390   -4.706956
  H      3.824530    0.449113   -4.350926
  H      4.343373    1.249318   -6.416646
  H      4.676712    2.956624   -6.574113
  O      4.128856   -0.329647   -6.953717
  O      1.781285   -1.000779   -7.136399
  C      5.942129    0.939500   -2.036893
  H      3.864305    0.328532   -2.136611
  H      4.076233    2.049994   -1.989010
  C      6.462677   -3.117775   -3.944671
  C      5.024977   -3.025679   -4.437625
  H      4.423321   -3.818693   -3.977648
  H      4.579350   -2.087131   -4.108727
  H      5.201533   -4.100207   -6.296905
  H      5.605922   -2.397822   -6.413368
  C      6.559957   -0.356290   -2.559086
  H      5.967976    0.952567   -0.942444
  H      6.547184    1.788331   -2.368849
  C      6.006283   -1.615917   -1.899301
  H      7.642360   -0.318000   -2.402059
  H      6.414855   -0.403433   -3.642587
  C      6.608718   -2.917014   -2.435655
  H      6.190324   -1.561115   -0.820948
  H      4.919250   -1.651245   -2.016586
  H      7.066975   -2.374258   -4.475514
  H      6.887808   -4.089747   -4.215332
  H      6.135197   -3.755573   -1.915159
  H      7.671142   -2.955503   -2.172291
  F      2.851546   -0.783683   -4.956789

 Total Charge           Charge          ....    0
 Multiplicity           Mult            ....    1
 Number of Electrons    NEL             ....  144
 Basis Dimension        Dim             ....  671

ORBITAL ENERGIES
----------------

  NO   OCC          E(Eh)            E(eV)
   0   2.0000     -88.358568     -2404.3589
   1   2.0000     -24.415193      -664.3712
   2   2.0000     -18.806204      -511.7428
   3   2.0000     -18.803251      -511.6625
   4   2.0000     -13.990994      -380.7143
   5   2.0000     -13.969133      -380.1194
   6   2.0000      -9.977914      -271.5128
   7   2.0000      -9.939640      -270.4714
   8   2.0000      -9.926171      -270.1049
   9   2.0000      -9.925272      -270.0804
  10   2.0000      -9.923191      -270.0238
  11   2.0000      -9.911657      -269.7099
  12   2.0000      -9.905265      -269.5360
  13   2.0000      -9.899445      -269.3776
  14   2.0000      -9.891871      -269.1715
  15   2.0000      -9.886775      -269.0328
  16   2.0000      -9.798243      -266.6238
  17   2.0000      -7.890531      -214.7123
  18   2.0000      -5.923004      -161.1731
  19   2.0000      -5.916102      -160.9853
  20   2.0000      -5.915417      -160.9667
  21   2.0000      -1.278970       -34.8026
  22   2.0000      -1.037899       -28.2427
  23   2.0000      -0.949265       -25.8308
  24   2.0000      -0.862262       -23.4633
  25   2.0000      -0.782600       -21.2956
  26   2.0000      -0.773500       -21.0480
  27   2.0000      -0.737315       -20.0634
  28   2.0000      -0.707355       -19.2481
  29   2.0000      -0.679607       -18.4930
  30   2.0000      -0.659585       -17.9482
  31   2.0000      -0.627176       -17.0663
  32   2.0000      -0.612824       -16.6758
  33   2.0000      -0.592455       -16.1215
  34   2.0000      -0.570643       -15.5280
  35   2.0000      -0.543551       -14.7908
  36   2.0000      -0.536212       -14.5911
  37   2.0000      -0.530961       -14.4482
  38   2.0000      -0.515339       -14.0231
  39   2.0000      -0.502244       -13.6668
  40   2.0000      -0.476481       -12.9657
  41   2.0000      -0.467314       -12.7163
  42   2.0000      -0.456447       -12.4206
  43   2.0000      -0.450751       -12.2656
  44   2.0000      -0.439637       -11.9631
  45   2.0000      -0.433502       -11.7962
  46   2.0000      -0.418767       -11.3952
  47   2.0000      -0.417687       -11.3658
  48   2.0000      -0.401417       -10.9231
  49   2.0000      -0.397993       -10.8299
  50   2.0000      -0.386394       -10.5143
  51   2.0000      -0.385767       -10.4973
  52   2.0000      -0.366573        -9.9750
  53   2.0000      -0.359346        -9.7783
  54   2.0000      -0.348723        -9.4892
  55   2.0000      -0.344665        -9.3788
  56   2.0000      -0.336200        -9.1485
  57   2.0000      -0.329464        -8.9652
  58   2.0000      -0.321455        -8.7472
  59   2.0000      -0.317092        -8.6285
  60   2.0000      -0.310046        -8.4368
  61   2.0000      -0.308749        -8.4015
  62   2.0000      -0.305577        -8.3152
  63   2.0000      -0.299016        -8.1366
  64   2.0000      -0.296563        -8.0699
  65   2.0000      -0.288739        -7.8570
  66   2.0000      -0.287507        -7.8235
  67   2.0000      -0.276577        -7.5260
  68   2.0000      -0.275234        -7.4895
  69   2.0000      -0.266833        -7.2609
  70   2.0000      -0.186100        -5.0640
  71   2.0000      -0.110955        -3.0192
  72   0.0000      -0.036456        -0.9920
  73   0.0000      -0.005748        -0.1564
  74   0.0000       0.007311         0.1989
  75   0.0000       0.014218         0.3869
  76   0.0000       0.016583         0.4513

MULLIKEN ATOMIC CHARGES
-----------------------
   0 C :   -0.145359
   1 N :   -0.279827
   2 C :   -0.123913
   3 C :   -0.197252
   4 H :    0.126124
   5 H :    0.154263
   6 S :    0.806416
   7 C :    0.348462
   8 N :   -0.445501
   9 C :   -0.515677
  10 H :    0.071682
  11 H :    0.049067
  12 H :    0.168786
  13 H :    0.231624
  14 H :    0.204196
  15 O :   -0.432146
  16 O :   -0.359729
  17 C :   -0.039203
  18 H :    0.088099
  19 H :    0.099792
  20 C :   -0.153885
  21 C :   -0.251596
  22 H :    0.079978
  23 H :    0.082423
  24 H :    0.095317
  25 H :    0.121574
  26 C :   -0.196620
  27 H :    0.055156
  28 H :    0.105997
  29 C :   -0.191059
  30 H :    0.074288
  31 H :    0.098067
  32 C :   -0.099308
  33 H :    0.075412
  34 H :    0.080389
  35 H :    0.099303
  36 H :    0.078547
  37 H :    0.071878
  38 H :    0.079183
  39 F :   -0.114945
Sum of atomic charges:   -0.0000000

LOEWDIN ATOMIC CHARGES
----------------------
   0 C :   -0.277866
   1 N :    0.121613
   2 C :   -0.275335
   3 C :   -0.358733
   4 H :    0.139639
   5 H :    0.153265
   6 S :    0.529356
   7 C :   -0.472996
   8 N :   -0.001891
   9 C :   -0.359697
  10 H :    0.091788
  11 H :    0.088315
  12 H :    0.151269
  13 H :    0.132244
  14 H :    0.168481
  15 O :   -0.254271
  16 O :   -0.222692
  17 C :   -0.258979
  18 H :    0.123818
  19 H :    0.129184
  20 C :   -0.260296
  21 C :   -0.269226
  22 H :    0.134600
  23 H :    0.127416
  24 H :    0.143336
  25 H :    0.145849
  26 C :   -0.263346
  27 H :    0.131845
  28 H :    0.142289
  29 C :   -0.266045
  30 H :    0.134087
  31 H :    0.132538
  32 C :   -0.259336
  33 H :    0.133854
  34 H :    0.124992
  35 H :    0.136324
  36 H :    0.133610
  37 H :    0.131957
  38 H :    0.134959
  39 F :    0.084082

  Mayer bond orders larger than 0.100000
B(  0-C ,  1-N ) :   0.9690 B(  0-C , 17-C ) :   0.9439 B(  0-C , 18-H ) :   0.9782
B(  0-C , 19-H ) :   0.9637 B(  1-N ,  7-C ) :   1.1665 B(  1-N , 12-H ) :   0.9144
B(  2-C ,  3-C ) :   0.9355 B(  2-C , 21-C ) :   0.9683 B(  2-C , 24-H ) :   0.9420
B(  2-C , 25-H ) :   0.9546 B(  3-C ,  4-H ) :   0.9435 B(  3-C ,  5-H ) :   0.9441
B(  3-C ,  6-S ) :   0.8996 B(  6-S , 15-O ) :   1.7697 B(  6-S , 16-O ) :   2.0032
B(  6-S , 39-F ) :   1.0574 B(  7-C ,  8-N ) :   1.1697 B(  7-C ,  9-C ) :   1.5849
B(  8-N , 13-H ) :   0.8622 B(  8-N , 14-H ) :   0.9325 B(  9-C , 10-H ) :   0.9948
B(  9-C , 11-H ) :   0.9956 B( 17-C , 26-C ) :   0.9697 B( 17-C , 27-H ) :   0.9564
B( 17-C , 28-H ) :   0.9482 B( 20-C , 21-C ) :   0.9737 B( 20-C , 32-C ) :   0.9692
B( 20-C , 35-H ) :   0.9698 B( 20-C , 36-H ) :   0.9609 B( 21-C , 22-H ) :   0.9556
B( 21-C , 23-H ) :   0.9668 B( 26-C , 29-C ) :   0.9525 B( 26-C , 30-H ) :   0.9601
B( 26-C , 31-H ) :   0.9670 B( 29-C , 32-C ) :   0.9625 B( 29-C , 33-H ) :   0.9562
B( 29-C , 34-H ) :   0.9779 B( 32-C , 37-H ) :   0.9658 B( 32-C , 38-H ) :   0.9610

Dispersion correction           -0.096394199
FINAL SINGLE POINT ENERGY     -1191.022764168571

DIPOLE MOMENT
-------------
                                X             Y             Z
Electronic contribution:    -19.00838       1.93335     -17.94208
Nuclear contribution   :     18.85717      -4.60195      17.96505
                        -----------------------------------------
Total Dipole Moment    :     -0.15121      -2.66860       0.02298
                        -----------------------------------------
Magnitude (a.u.)       :      2.67298
Magnitude (Debye)      :      6.79418

Rotational constants in cm-1:     0.014436     0.012382     0.007563
Rotational constants in MHz :   432.785702   371.214592   226.743759

                             ****ORCA TERMINATED NORMALLY****
TOTAL RUN TIME: 0 days 0 hours 0 minutes 32 seconds 773 msec
