                         Program Version 5.0.0 -  RELEASE  -
|  1> !wB97X-D3 RIJCOSX def2-SVPD def2/J TightSCF CPCM(Water)
|  2> *xyz -1 1
|  3> C         -0.77894        0.17197        1.80496
|  4> C         -0.60249       -0.63071        0.49224
|  5> H          0.31389       -1.24035        0.60350
|  6> H         -0.36383        0.11332       -0.30117
|  7> O         -1.71206       -1.37684        0.20253
|  8> H         -1.65864        0.77733        1.73736
|  9> H          0.07466        0.79896        1.95712
| 10> H         -0.87474       -0.50584        2.62734
| 11> *
| 12> %MaxCore 64000
| 13>
| 14> %pal nprocs 18
| 15> end
| 16>
| 17> %scf
| 18>   MaxIter 150
| 19> end
| 20>
| 21>
| 22>                          ****END OF INPUT****

CARTESIAN COORDINATES (ANGSTROEM)
---------------------------------
  C     -0.778940    0.171970    1.804960
  C     -0.602490   -0.630710    0.492240
  H      0.313890   -1.240350    0.603500
  H     -0.363830    0.113320   -0.301170
  O     -1.712060   -1.376840    0.202530
  H     -1.658640    0.777330    1.737360
  H      0.074660    0.798960    1.957120
  H     -0.874740   -0.505840    2.627340

 Total Charge           Charge          ....   -1
 Multiplicity           Mult            ....    1
 Number of Electrons    NEL             ....   26
 Basis Dimension        Dim             ....  103

ORBITAL ENERGIES
----------------

  NO   OCC          E(Eh)            E(eV)
   0   2.0000     -19.120186      -520.2867
   1   2.0000     -10.287726      -279.9433
   2   2.0000     -10.244835      -278.7761
   3   2.0000      -0.989476       -26.9250
   4   2.0000      -0.803734       -21.8707
   5   2.0000      -0.656881       -17.8747
   6   2.0000      -0.527138       -14.3441
   7   2.0000      -0.497575       -13.5397
   8   2.0000      -0.447140       -12.1673
   9   2.0000      -0.430785       -11.7223
  10   2.0000      -0.413535       -11.2529
  11   2.0000      -0.271549        -7.3892
  12   2.0000      -0.270727        -7.3668
  13   0.0000       0.106734         2.9044
  14   0.0000       0.134478         3.6593
  15   0.0000       0.151209         4.1146
  16   0.0000       0.155449         4.2300
  17   0.0000       0.189272         5.1504

MULLIKEN ATOMIC CHARGES
-----------------------
   0 C :    0.357221
   1 C :    0.122642
   2 H :   -0.152428
   3 H :   -0.133680
   4 O :   -0.961683
   5 H :   -0.098577
   6 H :   -0.040042
   7 H :   -0.093453
Sum of atomic charges:   -1.0000000

LOEWDIN ATOMIC CHARGES
----------------------
   0 C :    0.079191
   1 C :   -0.265269
   2 H :   -0.016586
   3 H :   -0.014650
   4 O :   -0.681405
   5 H :   -0.034081
   6 H :   -0.033647
   7 H :   -0.033554

  Mayer bond orders larger than 0.100000
B(  0-C ,  1-C ) :   1.2109 B(  0-C ,  5-H ) :   0.8893 B(  0-C ,  6-H ) :   0.8823
B(  0-C ,  7-H ) :   0.8922 B(  1-C ,  2-H ) :   0.9678 B(  1-C ,  3-H ) :   0.9588
B(  1-C ,  4-O ) :   1.2789 B(  1-C ,  5-H ) :   0.1538 B(  1-C ,  6-H ) :   0.1043
B(  1-C ,  7-H ) :   0.1439

Dispersion correction           -0.000861350
FINAL SINGLE POINT ENERGY      -154.390369131683

DIPOLE MOMENT
-------------
                                X             Y             Z
Electronic contribution:     -1.02965      -1.30082      -1.12850
Nuclear contribution   :      2.47835       2.80827       2.30058
                        -----------------------------------------
Total Dipole Moment    :      1.44870       1.50746       1.17208
                        -----------------------------------------
Magnitude (a.u.)       :      2.39686
Magnitude (Debye)      :      6.09233

Rotational constants in cm-1:     1.255775     0.327783     0.287473
Rotational constants in MHz : 37647.186859  9826.677683  8618.224821

                             ****ORCA TERMINATED NORMALLY****
TOTAL RUN TIME: 0 days 0 hours 0 minutes 5 seconds 287 msec
