                         Program Version 5.0.0 -  RELEASE  -
|  1> !wB97X-D3 RIJCOSX def2-SVPD def2/J TightSCF CPCM(Water)
|  2> *xyz 1 1
|  3> C         -2.12050        0.88520        1.78951
|  4> C         -0.77894        0.17197        1.80496
|  5> H         -2.32419        1.47265        2.68608
|  6> H         -2.18770        1.54127        0.91948
|  7> N         -3.17690       -0.15948        1.61070
|  8> H         -4.06474        0.23127        1.28675
|  9> H         -3.34407       -0.67151        2.48493
| 10> H         -2.71686       -0.78189        0.93588
| 11> H         -0.65708       -0.37837        0.89547
| 12> H         -0.74207       -0.50050        2.63642
| 13> H          0.00707        0.89251        1.89389
| 14> *
| 15> %MaxCore 64000
| 16>
| 17> %pal nprocs 18
| 18> end
| 19>
| 20> %scf
| 21>   MaxIter 150
| 22> end
| 23>
| 24>
| 25>                          ****END OF INPUT****

CARTESIAN COORDINATES (ANGSTROEM)
---------------------------------
  C     -2.120500    0.885200    1.789510
  C     -0.778940    0.171970    1.804960
  H     -2.324190    1.472650    2.686080
  H     -2.187700    1.541270    0.919480
  N     -3.176900   -0.159480    1.610700
  H     -4.064740    0.231270    1.286750
  H     -3.344070   -0.671510    2.484930
  H     -2.716860   -0.781890    0.935880
  H     -0.657080   -0.378370    0.895470
  H     -0.742070   -0.500500    2.636420
  H      0.007070    0.892510    1.893890

 Total Charge           Charge          ....    1
 Multiplicity           Mult            ....    1
 Number of Electrons    NEL             ....   26
 Basis Dimension        Dim             ....  124

ORBITAL ENERGIES
----------------

  NO   OCC          E(Eh)            E(eV)
   0   2.0000     -14.554748      -396.0548
   1   2.0000     -10.352788      -281.7137
   2   2.0000     -10.291225      -280.0385
   3   2.0000      -1.110472       -30.2175
   4   2.0000      -0.886170       -24.1139
   5   2.0000      -0.758440       -20.6382
   6   2.0000      -0.693981       -18.8842
   7   2.0000      -0.681983       -18.5577
   8   2.0000      -0.591995       -16.1090
   9   2.0000      -0.553668       -15.0661
  10   2.0000      -0.499910       -13.6033
  11   2.0000      -0.489122       -13.3097
  12   2.0000      -0.466139       -12.6843
  13   0.0000       0.086158         2.3445
  14   0.0000       0.119358         3.2479
  15   0.0000       0.127666         3.4740
  16   0.0000       0.148623         4.0442
  17   0.0000       0.165822         4.5123

MULLIKEN ATOMIC CHARGES
-----------------------
   0 C :    0.112713
   1 C :    0.384435
   2 H :   -0.057576
   3 H :    0.017689
   4 N :   -0.850374
   5 H :    0.383290
   6 H :    0.426156
   7 H :    0.501526
   8 H :    0.029648
   9 H :    0.073225
  10 H :   -0.020732
Sum of atomic charges:    1.0000000

LOEWDIN ATOMIC CHARGES
----------------------
   0 C :    0.060087
   1 C :    0.147823
   2 H :    0.050330
   3 H :    0.052263
   4 N :    0.353444
   5 H :    0.116130
   6 H :    0.119837
   7 H :    0.097771
   8 H :   -0.000899
   9 H :    0.001410
  10 H :    0.001803

  Mayer bond orders larger than 0.100000
B(  0-C ,  1-C ) :   1.2668 B(  0-C ,  2-H ) :   0.9992 B(  0-C ,  3-H ) :   0.9478
B(  0-C ,  4-N ) :   0.8005 B(  0-C ,  8-H ) :   0.1221 B(  0-C ,  9-H ) :   0.1112
B(  0-C , 10-H ) :   0.1609 B(  1-C ,  8-H ) :   0.8739 B(  1-C ,  9-H ) :   0.8491
B(  1-C , 10-H ) :   0.8884 B(  4-N ,  5-H ) :   0.7554 B(  4-N ,  6-H ) :   0.7443
B(  4-N ,  7-H ) :   0.5824

Dispersion correction           -0.001457138
FINAL SINGLE POINT ENERGY      -135.517509745683

DIPOLE MOMENT
-------------
                                X             Y             Z
Electronic contribution:     -2.18966      -0.30895      -0.10765
Nuclear contribution   :      0.50278      -0.30871      -0.06979
                        -----------------------------------------
Total Dipole Moment    :     -1.68688      -0.61766      -0.17744
                        -----------------------------------------
Magnitude (a.u.)       :      1.80515
Magnitude (Debye)      :      4.58832

Rotational constants in cm-1:     0.963746     0.295157     0.256910
Rotational constants in MHz : 28892.375247  8848.576767  7701.963879

                             ****ORCA TERMINATED NORMALLY****
TOTAL RUN TIME: 0 days 0 hours 0 minutes 6 seconds 492 msec
