                         Program Version 5.0.0 -  RELEASE  -
|  1> !wB97X-D3 RIJCOSX def2-SVPD def2/J TightSCF CPCM(Water) xyzfile
|  2>
|  3> *xyzfile 0 1 B.xyz
|  4>
|  5> %MaxCore 64000
|  6>
|  7> %pal nprocs 18
|  8> end
|  9>
| 10> %scf
| 11>   MaxIter 150
| 12> end
| 13>
| 14>
| 15>                          ****END OF INPUT****

CARTESIAN COORDINATES (ANGSTROEM)
---------------------------------
  C     -2.120502    0.885196    1.789506
  C     -0.778939    0.171966    1.804965
  H     -2.324193    1.472649    2.686078
  H     -2.187698    1.541272    0.919482
  N     -3.176900   -0.159484    1.610700
  H      0.015695    0.910767    1.939153
  H     -0.743553   -0.506827    2.665420
  C     -0.602493   -0.630712    0.492240
  H      0.313894   -1.240346    0.603498
  H     -0.363829    0.113322   -0.301169
  O     -1.712061   -1.376836    0.202535
  H     -4.064736    0.231272    1.286754
  H     -3.344073   -0.671511    2.484928
  H     -2.716861   -0.781886    0.935880

 Total Charge           Charge          ....    0
 Multiplicity           Mult            ....    1
 Number of Electrons    NEL             ....   42
 Basis Dimension        Dim             ....  175

ORBITAL ENERGIES
----------------

  NO   OCC          E(Eh)            E(eV)
   0   2.0000     -19.146286      -520.9969
   1   2.0000     -14.487390      -394.2219
   2   2.0000     -10.330585      -281.1095
   3   2.0000     -10.306104      -280.4433
   4   2.0000     -10.278797      -279.7003
   5   2.0000      -1.079888       -29.3852
   6   2.0000      -1.019108       -27.7313
   7   2.0000      -0.869052       -23.6481
   8   2.0000      -0.752426       -20.4746
   9   2.0000      -0.690430       -18.7875
  10   2.0000      -0.651560       -17.7299
  11   2.0000      -0.633322       -17.2336
  12   2.0000      -0.571110       -15.5407
  13   2.0000      -0.529792       -14.4164
  14   2.0000      -0.504069       -13.7164
  15   2.0000      -0.490035       -13.3345
  16   2.0000      -0.462433       -12.5834
  17   2.0000      -0.437140       -11.8952
  18   2.0000      -0.434130       -11.8133
  19   2.0000      -0.302515        -8.2318
  20   2.0000      -0.301099        -8.1933
  21   0.0000       0.095838         2.6079
  22   0.0000       0.119663         3.2562
  23   0.0000       0.125066         3.4032
  24   0.0000       0.127669         3.4740
  25   0.0000       0.158568         4.3149

MULLIKEN ATOMIC CHARGES
-----------------------
   0 C :    0.526216
   1 C :   -0.066294
   2 H :   -0.165613
   3 H :    0.027383
   4 N :   -0.513179
   5 H :   -0.060388
   6 H :    0.027164
   7 C :    0.520914
   8 H :   -0.147629
   9 H :   -0.030508
  10 O :   -0.840261
  11 H :    0.326016
  12 H :    0.439824
  13 H :   -0.043646
Sum of atomic charges:    0.0000000

LOEWDIN ATOMIC CHARGES
----------------------
   0 C :    0.092034
   1 C :   -0.017932
   2 H :    0.035738
   3 H :    0.046999
   4 N :    0.324257
   5 H :    0.028018
   6 H :    0.028883
   7 C :   -0.093466
   8 H :    0.002978
   9 H :    0.009747
  10 O :   -0.474213
  11 H :    0.100122
  12 H :    0.104717
  13 H :   -0.187882

  Mayer bond orders larger than 0.100000
B(  0-C ,  1-C ) :   1.1441 B(  0-C ,  2-H ) :   0.9636 B(  0-C ,  3-H ) :   0.8938
B(  0-C ,  4-N ) :   0.8224 B(  0-C ,  5-H ) :   0.1010 B(  1-C ,  5-H ) :   0.9491
B(  1-C ,  6-H ) :   0.9064 B(  1-C ,  7-C ) :   1.1374 B(  1-C ,  8-H ) :   0.1182
B(  2-H ,  4-N ) :   0.1267 B(  4-N , 11-H ) :   0.8338 B(  4-N , 12-H ) :   0.7336
B(  4-N , 13-H ) :   1.0088 B(  5-H ,  7-C ) :   0.1120 B(  7-C ,  8-H ) :   0.9366
B(  7-C ,  9-H ) :   0.9225 B(  7-C , 10-O ) :   1.0757 B( 10-O , 13-H ) :   0.4993

Dispersion correction           -0.003272664
FINAL SINGLE POINT ENERGY      -249.460912694109

DIPOLE MOMENT
-------------
                                X             Y             Z
Electronic contribution:     -1.84667      -0.89395      -0.23712
Nuclear contribution   :      0.08650       3.01678       2.47433
                        -----------------------------------------
Total Dipole Moment    :     -1.76017       2.12283       2.23721
                        -----------------------------------------
Magnitude (a.u.)       :      3.55101
Magnitude (Debye)      :      9.02596

Rotational constants in cm-1:     0.238796     0.156489     0.106146
Rotational constants in MHz :  7158.916762  4691.413084  3182.185740

                             ****ORCA TERMINATED NORMALLY****
TOTAL RUN TIME: 0 days 0 hours 0 minutes 11 seconds 295 msec
