                         Program Version 5.0.0 -  RELEASE  -
|  1> !wB97X-D3 RIJCOSX def2-SVPD def2/J TightSCF CPCM(Water)
|  2> *xyz 0 1
|  3> C         -0.77894        0.17197        1.80496
|  4> C         -0.60249       -0.63071        0.49224
|  5> H          0.31389       -1.24035        0.60350
|  6> H         -0.36383        0.11332       -0.30117
|  7> F         -1.71206       -1.37684        0.20253
|  8> H         -1.65864        0.77733        1.73736
|  9> H          0.07466        0.79896        1.95712
| 10> H         -0.87474       -0.50584        2.62734
| 11> *
| 12> %MaxCore 64000
| 13>
| 14> %pal nprocs 18
| 15> end
| 16>
| 17> %scf
| 18>   MaxIter 150
| 19> end
| 20>
| 21>
| 22>                          ****END OF INPUT****

CARTESIAN COORDINATES (ANGSTROEM)
---------------------------------
  C     -0.778940    0.171970    1.804960
  C     -0.602490   -0.630710    0.492240
  H      0.313890   -1.240350    0.603500
  H     -0.363830    0.113320   -0.301170
  F     -1.712060   -1.376840    0.202530
  H     -1.658640    0.777330    1.737360
  H      0.074660    0.798960    1.957120
  H     -0.874740   -0.505840    2.627340

 Total Charge           Charge          ....    0
 Multiplicity           Mult            ....    1
 Number of Electrons    NEL             ....   26
 Basis Dimension        Dim             ....  103

ORBITAL ENERGIES
----------------

  NO   OCC          E(Eh)            E(eV)
   0   2.0000     -24.797753      -674.7812
   1   2.0000     -10.364927      -282.0440
   2   2.0000     -10.276139      -279.6280
   3   2.0000      -1.307683       -35.5839
   4   2.0000      -0.865145       -23.5418
   5   2.0000      -0.733992       -19.9729
   6   2.0000      -0.615438       -16.7469
   7   2.0000      -0.600457       -16.3393
   8   2.0000      -0.564993       -15.3743
   9   2.0000      -0.502206       -13.6657
  10   2.0000      -0.489953       -13.3323
  11   2.0000      -0.430182       -11.7059
  12   2.0000      -0.424896       -11.5620
  13   0.0000       0.101127         2.7518
  14   0.0000       0.129267         3.5175
  15   0.0000       0.154464         4.2032
  16   0.0000       0.166651         4.5348
  17   0.0000       0.198063         5.3896

MULLIKEN ATOMIC CHARGES
-----------------------
   0 C :    0.191352
   1 C :    0.335752
   2 H :   -0.011639
   3 H :    0.008624
   4 F :   -0.479333
   5 H :   -0.028206
   6 H :    0.007862
   7 H :   -0.024412
Sum of atomic charges:   -0.0000000

LOEWDIN ATOMIC CHARGES
----------------------
   0 C :    0.133743
   1 C :    0.073823
   2 H :    0.035865
   3 H :    0.038834
   4 F :   -0.245291
   5 H :   -0.014136
   6 H :   -0.007875
   7 H :   -0.014964

  Mayer bond orders larger than 0.100000
B(  0-C ,  1-C ) :   1.3225 B(  0-C ,  5-H ) :   0.9117 B(  0-C ,  6-H ) :   0.8861
B(  0-C ,  7-H ) :   0.9149 B(  1-C ,  2-H ) :   0.9653 B(  1-C ,  3-H ) :   0.9553
B(  1-C ,  4-F ) :   0.7196 B(  1-C ,  5-H ) :   0.1217 B(  1-C ,  6-H ) :   0.1023
B(  1-C ,  7-H ) :   0.1120

Dispersion correction           -0.000877435
FINAL SINGLE POINT ENERGY      -178.891979803251

DIPOLE MOMENT
-------------
                                X             Y             Z
Electronic contribution:     -2.56342      -3.18080      -2.78950
Nuclear contribution   :      3.27800       3.70743       3.04146
                        -----------------------------------------
Total Dipole Moment    :      0.71459       0.52663       0.25195
                        -----------------------------------------
Magnitude (a.u.)       :      0.92275
Magnitude (Debye)      :      2.34543

Rotational constants in cm-1:     1.234437     0.305084     0.268865
Rotational constants in MHz : 37007.496448  9146.194083  8060.380630

                             ****ORCA TERMINATED NORMALLY****
TOTAL RUN TIME: 0 days 0 hours 0 minutes 5 seconds 664 msec
