                         Program Version 5.0.0 -  RELEASE  -
|  1> !wB97X-D3 RIJCOSX def2-SVPD def2/J TightSCF CPCM(Water)
|  2> *xyz 0 1
|  3> C         -2.12050        0.88520        1.78951
|  4> C         -0.77894        0.17197        1.80496
|  5> H         -2.32419        1.47265        2.68608
|  6> H         -2.18770        1.54127        0.91948
|  7> C         -3.17690       -0.15948        1.61070
|  8> H         -4.06474        0.23127        1.28675
|  9> H         -3.34407       -0.67151        2.48493
| 10> H         -2.71686       -0.78189        0.93588
| 11> H         -0.65708       -0.37837        0.89547
| 12> H         -0.74207       -0.50050        2.63642
| 13> H          0.00707        0.89251        1.89389
| 14> *
| 15> %MaxCore 64000
| 16>
| 17> %pal nprocs 18
| 18> end
| 19>
| 20> %scf
| 21>   MaxIter 150
| 22> end
| 23>
| 24>
| 25>                          ****END OF INPUT****

CARTESIAN COORDINATES (ANGSTROEM)
---------------------------------
  C     -2.120500    0.885200    1.789510
  C     -0.778940    0.171970    1.804960
  H     -2.324190    1.472650    2.686080
  H     -2.187700    1.541270    0.919480
  C     -3.176900   -0.159480    1.610700
  H     -4.064740    0.231270    1.286750
  H     -3.344070   -0.671510    2.484930
  H     -2.716860   -0.781890    0.935880
  H     -0.657080   -0.378370    0.895470
  H     -0.742070   -0.500500    2.636420
  H      0.007070    0.892510    1.893890

 Total Charge           Charge          ....    0
 Multiplicity           Mult            ....    1
 Number of Electrons    NEL             ....   26
 Basis Dimension        Dim             ....  124

ORBITAL ENERGIES
----------------

  NO   OCC          E(Eh)            E(eV)
   0   2.0000     -10.272065      -279.5171
   1   2.0000     -10.263734      -279.2904
   2   2.0000     -10.244453      -278.7658
   3   2.0000      -0.902850       -24.5678
   4   2.0000      -0.789429       -21.4815
   5   2.0000      -0.686438       -18.6789
   6   2.0000      -0.569794       -15.5049
   7   2.0000      -0.550497       -14.9798
   8   2.0000      -0.493626       -13.4323
   9   2.0000      -0.477136       -12.9835
  10   2.0000      -0.430569       -11.7164
  11   2.0000      -0.421892       -11.4803
  12   2.0000      -0.416980       -11.3466
  13   0.0000       0.103157         2.8070
  14   0.0000       0.127121         3.4592
  15   0.0000       0.133856         3.6424
  16   0.0000       0.168550         4.5865
  17   0.0000       0.185420         5.0455

MULLIKEN ATOMIC CHARGES
-----------------------
   0 C :   -0.591190
   1 C :    0.483310
   2 H :   -0.126957
   3 H :   -0.017907
   4 C :    0.881293
   5 H :   -0.223379
   6 H :   -0.138185
   7 H :   -0.163832
   8 H :    0.006225
   9 H :   -0.006730
  10 H :   -0.102648
Sum of atomic charges:    0.0000000

LOEWDIN ATOMIC CHARGES
----------------------
   0 C :   -0.118060
   1 C :    0.103336
   2 H :    0.020850
   3 H :    0.023337
   4 C :    0.113086
   5 H :   -0.032478
   6 H :   -0.025742
   7 H :   -0.040164
   8 H :   -0.013479
   9 H :   -0.009610
  10 H :   -0.021075

  Mayer bond orders larger than 0.100000
B(  0-C ,  1-C ) :   1.2125 B(  0-C ,  2-H ) :   1.0248 B(  0-C ,  3-H ) :   0.9369
B(  0-C ,  4-C ) :   1.2006 B(  0-C ,  5-H ) :   0.1663 B(  0-C ,  6-H ) :   0.1908
B(  0-C ,  7-H ) :   0.2415 B(  0-C ,  8-H ) :   0.1299 B(  0-C ,  9-H ) :   0.1441
B(  0-C , 10-H ) :   0.1600 B(  1-C ,  8-H ) :   0.8667 B(  1-C ,  9-H ) :   0.8499
B(  1-C , 10-H ) :   0.8860 B(  4-C ,  5-H ) :   0.8024 B(  4-C ,  6-H ) :   0.7408
B(  4-C ,  7-H ) :   0.7662

Dispersion correction           -0.001406904
FINAL SINGLE POINT ENERGY      -119.008738936496

DIPOLE MOMENT
-------------
                                X             Y             Z
Electronic contribution:     -0.14705       0.46691       0.10647
Nuclear contribution   :      0.13334      -0.45108      -0.10852
                        -----------------------------------------
Total Dipole Moment    :     -0.01371       0.01582      -0.00205
                        -----------------------------------------
Magnitude (a.u.)       :      0.02104
Magnitude (Debye)      :      0.05347

Rotational constants in cm-1:     0.972269     0.310387     0.269029
Rotational constants in MHz : 29147.878530  9305.178981  8065.286472

                             ****ORCA TERMINATED NORMALLY****
TOTAL RUN TIME: 0 days 0 hours 0 minutes 6 seconds 209 msec
