                         Program Version 5.0.0 -  RELEASE  -
|  1> !wB97X-D3 RIJCOSX def2-SVPD def2/J TightSCF CPCM(Water) xyzfile
|  2>
|  3> *xyzfile 0 1 D.xyz
|  4>
|  5> %MaxCore 64000
|  6>
|  7> %pal nprocs 18
|  8> end
|  9>
| 10> %scf
| 11>   MaxIter 150
| 12> end
| 13>
| 14>
| 15>                          ****END OF INPUT****

CARTESIAN COORDINATES (ANGSTROEM)
---------------------------------
  C     -2.120502    0.885196    1.789506
  C     -0.778939    0.171966    1.804965
  H     -2.324193    1.472649    2.686078
  H     -2.187698    1.541272    0.919482
  C     -3.176900   -0.159484    1.610700
  H      0.015695    0.910767    1.939153
  H     -0.743553   -0.506827    2.665420
  C     -0.602493   -0.630712    0.492240
  H      0.313894   -1.240346    0.603498
  H     -0.363829    0.113322   -0.301169
  F     -1.712061   -1.376836    0.202535
  H     -4.064736    0.231272    1.286754
  H     -3.344073   -0.671511    2.484928
  H     -2.716861   -0.781886    0.935880

 Total Charge           Charge          ....    0
 Multiplicity           Mult            ....    1
 Number of Electrons    NEL             ....   42
 Basis Dimension        Dim             ....  175

ORBITAL ENERGIES
----------------

  NO   OCC          E(Eh)            E(eV)
   0   2.0000     -24.807767      -675.0537
   1   2.0000     -10.368678      -282.1461
   2   2.0000     -10.285744      -279.8893
   3   2.0000     -10.270905      -279.4855
   4   2.0000     -10.214958      -277.9631
   5   2.0000      -1.333041       -36.2739
   6   2.0000      -0.913009       -24.8442
   7   2.0000      -0.840048       -22.8589
   8   2.0000      -0.739778       -20.1304
   9   2.0000      -0.696125       -18.9425
  10   2.0000      -0.633865       -17.2484
  11   2.0000      -0.627284       -17.0693
  12   2.0000      -0.589583       -16.0434
  13   2.0000      -0.537542       -14.6273
  14   2.0000      -0.511783       -13.9263
  15   2.0000      -0.500556       -13.6208
  16   2.0000      -0.471072       -12.8185
  17   2.0000      -0.437508       -11.9052
  18   2.0000      -0.419212       -11.4073
  19   2.0000      -0.412262       -11.2182
  20   2.0000      -0.368962       -10.0400
  21   0.0000       0.099198         2.6993
  22   0.0000       0.122937         3.3453
  23   0.0000       0.124325         3.3831
  24   0.0000       0.132893         3.6162
  25   0.0000       0.161462         4.3936

MULLIKEN ATOMIC CHARGES
-----------------------
   0 C :   -0.282126
   1 C :   -0.071119
   2 H :   -0.228985
   3 H :    0.016322
   4 C :    1.748485
   5 H :   -0.095930
   6 H :    0.045206
   7 C :    0.694884
   8 H :   -0.005776
   9 H :    0.053625
  10 F :   -0.650221
  11 H :   -0.128391
  12 H :   -0.079332
  13 H :   -1.016643
Sum of atomic charges:    0.0000000

LOEWDIN ATOMIC CHARGES
----------------------
   0 C :   -0.062540
   1 C :   -0.016049
   2 H :    0.017892
   3 H :    0.028042
   4 C :    0.135593
   5 H :    0.030955
   6 H :    0.033319
   7 C :    0.165475
   8 H :    0.041842
   9 H :    0.050950
  10 F :   -0.208066
  11 H :   -0.031691
  12 H :   -0.023177
  13 H :   -0.162545

  Mayer bond orders larger than 0.100000
B(  0-C ,  1-C ) :   1.1026 B(  0-C ,  2-H ) :   1.0475 B(  0-C ,  3-H ) :   0.8905
B(  0-C ,  4-C ) :   0.9897 B(  0-C , 11-H ) :   0.1619 B(  0-C , 12-H ) :   0.2194
B(  0-C , 13-H ) :   0.4290 B(  1-C ,  5-H ) :   0.9745 B(  1-C ,  6-H ) :   0.9024
B(  1-C ,  7-C ) :   1.2105 B(  1-C ,  8-H ) :   0.1100 B(  1-C ,  9-H ) :   0.1049
B(  1-C , 10-F ) :   0.1223 B(  4-C , 10-F ) :  -0.1576 B(  4-C , 11-H ) :   0.5641
B(  4-C , 12-H ) :   0.3686 B(  4-C , 13-H ) :  -0.2910 B(  5-H ,  7-C ) :   0.1048
B(  7-C ,  8-H ) :   0.8975 B(  7-C ,  9-H ) :   0.8948 B(  7-C , 10-F ) :   0.6529
B( 10-F , 13-H ) :   0.3307 B( 11-H , 12-H ) :  -0.1075 B( 11-H , 13-H ) :   0.2153
B( 12-H , 13-H ) :   0.4381

Dispersion correction           -0.003160716
FINAL SINGLE POINT ENERGY      -257.385135237059

DIPOLE MOMENT
-------------
                                X             Y             Z
Electronic contribution:      1.11950      -4.10594      -3.73144
Nuclear contribution   :     -0.20666       4.43855       3.76066
                        -----------------------------------------
Total Dipole Moment    :      0.91284       0.33260       0.02922
                        -----------------------------------------
Magnitude (a.u.)       :      0.97198
Magnitude (Debye)      :      2.47058

Rotational constants in cm-1:     0.236353     0.155239     0.105045
Rotational constants in MHz :  7085.692869  4653.957069  3149.180346

                             ****ORCA TERMINATED NORMALLY****
TOTAL RUN TIME: 0 days 0 hours 0 minutes 11 seconds 409 msec
