                         Program Version 5.0.0 -  RELEASE  -
|  1> !wB97X-D3 RIJCOSX def2-SVPD def2/J TightSCF CPCM(Water)
|  2> *xyz -1 1
|  3> C          0.70466        1.44313       -4.50363
|  4> C          1.72854        1.42432       -5.63944
|  5> H          2.64672        1.95379       -5.38105
|  6> H          1.29992        1.93061       -6.50361
|  7> S          2.25263       -0.18811       -6.27184
|  8> O          3.56261       -0.44446       -5.63155
|  9> O          2.34494       -0.03374       -7.69650
| 10> C          1.05255        0.69566       -3.21491
| 11> H         -0.23248        1.03293       -4.88445
| 12> H          0.51170        2.49579       -4.26797
| 13> O          1.26606       -1.15918       -5.80536
| 14> H          1.24200       -0.33323       -3.43942
| 15> H          0.23391        0.76629       -2.52954
| 16> H          1.92506        1.13113       -2.77446
| 17> *
| 18>
| 19> %MaxCore 64000
| 20>
| 21> %pal nprocs 8
| 22> end
| 23>
| 24> %scf
| 25>   MaxIter 150
| 26> end
| 27>
| 28>
| 29>                          ****END OF INPUT****

CARTESIAN COORDINATES (ANGSTROEM)
---------------------------------
  C      0.704660    1.443130   -4.503630
  C      1.728540    1.424320   -5.639440
  H      2.646720    1.953790   -5.381050
  H      1.299920    1.930610   -6.503610
  S      2.252630   -0.188110   -6.271840
  O      3.562610   -0.444460   -5.631550
  O      2.344940   -0.033740   -7.696500
  C      1.052550    0.695660   -3.214910
  H     -0.232480    1.032930   -4.884450
  H      0.511700    2.495790   -4.267970
  O      1.266060   -1.159180   -5.805360
  H      1.242000   -0.333230   -3.439420
  H      0.233910    0.766290   -2.529540
  H      1.925060    1.131130   -2.774460

 Total Charge           Charge          ....   -1
 Multiplicity           Mult            ....    1
 Number of Electrons    NEL             ....   66
 Basis Dimension        Dim             ....  212

ORBITAL ENERGIES
----------------

  NO   OCC          E(Eh)            E(eV)
   0   2.0000     -89.152063     -2425.9510
   1   2.0000     -19.210043      -522.7318
   2   2.0000     -19.202407      -522.5241
   3   2.0000     -19.197044      -522.3781
   4   2.0000     -10.296719      -280.1880
   5   2.0000     -10.286520      -279.9104
   6   2.0000     -10.263784      -279.2918
   7   2.0000      -8.226328      -223.8498
   8   2.0000      -6.186166      -168.3341
   9   2.0000      -6.186108      -168.3326
  10   2.0000      -6.184492      -168.2886
  11   2.0000      -1.228811       -33.4376
  12   2.0000      -1.087276       -29.5863
  13   2.0000      -1.065222       -28.9862
  14   2.0000      -0.899952       -24.4890
  15   2.0000      -0.814153       -22.1542
  16   2.0000      -0.714816       -19.4511
  17   2.0000      -0.646968       -17.6049
  18   2.0000      -0.589509       -16.0413
  19   2.0000      -0.565622       -15.3914
  20   2.0000      -0.556218       -15.1355
  21   2.0000      -0.539210       -14.6726
  22   2.0000      -0.530883       -14.4461
  23   2.0000      -0.498493       -13.5647
  24   2.0000      -0.454151       -12.3581
  25   2.0000      -0.445560       -12.1243
  26   2.0000      -0.436066       -11.8659
  27   2.0000      -0.432388       -11.7659
  28   2.0000      -0.421120       -11.4593
  29   2.0000      -0.389534       -10.5998
  30   2.0000      -0.379136       -10.3168
  31   2.0000      -0.367309        -9.9950
  32   2.0000      -0.345159        -9.3923
  33   0.0000       0.081864         2.2276
  34   0.0000       0.100294         2.7291
  35   0.0000       0.101043         2.7495
  36   0.0000       0.103931         2.8281
  37   0.0000       0.137560         3.7432

MULLIKEN ATOMIC CHARGES
-----------------------
   0 C :   -0.316222
   1 C :    0.009124
   2 H :    0.038690
   3 H :    0.055564
   4 S :    1.272308
   5 O :   -0.847156
   6 O :   -0.825414
   7 C :    0.722333
   8 H :   -0.005221
   9 H :   -0.084955
  10 O :   -0.845581
  11 H :   -0.167423
  12 H :    0.006681
  13 H :   -0.012727
Sum of atomic charges:   -1.0000000

LOEWDIN ATOMIC CHARGES
----------------------
   0 C :   -0.083425
   1 C :   -0.067344
   2 H :    0.016815
   3 H :    0.009628
   4 S :    0.860137
   5 O :   -0.636704
   6 O :   -0.599163
   7 C :    0.124126
   8 H :    0.020979
   9 H :    0.027991
  10 O :   -0.606434
  11 H :   -0.040663
  12 H :   -0.013556
  13 H :   -0.012387

  Mayer bond orders larger than 0.100000
B(  0-C ,  1-C ) :   1.2809 B(  0-C ,  2-H ) :   0.1200 B(  0-C ,  3-H ) :   0.1330
B(  0-C ,  7-C ) :   1.2575 B(  0-C ,  8-H ) :   0.9101 B(  0-C ,  9-H ) :   0.9021
B(  0-C , 11-H ) :   0.2039 B(  0-C , 12-H ) :   0.1959 B(  0-C , 13-H ) :   0.2043
B(  1-C ,  2-H ) :   0.9275 B(  1-C ,  3-H ) :   0.8886 B(  1-C ,  4-S ) :   0.9098
B(  1-C ,  8-H ) :   0.1334 B(  1-C ,  9-H ) :   0.1388 B(  4-S ,  5-O ) :   1.2491
B(  4-S ,  6-O ) :   1.3678 B(  4-S , 10-O ) :   1.2677 B(  7-C , 11-H ) :   0.8435
B(  7-C , 12-H ) :   0.7606 B(  7-C , 13-H ) :   0.7806

Dispersion correction           -0.004507072
FINAL SINGLE POINT ENERGY      -742.071614683618

DIPOLE MOMENT
-------------
                                X             Y             Z
Electronic contribution:      3.98997      -4.83499      -7.59481
Nuclear contribution   :     -5.44810       7.35485       9.25157
                        -----------------------------------------
Total Dipole Moment    :     -1.45813       2.51986       1.65676
                        -----------------------------------------
Magnitude (a.u.)       :      3.34973
Magnitude (Debye)      :      8.51434

Rotational constants in cm-1:     0.135801     0.054229     0.051056
Rotational constants in MHz :  4071.225075  1625.746654  1530.611411

                             ****ORCA TERMINATED NORMALLY****
TOTAL RUN TIME: 0 days 0 hours 0 minutes 22 seconds 602 msec
