                         Program Version 5.0.0 -  RELEASE  -
|  1> !wB97X-D3 RIJCOSX def2-SVPD def2/J TightSCF CPCM(Water)
|  2> *xyz 1 1
|  3> C          2.91632       -1.24259       -1.54313
|  4> C          3.46659       -1.59097       -2.88908
|  5> N          4.65227       -1.14316       -3.25969
|  6> N          2.75226       -2.29204       -3.72803
|  7> H          1.77836       -2.48960       -3.51274
|  8> H          2.94861       -2.20854       -4.71681
|  9> H          5.14672       -0.51251       -2.63385
| 10> H          4.78303       -1.00720       -4.25350
| 11> C          2.80408        0.29070       -1.35924
| 12> C          2.38838        1.09367       -2.59711
| 13> H          3.76342        0.67472       -0.99989
| 14> H          2.09479        0.46122       -0.54576
| 15> H          1.94047       -1.71653       -1.44116
| 16> H          3.55857       -1.66343       -0.76637
| 17> H          3.08894        0.91965       -3.38694
| 18> H          2.37301        2.13633       -2.35728
| 19> H          1.41303        0.78551       -2.91115
| 20> *
| 21>
| 22> %MaxCore 64000
| 23>
| 24> %pal nprocs 8
| 25> end
| 26>
| 27> %scf
| 28>   MaxIter 150
| 29> end
| 30>
| 31>
| 32>                          ****END OF INPUT****

CARTESIAN COORDINATES (ANGSTROEM)
---------------------------------
  C      2.916320   -1.242590   -1.543130
  C      3.466590   -1.590970   -2.889080
  N      4.652270   -1.143160   -3.259690
  N      2.752260   -2.292040   -3.728030
  H      1.778360   -2.489600   -3.512740
  H      2.948610   -2.208540   -4.716810
  H      5.146720   -0.512510   -2.633850
  H      4.783030   -1.007200   -4.253500
  C      2.804080    0.290700   -1.359240
  C      2.388380    1.093670   -2.597110
  H      3.763420    0.674720   -0.999890
  H      2.094790    0.461220   -0.545760
  H      1.940470   -1.716530   -1.441160
  H      3.558570   -1.663430   -0.766370
  H      3.088940    0.919650   -3.386940
  H      2.373010    2.136330   -2.357280
  H      1.413030    0.785510   -2.911150

 Total Charge           Charge          ....    1
 Multiplicity           Mult            ....    1
 Number of Electrons    NEL             ....   48
 Basis Dimension        Dim             ....  208

ORBITAL ENERGIES
----------------

  NO   OCC          E(Eh)            E(eV)
   0   2.0000     -14.501468      -394.6050
   1   2.0000     -14.496807      -394.4782
   2   2.0000     -10.437904      -284.0298
   3   2.0000     -10.320647      -280.8391
   4   2.0000     -10.303530      -280.3733
   5   2.0000     -10.277123      -279.6547
   6   2.0000      -1.138747       -30.9869
   7   2.0000      -1.034885       -28.1607
   8   2.0000      -0.923772       -25.1371
   9   2.0000      -0.840726       -22.8773
  10   2.0000      -0.766437       -20.8558
  11   2.0000      -0.724031       -19.7019
  12   2.0000      -0.689633       -18.7659
  13   2.0000      -0.666673       -18.1411
  14   2.0000      -0.612718       -16.6729
  15   2.0000      -0.599184       -16.3046
  16   2.0000      -0.571253       -15.5446
  17   2.0000      -0.526155       -14.3174
  18   2.0000      -0.515155       -14.0181
  19   2.0000      -0.503671       -13.7056
  20   2.0000      -0.452603       -12.3160
  21   2.0000      -0.448714       -12.2101
  22   2.0000      -0.434989       -11.8367
  23   2.0000      -0.410050       -11.1580
  24   0.0000       0.037307         1.0152
  25   0.0000       0.086944         2.3659
  26   0.0000       0.119708         3.2574
  27   0.0000       0.124119         3.3774
  28   0.0000       0.128239         3.4896

MULLIKEN ATOMIC CHARGES
-----------------------
   0 C :    0.221149
   1 C :    0.308573
   2 N :    0.001234
   3 N :   -0.014995
   4 H :    0.114881
   5 H :   -0.018690
   6 H :    0.117507
   7 H :    0.042665
   8 C :   -0.471950
   9 C :    0.660006
  10 H :    0.043158
  11 H :   -0.124870
  12 H :    0.148011
  13 H :    0.070714
  14 H :   -0.047842
  15 H :   -0.055288
  16 H :    0.005738
Sum of atomic charges:    1.0000000

LOEWDIN ATOMIC CHARGES
----------------------
   0 C :    0.056322
   1 C :   -0.059155
   2 N :    0.286045
   3 N :    0.291351
   4 H :    0.062531
   5 H :    0.060774
   6 H :    0.058600
   7 H :    0.058186
   8 C :   -0.042467
   9 C :    0.130736
  10 H :    0.025642
  11 H :    0.029115
  12 H :    0.038544
  13 H :    0.051648
  14 H :   -0.030071
  15 H :   -0.009356
  16 H :   -0.008445

  Mayer bond orders larger than 0.100000
B(  0-C ,  1-C ) :   1.2322 B(  0-C ,  8-C ) :   1.2001 B(  0-C , 11-H ) :   0.1119
B(  0-C , 12-H ) :   0.7876 B(  0-C , 13-H ) :   0.7691 B(  1-C ,  2-N ) :   1.1560
B(  1-C ,  3-N ) :   1.0982 B(  1-C , 12-H ) :   0.1376 B(  1-C , 13-H ) :   0.1880
B(  2-N ,  3-N ) :   0.1644 B(  2-N ,  6-H ) :   0.9435 B(  2-N ,  7-H ) :   1.0926
B(  3-N ,  4-H ) :   1.0027 B(  3-N ,  5-H ) :   1.1539 B(  4-H ,  5-H ) :  -0.1270
B(  6-H ,  7-H ) :  -0.1075 B(  8-C ,  9-C ) :   1.3071 B(  8-C , 10-H ) :   0.9194
B(  8-C , 11-H ) :   1.0088 B(  8-C , 12-H ) :   0.1383 B(  8-C , 14-H ) :   0.2110
B(  8-C , 15-H ) :   0.2131 B(  8-C , 16-H ) :   0.1812 B(  9-C , 14-H ) :   0.8338
B(  9-C , 15-H ) :   0.7716 B(  9-C , 16-H ) :   0.7987

Dispersion correction           -0.004872023
FINAL SINGLE POINT ENERGY      -268.190894785507

DIPOLE MOMENT
-------------
                                X             Y             Z
Electronic contribution:      2.13079      -4.75451      -2.17822
Nuclear contribution   :     -1.81078       3.96608       0.97433
                        -----------------------------------------
Total Dipole Moment    :      0.32002      -0.78844      -1.20389
                        -----------------------------------------
Magnitude (a.u.)       :      1.47424
Magnitude (Debye)      :      3.74723

Rotational constants in cm-1:     0.170042     0.080945     0.078209
Rotational constants in MHz :  5097.737821  2426.678005  2344.636232

                             ****ORCA TERMINATED NORMALLY****
TOTAL RUN TIME: 0 days 0 hours 0 minutes 21 seconds 385 msec
