                         Program Version 5.0.0 -  RELEASE  -
|  1> !wB97X-D3 RIJCOSX def2-SVPD def2/J TightSCF CPCM(Water) xyzfile
|  2>
|  3> *xyzfile 0 1 B.xyz
|  4>
|  5> %MaxCore 64000
|  6>
|  7> %pal nprocs 18
|  8> end
|  9>
| 10> %scf
| 11>   MaxIter 150
| 12> end
| 13>
| 14>
| 15>                          ****END OF INPUT****

CARTESIAN COORDINATES (ANGSTROEM)
---------------------------------
  C      2.916324   -1.242589   -1.543125
  C      0.704661    1.443129   -4.503630
  C      1.728539    1.424320   -5.639443
  H      2.646718    1.953794   -5.381054
  H      1.299916    1.930613   -6.503614
  S      2.252625   -0.188115   -6.271840
  C      3.466585   -1.590971   -2.889082
  N      4.652275   -1.143164   -3.259692
  N      2.752264   -2.292043   -3.728029
  H      1.778364   -2.489604   -3.512738
  H      2.948612   -2.208544   -4.716813
  H      5.146723   -0.512508   -2.633852
  H      4.783030   -1.007203   -4.253498
  O      3.562607   -0.444464   -5.631552
  O      2.344944   -0.033742   -7.696501
  C      2.804084    0.290698   -1.359243
  C      1.052550    0.695659   -3.214915
  H     -0.232483    1.032925   -4.884449
  H      0.511700    2.495794   -4.267966
  C      2.388380    1.093669   -2.597108
  H      3.763425    0.674718   -0.999889
  H      2.094788    0.461222   -0.545756
  O      1.266058   -1.159177   -5.805365
  H      3.167316    1.013242   -3.359430
  H      2.357690    2.149375   -2.310997
  H      1.039284   -0.368429   -3.449329
  H      0.250787    0.865605   -2.488283
  H      1.940472   -1.716529   -1.441161
  H      3.558569   -1.663433   -0.766371

 Total Charge           Charge          ....    0
 Multiplicity           Mult            ....    1
 Number of Electrons    NEL             ....  112
 Basis Dimension        Dim             ....  404

ORBITAL ENERGIES
----------------

  NO   OCC          E(Eh)            E(eV)
   0   2.0000     -89.164178     -2426.2806
   1   2.0000     -19.217123      -522.9245
   2   2.0000     -19.211769      -522.7788
   3   2.0000     -19.211693      -522.7768
   4   2.0000     -14.482277      -394.0828
   5   2.0000     -14.478236      -393.9728
   6   2.0000     -10.422361      -283.6069
   7   2.0000     -10.313947      -280.6568
   8   2.0000     -10.302143      -280.3356
   9   2.0000     -10.298463      -280.2354
  10   2.0000     -10.289501      -279.9916
  11   2.0000     -10.282945      -279.8132
  12   2.0000     -10.279192      -279.7110
  13   2.0000      -8.237188      -224.1453
  14   2.0000      -6.197393      -168.6396
  15   2.0000      -6.196927      -168.6270
  16   2.0000      -6.195254      -168.5814
  17   2.0000      -1.239713       -33.7343
  18   2.0000      -1.123796       -30.5801
  19   2.0000      -1.096070       -29.8256
  20   2.0000      -1.079988       -29.3880
  21   2.0000      -1.018996       -27.7283
  22   2.0000      -0.931921       -25.3589
  23   2.0000      -0.901926       -24.5427
  24   2.0000      -0.852291       -23.1920
  25   2.0000      -0.798127       -21.7182
  26   2.0000      -0.756046       -20.5730
  27   2.0000      -0.726477       -19.7685
  28   2.0000      -0.689302       -18.7569
  29   2.0000      -0.679797       -18.4982
  30   2.0000      -0.666866       -18.1463
  31   2.0000      -0.640049       -17.4166
  32   2.0000      -0.606766       -16.5109
  33   2.0000      -0.597197       -16.2506
  34   2.0000      -0.589304       -16.0358
  35   2.0000      -0.578998       -15.7553
  36   2.0000      -0.562468       -15.3055
  37   2.0000      -0.561443       -15.2777
  38   2.0000      -0.546278       -14.8650
  39   2.0000      -0.539687       -14.6856
  40   2.0000      -0.509100       -13.8533
  41   2.0000      -0.503936       -13.7128
  42   2.0000      -0.496377       -13.5071
  43   2.0000      -0.468860       -12.7583
  44   2.0000      -0.465329       -12.6622
  45   2.0000      -0.455702       -12.4003
  46   2.0000      -0.444732       -12.1018
  47   2.0000      -0.435826       -11.8594
  48   2.0000      -0.421989       -11.4829
  49   2.0000      -0.421275       -11.4635
  50   2.0000      -0.407858       -11.0984
  51   2.0000      -0.396924       -10.8008
  52   2.0000      -0.391971       -10.6661
  53   2.0000      -0.387760       -10.5515
  54   2.0000      -0.373859       -10.1732
  55   2.0000      -0.357861        -9.7379
  56   0.0000       0.050934         1.3860
  57   0.0000       0.080506         2.1907
  58   0.0000       0.094097         2.5605
  59   0.0000       0.096591         2.6284
  60   0.0000       0.097786         2.6609

MULLIKEN ATOMIC CHARGES
-----------------------
   0 C :    0.305119
   1 C :    0.432402
   2 C :    0.095307
   3 H :    0.149442
   4 H :   -0.141691
   5 S :    1.293756
   6 C :    0.293499
   7 N :    0.154573
   8 N :    0.177021
   9 H :    0.146404
  10 H :   -0.151786
  11 H :    0.123716
  12 H :   -0.194252
  13 O :   -0.875475
  14 O :   -0.813423
  15 C :    0.306699
  16 C :    0.181667
  17 H :    0.020888
  18 H :   -0.024661
  19 C :   -0.104936
  20 H :    0.039457
  21 H :   -0.057850
  22 O :   -0.898060
  23 H :   -0.008264
  24 H :   -0.148360
  25 H :   -0.345355
  26 H :   -0.049220
  27 H :    0.200145
  28 H :   -0.106764
Sum of atomic charges:    0.0000000

LOEWDIN ATOMIC CHARGES
----------------------
   0 C :    0.062237
   1 C :   -0.030420
   2 C :   -0.049982
   3 H :    0.015253
   4 H :    0.012161
   5 S :    0.921930
   6 C :   -0.054086
   7 N :    0.291130
   8 N :    0.292507
   9 H :    0.050686
  10 H :   -0.026911
  11 H :    0.056949
  12 H :   -0.033321
  13 O :   -0.575596
  14 O :   -0.575000
  15 C :    0.001922
  16 C :   -0.019247
  17 H :    0.026617
  18 H :    0.034174
  19 C :   -0.021394
  20 H :    0.027473
  21 H :    0.031067
  22 O :   -0.570670
  23 H :   -0.003380
  24 H :    0.034528
  25 H :   -0.017468
  26 H :    0.035117
  27 H :    0.036262
  28 H :    0.047463

  Mayer bond orders larger than 0.100000
B(  0-C ,  6-C ) :   1.2006 B(  0-C , 15-C ) :   1.1714 B(  0-C , 21-H ) :   0.1070
B(  0-C , 27-H ) :   0.7506 B(  0-C , 28-H ) :   0.7533 B(  1-C ,  2-C ) :   1.2337
B(  1-C ,  4-H ) :   0.1981 B(  1-C , 16-C ) :   1.2350 B(  1-C , 17-H ) :   0.6862
B(  1-C , 18-H ) :   0.7660 B(  2-C ,  3-H ) :   0.8710 B(  2-C ,  4-H ) :   0.8970
B(  2-C ,  5-S ) :   0.9297 B(  2-C , 17-H ) :   0.1166 B(  2-C , 18-H ) :   0.1526
B(  5-S , 13-O ) :   1.1811 B(  5-S , 14-O ) :   1.3993 B(  5-S , 22-O ) :   1.2426
B(  6-C ,  7-N ) :   1.0521 B(  6-C ,  8-N ) :   1.1321 B(  6-C , 27-H ) :   0.1648
B(  6-C , 28-H ) :   0.2511 B(  7-N ,  8-N ) :   0.1602 B(  7-N , 11-H ) :   0.9736
B(  7-N , 12-H ) :   1.0962 B(  8-N ,  9-H ) :   0.9307 B(  8-N , 10-H ) :   1.0835
B(  9-H , 10-H ) :  -0.1297 B( 10-H , 13-O ) :   0.1056 B( 11-H , 12-H ) :  -0.1458
B( 12-H , 13-O ) :   0.1257 B( 15-C , 19-C ) :   1.2573 B( 15-C , 20-H ) :   0.7297
B( 15-C , 21-H ) :   0.8614 B( 15-C , 23-H ) :   0.1304 B( 15-C , 27-H ) :   0.1101
B( 16-C , 17-H ) :   0.2654 B( 16-C , 19-C ) :   1.2477 B( 16-C , 23-H ) :   0.1301
B( 16-C , 24-H ) :   0.1726 B( 16-C , 25-H ) :   0.9137 B( 16-C , 26-H ) :   0.7345
B( 19-C , 20-H ) :   0.2315 B( 19-C , 21-H ) :   0.1591 B( 19-C , 23-H ) :   0.8775
B( 19-C , 24-H ) :   0.8617 B( 19-C , 25-H ) :   0.1194 B( 19-C , 26-H ) :   0.2068
B( 20-H , 21-H ) :  -0.1117

Dispersion correction           -0.016427544
FINAL SINGLE POINT ENERGY     -1009.081195697396

DIPOLE MOMENT
-------------
                                X             Y             Z
Electronic contribution:      2.95891      -6.10665     -12.00239
Nuclear contribution   :     -1.90023       6.18953      17.82209
                        -----------------------------------------
Total Dipole Moment    :      1.05867       0.08287       5.81970
                        -----------------------------------------
Magnitude (a.u.)       :      5.91578
Magnitude (Debye)      :     15.03673

Rotational constants in cm-1:     0.036337     0.018755     0.015005
Rotational constants in MHz :  1089.341704   562.266628   449.834770

                             ****ORCA TERMINATED NORMALLY****
TOTAL RUN TIME: 0 days 0 hours 0 minutes 58 seconds 683 msec
