                         Program Version 5.0.0 -  RELEASE  -
|  1> !wB97X-D3 RIJCOSX def2-SVPD def2/J TightSCF CPCM(Water)
|  2> *xyz 0 1
|  3> C          0.70466        1.44313       -4.50363
|  4> C          1.72854        1.42432       -5.63944
|  5> H          2.64672        1.95379       -5.38105
|  6> H          1.29992        1.93061       -6.50361
|  7> S          2.25263       -0.18811       -6.27184
|  8> F          3.56261       -0.44446       -5.63155
|  9> O          2.34494       -0.03374       -7.69650
| 10> C          1.05255        0.69566       -3.21491
| 11> H         -0.23248        1.03293       -4.88445
| 12> H          0.51170        2.49579       -4.26797
| 13> O          1.26606       -1.15918       -5.80536
| 14> H          1.24200       -0.33323       -3.43942
| 15> H          0.23391        0.76629       -2.52954
| 16> H          1.92506        1.13113       -2.77446
| 17> *
| 18>
| 19> %MaxCore 64000
| 20>
| 21> %pal nprocs 8
| 22> end
| 23>
| 24> %scf
| 25>   MaxIter 150
| 26> end
| 27>
| 28>
| 29>                          ****END OF INPUT****

CARTESIAN COORDINATES (ANGSTROEM)
---------------------------------
  C      0.704660    1.443130   -4.503630
  C      1.728540    1.424320   -5.639440
  H      2.646720    1.953790   -5.381050
  H      1.299920    1.930610   -6.503610
  S      2.252630   -0.188110   -6.271840
  F      3.562610   -0.444460   -5.631550
  O      2.344940   -0.033740   -7.696500
  C      1.052550    0.695660   -3.214910
  H     -0.232480    1.032930   -4.884450
  H      0.511700    2.495790   -4.267970
  O      1.266060   -1.159180   -5.805360
  H      1.242000   -0.333230   -3.439420
  H      0.233910    0.766290   -2.529540
  H      1.925060    1.131130   -2.774460

 Total Charge           Charge          ....    0
 Multiplicity           Mult            ....    1
 Number of Electrons    NEL             ....   66
 Basis Dimension        Dim             ....  212

ORBITAL ENERGIES
----------------

  NO   OCC          E(Eh)            E(eV)
   0   2.0000     -89.237664     -2428.2803
   1   2.0000     -24.899694      -677.5551
   2   2.0000     -19.270839      -524.3862
   3   2.0000     -19.263360      -524.1827
   4   2.0000     -10.337396      -281.2949
   5   2.0000     -10.302479      -280.3447
   6   2.0000     -10.272866      -279.5389
   7   2.0000      -8.311932      -226.1792
   8   2.0000      -6.275475      -170.7644
   9   2.0000      -6.269700      -170.6072
  10   2.0000      -6.267650      -170.5514
  11   2.0000      -1.459829       -39.7240
  12   2.0000      -1.239733       -33.7348
  13   2.0000      -1.142510       -31.0893
  14   2.0000      -0.930166       -25.3111
  15   2.0000      -0.853826       -23.2338
  16   2.0000      -0.803376       -21.8610
  17   2.0000      -0.731447       -19.9037
  18   2.0000      -0.673444       -18.3253
  19   2.0000      -0.666717       -18.1423
  20   2.0000      -0.659895       -17.9567
  21   2.0000      -0.595964       -16.2170
  22   2.0000      -0.574458       -15.6318
  23   2.0000      -0.557840       -15.1796
  24   2.0000      -0.545090       -14.8327
  25   2.0000      -0.523307       -14.2399
  26   2.0000      -0.501320       -13.6416
  27   2.0000      -0.470050       -12.7907
  28   2.0000      -0.459530       -12.5044
  29   2.0000      -0.441905       -12.0248
  30   2.0000      -0.436758       -11.8848
  31   2.0000      -0.426372       -11.6022
  32   2.0000      -0.417684       -11.3658
  33   0.0000       0.071666         1.9501
  34   0.0000       0.095515         2.5991
  35   0.0000       0.098023         2.6674
  36   0.0000       0.101541         2.7631
  37   0.0000       0.117562         3.1990

MULLIKEN ATOMIC CHARGES
-----------------------
   0 C :   -0.333143
   1 C :   -0.087223
   2 H :    0.121983
   3 H :    0.124468
   4 S :    1.498568
   5 F :   -0.399849
   6 O :   -0.714324
   7 C :    0.684674
   8 H :    0.023488
   9 H :   -0.051543
  10 O :   -0.743165
  11 H :   -0.155024
  12 H :    0.023334
  13 H :    0.007756
Sum of atomic charges:    0.0000000

LOEWDIN ATOMIC CHARGES
----------------------
   0 C :   -0.069079
   1 C :   -0.024942
   2 H :    0.035464
   3 H :    0.032551
   4 S :    1.137683
   5 F :   -0.265414
   6 O :   -0.493322
   7 C :    0.133027
   8 H :    0.029690
   9 H :    0.039718
  10 O :   -0.504421
  11 H :   -0.035250
  12 H :   -0.007774
  13 H :   -0.007932

  Mayer bond orders larger than 0.100000
B(  0-C ,  1-C ) :   1.3181 B(  0-C ,  2-H ) :   0.1165 B(  0-C ,  3-H ) :   0.1271
B(  0-C ,  7-C ) :   1.2708 B(  0-C ,  8-H ) :   0.9146 B(  0-C ,  9-H ) :   0.9059
B(  0-C , 11-H ) :   0.1896 B(  0-C , 12-H ) :   0.1937 B(  0-C , 13-H ) :   0.1970
B(  1-C ,  2-H ) :   0.9141 B(  1-C ,  3-H ) :   0.8873 B(  1-C ,  4-S ) :   0.9613
B(  1-C ,  8-H ) :   0.1347 B(  1-C ,  9-H ) :   0.1334 B(  4-S ,  5-F ) :   0.6353
B(  4-S ,  6-O ) :   1.5473 B(  4-S , 10-O ) :   1.4626 B(  7-C , 11-H ) :   0.8489
B(  7-C , 12-H ) :   0.7628 B(  7-C , 13-H ) :   0.7945

Dispersion correction           -0.004443396
FINAL SINGLE POINT ENERGY      -766.481434153996

DIPOLE MOMENT
-------------
                                X             Y             Z
Electronic contribution:      7.49987      -6.23368      -7.97187
Nuclear contribution   :     -7.21372       8.00417       9.21533
                        -----------------------------------------
Total Dipole Moment    :      0.28615       1.77049       1.24346
                        -----------------------------------------
Magnitude (a.u.)       :      2.18236
Magnitude (Debye)      :      5.54713

Rotational constants in cm-1:     0.129205     0.053290     0.050128
Rotational constants in MHz :  3873.458819  1597.595736  1502.810344

                             ****ORCA TERMINATED NORMALLY****
TOTAL RUN TIME: 0 days 0 hours 0 minutes 22 seconds 850 msec
