                         Program Version 5.0.0 -  RELEASE  -
|  1> !wB97X-D3 RIJCOSX def2-SVPD def2/J TightSCF CPCM(Water)
|  2> *xyz 0 1
|  3> C          2.91632       -1.24259       -1.54313
|  4> C          3.46659       -1.59097       -2.88908
|  5> C          4.65227       -1.14316       -3.25969
|  6> N          2.75226       -2.29204       -3.72803
|  7> H          1.77836       -2.48960       -3.51274
|  8> H          2.94861       -2.20854       -4.71681
|  9> H          5.14672       -0.51251       -2.63385
| 10> H          4.78303       -1.00720       -4.25350
| 11> C          2.80408        0.29070       -1.35924
| 12> C          2.38838        1.09367       -2.59711
| 13> H          3.76342        0.67472       -0.99989
| 14> H          2.09479        0.46122       -0.54576
| 15> H          1.94047       -1.71653       -1.44116
| 16> H          3.55857       -1.66343       -0.76637
| 17> H          3.08894        0.91965       -3.38694
| 18> H          2.37301        2.13633       -2.35728
| 19> H          1.41303        0.78551       -2.91115
| 20> *
| 21>
| 22> %MaxCore 64000
| 23>
| 24> %pal nprocs 8
| 25> end
| 26>
| 27> %scf
| 28>   MaxIter 150
| 29> end
| 30>
| 31>
| 32>                          ****END OF INPUT****

CARTESIAN COORDINATES (ANGSTROEM)
---------------------------------
  C      2.916320   -1.242590   -1.543130
  C      3.466590   -1.590970   -2.889080
  C      4.652270   -1.143160   -3.259690
  N      2.752260   -2.292040   -3.728030
  H      1.778360   -2.489600   -3.512740
  H      2.948610   -2.208540   -4.716810
  H      5.146720   -0.512510   -2.633850
  H      4.783030   -1.007200   -4.253500
  C      2.804080    0.290700   -1.359240
  C      2.388380    1.093670   -2.597110
  H      3.763420    0.674720   -0.999890
  H      2.094790    0.461220   -0.545760
  H      1.940470   -1.716530   -1.441160
  H      3.558570   -1.663430   -0.766370
  H      3.088940    0.919650   -3.386940
  H      2.373010    2.136330   -2.357280
  H      1.413030    0.785510   -2.911150

 Total Charge           Charge          ....    0
 Multiplicity           Mult            ....    1
 Number of Electrons    NEL             ....   48
 Basis Dimension        Dim             ....  208

ORBITAL ENERGIES
----------------

  NO   OCC          E(Eh)            E(eV)
   0   2.0000     -14.435338      -392.8055
   1   2.0000     -10.315524      -280.6997
   2   2.0000     -10.285614      -279.8858
   3   2.0000     -10.283684      -279.8333
   4   2.0000     -10.264195      -279.3030
   5   2.0000     -10.219074      -278.0752
   6   2.0000      -1.043989       -28.4084
   7   2.0000      -0.902055       -24.5462
   8   2.0000      -0.836286       -22.7565
   9   2.0000      -0.795074       -21.6351
  10   2.0000      -0.709745       -19.3131
  11   2.0000      -0.659663       -17.9503
  12   2.0000      -0.614771       -16.7288
  13   2.0000      -0.583504       -15.8779
  14   2.0000      -0.554579       -15.0909
  15   2.0000      -0.534261       -14.5380
  16   2.0000      -0.495104       -13.4725
  17   2.0000      -0.487214       -13.2578
  18   2.0000      -0.461928       -12.5697
  19   2.0000      -0.458598       -12.4791
  20   2.0000      -0.427146       -11.6232
  21   2.0000      -0.415990       -11.3197
  22   2.0000      -0.414479       -11.2785
  23   2.0000      -0.282642        -7.6911
  24   0.0000       0.095303         2.5933
  25   0.0000       0.101281         2.7560
  26   0.0000       0.125773         3.4225
  27   0.0000       0.128130         3.4866
  28   0.0000       0.137736         3.7480

MULLIKEN ATOMIC CHARGES
-----------------------
   0 C :    0.435789
   1 C :   -0.502719
   2 C :    0.477660
   3 N :    0.065765
   4 H :    0.007389
   5 H :   -0.037745
   6 H :   -0.112977
   7 H :   -0.309138
   8 C :   -0.450206
   9 C :    0.721881
  10 H :    0.010515
  11 H :   -0.157690
  12 H :    0.031370
  13 H :   -0.001328
  14 H :   -0.080472
  15 H :   -0.093269
  16 H :   -0.004823
Sum of atomic charges:   -0.0000000

LOEWDIN ATOMIC CHARGES
----------------------
   0 C :    0.017515
   1 C :   -0.278307
   2 C :    0.128178
   3 N :    0.179753
   4 H :    0.018970
   5 H :    0.022902
   6 H :   -0.083554
   7 H :   -0.085835
   8 C :   -0.056876
   9 C :    0.122670
  10 H :    0.016799
  11 H :    0.016768
  12 H :    0.018535
  13 H :    0.030552
  14 H :   -0.036566
  15 H :   -0.017179
  16 H :   -0.014326

  Mayer bond orders larger than 0.100000
B(  0-C ,  1-C ) :   1.2072 B(  0-C ,  8-C ) :   1.1865 B(  0-C , 11-H ) :   0.1658
B(  0-C , 12-H ) :   0.6820 B(  0-C , 13-H ) :   0.7827 B(  1-C ,  2-C ) :   2.1886
B(  1-C ,  3-N ) :   1.0615 B(  1-C ,  6-H ) :   0.2051 B(  1-C ,  7-H ) :   0.2795
B(  1-C , 12-H ) :   0.2281 B(  1-C , 13-H ) :   0.1697 B(  2-C ,  3-N ) :   0.2141
B(  2-C ,  6-H ) :   0.6790 B(  2-C ,  7-H ) :   0.7266 B(  3-N ,  4-H ) :   1.0065
B(  3-N ,  5-H ) :   1.0415 B(  4-H ,  5-H ) :  -0.1163 B(  8-C ,  9-C ) :   1.2811
B(  8-C , 10-H ) :   0.9078 B(  8-C , 11-H ) :   0.9736 B(  8-C , 12-H ) :   0.1410
B(  8-C , 13-H ) :   0.1104 B(  8-C , 14-H ) :   0.2424 B(  8-C , 15-H ) :   0.2238
B(  8-C , 16-H ) :   0.1946 B(  9-C , 14-H ) :   0.8312 B(  9-C , 15-H ) :   0.7661
B(  9-C , 16-H ) :   0.7786

Dispersion correction           -0.004829793
FINAL SINGLE POINT ENERGY      -251.638605781526

DIPOLE MOMENT
-------------
                                X             Y             Z
Electronic contribution:      0.15494      -3.77546      -0.96996
Nuclear contribution   :     -1.45921       3.88617       0.81775
                        -----------------------------------------
Total Dipole Moment    :     -1.30427       0.11070      -0.15221
                        -----------------------------------------
Magnitude (a.u.)       :      1.31778
Magnitude (Debye)      :      3.34954

Rotational constants in cm-1:     0.176264     0.082132     0.079980
Rotational constants in MHz :  5284.261828  2462.256672  2397.741351

                             ****ORCA TERMINATED NORMALLY****
TOTAL RUN TIME: 0 days 0 hours 0 minutes 24 seconds 435 msec
