                         Program Version 5.0.0 -  RELEASE  -
|  1> !wB97X-D3 RIJCOSX def2-SVPD def2/J TightSCF CPCM(Water)
|  2> *xyz 0 1
|  3> C          0.70466        1.44313       -4.50363
|  4> C          1.72854        1.42432       -5.63944
|  5> H          2.64672        1.95379       -5.38105
|  6> H          1.29992        1.93061       -6.50361
|  7> S          2.25263       -0.18811       -6.27184
|  8> O          3.56261       -0.44446       -5.63155
|  9> F          2.34494       -0.03374       -7.69650
| 10> C          1.05255        0.69566       -3.21491
| 11> H         -0.23248        1.03293       -4.88445
| 12> H          0.51170        2.49579       -4.26797
| 13> O          1.26606       -1.15918       -5.80536
| 14> H          1.24200       -0.33323       -3.43942
| 15> H          0.23391        0.76629       -2.52954
| 16> H          1.92506        1.13113       -2.77446
| 17> *
| 18>
| 19> %MaxCore 64000
| 20>
| 21> %pal nprocs 8
| 22> end
| 23>
| 24> %scf
| 25>   MaxIter 150
| 26> end
| 27>
| 28>
| 29>                          ****END OF INPUT****

CARTESIAN COORDINATES (ANGSTROEM)
---------------------------------
  C      0.704660    1.443130   -4.503630
  C      1.728540    1.424320   -5.639440
  H      2.646720    1.953790   -5.381050
  H      1.299920    1.930610   -6.503610
  S      2.252630   -0.188110   -6.271840
  O      3.562610   -0.444460   -5.631550
  F      2.344940   -0.033740   -7.696500
  C      1.052550    0.695660   -3.214910
  H     -0.232480    1.032930   -4.884450
  H      0.511700    2.495790   -4.267970
  O      1.266060   -1.159180   -5.805360
  H      1.242000   -0.333230   -3.439420
  H      0.233910    0.766290   -2.529540
  H      1.925060    1.131130   -2.774460

 Total Charge           Charge          ....    0
 Multiplicity           Mult            ....    1
 Number of Electrons    NEL             ....   66
 Basis Dimension        Dim             ....  212

ORBITAL ENERGIES
----------------

  NO   OCC          E(Eh)            E(eV)
   0   2.0000     -89.240588     -2428.3599
   1   2.0000     -24.920637      -678.1250
   2   2.0000     -19.264246      -524.2068
   3   2.0000     -19.257819      -524.0319
   4   2.0000     -10.338336      -281.3204
   5   2.0000     -10.304631      -280.4033
   6   2.0000     -10.272762      -279.5361
   7   2.0000      -8.314904      -226.2600
   8   2.0000      -6.278504      -170.8468
   9   2.0000      -6.272586      -170.6857
  10   2.0000      -6.270466      -170.6281
  11   2.0000      -1.496018       -40.7087
  12   2.0000      -1.227357       -33.3981
  13   2.0000      -1.123750       -30.5788
  14   2.0000      -0.931206       -25.3394
  15   2.0000      -0.863006       -23.4836
  16   2.0000      -0.812506       -22.1094
  17   2.0000      -0.737750       -20.0752
  18   2.0000      -0.696845       -18.9621
  19   2.0000      -0.682653       -18.5759
  20   2.0000      -0.659144       -17.9362
  21   2.0000      -0.591431       -16.0937
  22   2.0000      -0.576032       -15.6746
  23   2.0000      -0.558926       -15.2092
  24   2.0000      -0.548121       -14.9151
  25   2.0000      -0.514907       -14.0113
  26   2.0000      -0.494601       -13.4588
  27   2.0000      -0.464746       -12.6464
  28   2.0000      -0.459003       -12.4901
  29   2.0000      -0.444119       -12.0851
  30   2.0000      -0.429587       -11.6897
  31   2.0000      -0.417897       -11.3716
  32   2.0000      -0.411258       -11.1909
  33   0.0000       0.070951         1.9307
  34   0.0000       0.093985         2.5575
  35   0.0000       0.098861         2.6901
  36   0.0000       0.100425         2.7327
  37   0.0000       0.116576         3.1722

MULLIKEN ATOMIC CHARGES
-----------------------
   0 C :   -0.353984
   1 C :   -0.078872
   2 H :    0.104231
   3 H :    0.140135
   4 S :    1.541796
   5 O :   -0.733261
   6 F :   -0.421236
   7 C :    0.696756
   8 H :    0.027372
   9 H :   -0.048773
  10 O :   -0.737713
  11 H :   -0.159159
  12 H :    0.020617
  13 H :    0.002092
Sum of atomic charges:    0.0000000

LOEWDIN ATOMIC CHARGES
----------------------
   0 C :   -0.063729
   1 C :   -0.028309
   2 H :    0.034831
   3 H :    0.029089
   4 S :    1.145937
   5 O :   -0.528688
   6 F :   -0.239278
   7 C :    0.134258
   8 H :    0.029920
   9 H :    0.041473
  10 O :   -0.506604
  11 H :   -0.033714
  12 H :   -0.007639
  13 H :   -0.007549

  Mayer bond orders larger than 0.100000
B(  0-C ,  1-C ) :   1.3189 B(  0-C ,  2-H ) :   0.1181 B(  0-C ,  3-H ) :   0.1390
B(  0-C ,  7-C ) :   1.2690 B(  0-C ,  8-H ) :   0.9145 B(  0-C ,  9-H ) :   0.9111
B(  0-C , 11-H ) :   0.1938 B(  0-C , 12-H ) :   0.1936 B(  0-C , 13-H ) :   0.2010
B(  1-C ,  2-H ) :   0.9384 B(  1-C ,  3-H ) :   0.8528 B(  1-C ,  4-S ) :   0.9499
B(  1-C ,  8-H ) :   0.1303 B(  1-C ,  9-H ) :   0.1300 B(  4-S ,  5-O ) :   1.4344
B(  4-S ,  6-F ) :   0.7001 B(  4-S , 10-O ) :   1.4390 B(  7-C , 11-H ) :   0.8481
B(  7-C , 12-H ) :   0.7626 B(  7-C , 13-H ) :   0.7895

Dispersion correction           -0.004500499
FINAL SINGLE POINT ENERGY      -766.463949705496

DIPOLE MOMENT
-------------
                                X             Y             Z
Electronic contribution:      5.07247      -5.42243     -12.01053
Nuclear contribution   :     -5.90419       7.56246      11.43606
                        -----------------------------------------
Total Dipole Moment    :     -0.83171       2.14003      -0.57447
                        -----------------------------------------
Magnitude (a.u.)       :      2.36675
Magnitude (Debye)      :      6.01579

Rotational constants in cm-1:     0.133686     0.052402     0.049175
Rotational constants in MHz :  4007.807944  1570.986792  1474.216272

                             ****ORCA TERMINATED NORMALLY****
TOTAL RUN TIME: 0 days 0 hours 0 minutes 22 seconds 683 msec
