                         Program Version 5.0.0 -  RELEASE  -
|  1> !wB97X-D3 RIJCOSX def2-SVPD def2/J TightSCF CPCM(Water)
|  2> *xyz 0 1
|  3> C          2.91632       -1.24259       -1.54313
|  4> C          3.46659       -1.59097       -2.88908
|  5> N          4.65227       -1.14316       -3.25969
|  6> C          2.75226       -2.29204       -3.72803
|  7> H          1.77836       -2.48960       -3.51274
|  8> H          2.94861       -2.20854       -4.71681
|  9> H          5.14672       -0.51251       -2.63385
| 10> H          4.78303       -1.00720       -4.25350
| 11> C          2.80408        0.29070       -1.35924
| 12> C          2.38838        1.09367       -2.59711
| 13> H          3.76342        0.67472       -0.99989
| 14> H          2.09479        0.46122       -0.54576
| 15> H          1.94047       -1.71653       -1.44116
| 16> H          3.55857       -1.66343       -0.76637
| 17> H          3.08894        0.91965       -3.38694
| 18> H          2.37301        2.13633       -2.35728
| 19> H          1.41303        0.78551       -2.91115
| 20> *
| 21>
| 22> %MaxCore 64000
| 23>
| 24> %pal nprocs 8
| 25> end
| 26>
| 27> %scf
| 28>   MaxIter 150
| 29> end
| 30>
| 31>
| 32>                          ****END OF INPUT****

CARTESIAN COORDINATES (ANGSTROEM)
---------------------------------
  C      2.916320   -1.242590   -1.543130
  C      3.466590   -1.590970   -2.889080
  N      4.652270   -1.143160   -3.259690
  C      2.752260   -2.292040   -3.728030
  H      1.778360   -2.489600   -3.512740
  H      2.948610   -2.208540   -4.716810
  H      5.146720   -0.512510   -2.633850
  H      4.783030   -1.007200   -4.253500
  C      2.804080    0.290700   -1.359240
  C      2.388380    1.093670   -2.597110
  H      3.763420    0.674720   -0.999890
  H      2.094790    0.461220   -0.545760
  H      1.940470   -1.716530   -1.441160
  H      3.558570   -1.663430   -0.766370
  H      3.088940    0.919650   -3.386940
  H      2.373010    2.136330   -2.357280
  H      1.413030    0.785510   -2.911150

 Total Charge           Charge          ....    0
 Multiplicity           Mult            ....    1
 Number of Electrons    NEL             ....   48
 Basis Dimension        Dim             ....  208

ORBITAL ENERGIES
----------------

  NO   OCC          E(Eh)            E(eV)
   0   2.0000     -14.431931      -392.7128
   1   2.0000     -10.314224      -280.6643
   2   2.0000     -10.284722      -279.8615
   3   2.0000     -10.284533      -279.8564
   4   2.0000     -10.266411      -279.3633
   5   2.0000     -10.223964      -278.2082
   6   2.0000      -1.039813       -28.2948
   7   2.0000      -0.898346       -24.4452
   8   2.0000      -0.846665       -23.0389
   9   2.0000      -0.792736       -21.5715
  10   2.0000      -0.702952       -19.1283
  11   2.0000      -0.661935       -18.0122
  12   2.0000      -0.622034       -16.9264
  13   2.0000      -0.569546       -15.4981
  14   2.0000      -0.555121       -15.1056
  15   2.0000      -0.548550       -14.9268
  16   2.0000      -0.492780       -13.4092
  17   2.0000      -0.483879       -13.1670
  18   2.0000      -0.471370       -12.8266
  19   2.0000      -0.457539       -12.4503
  20   2.0000      -0.424031       -11.5385
  21   2.0000      -0.418478       -11.3874
  22   2.0000      -0.409003       -11.1295
  23   2.0000      -0.290813        -7.9134
  24   0.0000       0.094063         2.5596
  25   0.0000       0.103309         2.8112
  26   0.0000       0.122673         3.3381
  27   0.0000       0.133545         3.6340
  28   0.0000       0.136079         3.7029

MULLIKEN ATOMIC CHARGES
-----------------------
   0 C :    0.289833
   1 C :   -0.492233
   2 N :    0.115555
   3 C :    0.295464
   4 H :   -0.030669
   5 H :   -0.352225
   6 H :    0.027802
   7 H :    0.013126
   8 C :   -0.440422
   9 C :    0.739845
  10 H :    0.020991
  11 H :   -0.144456
  12 H :    0.182674
  13 H :   -0.015157
  14 H :   -0.115892
  15 H :   -0.025729
  16 H :   -0.068508
Sum of atomic charges:   -0.0000000

LOEWDIN ATOMIC CHARGES
----------------------
   0 C :    0.013147
   1 C :   -0.289547
   2 N :    0.178472
   3 C :    0.143788
   4 H :   -0.084149
   5 H :   -0.083297
   6 H :    0.018476
   7 H :    0.021449
   8 C :   -0.057748
   9 C :    0.121245
  10 H :    0.016171
  11 H :    0.017657
  12 H :    0.022497
  13 H :    0.027579
  14 H :   -0.034766
  15 H :   -0.016054
  16 H :   -0.014922

  Mayer bond orders larger than 0.100000
B(  0-C ,  1-C ) :   1.3395 B(  0-C ,  8-C ) :   1.1911 B(  0-C , 10-H ) :   0.1181
B(  0-C , 11-H ) :   0.1559 B(  0-C , 12-H ) :   0.7918 B(  0-C , 13-H ) :   0.7333
B(  1-C ,  2-N ) :   1.0622 B(  1-C ,  3-C ) :   2.1304 B(  1-C ,  4-H ) :   0.1132
B(  1-C ,  5-H ) :   0.3415 B(  1-C , 13-H ) :   0.2525 B(  2-N ,  3-C ) :   0.3156
B(  2-N ,  6-H ) :   0.9311 B(  2-N ,  7-H ) :   0.9483 B(  3-C ,  4-H ) :   0.8441
B(  3-C ,  5-H ) :   0.6905 B(  4-H ,  5-H ) :   0.1137 B(  6-H ,  7-H ) :  -0.1027
B(  8-C ,  9-C ) :   1.2778 B(  8-C , 10-H ) :   0.8958 B(  8-C , 11-H ) :   0.9865
B(  8-C , 12-H ) :   0.1408 B(  8-C , 14-H ) :   0.2271 B(  8-C , 15-H ) :   0.2095
B(  8-C , 16-H ) :   0.1899 B(  9-C , 14-H ) :   0.8317 B(  9-C , 15-H ) :   0.7446
B(  9-C , 16-H ) :   0.7932 B( 14-H , 16-H ) :   0.1192

Dispersion correction           -0.004878269
FINAL SINGLE POINT ENERGY      -251.642595265580

DIPOLE MOMENT
-------------
                                X             Y             Z
Electronic contribution:      2.35241      -2.47692      -0.44429
Nuclear contribution   :     -1.90863       3.61442       0.70697
                        -----------------------------------------
Total Dipole Moment    :      0.44379       1.13750       0.26268
                        -----------------------------------------
Magnitude (a.u.)       :      1.24894
Magnitude (Debye)      :      3.17456

Rotational constants in cm-1:     0.173428     0.083686     0.080523
Rotational constants in MHz :  5199.232598  2508.829970  2414.016775

                             ****ORCA TERMINATED NORMALLY****
TOTAL RUN TIME: 0 days 0 hours 0 minutes 24 seconds 550 msec
