                         Program Version 5.0.0 -  RELEASE  -
|  1> !wB97X-D3 RIJCOSX def2-SVPD def2/J TightSCF CPCM(Water)
|  2> *xyz 0 1
|  3> C          0.70466        1.44313       -4.50363
|  4> C          1.72854        1.42432       -5.63944
|  5> H          2.64672        1.95379       -5.38105
|  6> H          1.29992        1.93061       -6.50361
|  7> S          2.25263       -0.18811       -6.27184
|  8> O          3.56261       -0.44446       -5.63155
|  9> O          2.34494       -0.03374       -7.69650
| 10> C          1.05255        0.69566       -3.21491
| 11> H         -0.23248        1.03293       -4.88445
| 12> H          0.51170        2.49579       -4.26797
| 13> F          1.26606       -1.15918       -5.80536
| 14> H          1.24200       -0.33323       -3.43942
| 15> H          0.23391        0.76629       -2.52954
| 16> H          1.92506        1.13113       -2.77446
| 17> *
| 18>
| 19> %MaxCore 64000
| 20>
| 21> %pal nprocs 8
| 22> end
| 23>
| 24> %scf
| 25>   MaxIter 150
| 26> end
| 27>
| 28>
| 29>                          ****END OF INPUT****

CARTESIAN COORDINATES (ANGSTROEM)
---------------------------------
  C      0.704660    1.443130   -4.503630
  C      1.728540    1.424320   -5.639440
  H      2.646720    1.953790   -5.381050
  H      1.299920    1.930610   -6.503610
  S      2.252630   -0.188110   -6.271840
  O      3.562610   -0.444460   -5.631550
  O      2.344940   -0.033740   -7.696500
  C      1.052550    0.695660   -3.214910
  H     -0.232480    1.032930   -4.884450
  H      0.511700    2.495790   -4.267970
  F      1.266060   -1.159180   -5.805360
  H      1.242000   -0.333230   -3.439420
  H      0.233910    0.766290   -2.529540
  H      1.925060    1.131130   -2.774460

 Total Charge           Charge          ....    0
 Multiplicity           Mult            ....    1
 Number of Electrons    NEL             ....   66
 Basis Dimension        Dim             ....  212

ORBITAL ENERGIES
----------------

  NO   OCC          E(Eh)            E(eV)
   0   2.0000     -89.239622     -2428.3336
   1   2.0000     -24.910644      -677.8531
   2   2.0000     -19.271706      -524.4098
   3   2.0000     -19.257731      -524.0295
   4   2.0000     -10.338469      -281.3240
   5   2.0000     -10.304644      -280.4036
   6   2.0000     -10.276579      -279.6399
   7   2.0000      -8.313965      -226.2345
   8   2.0000      -6.277642      -170.8233
   9   2.0000      -6.271683      -170.6612
  10   2.0000      -6.269508      -170.6020
  11   2.0000      -1.476951       -40.1899
  12   2.0000      -1.237191       -33.6657
  13   2.0000      -1.132500       -30.8169
  14   2.0000      -0.933601       -25.4046
  15   2.0000      -0.855465       -23.2784
  16   2.0000      -0.810914       -22.0661
  17   2.0000      -0.736417       -20.0389
  18   2.0000      -0.686889       -18.6912
  19   2.0000      -0.684562       -18.6279
  20   2.0000      -0.652139       -17.7456
  21   2.0000      -0.585815       -15.9408
  22   2.0000      -0.574373       -15.6295
  23   2.0000      -0.560929       -15.2637
  24   2.0000      -0.553734       -15.0679
  25   2.0000      -0.523080       -14.2337
  26   2.0000      -0.500967       -13.6320
  27   2.0000      -0.472699       -12.8628
  28   2.0000      -0.462840       -12.5945
  29   2.0000      -0.446027       -12.1370
  30   2.0000      -0.430724       -11.7206
  31   2.0000      -0.421048       -11.4573
  32   2.0000      -0.415272       -11.3001
  33   0.0000       0.068783         1.8717
  34   0.0000       0.094578         2.5736
  35   0.0000       0.097564         2.6548
  36   0.0000       0.100163         2.7256
  37   0.0000       0.121683         3.3112

MULLIKEN ATOMIC CHARGES
-----------------------
   0 C :   -0.358801
   1 C :   -0.060327
   2 H :    0.104928
   3 H :    0.121874
   4 S :    1.480543
   5 O :   -0.734331
   6 O :   -0.706391
   7 C :    0.696059
   8 H :    0.028617
   9 H :   -0.038813
  10 F :   -0.411229
  11 H :   -0.151302
  12 H :    0.025075
  13 H :    0.004098
Sum of atomic charges:   -0.0000000

LOEWDIN ATOMIC CHARGES
----------------------
   0 C :   -0.072526
   1 C :   -0.022548
   2 H :    0.040733
   3 H :    0.029093
   4 S :    1.134075
   5 O :   -0.529286
   6 O :   -0.492158
   7 C :    0.134197
   8 H :    0.031675
   9 H :    0.039988
  10 F :   -0.252643
  11 H :   -0.028352
  12 H :   -0.006358
  13 H :   -0.005891

  Mayer bond orders larger than 0.100000
B(  0-C ,  1-C ) :   1.2882 B(  0-C ,  2-H ) :   0.1186 B(  0-C ,  3-H ) :   0.1342
B(  0-C ,  7-C ) :   1.2699 B(  0-C ,  8-H ) :   0.9254 B(  0-C ,  9-H ) :   0.9039
B(  0-C , 11-H ) :   0.1898 B(  0-C , 12-H ) :   0.1952 B(  0-C , 13-H ) :   0.2025
B(  1-C ,  2-H ) :   0.9293 B(  1-C ,  3-H ) :   0.8874 B(  1-C ,  4-S ) :   0.9704
B(  1-C ,  8-H ) :   0.1260 B(  1-C ,  9-H ) :   0.1330 B(  4-S ,  5-O ) :   1.4490
B(  4-S ,  6-O ) :   1.5408 B(  4-S , 10-F ) :   0.6598 B(  7-C , 11-H ) :   0.8395
B(  7-C , 12-H ) :   0.7641 B(  7-C , 13-H ) :   0.7927

Dispersion correction           -0.004474632
FINAL SINGLE POINT ENERGY      -766.472936990436

DIPOLE MOMENT
-------------
                                X             Y             Z
Electronic contribution:      2.96504      -7.58663      -8.30818
Nuclear contribution   :     -4.74391       8.77281       9.40225
                        -----------------------------------------
Total Dipole Moment    :     -1.77887       1.18618       1.09408
                        -----------------------------------------
Magnitude (a.u.)       :      2.40175
Magnitude (Debye)      :      6.10477

Rotational constants in cm-1:     0.129476     0.053470     0.050698
Rotational constants in MHz :  3881.594668  1602.990831  1519.898630

                             ****ORCA TERMINATED NORMALLY****
TOTAL RUN TIME: 0 days 0 hours 0 minutes 23 seconds 881 msec
