                         Program Version 5.0.0 -  RELEASE  -
|  1> !PBE0 D3BJ RIJCOSX def2-SVPD def2/J TightSCF
|  2> *xyz -1 1
|  3> C         -0.72184       -0.99951       -3.43931
|  4> C          0.28725       -1.71177       -2.52740
|  5> H          1.13178       -2.06738       -3.15940
|  6> H         -0.20414       -2.63733       -2.17048
|  7> O          0.71050       -0.92751       -1.48177
|  8> H         -1.01315       -1.65739       -4.23129
|  9> H         -0.27123       -0.12142       -3.85259
| 10> H         -1.58442       -0.72333       -2.86958
| 11> *
| 12> %MaxCore 64000
| 13>
| 14> %pal nprocs 4
| 15> end
| 16>
| 17> %scf
| 18>   MaxIter 150
| 19> end
| 20>
| 21>
| 22>                          ****END OF INPUT****

CARTESIAN COORDINATES (ANGSTROEM)
---------------------------------
  C     -0.721840   -0.999510   -3.439310
  C      0.287250   -1.711770   -2.527400
  H      1.131780   -2.067380   -3.159400
  H     -0.204140   -2.637330   -2.170480
  O      0.710500   -0.927510   -1.481770
  H     -1.013150   -1.657390   -4.231290
  H     -0.271230   -0.121420   -3.852590
  H     -1.584420   -0.723330   -2.869580

 Total Charge           Charge          ....   -1
 Multiplicity           Mult            ....    1
 Number of Electrons    NEL             ....   26
 Basis Dimension        Dim             ....  103

ORBITAL ENERGIES
----------------

  NO   OCC          E(Eh)            E(eV)
   0   2.0000     -18.883225      -513.8387
   1   2.0000     -10.045324      -273.3472
   2   2.0000     -10.023619      -272.7566
   3   2.0000      -0.693364       -18.8674
   4   2.0000      -0.540672       -14.7124
   5   2.0000      -0.384123       -10.4525
   6   2.0000      -0.263362        -7.1664
   7   2.0000      -0.240619        -6.5476
   8   2.0000      -0.186905        -5.0859
   9   2.0000      -0.167616        -4.5611
  10   2.0000      -0.123965        -3.3733
  11   2.0000       0.020183         0.5492
  12   2.0000       0.022821         0.6210
  13   0.0000       0.186035         5.0623
  14   0.0000       0.217016         5.9053
  15   0.0000       0.251150         6.8341
  16   0.0000       0.263757         7.1772
  17   0.0000       0.281789         7.6679

MULLIKEN ATOMIC CHARGES
-----------------------
   0 C :    0.110645
   1 C :    0.101688
   2 H :   -0.102077
   3 H :   -0.110512
   4 O :   -0.951004
   5 H :    0.007538
   6 H :   -0.030936
   7 H :   -0.025342
Sum of atomic charges:   -1.0000000

LOEWDIN ATOMIC CHARGES
----------------------
   0 C :    0.054550
   1 C :   -0.259876
   2 H :   -0.030600
   3 H :   -0.034197
   4 O :   -0.589275
   5 H :   -0.058990
   6 H :   -0.041249
   7 H :   -0.040363

  Mayer bond orders larger than 0.100000
B(  0-C ,  1-C ) :   1.2075 B(  0-C ,  2-H ) :   0.1095 B(  0-C ,  3-H ) :   0.1183
B(  0-C ,  4-O ) :   0.1852 B(  0-C ,  5-H ) :   0.9209 B(  0-C ,  6-H ) :   0.9327
B(  0-C ,  7-H ) :   0.9265 B(  1-C ,  2-H ) :   0.9960 B(  1-C ,  3-H ) :   0.9909
B(  1-C ,  4-O ) :   1.0696 B(  1-C ,  5-H ) :   0.1084 B(  1-C ,  6-H ) :   0.1571
B(  1-C ,  7-H ) :   0.1567

Dispersion correction           -0.003049217
FINAL SINGLE POINT ENERGY      -154.140499767079

DIPOLE MOMENT
-------------
                                X             Y             Z
Electronic contribution:      1.43754       0.68547       2.31943
Nuclear contribution   :     -2.24828      -1.06600      -3.62481
                        -----------------------------------------
Total Dipole Moment    :     -0.81073      -0.38052      -1.30538
                        -----------------------------------------
Magnitude (a.u.)       :      1.58307
Magnitude (Debye)      :      4.02384

Rotational constants in cm-1:     1.278116     0.325414     0.286672
Rotational constants in MHz : 38316.964654  9755.653004  8594.216906

                             ****ORCA TERMINATED NORMALLY****
TOTAL RUN TIME: 0 days 0 hours 0 minutes 10 seconds 402 msec
