                         Program Version 5.0.0 -  RELEASE  -
|  1> !PBE0 D3BJ RIJCOSX def2-SVPD def2/J TightSCF
|  2> *xyz 1 1
|  3> C          3.48828        1.60092       -1.52204
|  4> C          4.34297        1.31342       -2.75683
|  5> N          2.81029        0.42878       -1.01420
|  6> H          2.71455        2.33145       -1.76030
|  7> H          4.09099        2.06315       -0.73338
|  8> C          3.29098       -0.41802       -0.12908
|  9> N          2.51754       -1.43202        0.23936
| 10> N          4.53549       -0.28441        0.39580
| 11> H          5.04363        0.57189        0.22290
| 12> H          4.72335       -0.73327        1.28180
| 13> H          1.93479        0.10230       -1.40379
| 14> H          1.67464       -1.50562       -0.31610
| 15> H          2.92850       -2.21850        0.72549
| 16> H          3.73575        0.86277       -3.51385
| 17> H          5.13754        0.64699       -2.49333
| 18> H          4.75374        2.22930       -3.12740
| 19> *
| 20> %MaxCore 64000
| 21>
| 22> %pal nprocs 4
| 23> end
| 24>
| 25> %scf
| 26>   MaxIter 150
| 27> end
| 28>
| 29>
| 30>                          ****END OF INPUT****

CARTESIAN COORDINATES (ANGSTROEM)
---------------------------------
  C      3.488280    1.600920   -1.522040
  C      4.342970    1.313420   -2.756830
  N      2.810290    0.428780   -1.014200
  H      2.714550    2.331450   -1.760300
  H      4.090990    2.063150   -0.733380
  C      3.290980   -0.418020   -0.129080
  N      2.517540   -1.432020    0.239360
  N      4.535490   -0.284410    0.395800
  H      5.043630    0.571890    0.222900
  H      4.723350   -0.733270    1.281800
  H      1.934790    0.102300   -1.403790
  H      1.674640   -1.505620   -0.316100
  H      2.928500   -2.218500    0.725490
  H      3.735750    0.862770   -3.513850
  H      5.137540    0.646990   -2.493330
  H      4.753740    2.229300   -3.127400

 Total Charge           Charge          ....    1
 Multiplicity           Mult            ....    1
 Number of Electrons    NEL             ....   48
 Basis Dimension        Dim             ....  200

ORBITAL ENERGIES
----------------

  NO   OCC          E(Eh)            E(eV)
   0   2.0000     -14.627724      -398.0406
   1   2.0000     -14.621060      -397.8593
   2   2.0000     -14.618908      -397.8007
   3   2.0000     -10.567339      -287.5519
   4   2.0000     -10.444853      -284.2189
   5   2.0000     -10.369915      -282.1797
   6   2.0000      -1.241436       -33.7812
   7   2.0000      -1.127071       -30.6691
   8   2.0000      -1.112499       -30.2726
   9   2.0000      -0.952557       -25.9204
  10   2.0000      -0.855888       -23.2899
  11   2.0000      -0.825976       -22.4759
  12   2.0000      -0.799750       -21.7623
  13   2.0000      -0.764687       -20.8082
  14   2.0000      -0.710020       -19.3206
  15   2.0000      -0.700228       -19.0542
  16   2.0000      -0.671489       -18.2722
  17   2.0000      -0.656476       -17.8636
  18   2.0000      -0.618085       -16.8189
  19   2.0000      -0.577422       -15.7125
  20   2.0000      -0.546643       -14.8749
  21   2.0000      -0.526476       -14.3261
  22   2.0000      -0.493468       -13.4279
  23   2.0000      -0.466655       -12.6983
  24   0.0000      -0.167901        -4.5688
  25   0.0000      -0.149301        -4.0627
  26   0.0000      -0.117817        -3.2060
  27   0.0000      -0.103299        -2.8109
  28   0.0000      -0.075891        -2.0651

MULLIKEN ATOMIC CHARGES
-----------------------
   0 C :    0.223733
   1 C :    0.502867
   2 N :   -0.536190
   3 H :   -0.202271
   4 H :   -0.016033
   5 C :    1.583048
   6 N :   -0.153232
   7 N :   -0.135735
   8 H :   -0.012036
   9 H :   -0.106539
  10 H :   -0.232982
  11 H :    0.044410
  12 H :   -0.042903
  13 H :    0.005990
  14 H :   -0.012487
  15 H :    0.090361
Sum of atomic charges:    1.0000000

LOEWDIN ATOMIC CHARGES
----------------------
   0 C :    0.041590
   1 C :    0.159086
   2 N :    0.033170
   3 H :    0.044581
   4 H :    0.031310
   5 C :   -0.024617
   6 N :    0.258953
   7 N :    0.278421
   8 H :    0.010363
   9 H :    0.036349
  10 H :    0.059899
  11 H :    0.034752
  12 H :    0.047126
  13 H :   -0.003304
  14 H :   -0.012710
  15 H :    0.005031

  Mayer bond orders larger than 0.100000
B(  0-C ,  1-C ) :   1.2731 B(  0-C ,  2-N ) :   0.8772 B(  0-C ,  3-H ) :   0.9531
B(  0-C ,  4-H ) :   0.8715 B(  0-C , 10-H ) :  -0.2024 B(  0-C , 13-H ) :   0.2077
B(  0-C , 14-H ) :   0.1755 B(  0-C , 15-H ) :   0.1367 B(  1-C , 13-H ) :   0.8322
B(  1-C , 14-H ) :   0.8547 B(  1-C , 15-H ) :   0.8213 B(  2-N ,  3-H ) :   0.1641
B(  2-N ,  4-H ) :   0.1396 B(  2-N ,  5-C ) :   0.9159 B(  2-N ,  6-N ) :   0.2752
B(  2-N ,  7-N ) :   0.2055 B(  2-N , 10-H ) :   1.3713 B(  5-C ,  6-N ) :   0.8165
B(  5-C ,  7-N ) :   0.8369 B(  5-C ,  9-H ) :  -0.1425 B(  5-C , 10-H ) :  -0.2705
B(  5-C , 12-H ) :  -0.1016 B(  6-N ,  7-N ) :   0.1568 B(  6-N , 11-H ) :   1.0560
B(  6-N , 12-H ) :   1.1872 B(  7-N ,  8-H ) :   1.0241 B(  7-N ,  9-H ) :   1.2640
B(  8-H ,  9-H ) :  -0.1582 B( 11-H , 12-H ) :  -0.1353

Dispersion correction           -0.010418957
FINAL SINGLE POINT ENERGY      -283.889617042961

DIPOLE MOMENT
-------------
                                X             Y             Z
Electronic contribution:     -1.92780      -3.00426       3.73526
Nuclear contribution   :      1.59382       2.33278      -3.02574
                        -----------------------------------------
Total Dipole Moment    :     -0.33398      -0.67149       0.70952
                        -----------------------------------------
Magnitude (a.u.)       :      1.03241
Magnitude (Debye)      :      2.62417

Rotational constants in cm-1:     0.232230     0.073139     0.063030
Rotational constants in MHz :  6962.079716  2192.649203  1889.578947

                             ****ORCA TERMINATED NORMALLY****
TOTAL RUN TIME: 0 days 0 hours 0 minutes 27 seconds 435 msec
