                         Program Version 5.0.0 -  RELEASE  -
|  1> !PBE0 D3BJ RIJCOSX def2-SVPD def2/J TightSCF xyzfile
|  2>
|  3> *xyzfile 0 1 B.xyz
|  4>
|  5> %MaxCore 64000
|  6>
|  7> %pal nprocs 4
|  8> end
|  9>
| 10> %scf
| 11>   MaxIter 150
| 12> end
| 13>
| 14>
| 15>                          ****END OF INPUT****

CARTESIAN COORDINATES (ANGSTROEM)
---------------------------------
  C      3.488276    1.600919   -1.522040
  C      4.342970    1.313419   -2.756826
  N      2.810285    0.428783   -1.014196
  H      5.132033    0.604994   -2.484466
  C      3.535896    0.749253   -3.924604
  H      4.841247    2.242136   -3.054083
  H      2.991617   -0.132199   -3.574137
  H      4.225505    0.392784   -4.695962
  C      2.564776    1.750890   -4.544523
  H      1.918749    2.171679   -3.769419
  C      1.686235    1.161657   -5.650111
  H      3.132494    2.594775   -4.951604
  C      0.839616   -0.037582   -5.220473
  H      2.323886    0.866395   -6.490796
  H      1.029518    1.951850   -6.029329
  C     -0.151019    0.254955   -4.094256
  H      1.499442   -0.857141   -4.922958
  H      0.290097   -0.410143   -6.091131
  H      0.328265    0.833022   -3.299125
  C     -0.721843   -0.999513   -3.439309
  H     -0.957367    0.884951   -4.485450
  H     -1.083403   -1.697555   -4.205656
  H     -1.581056   -0.723848   -2.820490
  C      0.287250   -1.711771   -2.527405
  H      1.131780   -2.067380   -3.159396
  H     -0.204137   -2.637326   -2.170480
  O      0.710505   -0.927506   -1.481767
  H      2.714548    2.331455   -1.760302
  H      4.090991    2.063151   -0.733382
  C      3.290978   -0.418021   -0.129083
  N      2.517536   -1.432017    0.239360
  N      4.535490   -0.284410    0.395800
  H      5.043627    0.571888    0.222899
  H      4.723346   -0.733273    1.281800
  H      1.934787    0.102305   -1.403788
  H      1.674638   -1.505616   -0.316095
  H      2.928503   -2.218502    0.725494

 Total Charge           Charge          ....    0
 Multiplicity           Mult            ....    1
 Number of Electrons    NEL             ....  112
 Basis Dimension        Dim             ....  467

ORBITAL ENERGIES
----------------

  NO   OCC          E(Eh)            E(eV)
   0   2.0000     -19.088779      -519.4321
   1   2.0000     -14.456004      -393.3679
   2   2.0000     -14.418527      -392.3481
   3   2.0000     -14.410319      -392.1247
   4   2.0000     -10.379991      -282.4539
   5   2.0000     -10.287277      -279.9310
   6   2.0000     -10.242960      -278.7251
   7   2.0000     -10.226000      -278.2636
   8   2.0000     -10.220483      -278.1135
   9   2.0000     -10.213523      -277.9241
  10   2.0000     -10.211228      -277.8616
  11   2.0000     -10.201851      -277.6065
  12   2.0000     -10.191302      -277.3194
  13   2.0000     -10.178995      -276.9845
  14   2.0000      -1.053604       -28.6700
  15   2.0000      -0.947190       -25.7744
  16   2.0000      -0.927697       -25.2439
  17   2.0000      -0.899419       -24.4744
  18   2.0000      -0.829580       -22.5740
  19   2.0000      -0.795132       -21.6367
  20   2.0000      -0.756481       -20.5849
  21   2.0000      -0.718665       -19.5559
  22   2.0000      -0.676746       -18.4152
  23   2.0000      -0.665915       -18.1205
  24   2.0000      -0.627540       -17.0762
  25   2.0000      -0.615562       -16.7503
  26   2.0000      -0.611203       -16.6317
  27   2.0000      -0.580364       -15.7925
  28   2.0000      -0.557892       -15.1810
  29   2.0000      -0.535982       -14.5848
  30   2.0000      -0.525681       -14.3045
  31   2.0000      -0.510593       -13.8939
  32   2.0000      -0.498700       -13.5703
  33   2.0000      -0.487919       -13.2770
  34   2.0000      -0.476023       -12.9532
  35   2.0000      -0.467208       -12.7134
  36   2.0000      -0.448878       -12.2146
  37   2.0000      -0.434471       -11.8226
  38   2.0000      -0.427639       -11.6367
  39   2.0000      -0.407818       -11.0973
  40   2.0000      -0.403210       -10.9719
  41   2.0000      -0.392242       -10.6734
  42   2.0000      -0.373054       -10.1513
  43   2.0000      -0.365551        -9.9471
  44   2.0000      -0.358245        -9.7484
  45   2.0000      -0.346356        -9.4248
  46   2.0000      -0.333890        -9.0856
  47   2.0000      -0.325302        -8.8519
  48   2.0000      -0.323586        -8.8052
  49   2.0000      -0.319054        -8.6819
  50   2.0000      -0.301470        -8.2034
  51   2.0000      -0.298056        -8.1105
  52   2.0000      -0.292378        -7.9560
  53   2.0000      -0.278889        -7.5889
  54   2.0000      -0.191764        -5.2182
  55   2.0000      -0.184823        -5.0293
  56   0.0000      -0.003551        -0.0966
  57   0.0000       0.009931         0.2702
  58   0.0000       0.027973         0.7612
  59   0.0000       0.042666         1.1610
  60   0.0000       0.043141         1.1739

MULLIKEN ATOMIC CHARGES
-----------------------
   0 C :    1.111674
   1 C :    0.157648
   2 N :   -0.049959
   3 H :   -0.003352
   4 C :    0.137802
   5 H :   -0.043938
   6 H :   -0.220573
   7 H :   -0.084445
   8 C :   -0.227638
   9 H :    0.148651
  10 C :    0.495426
  11 H :   -0.165074
  12 C :   -0.145198
  13 H :    0.023553
  14 H :   -0.064579
  15 C :    0.016498
  16 H :    0.047131
  17 H :   -0.151945
  18 H :   -0.190374
  19 C :    0.121299
  20 H :   -0.057973
  21 H :    0.011607
  22 H :    0.026675
  23 C :    0.611297
  24 H :   -0.086803
  25 H :   -0.217682
  26 O :   -0.984699
  27 H :   -0.208596
  28 H :   -0.220516
  29 C :    1.444902
  30 N :    0.155234
  31 N :   -0.019989
  32 H :   -0.060135
  33 H :   -0.149085
  34 H :   -0.830126
  35 H :   -0.156979
  36 H :   -0.169739
Sum of atomic charges:    0.0000000

LOEWDIN ATOMIC CHARGES
----------------------
   0 C :    0.074743
   1 C :   -0.020870
   2 N :    0.066788
   3 H :    0.018264
   4 C :   -0.027634
   5 H :    0.026722
   6 H :    0.008540
   7 H :    0.030891
   8 C :   -0.038835
   9 H :    0.001081
  10 C :   -0.035788
  11 H :    0.024702
  12 C :   -0.038663
  13 H :    0.021567
  14 H :    0.023384
  15 C :   -0.035039
  16 H :   -0.001353
  17 H :    0.023878
  18 H :   -0.001405
  19 C :   -0.035841
  20 H :    0.022577
  21 H :    0.020549
  22 H :    0.022634
  23 C :   -0.065516
  24 H :   -0.000593
  25 H :    0.009262
  26 O :   -0.435317
  27 H :    0.025287
  28 H :    0.012691
  29 C :   -0.028826
  30 N :    0.264968
  31 N :    0.240132
  32 H :   -0.013794
  33 H :    0.011091
  34 H :   -0.087515
  35 H :   -0.100869
  36 H :    0.018106

  Mayer bond orders larger than 0.100000
B(  0-C ,  1-C ) :   1.0722 B(  0-C ,  2-N ) :   0.7770 B(  0-C , 27-H ) :   0.7252
B(  0-C , 28-H ) :   0.8333 B(  0-C , 34-H ) :  -0.5558 B(  1-C ,  3-H ) :   0.7845
B(  1-C ,  4-C ) :   1.2398 B(  1-C ,  5-H ) :   0.9350 B(  1-C , 27-H ) :   0.1132
B(  1-C , 28-H ) :   0.1129 B(  2-N , 27-H ) :   0.1976 B(  2-N , 28-H ) :   0.1062
B(  2-N , 29-C ) :   1.1475 B(  2-N , 30-N ) :   0.1044 B(  2-N , 31-N ) :   0.2057
B(  2-N , 34-H ) :   1.2147 B(  3-H ,  4-C ) :   0.1717 B(  4-C ,  6-H ) :   0.8930
B(  4-C ,  7-H ) :   0.8184 B(  4-C ,  8-C ) :   1.2061 B(  4-C , 11-H ) :   0.1609
B(  6-H ,  8-C ) :   0.1381 B(  7-H ,  8-C ) :   0.1429 B(  8-C ,  9-H ) :   0.8281
B(  8-C , 10-C ) :   1.2006 B(  8-C , 11-H ) :   0.9684 B(  8-C , 13-H ) :   0.1162
B(  8-C , 14-H ) :   0.2597 B( 10-C , 12-C ) :   1.1998 B( 10-C , 13-H ) :   0.7417
B( 10-C , 14-H ) :   0.7277 B( 12-C , 13-H ) :   0.2025 B( 12-C , 14-H ) :   0.1248
B( 12-C , 15-C ) :   1.2270 B( 12-C , 16-H ) :   0.8984 B( 12-C , 17-H ) :   0.8972
B( 12-C , 18-H ) :   0.1254 B( 12-C , 20-H ) :   0.1910 B( 15-C , 17-H ) :   0.2381
B( 15-C , 18-H ) :   0.9153 B( 15-C , 19-C ) :   1.2122 B( 15-C , 20-H ) :   0.8212
B( 15-C , 21-H ) :   0.1166 B( 15-C , 22-H ) :   0.1907 B( 18-H , 19-C ) :   0.1541
B( 19-C , 21-H ) :   0.8290 B( 19-C , 22-H ) :   0.7639 B( 19-C , 23-C ) :   1.1455
B( 19-C , 24-H ) :   0.1082 B( 19-C , 25-H ) :   0.1143 B( 19-C , 26-O ) :   0.1115
B( 21-H , 23-C ) :   0.1426 B( 22-H , 23-C ) :   0.1479 B( 23-C , 24-H ) :   0.8913
B( 23-C , 25-H ) :   0.9604 B( 23-C , 26-O ) :   0.8545 B( 26-O , 34-H ) :   0.1537
B( 26-O , 35-H ) :   0.2994 B( 27-H , 34-H ) :   0.1319 B( 29-C , 30-N ) :   0.8269
B( 29-C , 31-N ) :   0.8166 B( 29-C , 32-H ) :  -0.1089 B( 29-C , 34-H ) :  -0.6685
B( 29-C , 35-H ) :  -0.1420 B( 29-C , 36-H ) :  -0.1322 B( 30-N , 31-N ) :   0.1318
B( 30-N , 35-H ) :   0.9852 B( 30-N , 36-H ) :   1.2535 B( 31-N , 32-H ) :   1.0506
B( 31-N , 33-H ) :   1.2220 B( 32-H , 33-H ) :  -0.1487 B( 35-H , 36-H ) :  -0.1702

Dispersion correction           -0.035222180
FINAL SINGLE POINT ENERGY      -633.273014392196

DIPOLE MOMENT
-------------
                                X             Y             Z
Electronic contribution:      3.60672      -2.05675      11.34325
Nuclear contribution   :     -0.74583       2.62534      -9.91488
                        -----------------------------------------
Total Dipole Moment    :      2.86090       0.56859       1.42837
                        -----------------------------------------
Magnitude (a.u.)       :      3.24781
Magnitude (Debye)      :      8.25528

Rotational constants in cm-1:     0.027028     0.016098     0.010898
Rotational constants in MHz :   810.278072   482.590922   326.703462

                             ****ORCA TERMINATED NORMALLY****
TOTAL RUN TIME: 0 days 0 hours 3 minutes 23 seconds 509 msec
