                         Program Version 5.0.0 -  RELEASE  -
|  1> !PBE0 D3BJ RIJCOSX def2-SVPD def2/J TightSCF
|  2> *xyz 0 1
|  3> C         -0.72184       -0.99951       -3.43931
|  4> C          0.28725       -1.71177       -2.52740
|  5> H          1.13178       -2.06738       -3.15940
|  6> H         -0.20414       -2.63733       -2.17048
|  7> F          0.71050       -0.92751       -1.48177
|  8> H         -1.01315       -1.65739       -4.23129
|  9> H         -0.27123       -0.12142       -3.85259
| 10> H         -1.58442       -0.72333       -2.86958
| 11> *
| 12> %MaxCore 64000
| 13>
| 14> %pal nprocs 4
| 15> end
| 16>
| 17> %scf
| 18>   MaxIter 150
| 19> end
| 20>
| 21>
| 22>                          ****END OF INPUT****

CARTESIAN COORDINATES (ANGSTROEM)
---------------------------------
  C     -0.721840   -0.999510   -3.439310
  C      0.287250   -1.711770   -2.527400
  H      1.131780   -2.067380   -3.159400
  H     -0.204140   -2.637330   -2.170480
  F      0.710500   -0.927510   -1.481770
  H     -1.013150   -1.657390   -4.231290
  H     -0.271230   -0.121420   -3.852590
  H     -1.584420   -0.723330   -2.869580

 Total Charge           Charge          ....    0
 Multiplicity           Mult            ....    1
 Number of Electrons    NEL             ....   26
 Basis Dimension        Dim             ....  103

ORBITAL ENERGIES
----------------

  NO   OCC          E(Eh)            E(eV)
   0   2.0000     -24.772355      -674.0901
   1   2.0000     -10.313994      -280.6580
   2   2.0000     -10.229863      -278.3687
   3   2.0000      -1.214409       -33.0457
   4   2.0000      -0.782787       -21.3007
   5   2.0000      -0.647097       -17.6084
   6   2.0000      -0.527224       -14.3465
   7   2.0000      -0.512857       -13.9555
   8   2.0000      -0.476641       -12.9701
   9   2.0000      -0.421225       -11.4621
  10   2.0000      -0.415660       -11.3107
  11   2.0000      -0.353362        -9.6155
  12   2.0000      -0.345270        -9.3953
  13   0.0000       0.029991         0.8161
  14   0.0000       0.061864         1.6834
  15   0.0000       0.083169         2.2632
  16   0.0000       0.089930         2.4471
  17   0.0000       0.114970         3.1285

MULLIKEN ATOMIC CHARGES
-----------------------
   0 C :    0.151848
   1 C :    0.355562
   2 H :   -0.008464
   3 H :   -0.019589
   4 F :   -0.483797
   5 H :    0.017888
   6 H :   -0.009853
   7 H :   -0.003594
Sum of atomic charges:    0.0000000

LOEWDIN ATOMIC CHARGES
----------------------
   0 C :    0.129423
   1 C :    0.066333
   2 H :    0.034652
   3 H :    0.030154
   4 F :   -0.224613
   5 H :   -0.010925
   6 H :   -0.012844
   7 H :   -0.012179

  Mayer bond orders larger than 0.100000
B(  0-C ,  1-C ) :   1.3501 B(  0-C ,  5-H ) :   0.8806 B(  0-C ,  6-H ) :   0.9143
B(  0-C ,  7-H ) :   0.9092 B(  1-C ,  2-H ) :   0.9561 B(  1-C ,  3-H ) :   0.9555
B(  1-C ,  4-F ) :   0.6936 B(  1-C ,  5-H ) :   0.1014 B(  1-C ,  6-H ) :   0.1186
B(  1-C ,  7-H ) :   0.1199

Dispersion correction           -0.002810165
FINAL SINGLE POINT ENERGY      -178.742464085208

DIPOLE MOMENT
-------------
                                X             Y             Z
Electronic contribution:      2.69293       1.03732       4.20581
Nuclear contribution   :     -2.97459      -1.40206      -4.79987
                        -----------------------------------------
Total Dipole Moment    :     -0.28166      -0.36474      -0.59406
                        -----------------------------------------
Magnitude (a.u.)       :      0.75185
Magnitude (Debye)      :      1.91105

Rotational constants in cm-1:     1.257024     0.302702     0.267953
Rotational constants in MHz : 37684.643733  9074.792567  8033.038070

                             ****ORCA TERMINATED NORMALLY****
TOTAL RUN TIME: 0 days 0 hours 0 minutes 9 seconds 219 msec
