                         Program Version 5.0.0 -  RELEASE  -
|  1> !PBE0 D3BJ RIJCOSX def2-SVPD def2/J TightSCF
|  2> *xyz 0 1
|  3> C          3.48828        1.60092       -1.52204
|  4> C          4.34297        1.31342       -2.75683
|  5> C          2.81029        0.42878       -1.01420
|  6> H          2.71455        2.33145       -1.76030
|  7> H          4.09099        2.06315       -0.73338
|  8> C          3.29098       -0.41802       -0.12908
|  9> N          2.51754       -1.43202        0.23936
| 10> N          4.53549       -0.28441        0.39580
| 11> H          5.04363        0.57189        0.22290
| 12> H          4.72335       -0.73327        1.28180
| 13> H          1.93479        0.10230       -1.40379
| 14> H          1.67464       -1.50562       -0.31610
| 15> H          2.92850       -2.21850        0.72549
| 16> H          3.73575        0.86277       -3.51385
| 17> H          5.13754        0.64699       -2.49333
| 18> H          4.75374        2.22930       -3.12740
| 19> *
| 20> %MaxCore 64000
| 21>
| 22> %pal nprocs 4
| 23> end
| 24>
| 25> %scf
| 26>   MaxIter 150
| 27> end
| 28>
| 29>
| 30>                          ****END OF INPUT****

CARTESIAN COORDINATES (ANGSTROEM)
---------------------------------
  C      3.488280    1.600920   -1.522040
  C      4.342970    1.313420   -2.756830
  C      2.810290    0.428780   -1.014200
  H      2.714550    2.331450   -1.760300
  H      4.090990    2.063150   -0.733380
  C      3.290980   -0.418020   -0.129080
  N      2.517540   -1.432020    0.239360
  N      4.535490   -0.284410    0.395800
  H      5.043630    0.571890    0.222900
  H      4.723350   -0.733270    1.281800
  H      1.934790    0.102300   -1.403790
  H      1.674640   -1.505620   -0.316100
  H      2.928500   -2.218500    0.725490
  H      3.735750    0.862770   -3.513850
  H      5.137540    0.646990   -2.493330
  H      4.753740    2.229300   -3.127400

 Total Charge           Charge          ....    0
 Multiplicity           Mult            ....    1
 Number of Electrons    NEL             ....   48
 Basis Dimension        Dim             ....  200

ORBITAL ENERGIES
----------------

  NO   OCC          E(Eh)            E(eV)
   0   2.0000     -14.397408      -391.7734
   1   2.0000     -14.392785      -391.6476
   2   2.0000     -10.272083      -279.5176
   3   2.0000     -10.211047      -277.8567
   4   2.0000     -10.198549      -277.5166
   5   2.0000     -10.157853      -276.4092
   6   2.0000      -0.978384       -26.6232
   7   2.0000      -0.887876       -24.1603
   8   2.0000      -0.793182       -21.5836
   9   2.0000      -0.711996       -19.3744
  10   2.0000      -0.629622       -17.1329
  11   2.0000      -0.596738       -16.2381
  12   2.0000      -0.554353       -15.0847
  13   2.0000      -0.525199       -14.2914
  14   2.0000      -0.482320       -13.1246
  15   2.0000      -0.454101       -12.3567
  16   2.0000      -0.432514       -11.7693
  17   2.0000      -0.411760       -11.2046
  18   2.0000      -0.395648       -10.7661
  19   2.0000      -0.367260        -9.9937
  20   2.0000      -0.345805        -9.4098
  21   2.0000      -0.332476        -9.0471
  22   2.0000      -0.278959        -7.5909
  23   2.0000      -0.173856        -4.7309
  24   0.0000       0.022512         0.6126
  25   0.0000       0.048162         1.3106
  26   0.0000       0.055369         1.5067
  27   0.0000       0.067621         1.8401
  28   0.0000       0.085244         2.3196

MULLIKEN ATOMIC CHARGES
-----------------------
   0 C :   -0.280429
   1 C :    0.481649
   2 C :   -0.322339
   3 H :   -0.005963
   4 H :    0.002446
   5 C :    0.887031
   6 N :   -0.160022
   7 N :   -0.181115
   8 H :    0.006511
   9 H :   -0.205644
  10 H :   -0.182665
  11 H :    0.086296
  12 H :   -0.158980
  13 H :    0.001892
  14 H :   -0.017454
  15 H :    0.048786
Sum of atomic charges:   -0.0000000

LOEWDIN ATOMIC CHARGES
----------------------
   0 C :   -0.102557
   1 C :    0.116321
   2 C :   -0.041249
   3 H :    0.016469
   4 H :    0.008167
   5 C :   -0.218591
   6 N :    0.167339
   7 N :    0.197777
   8 H :   -0.019379
   9 H :   -0.012741
  10 H :   -0.045654
  11 H :    0.002686
  12 H :   -0.004301
  13 H :   -0.016690
  14 H :   -0.022360
  15 H :   -0.025237

  Mayer bond orders larger than 0.100000
B(  0-C ,  1-C ) :   1.2348 B(  0-C ,  2-C ) :   1.2077 B(  0-C ,  3-H ) :   0.8930
B(  0-C ,  4-H ) :   0.8678 B(  0-C , 10-H ) :   0.2042 B(  0-C , 13-H ) :   0.2054
B(  0-C , 14-H ) :   0.1856 B(  0-C , 15-H ) :   0.1401 B(  1-C , 13-H ) :   0.8527
B(  1-C , 14-H ) :   0.8628 B(  1-C , 15-H ) :   0.8348 B(  2-C ,  3-H ) :   0.1922
B(  2-C ,  4-H ) :   0.2156 B(  2-C ,  5-C ) :   1.7193 B(  2-C ,  6-N ) :   0.3166
B(  2-C ,  7-N ) :   0.1661 B(  2-C , 10-H ) :   0.9566 B(  5-C ,  6-N ) :   0.7812
B(  5-C ,  7-N ) :   0.7980 B(  5-C ,  9-H ) :  -0.1036 B(  5-C , 10-H ) :   0.2116
B(  6-N ,  7-N ) :   0.1254 B(  6-N , 11-H ) :   1.0169 B(  6-N , 12-H ) :   1.2153
B(  7-N ,  8-H ) :   0.9837 B(  7-N ,  9-H ) :   1.2836 B(  8-H ,  9-H ) :  -0.1361
B( 11-H , 12-H ) :  -0.1312

Dispersion correction           -0.010840267
FINAL SINGLE POINT ENERGY      -267.433641240115

DIPOLE MOMENT
-------------
                                X             Y             Z
Electronic contribution:     -1.27552      -2.92425       3.64839
Nuclear contribution   :      1.44676       2.38443      -3.07370
                        -----------------------------------------
Total Dipole Moment    :      0.17124      -0.53983       0.57470
                        -----------------------------------------
Magnitude (a.u.)       :      0.80685
Magnitude (Debye)      :      2.05085

Rotational constants in cm-1:     0.235977     0.073199     0.063283
Rotational constants in MHz :  7074.404583  2194.453291  1897.179599

                             ****ORCA TERMINATED NORMALLY****
TOTAL RUN TIME: 0 days 0 hours 0 minutes 29 seconds 512 msec
