                         Program Version 5.0.0 -  RELEASE  -
|  1> !PBE0 D3BJ RIJCOSX def2-SVPD def2/J TightSCF
|  2> *xyz 0 1
|  3> C          3.48828        1.60092       -1.52204
|  4> C          4.34297        1.31342       -2.75683
|  5> N          2.81029        0.42878       -1.01420
|  6> H          2.71455        2.33145       -1.76030
|  7> H          4.09099        2.06315       -0.73338
|  8> C          3.29098       -0.41802       -0.12908
|  9> C          2.51754       -1.43202        0.23936
| 10> N          4.53549       -0.28441        0.39580
| 11> H          5.04363        0.57189        0.22290
| 12> H          4.72335       -0.73327        1.28180
| 13> H          1.93479        0.10230       -1.40379
| 14> H          1.67464       -1.50562       -0.31610
| 15> H          2.92850       -2.21850        0.72549
| 16> H          3.73575        0.86277       -3.51385
| 17> H          5.13754        0.64699       -2.49333
| 18> H          4.75374        2.22930       -3.12740
| 19> *
| 20> %MaxCore 64000
| 21>
| 22> %pal nprocs 4
| 23> end
| 24>
| 25> %scf
| 26>   MaxIter 150
| 27> end
| 28>
| 29>
| 30>                          ****END OF INPUT****

CARTESIAN COORDINATES (ANGSTROEM)
---------------------------------
  C      3.488280    1.600920   -1.522040
  C      4.342970    1.313420   -2.756830
  N      2.810290    0.428780   -1.014200
  H      2.714550    2.331450   -1.760300
  H      4.090990    2.063150   -0.733380
  C      3.290980   -0.418020   -0.129080
  C      2.517540   -1.432020    0.239360
  N      4.535490   -0.284410    0.395800
  H      5.043630    0.571890    0.222900
  H      4.723350   -0.733270    1.281800
  H      1.934790    0.102300   -1.403790
  H      1.674640   -1.505620   -0.316100
  H      2.928500   -2.218500    0.725490
  H      3.735750    0.862770   -3.513850
  H      5.137540    0.646990   -2.493330
  H      4.753740    2.229300   -3.127400

 Total Charge           Charge          ....    0
 Multiplicity           Mult            ....    1
 Number of Electrons    NEL             ....   48
 Basis Dimension        Dim             ....  200

ORBITAL ENERGIES
----------------

  NO   OCC          E(Eh)            E(eV)
   0   2.0000     -14.399020      -391.8172
   1   2.0000     -14.396786      -391.7565
   2   2.0000     -10.276753      -279.6447
   3   2.0000     -10.276115      -279.6273
   4   2.0000     -10.223982      -278.2087
   5   2.0000     -10.141952      -275.9765
   6   2.0000      -0.989751       -26.9325
   7   2.0000      -0.901411       -24.5286
   8   2.0000      -0.793717       -21.5981
   9   2.0000      -0.718653       -19.5555
  10   2.0000      -0.645230       -17.5576
  11   2.0000      -0.615166       -16.7395
  12   2.0000      -0.552737       -15.0407
  13   2.0000      -0.515697       -14.0328
  14   2.0000      -0.494626       -13.4595
  15   2.0000      -0.455140       -12.3850
  16   2.0000      -0.445690       -12.1278
  17   2.0000      -0.418430       -11.3861
  18   2.0000      -0.391963       -10.6659
  19   2.0000      -0.386136       -10.5073
  20   2.0000      -0.376924       -10.2566
  21   2.0000      -0.369884       -10.0651
  22   2.0000      -0.271219        -7.3802
  23   2.0000      -0.172473        -4.6932
  24   0.0000       0.018236         0.4962
  25   0.0000       0.047709         1.2982
  26   0.0000       0.050302         1.3688
  27   0.0000       0.059837         1.6283
  28   0.0000       0.080797         2.1986

MULLIKEN ATOMIC CHARGES
-----------------------
   0 C :    0.234606
   1 C :    0.496794
   2 N :   -0.412487
   3 H :   -0.260768
   4 H :   -0.049727
   5 C :    0.758005
   6 C :    0.346763
   7 N :   -0.086837
   8 H :   -0.130061
   9 H :   -0.113928
  10 H :   -0.282432
  11 H :   -0.151191
  12 H :   -0.348976
  13 H :   -0.023524
  14 H :   -0.025151
  15 H :    0.048913
Sum of atomic charges:    0.0000000

LOEWDIN ATOMIC CHARGES
----------------------
   0 C :    0.011076
   1 C :    0.129451
   2 N :   -0.030412
   3 H :    0.020426
   4 H :    0.013709
   5 C :   -0.228028
   6 C :    0.131462
   7 N :    0.196579
   8 H :   -0.032935
   9 H :    0.005116
  10 H :    0.034507
  11 H :   -0.101595
  12 H :   -0.094339
  13 H :   -0.015894
  14 H :   -0.020380
  15 H :   -0.018742

  Mayer bond orders larger than 0.100000
B(  0-C ,  1-C ) :   1.2528 B(  0-C ,  2-N ) :   0.8819 B(  0-C ,  3-H ) :   0.9602
B(  0-C ,  4-H ) :   0.8803 B(  0-C , 10-H ) :  -0.2210 B(  0-C , 13-H ) :   0.2214
B(  0-C , 14-H ) :   0.1871 B(  0-C , 15-H ) :   0.1459 B(  1-C , 13-H ) :   0.8332
B(  1-C , 14-H ) :   0.8554 B(  1-C , 15-H ) :   0.8375 B(  2-N ,  3-H ) :   0.1684
B(  2-N ,  4-H ) :   0.1436 B(  2-N ,  5-C ) :   0.9840 B(  2-N ,  6-C ) :   0.2617
B(  2-N ,  7-N ) :   0.1262 B(  2-N , 10-H ) :   1.3170 B(  5-C ,  6-C ) :   1.6924
B(  5-C ,  7-N ) :   0.7760 B(  5-C ,  9-H ) :  -0.1209 B(  5-C , 10-H ) :  -0.2096
B(  5-C , 11-H ) :   0.2170 B(  5-C , 12-H ) :   0.1830 B(  6-C ,  7-N ) :   0.2116
B(  6-C , 11-H ) :   0.8203 B(  6-C , 12-H ) :   0.7986 B(  7-N ,  8-H ) :   1.0365
B(  7-N ,  9-H ) :   1.2207 B(  8-H ,  9-H ) :  -0.1465

Dispersion correction           -0.010745136
FINAL SINGLE POINT ENERGY      -267.419971049378

DIPOLE MOMENT
-------------
                                X             Y             Z
Electronic contribution:     -0.87539      -1.05812       2.42294
Nuclear contribution   :      1.38466       1.98967      -2.80776
                        -----------------------------------------
Total Dipole Moment    :      0.50927       0.93155      -0.38483
                        -----------------------------------------
Magnitude (a.u.)       :      1.12926
Magnitude (Debye)      :      2.87036

Rotational constants in cm-1:     0.235618     0.075969     0.065309
Rotational constants in MHz :  7063.646698  2277.495424  1957.925383

                             ****ORCA TERMINATED NORMALLY****
TOTAL RUN TIME: 0 days 0 hours 0 minutes 27 seconds 457 msec
