                         Program Version 5.0.0 -  RELEASE  -
|  1> !PBE0 D3BJ RIJCOSX def2-SVPD def2/J TightSCF
|  2> *xyz 0 1
|  3> C          3.48828        1.60092       -1.52204
|  4> C          4.34297        1.31342       -2.75683
|  5> N          2.81029        0.42878       -1.01420
|  6> H          2.71455        2.33145       -1.76030
|  7> H          4.09099        2.06315       -0.73338
|  8> C          3.29098       -0.41802       -0.12908
|  9> N          2.51754       -1.43202        0.23936
| 10> C          4.53549       -0.28441        0.39580
| 11> H          5.04363        0.57189        0.22290
| 12> H          4.72335       -0.73327        1.28180
| 13> H          1.93479        0.10230       -1.40379
| 14> H          1.67464       -1.50562       -0.31610
| 15> H          2.92850       -2.21850        0.72549
| 16> H          3.73575        0.86277       -3.51385
| 17> H          5.13754        0.64699       -2.49333
| 18> H          4.75374        2.22930       -3.12740
| 19> *
| 20> %MaxCore 64000
| 21>
| 22> %pal nprocs 4
| 23> end
| 24>
| 25> %scf
| 26>   MaxIter 150
| 27> end
| 28>
| 29>
| 30>                          ****END OF INPUT****

CARTESIAN COORDINATES (ANGSTROEM)
---------------------------------
  C      3.488280    1.600920   -1.522040
  C      4.342970    1.313420   -2.756830
  N      2.810290    0.428780   -1.014200
  H      2.714550    2.331450   -1.760300
  H      4.090990    2.063150   -0.733380
  C      3.290980   -0.418020   -0.129080
  N      2.517540   -1.432020    0.239360
  C      4.535490   -0.284410    0.395800
  H      5.043630    0.571890    0.222900
  H      4.723350   -0.733270    1.281800
  H      1.934790    0.102300   -1.403790
  H      1.674640   -1.505620   -0.316100
  H      2.928500   -2.218500    0.725490
  H      3.735750    0.862770   -3.513850
  H      5.137540    0.646990   -2.493330
  H      4.753740    2.229300   -3.127400

 Total Charge           Charge          ....    0
 Multiplicity           Mult            ....    1
 Number of Electrons    NEL             ....   48
 Basis Dimension        Dim             ....  200

ORBITAL ENERGIES
----------------

  NO   OCC          E(Eh)            E(eV)
   0   2.0000     -14.405260      -391.9871
   1   2.0000     -14.399046      -391.8180
   2   2.0000     -10.278960      -279.7047
   3   2.0000     -10.269088      -279.4361
   4   2.0000     -10.216239      -277.9980
   5   2.0000     -10.143983      -276.0318
   6   2.0000      -0.999082       -27.1864
   7   2.0000      -0.907187       -24.6858
   8   2.0000      -0.773570       -21.0499
   9   2.0000      -0.723041       -19.6749
  10   2.0000      -0.660587       -17.9755
  11   2.0000      -0.578921       -15.7532
  12   2.0000      -0.560932       -15.2637
  13   2.0000      -0.544927       -14.8282
  14   2.0000      -0.484547       -13.1852
  15   2.0000      -0.454809       -12.3760
  16   2.0000      -0.442309       -12.0358
  17   2.0000      -0.409203       -11.1350
  18   2.0000      -0.392365       -10.6768
  19   2.0000      -0.382660       -10.4127
  20   2.0000      -0.373476       -10.1628
  21   2.0000      -0.359929        -9.7942
  22   2.0000      -0.265593        -7.2272
  23   2.0000      -0.175865        -4.7855
  24   0.0000       0.017012         0.4629
  25   0.0000       0.043400         1.1810
  26   0.0000       0.055104         1.4994
  27   0.0000       0.061472         1.6727
  28   0.0000       0.085615         2.3297

MULLIKEN ATOMIC CHARGES
-----------------------
   0 C :    0.225252
   1 C :    0.504244
   2 N :   -0.531468
   3 H :   -0.247300
   4 H :    0.072960
   5 C :    0.796674
   6 N :   -0.109137
   7 C :    0.316960
   8 H :   -0.094007
   9 H :   -0.424669
  10 H :   -0.347986
  11 H :   -0.093551
  12 H :   -0.044412
  13 H :   -0.030348
  14 H :   -0.038934
  15 H :    0.045721
Sum of atomic charges:   -0.0000000

LOEWDIN ATOMIC CHARGES
----------------------
   0 C :    0.019110
   1 C :    0.133767
   2 N :   -0.032138
   3 H :    0.020183
   4 H :    0.021605
   5 C :   -0.235238
   6 N :    0.179810
   7 C :    0.153228
   8 H :   -0.124600
   9 H :   -0.105955
  10 H :    0.021605
  11 H :   -0.011811
  12 H :    0.015902
  13 H :   -0.019625
  14 H :   -0.018246
  15 H :   -0.017597

  Mayer bond orders larger than 0.100000
B(  0-C ,  1-C ) :   1.2313 B(  0-C ,  2-N ) :   0.8739 B(  0-C ,  3-H ) :   0.9870
B(  0-C ,  4-H ) :   0.8491 B(  0-C , 10-H ) :  -0.2027 B(  0-C , 13-H ) :   0.1945
B(  0-C , 14-H ) :   0.1866 B(  0-C , 15-H ) :   0.1456 B(  1-C , 13-H ) :   0.8467
B(  1-C , 14-H ) :   0.8641 B(  1-C , 15-H ) :   0.8398 B(  2-N ,  3-H ) :   0.1496
B(  2-N ,  4-H ) :   0.1284 B(  2-N ,  5-C ) :   0.8114 B(  2-N ,  6-N ) :   0.1871
B(  2-N ,  7-C ) :   0.3617 B(  2-N , 10-H ) :   1.4398 B(  5-C ,  6-N ) :   0.7752
B(  5-C ,  7-C ) :   1.7436 B(  5-C ,  8-H ) :   0.2657 B(  5-C ,  9-H ) :   0.1700
B(  5-C , 10-H ) :  -0.2912 B(  6-N ,  7-C ) :   0.2729 B(  6-N , 11-H ) :   1.0940
B(  6-N , 12-H ) :   1.1685 B(  7-C ,  8-H ) :   0.6779 B(  7-C ,  9-H ) :   0.8726
B(  8-H ,  9-H ) :   0.1393 B( 11-H , 12-H ) :  -0.1269

Dispersion correction           -0.010810544
FINAL SINGLE POINT ENERGY      -267.420342333706

DIPOLE MOMENT
-------------
                                X             Y             Z
Electronic contribution:     -2.80999      -2.29368       2.19884
Nuclear contribution   :      1.81275       2.23313      -2.77458
                        -----------------------------------------
Total Dipole Moment    :     -0.99724      -0.06055      -0.57574
                        -----------------------------------------
Magnitude (a.u.)       :      1.15309
Magnitude (Debye)      :      2.93093

Rotational constants in cm-1:     0.245202     0.073668     0.064348
Rotational constants in MHz :  7350.977980  2208.513334  1929.108541

                             ****ORCA TERMINATED NORMALLY****
TOTAL RUN TIME: 0 days 0 hours 0 minutes 25 seconds 804 msec
