                         Program Version 5.0.0 -  RELEASE  -
|  1> !PBE0 D3BJ RIJCOSX def2-SVPD def2/J TightSCF xyzfile
|  2>
|  3> *xyzfile 0 1 D2.xyz
|  4>
|  5> %MaxCore 64000
|  6>
|  7> %pal nprocs 4
|  8> end
|  9>
| 10> %scf
| 11>   MaxIter 150
| 12> end
| 13>
| 14>
| 15>                          ****END OF INPUT****

CARTESIAN COORDINATES (ANGSTROEM)
---------------------------------
  C      3.488276    1.600919   -1.522040
  C      4.342970    1.313419   -2.756826
  N      2.810285    0.428783   -1.014196
  H      5.132033    0.604994   -2.484466
  C      3.535896    0.749253   -3.924604
  H      4.841247    2.242136   -3.054083
  H      2.991617   -0.132199   -3.574137
  H      4.225505    0.392784   -4.695962
  C      2.564776    1.750890   -4.544523
  H      1.918749    2.171679   -3.769419
  C      1.686235    1.161657   -5.650111
  H      3.132494    2.594775   -4.951604
  C      0.839616   -0.037582   -5.220473
  H      2.323886    0.866395   -6.490796
  H      1.029518    1.951850   -6.029329
  C     -0.151019    0.254955   -4.094256
  H      1.499442   -0.857141   -4.922958
  H      0.290097   -0.410143   -6.091131
  H      0.328265    0.833022   -3.299125
  C     -0.721843   -0.999513   -3.439309
  H     -0.957367    0.884951   -4.485450
  H     -1.083403   -1.697555   -4.205656
  H     -1.581056   -0.723848   -2.820490
  C      0.287250   -1.711771   -2.527405
  H      1.131780   -2.067380   -3.159396
  H     -0.204137   -2.637326   -2.170480
  F      0.710505   -0.927506   -1.481767
  H      2.714548    2.331455   -1.760302
  H      4.090991    2.063151   -0.733382
  C      3.290978   -0.418021   -0.129083
  C      2.517536   -1.432017    0.239360
  N      4.535490   -0.284410    0.395800
  H      5.043627    0.571888    0.222899
  H      4.723346   -0.733273    1.281800
  H      1.934787    0.102305   -1.403788
  H      1.674638   -1.505616   -0.316095
  H      2.928503   -2.218502    0.725494

 Total Charge           Charge          ....    0
 Multiplicity           Mult            ....    1
 Number of Electrons    NEL             ....  112
 Basis Dimension        Dim             ....  467

ORBITAL ENERGIES
----------------

  NO   OCC          E(Eh)            E(eV)
   0   2.0000     -24.801058      -674.8711
   1   2.0000     -14.380750      -391.3201
   2   2.0000     -14.371325      -391.0636
   3   2.0000     -10.323672      -280.9214
   4   2.0000     -10.260058      -279.1904
   5   2.0000     -10.256525      -279.0942
   6   2.0000     -10.247818      -278.8573
   7   2.0000     -10.237941      -278.5885
   8   2.0000     -10.234350      -278.4908
   9   2.0000     -10.231923      -278.4248
  10   2.0000     -10.228948      -278.3438
  11   2.0000     -10.226760      -278.2843
  12   2.0000     -10.225373      -278.2466
  13   2.0000     -10.114406      -275.2270
  14   2.0000      -1.251013       -34.0418
  15   2.0000      -0.970577       -26.4107
  16   2.0000      -0.885137       -24.0858
  17   2.0000      -0.845225       -22.9997
  18   2.0000      -0.817507       -22.2455
  19   2.0000      -0.790497       -21.5105
  20   2.0000      -0.744471       -20.2581
  21   2.0000      -0.720900       -19.6167
  22   2.0000      -0.685596       -18.6560
  23   2.0000      -0.658764       -17.9259
  24   2.0000      -0.626909       -17.0591
  25   2.0000      -0.613126       -16.6840
  26   2.0000      -0.591829       -16.1045
  27   2.0000      -0.574100       -15.6220
  28   2.0000      -0.552935       -15.0461
  29   2.0000      -0.539871       -14.6906
  30   2.0000      -0.527709       -14.3597
  31   2.0000      -0.513543       -13.9742
  32   2.0000      -0.499268       -13.5858
  33   2.0000      -0.488793       -13.3007
  34   2.0000      -0.483192       -13.1483
  35   2.0000      -0.469030       -12.7630
  36   2.0000      -0.452825       -12.3220
  37   2.0000      -0.445887       -12.1332
  38   2.0000      -0.444043       -12.0830
  39   2.0000      -0.427779       -11.6405
  40   2.0000      -0.409683       -11.1480
  41   2.0000      -0.396581       -10.7915
  42   2.0000      -0.387549       -10.5458
  43   2.0000      -0.384562       -10.4645
  44   2.0000      -0.378446       -10.2980
  45   2.0000      -0.373759       -10.1705
  46   2.0000      -0.359471        -9.7817
  47   2.0000      -0.355883        -9.6841
  48   2.0000      -0.349861        -9.5202
  49   2.0000      -0.340974        -9.2784
  50   2.0000      -0.333405        -9.0724
  51   2.0000      -0.329434        -8.9643
  52   2.0000      -0.325880        -8.8677
  53   2.0000      -0.322473        -8.7749
  54   2.0000      -0.253361        -6.8943
  55   2.0000      -0.153070        -4.1652
  56   0.0000       0.023506         0.6396
  57   0.0000       0.027892         0.7590
  58   0.0000       0.034466         0.9379
  59   0.0000       0.038682         1.0526
  60   0.0000       0.052760         1.4357

MULLIKEN ATOMIC CHARGES
-----------------------
   0 C :    1.046980
   1 C :    0.170929
   2 N :    0.068760
   3 H :    0.008264
   4 C :    0.164995
   5 H :   -0.075468
   6 H :   -0.233153
   7 H :   -0.096905
   8 C :   -0.207549
   9 H :    0.133529
  10 C :    0.491944
  11 H :   -0.162899
  12 C :   -0.125298
  13 H :    0.033975
  14 H :   -0.068775
  15 C :    0.051656
  16 H :    0.045650
  17 H :   -0.160780
  18 H :   -0.196306
  19 C :    0.116731
  20 H :   -0.048337
  21 H :    0.006016
  22 H :    0.014605
  23 C :    0.771232
  24 H :   -0.031858
  25 H :   -0.156134
  26 F :   -0.700333
  27 H :   -0.246688
  28 H :   -0.226764
  29 C :    0.671332
  30 C :    0.616138
  31 N :   -0.019718
  32 H :   -0.122611
  33 H :   -0.147268
  34 H :   -0.765558
  35 H :   -0.354893
  36 H :   -0.265443
Sum of atomic charges:    0.0000000

LOEWDIN ATOMIC CHARGES
----------------------
   0 C :    0.060188
   1 C :   -0.023685
   2 N :   -0.000313
   3 H :    0.021242
   4 C :   -0.032824
   5 H :    0.022276
   6 H :    0.001402
   7 H :    0.029533
   8 C :   -0.038571
   9 H :   -0.000440
  10 C :   -0.032400
  11 H :    0.028119
  12 C :   -0.037031
  13 H :    0.025608
  14 H :    0.024932
  15 C :   -0.028784
  16 H :   -0.000013
  17 H :    0.026837
  18 H :    0.006632
  19 C :   -0.014524
  20 H :    0.031882
  21 H :    0.038026
  22 H :    0.030868
  23 C :    0.166786
  24 H :    0.036520
  25 H :    0.044053
  26 F :   -0.225122
  27 H :    0.011954
  28 H :    0.012335
  29 C :   -0.205930
  30 C :    0.156547
  31 N :    0.193888
  32 H :   -0.036569
  33 H :    0.001634
  34 H :   -0.045646
  35 H :   -0.153247
  36 H :   -0.096164

  Mayer bond orders larger than 0.100000
B(  0-C ,  1-C ) :   1.0702 B(  0-C ,  2-N ) :   0.9319 B(  0-C ,  5-H ) :   0.1110
B(  0-C , 27-H ) :   0.7092 B(  0-C , 28-H ) :   0.8440 B(  0-C , 34-H ) :  -0.5646
B(  1-C ,  3-H ) :   0.7823 B(  1-C ,  4-C ) :   1.2337 B(  1-C ,  5-H ) :   0.9334
B(  1-C ,  6-H ) :   0.1123 B(  1-C , 27-H ) :   0.1143 B(  1-C , 28-H ) :   0.1059
B(  2-N , 27-H ) :   0.1489 B(  2-N , 29-C ) :   1.0090 B(  2-N , 30-C ) :   0.2357
B(  2-N , 31-N ) :   0.1910 B(  2-N , 34-H ) :   1.0353 B(  3-H ,  4-C ) :   0.1718
B(  4-C ,  6-H ) :   0.9100 B(  4-C ,  7-H ) :   0.8109 B(  4-C ,  8-C ) :   1.1947
B(  4-C , 11-H ) :   0.1596 B(  6-H ,  8-C ) :   0.1307 B(  7-H ,  8-C ) :   0.1436
B(  8-C ,  9-H ) :   0.8372 B(  8-C , 10-C ) :   1.1960 B(  8-C , 11-H ) :   0.9674
B(  8-C , 13-H ) :   0.1164 B(  8-C , 14-H ) :   0.2563 B( 10-C , 12-C ) :   1.2177
B( 10-C , 13-H ) :   0.7397 B( 10-C , 14-H ) :   0.7312 B( 12-C , 13-H ) :   0.2030
B( 12-C , 14-H ) :   0.1266 B( 12-C , 15-C ) :   1.2195 B( 12-C , 16-H ) :   0.8894
B( 12-C , 17-H ) :   0.9072 B( 12-C , 18-H ) :   0.1270 B( 12-C , 20-H ) :   0.1854
B( 13-H , 14-H ) :  -0.1019 B( 15-C , 17-H ) :   0.2270 B( 15-C , 18-H ) :   0.9093
B( 15-C , 19-C ) :   1.1813 B( 15-C , 20-H ) :   0.8543 B( 15-C , 21-H ) :   0.1038
B( 15-C , 22-H ) :   0.1838 B( 18-H , 19-C ) :   0.1292 B( 19-C , 21-H ) :   0.8354
B( 19-C , 22-H ) :   0.7720 B( 19-C , 23-C ) :   1.2348 B( 19-C , 24-H ) :   0.1110
B( 19-C , 25-H ) :   0.1268 B( 19-C , 26-F ) :   0.1085 B( 21-H , 23-C ) :   0.1362
B( 22-H , 23-C ) :   0.1475 B( 23-C , 24-H ) :   0.8589 B( 23-C , 25-H ) :   0.9330
B( 23-C , 26-F ) :   0.5379 B( 24-H , 26-F ) :   0.1015 B( 26-F , 35-H ) :   0.1462
B( 27-H , 34-H ) :   0.1711 B( 29-C , 30-C ) :   1.7734 B( 29-C , 31-N ) :   0.7605
B( 29-C , 34-H ) :  -0.5775 B( 29-C , 35-H ) :   0.2116 B( 29-C , 36-H ) :   0.3813
B( 30-C , 31-N ) :   0.2500 B( 30-C , 35-H ) :   0.4826 B( 30-C , 36-H ) :   0.5379
B( 31-N , 32-H ) :   1.0037 B( 31-N , 33-H ) :   1.2201 B( 32-H , 33-H ) :  -0.1429
B( 35-H , 36-H ) :   0.2225

Dispersion correction           -0.034943364
FINAL SINGLE POINT ENERGY      -641.166350401855

DIPOLE MOMENT
-------------
                                X             Y             Z
Electronic contribution:     -1.28290      -3.14707       9.42979
Nuclear contribution   :      1.09892       3.58083     -10.64472
                        -----------------------------------------
Total Dipole Moment    :     -0.18397       0.43376      -1.21493
                        -----------------------------------------
Magnitude (a.u.)       :      1.30309
Magnitude (Debye)      :      3.31220

Rotational constants in cm-1:     0.026768     0.016312     0.010954
Rotational constants in MHz :   802.489946   489.033275   328.388904

                             ****ORCA TERMINATED NORMALLY****
TOTAL RUN TIME: 0 days 0 hours 3 minutes 12 seconds 803 msec
