                         Program Version 5.0.0 -  RELEASE  -
|  1> !PBE0 D3BJ RIJCOSX def2-SVPD def2/J TightSCF xyzfile
|  2>
|  3> *xyzfile 0 1 D3.xyz
|  4>
|  5> %MaxCore 64000
|  6>
|  7> %pal nprocs 4
|  8> end
|  9>
| 10> %scf
| 11>   MaxIter 150
| 12> end
| 13>
| 14>
| 15>                          ****END OF INPUT****

CARTESIAN COORDINATES (ANGSTROEM)
---------------------------------
  C      3.488276    1.600919   -1.522040
  C      4.342970    1.313419   -2.756826
  N      2.810285    0.428783   -1.014196
  H      5.132033    0.604994   -2.484466
  C      3.535896    0.749253   -3.924604
  H      4.841247    2.242136   -3.054083
  H      2.991617   -0.132199   -3.574137
  H      4.225505    0.392784   -4.695962
  C      2.564776    1.750890   -4.544523
  H      1.918749    2.171679   -3.769419
  C      1.686235    1.161657   -5.650111
  H      3.132494    2.594775   -4.951604
  C      0.839616   -0.037582   -5.220473
  H      2.323886    0.866395   -6.490796
  H      1.029518    1.951850   -6.029329
  C     -0.151019    0.254955   -4.094256
  H      1.499442   -0.857141   -4.922958
  H      0.290097   -0.410143   -6.091131
  H      0.328265    0.833022   -3.299125
  C     -0.721843   -0.999513   -3.439309
  H     -0.957367    0.884951   -4.485450
  H     -1.083403   -1.697555   -4.205656
  H     -1.581056   -0.723848   -2.820490
  C      0.287250   -1.711771   -2.527405
  H      1.131780   -2.067380   -3.159396
  H     -0.204137   -2.637326   -2.170480
  F      0.710505   -0.927506   -1.481767
  H      2.714548    2.331455   -1.760302
  H      4.090991    2.063151   -0.733382
  C      3.290978   -0.418021   -0.129083
  N      2.517536   -1.432017    0.239360
  C      4.535490   -0.284410    0.395800
  H      5.043627    0.571888    0.222899
  H      4.723346   -0.733273    1.281800
  H      1.934787    0.102305   -1.403788
  H      1.674638   -1.505616   -0.316095
  H      2.928503   -2.218502    0.725494

 Total Charge           Charge          ....    0
 Multiplicity           Mult            ....    1
 Number of Electrons    NEL             ....  112
 Basis Dimension        Dim             ....  467

ORBITAL ENERGIES
----------------

  NO   OCC          E(Eh)            E(eV)
   0   2.0000     -24.830568      -675.6741
   1   2.0000     -14.375445      -391.1758
   2   2.0000     -14.368875      -390.9970
   3   2.0000     -10.341773      -281.4140
   4   2.0000     -10.259818      -279.1838
   5   2.0000     -10.258938      -279.1599
   6   2.0000     -10.252010      -278.9714
   7   2.0000     -10.245390      -278.7912
   8   2.0000     -10.239328      -278.6263
   9   2.0000     -10.233890      -278.4783
  10   2.0000     -10.228463      -278.3306
  11   2.0000     -10.224540      -278.2239
  12   2.0000     -10.218288      -278.0538
  13   2.0000     -10.125416      -275.5266
  14   2.0000      -1.279312       -34.8118
  15   2.0000      -0.976591       -26.5744
  16   2.0000      -0.886134       -24.1129
  17   2.0000      -0.851444       -23.1690
  18   2.0000      -0.821039       -22.3416
  19   2.0000      -0.786746       -21.4085
  20   2.0000      -0.744524       -20.2595
  21   2.0000      -0.711802       -19.3691
  22   2.0000      -0.704175       -19.1616
  23   2.0000      -0.669937       -18.2299
  24   2.0000      -0.637046       -17.3349
  25   2.0000      -0.610408       -16.6100
  26   2.0000      -0.591410       -16.0931
  27   2.0000      -0.577596       -15.7172
  28   2.0000      -0.572382       -15.5753
  29   2.0000      -0.542850       -14.7717
  30   2.0000      -0.538272       -14.6471
  31   2.0000      -0.526834       -14.3359
  32   2.0000      -0.508844       -13.8463
  33   2.0000      -0.492243       -13.3946
  34   2.0000      -0.479600       -13.0506
  35   2.0000      -0.470747       -12.8097
  36   2.0000      -0.455697       -12.4001
  37   2.0000      -0.452305       -12.3079
  38   2.0000      -0.444549       -12.0968
  39   2.0000      -0.425228       -11.5711
  40   2.0000      -0.416021       -11.3205
  41   2.0000      -0.399995       -10.8844
  42   2.0000      -0.393400       -10.7050
  43   2.0000      -0.385896       -10.5008
  44   2.0000      -0.384012       -10.4495
  45   2.0000      -0.374427       -10.1887
  46   2.0000      -0.364373        -9.9151
  47   2.0000      -0.361482        -9.8364
  48   2.0000      -0.353516        -9.6197
  49   2.0000      -0.349386        -9.5073
  50   2.0000      -0.343251        -9.3403
  51   2.0000      -0.329238        -8.9590
  52   2.0000      -0.327311        -8.9066
  53   2.0000      -0.320780        -8.7289
  54   2.0000      -0.243082        -6.6146
  55   2.0000      -0.157362        -4.2820
  56   0.0000       0.014525         0.3952
  57   0.0000       0.025197         0.6856
  58   0.0000       0.034543         0.9400
  59   0.0000       0.038055         1.0355
  60   0.0000       0.050139         1.3643

MULLIKEN ATOMIC CHARGES
-----------------------
   0 C :    1.022380
   1 C :    0.188918
   2 N :    0.095086
   3 H :   -0.011822
   4 C :    0.126657
   5 H :   -0.058328
   6 H :   -0.238950
   7 H :   -0.086394
   8 C :   -0.209432
   9 H :    0.133813
  10 C :    0.496116
  11 H :   -0.158098
  12 C :   -0.128366
  13 H :    0.036773
  14 H :   -0.067488
  15 C :    0.047010
  16 H :    0.046718
  17 H :   -0.165731
  18 H :   -0.201909
  19 C :    0.121255
  20 H :   -0.048754
  21 H :    0.009315
  22 H :    0.019129
  23 C :    0.776818
  24 H :   -0.019773
  25 H :   -0.143454
  26 F :   -0.756290
  27 H :   -0.234288
  28 H :   -0.118306
  29 C :    0.739739
  30 N :    0.222176
  31 C :    0.445777
  32 H :    0.034762
  33 H :   -0.561917
  34 H :   -0.984819
  35 H :   -0.238829
  36 H :   -0.129495
Sum of atomic charges:    0.0000000

LOEWDIN ATOMIC CHARGES
----------------------
   0 C :    0.068145
   1 C :   -0.015423
   2 N :   -0.000203
   3 H :    0.023952
   4 C :   -0.035152
   5 H :    0.024496
   6 H :   -0.002143
   7 H :    0.029305
   8 C :   -0.038728
   9 H :   -0.000810
  10 C :   -0.032105
  11 H :    0.028960
  12 C :   -0.037034
  13 H :    0.026175
  14 H :    0.024981
  15 C :   -0.027455
  16 H :   -0.000377
  17 H :    0.027000
  18 H :    0.007322
  19 C :   -0.012042
  20 H :    0.033408
  21 H :    0.040310
  22 H :    0.031717
  23 C :    0.166483
  24 H :    0.038718
  25 H :    0.043564
  26 F :   -0.214609
  27 H :    0.011671
  28 H :    0.019797
  29 C :   -0.215063
  30 N :    0.200869
  31 C :    0.146761
  32 H :   -0.129610
  33 H :   -0.111107
  34 H :   -0.054524
  35 H :   -0.079784
  36 H :    0.012534

  Mayer bond orders larger than 0.100000
B(  0-C ,  1-C ) :   1.0627 B(  0-C ,  2-N ) :   0.9316 B(  0-C , 27-H ) :   0.7541
B(  0-C , 28-H ) :   0.8426 B(  0-C , 34-H ) :  -0.6100 B(  1-C ,  3-H ) :   0.8049
B(  1-C ,  4-C ) :   1.2353 B(  1-C ,  5-H ) :   0.9235 B(  1-C ,  6-H ) :   0.1126
B(  1-C , 27-H ) :   0.1006 B(  2-N , 27-H ) :   0.1922 B(  2-N , 29-C ) :   0.9175
B(  2-N , 31-C ) :   0.4711 B(  2-N , 33-H ) :   0.1238 B(  2-N , 34-H ) :   0.8503
B(  3-H ,  4-C ) :   0.1748 B(  4-C ,  6-H ) :   0.9104 B(  4-C ,  7-H ) :   0.8208
B(  4-C ,  8-C ) :   1.1967 B(  4-C , 11-H ) :   0.1624 B(  6-H ,  8-C ) :   0.1304
B(  7-H ,  8-C ) :   0.1479 B(  8-C ,  9-H ) :   0.8414 B(  8-C , 10-C ) :   1.1980
B(  8-C , 11-H ) :   0.9625 B(  8-C , 13-H ) :   0.1184 B(  8-C , 14-H ) :   0.2597
B( 10-C , 12-C ) :   1.2161 B( 10-C , 13-H ) :   0.7388 B( 10-C , 14-H ) :   0.7299
B( 12-C , 13-H ) :   0.2020 B( 12-C , 14-H ) :   0.1237 B( 12-C , 15-C ) :   1.2185
B( 12-C , 16-H ) :   0.8874 B( 12-C , 17-H ) :   0.9155 B( 12-C , 18-H ) :   0.1267
B( 12-C , 20-H ) :   0.1846 B( 13-H , 14-H ) :  -0.1012 B( 15-C , 17-H ) :   0.2225
B( 15-C , 18-H ) :   0.9107 B( 15-C , 19-C ) :   1.1868 B( 15-C , 20-H ) :   0.8574
B( 15-C , 21-H ) :   0.1069 B( 15-C , 22-H ) :   0.1833 B( 18-H , 19-C ) :   0.1267
B( 19-C , 21-H ) :   0.8286 B( 19-C , 22-H ) :   0.7704 B( 19-C , 23-C ) :   1.2341
B( 19-C , 24-H ) :   0.1101 B( 19-C , 25-H ) :   0.1272 B( 19-C , 26-F ) :   0.1229
B( 21-H , 23-C ) :   0.1423 B( 22-H , 23-C ) :   0.1358 B( 23-C , 24-H ) :   0.8543
B( 23-C , 25-H ) :   0.9184 B( 23-C , 26-F ) :   0.5037 B( 24-H , 26-F ) :   0.1121
B( 26-F , 34-H ) :   0.1274 B( 26-F , 35-H ) :   0.1770 B( 27-H , 28-H ) :  -0.1192
B( 27-H , 34-H ) :   0.1065 B( 29-C , 30-N ) :   0.7647 B( 29-C , 31-C ) :   1.6790
B( 29-C , 32-H ) :   0.3383 B( 29-C , 33-H ) :   0.3371 B( 29-C , 34-H ) :  -0.6175
B( 29-C , 36-H ) :  -0.1092 B( 30-N , 31-C ) :   0.2728 B( 30-N , 35-H ) :   0.9747
B( 30-N , 36-H ) :   1.2245 B( 31-C , 32-H ) :   0.5816 B( 31-C , 33-H ) :   0.7117
B( 35-H , 36-H ) :  -0.1491

Dispersion correction           -0.034927332
FINAL SINGLE POINT ENERGY      -641.178897370263

DIPOLE MOMENT
-------------
                                X             Y             Z
Electronic contribution:     -3.23870      -4.31118       9.07414
Nuclear contribution   :      1.49917       3.80845     -10.61369
                        -----------------------------------------
Total Dipole Moment    :     -1.73953      -0.50273      -1.53955
                        -----------------------------------------
Magnitude (a.u.)       :      2.37674
Magnitude (Debye)      :      6.04120

Rotational constants in cm-1:     0.026547     0.016542     0.011018
Rotational constants in MHz :   795.873737   495.912559   330.323979

                             ****ORCA TERMINATED NORMALLY****
TOTAL RUN TIME: 0 days 0 hours 3 minutes 18 seconds 252 msec
