                         Program Version 5.0.0 -  RELEASE  -
|  1> !M062X D3Zero RIJCOSX def2-SVP def2/J TightSCF
|  2> *xyz -1 1
|  3> C         -0.90349       -0.87394       -1.98739
|  4> C         -0.96015       -0.52236       -0.48987
|  5> H         -1.69039       -1.20813       -0.02168
|  6> H         -1.41449        0.48633       -0.40668
|  7> O          0.26170       -0.58031        0.13861
|  8> H         -1.88568       -0.80774       -2.40670
|  9> H         -0.53143       -1.87013       -2.10605
| 10> H         -0.25399       -0.18836       -2.49039
| 11> *
| 12>
| 13> %MaxCore 64000
| 14>
| 15> %pal nprocs 4
| 16> end
| 17>
| 18> %scf
| 19>   MaxIter 150
| 20> end
| 21>
| 22>
| 23>                          ****END OF INPUT****

CARTESIAN COORDINATES (ANGSTROEM)
---------------------------------
  C     -0.903490   -0.873940   -1.987390
  C     -0.960150   -0.522360   -0.489870
  H     -1.690390   -1.208130   -0.021680
  H     -1.414490    0.486330   -0.406680
  O      0.261700   -0.580310    0.138610
  H     -1.885680   -0.807740   -2.406700
  H     -0.531430   -1.870130   -2.106050
  H     -0.253990   -0.188360   -2.490390

 Total Charge           Charge          ....   -1
 Multiplicity           Mult            ....    1
 Number of Electrons    NEL             ....   26
 Basis Dimension        Dim             ....   67

ORBITAL ENERGIES
----------------

  NO   OCC          E(Eh)            E(eV)
   0   2.0000     -19.237867      -523.4890
   1   2.0000     -10.338979      -281.3379
   2   2.0000     -10.328228      -281.0454
   3   2.0000      -0.733304       -19.9542
   4   2.0000      -0.593317       -16.1450
   5   2.0000      -0.427315       -11.6278
   6   2.0000      -0.302694        -8.2367
   7   2.0000      -0.279077        -7.5941
   8   2.0000      -0.217151        -5.9090
   9   2.0000      -0.202001        -5.4967
  10   2.0000      -0.134138        -3.6501
  11   2.0000       0.011065         0.3011
  12   2.0000       0.013119         0.3570
  13   0.0000       0.291119         7.9218
  14   0.0000       0.336996         9.1701
  15   0.0000       0.350254         9.5309
  16   0.0000       0.356671         9.7055
  17   0.0000       0.399010        10.8576

MULLIKEN ATOMIC CHARGES
-----------------------
   0 C :   -0.023973
   1 C :    0.236339
   2 H :   -0.149227
   3 H :   -0.150744
   4 O :   -0.751631
   5 H :   -0.088257
   6 H :   -0.036284
   7 H :   -0.036224
Sum of atomic charges:   -1.0000000

LOEWDIN ATOMIC CHARGES
----------------------
   0 C :   -0.117660
   1 C :    0.013067
   2 H :   -0.076102
   3 H :   -0.076805
   4 O :   -0.695837
   5 H :   -0.028208
   6 H :   -0.009215
   7 H :   -0.009240

  Mayer bond orders larger than 0.100000
B(  0-C ,  1-C ) :   0.9926 B(  0-C ,  5-H ) :   0.9360 B(  0-C ,  6-H ) :   0.9642
B(  0-C ,  7-H ) :   0.9642 B(  1-C ,  2-H ) :   0.8873 B(  1-C ,  3-H ) :   0.8859
B(  1-C ,  4-O ) :   1.4708

Dispersion correction           -0.000015280
FINAL SINGLE POINT ENERGY      -154.192589347562

DIPOLE MOMENT
-------------
                                X             Y             Z
Electronic contribution:      2.13051       0.15343       2.23178
Nuclear contribution   :     -2.90669      -0.27617      -3.31210
                        -----------------------------------------
Total Dipole Moment    :     -0.77619      -0.12274      -1.08032
                        -----------------------------------------
Magnitude (a.u.)       :      1.33590
Magnitude (Debye)      :      3.39559

Rotational constants in cm-1:     1.291883     0.321656     0.284469
Rotational constants in MHz : 38729.676116  9643.011620  8528.167295

                             ****ORCA TERMINATED NORMALLY****
TOTAL RUN TIME: 0 days 0 hours 0 minutes 8 seconds 542 msec
