                         Program Version 5.0.0 -  RELEASE  -
|  1> !M062X D3Zero RIJCOSX def2-SVP def2/J TightSCF
|  2> *xyz 1 1
|  3> C          4.36645       -0.13321       -1.41606
|  4> C          4.50829       -0.93187       -2.72425
|  5> C          3.05650       -0.32080       -0.70738
|  6> N          2.38983        0.71129       -0.24391
|  7> N          2.51600       -1.50772       -0.55023
|  8> H          2.96768       -2.32291       -0.95631
|  9> H          1.54987       -1.49063       -0.24988
| 10> H          2.74307        1.64947       -0.41280
| 11> H          1.44036        0.50278        0.03703
| 12> H          4.48784        0.93300       -1.61157
| 13> H          5.16967       -0.41443       -0.72982
| 14> H          5.46700       -0.73824       -3.15818
| 15> H          3.74074       -0.63528       -3.40821
| 16> H          4.41574       -1.97727       -2.51573
| 17> *
| 18>
| 19> %MaxCore 64000
| 20>
| 21> %pal nprocs 4
| 22> end
| 23>
| 24> %scf
| 25>   MaxIter 150
| 26> end
| 27>
| 28>
| 29>                          ****END OF INPUT****

CARTESIAN COORDINATES (ANGSTROEM)
---------------------------------
  C      4.366450   -0.133210   -1.416060
  C      4.508290   -0.931870   -2.724250
  C      3.056500   -0.320800   -0.707380
  N      2.389830    0.711290   -0.243910
  N      2.516000   -1.507720   -0.550230
  H      2.967680   -2.322910   -0.956310
  H      1.549870   -1.490630   -0.249880
  H      2.743070    1.649470   -0.412800
  H      1.440360    0.502780    0.037030
  H      4.487840    0.933000   -1.611570
  H      5.169670   -0.414430   -0.729820
  H      5.467000   -0.738240   -3.158180
  H      3.740740   -0.635280   -3.408210
  H      4.415740   -1.977270   -2.515730

 Total Charge           Charge          ....    1
 Multiplicity           Mult            ....    1
 Number of Electrons    NEL             ....   40
 Basis Dimension        Dim             ....  115

ORBITAL ENERGIES
----------------

  NO   OCC          E(Eh)            E(eV)
   0   2.0000     -15.008728      -408.4083
   1   2.0000     -15.007783      -408.3825
   2   2.0000     -10.875574      -295.9394
   3   2.0000     -10.751671      -292.5678
   4   2.0000     -10.711078      -291.4633
   5   2.0000      -1.314225       -35.7619
   6   2.0000      -1.199312       -32.6349
   7   2.0000      -1.060308       -28.8524
   8   2.0000      -0.942014       -25.6335
   9   2.0000      -0.897956       -24.4346
  10   2.0000      -0.844925       -22.9916
  11   2.0000      -0.830255       -22.5924
  12   2.0000      -0.774191       -21.0668
  13   2.0000      -0.734364       -19.9831
  14   2.0000      -0.695867       -18.9355
  15   2.0000      -0.671077       -18.2609
  16   2.0000      -0.617085       -16.7917
  17   2.0000      -0.603612       -16.4251
  18   2.0000      -0.589198       -16.0329
  19   2.0000      -0.554757       -15.0957
  20   0.0000      -0.165354        -4.4995
  21   0.0000      -0.112804        -3.0695
  22   0.0000      -0.067521        -1.8373
  23   0.0000      -0.063952        -1.7402
  24   0.0000      -0.023664        -0.6439

MULLIKEN ATOMIC CHARGES
-----------------------
   0 C :   -0.038187
   1 C :   -0.060142
   2 C :   -0.062559
   3 N :   -0.028941
   4 N :   -0.030379
   5 H :    0.200726
   6 H :    0.186137
   7 H :    0.206686
   8 H :    0.183327
   9 H :    0.075256
  10 H :    0.130535
  11 H :    0.099703
  12 H :    0.078412
  13 H :    0.059425
Sum of atomic charges:    1.0000000

LOEWDIN ATOMIC CHARGES
----------------------
   0 C :   -0.041683
   1 C :   -0.029286
   2 C :    0.157515
   3 N :    0.088466
   4 N :    0.084991
   5 H :    0.124012
   6 H :    0.113483
   7 H :    0.127898
   8 H :    0.112703
   9 H :    0.055455
  10 H :    0.076755
  11 H :    0.057757
  12 H :    0.041879
  13 H :    0.030055

  Mayer bond orders larger than 0.100000
B(  0-C ,  1-C ) :   1.0726 B(  0-C ,  2-C ) :   1.0035 B(  0-C ,  9-H ) :   0.9220
B(  0-C , 10-H ) :   0.9117 B(  1-C , 11-H ) :   0.9579 B(  1-C , 12-H ) :   0.9757
B(  1-C , 13-H ) :   0.9690 B(  2-C ,  3-N ) :   1.5229 B(  2-C ,  4-N ) :   1.5094
B(  3-N ,  7-H ) :   0.9071 B(  3-N ,  8-H ) :   0.9205 B(  4-N ,  5-H ) :   0.9134
B(  4-N ,  6-H ) :   0.9195

Dispersion correction           -0.000199306
FINAL SINGLE POINT ENERGY      -228.736194289036

DIPOLE MOMENT
-------------
                                X             Y             Z
Electronic contribution:     -2.70258       0.62574       3.12888
Nuclear contribution   :      1.78847      -0.48174      -2.67127
                        -----------------------------------------
Total Dipole Moment    :     -0.91412       0.14400       0.45760
                        -----------------------------------------
Magnitude (a.u.)       :      1.03235
Magnitude (Debye)      :      2.62402

Rotational constants in cm-1:     0.286883     0.123210     0.094446
Rotational constants in MHz :  8600.540572  3693.747366  2831.415242

                             ****ORCA TERMINATED NORMALLY****
TOTAL RUN TIME: 0 days 0 hours 0 minutes 13 seconds 975 msec
