                         Program Version 5.0.0 -  RELEASE  -
|  1> !M062X D3Zero RIJCOSX def2-SVP def2/J TightSCF
|  2> *xyz 0 1
|  3> C         -0.90349       -0.87394       -1.98739
|  4> C         -0.96015       -0.52236       -0.48987
|  5> H         -1.69039       -1.20813       -0.02168
|  6> H         -1.41449        0.48633       -0.40668
|  7> F          0.26170       -0.58031        0.13861
|  8> H         -1.88568       -0.80774       -2.40670
|  9> H         -0.53143       -1.87013       -2.10605
| 10> H         -0.25399       -0.18836       -2.49039
| 11> *
| 12>
| 13> %MaxCore 64000
| 14>
| 15> %pal nprocs 4
| 16> end
| 17>
| 18> %scf
| 19>   MaxIter 150
| 20> end
| 21>
| 22>
| 23>                          ****END OF INPUT****

CARTESIAN COORDINATES (ANGSTROEM)
---------------------------------
  C     -0.903490   -0.873940   -1.987390
  C     -0.960150   -0.522360   -0.489870
  H     -1.690390   -1.208130   -0.021680
  H     -1.414490    0.486330   -0.406680
  F      0.261700   -0.580310    0.138610
  H     -1.885680   -0.807740   -2.406700
  H     -0.531430   -1.870130   -2.106050
  H     -0.253990   -0.188360   -2.490390

 Total Charge           Charge          ....    0
 Multiplicity           Mult            ....    1
 Number of Electrons    NEL             ....   26
 Basis Dimension        Dim             ....   67

ORBITAL ENERGIES
----------------

  NO   OCC          E(Eh)            E(eV)
   0   2.0000     -25.222795      -686.3471
   1   2.0000     -10.625356      -289.1306
   2   2.0000     -10.545394      -286.9548
   3   2.0000      -1.303149       -35.4605
   4   2.0000      -0.851167       -23.1614
   5   2.0000      -0.710060       -19.3217
   6   2.0000      -0.578787       -15.7496
   7   2.0000      -0.572595       -15.5811
   8   2.0000      -0.533888       -14.5278
   9   2.0000      -0.475834       -12.9481
  10   2.0000      -0.465540       -12.6680
  11   2.0000      -0.400157       -10.8888
  12   2.0000      -0.395212       -10.7543
  13   0.0000       0.103567         2.8182
  14   0.0000       0.150697         4.1007
  15   0.0000       0.158373         4.3095
  16   0.0000       0.175324         4.7708
  17   0.0000       0.195172         5.3109

MULLIKEN ATOMIC CHARGES
-----------------------
   0 C :   -0.114852
   1 C :    0.200816
   2 H :    0.030782
   3 H :    0.030992
   4 F :   -0.290667
   5 H :    0.040525
   6 H :    0.051173
   7 H :    0.051230
Sum of atomic charges:   -0.0000000

LOEWDIN ATOMIC CHARGES
----------------------
   0 C :   -0.079064
   1 C :    0.114689
   2 H :    0.012573
   3 H :    0.013105
   4 F :   -0.150815
   5 H :    0.032741
   6 H :    0.028395
   7 H :    0.028376

  Mayer bond orders larger than 0.100000
B(  0-C ,  1-C ) :   1.0881 B(  0-C ,  5-H ) :   0.9641 B(  0-C ,  6-H ) :   0.9721
B(  0-C ,  7-H ) :   0.9722 B(  1-C ,  2-H ) :   0.9633 B(  1-C ,  3-H ) :   0.9631
B(  1-C ,  4-F ) :   0.9650

Dispersion correction           -0.000019428
FINAL SINGLE POINT ENERGY      -178.833981072326

DIPOLE MOMENT
-------------
                                X             Y             Z
Electronic contribution:      3.22891       0.37840       3.99698
Nuclear contribution   :     -3.84149      -0.36812      -4.38946
                        -----------------------------------------
Total Dipole Moment    :     -0.61258       0.01028      -0.39248
                        -----------------------------------------
Magnitude (a.u.)       :      0.72760
Magnitude (Debye)      :      1.84941

Rotational constants in cm-1:     1.270659     0.299196     0.265842
Rotational constants in MHz : 38093.410361  8969.665806  7969.741481

                             ****ORCA TERMINATED NORMALLY****
TOTAL RUN TIME: 0 days 0 hours 0 minutes 7 seconds 805 msec
