                         Program Version 5.0.0 -  RELEASE  -
|  1> !M062X D3Zero RIJCOSX def2-SVP def2/J TightSCF
|  2> *xyz 0 1
|  3> C          4.36645       -0.13321       -1.41606
|  4> C          4.50829       -0.93187       -2.72425
|  5> C          3.05650       -0.32080       -0.70738
|  6> C          2.38983        0.71129       -0.24391
|  7> N          2.51600       -1.50772       -0.55023
|  8> H          2.96768       -2.32291       -0.95631
|  9> H          1.54987       -1.49063       -0.24988
| 10> H          2.74307        1.64947       -0.41280
| 11> H          1.44036        0.50278        0.03703
| 12> H          4.48784        0.93300       -1.61157
| 13> H          5.16967       -0.41443       -0.72982
| 14> H          5.46700       -0.73824       -3.15818
| 15> H          3.74074       -0.63528       -3.40821
| 16> H          4.41574       -1.97727       -2.51573
| 17> *
| 18>
| 19> %MaxCore 64000
| 20>
| 21> %pal nprocs 4
| 22> end
| 23>
| 24> %scf
| 25>   MaxIter 150
| 26> end
| 27>
| 28>
| 29>                          ****END OF INPUT****

CARTESIAN COORDINATES (ANGSTROEM)
---------------------------------
  C      4.366450   -0.133210   -1.416060
  C      4.508290   -0.931870   -2.724250
  C      3.056500   -0.320800   -0.707380
  C      2.389830    0.711290   -0.243910
  N      2.516000   -1.507720   -0.550230
  H      2.967680   -2.322910   -0.956310
  H      1.549870   -1.490630   -0.249880
  H      2.743070    1.649470   -0.412800
  H      1.440360    0.502780    0.037030
  H      4.487840    0.933000   -1.611570
  H      5.169670   -0.414430   -0.729820
  H      5.467000   -0.738240   -3.158180
  H      3.740740   -0.635280   -3.408210
  H      4.415740   -1.977270   -2.515730

 Total Charge           Charge          ....    0
 Multiplicity           Mult            ....    1
 Number of Electrons    NEL             ....   40
 Basis Dimension        Dim             ....  115

ORBITAL ENERGIES
----------------

  NO   OCC          E(Eh)            E(eV)
   0   2.0000     -14.751994      -401.4222
   1   2.0000     -10.562180      -287.4115
   2   2.0000     -10.548756      -287.0462
   3   2.0000     -10.542773      -286.8834
   4   2.0000     -10.477974      -285.1202
   5   2.0000      -1.023600       -27.8536
   6   2.0000      -0.863556       -23.4986
   7   2.0000      -0.803229       -21.8570
   8   2.0000      -0.712730       -19.3944
   9   2.0000      -0.631576       -17.1861
  10   2.0000      -0.602001       -16.3813
  11   2.0000      -0.536541       -14.6000
  12   2.0000      -0.505183       -13.7467
  13   2.0000      -0.494421       -13.4539
  14   2.0000      -0.453586       -12.3427
  15   2.0000      -0.443191       -12.0598
  16   2.0000      -0.416865       -11.3435
  17   2.0000      -0.401723       -10.9314
  18   2.0000      -0.384904       -10.4738
  19   2.0000      -0.234752        -6.3879
  20   0.0000       0.084598         2.3020
  21   0.0000       0.098511         2.6806
  22   0.0000       0.133575         3.6347
  23   0.0000       0.137630         3.7451
  24   0.0000       0.160490         4.3672

MULLIKEN ATOMIC CHARGES
-----------------------
   0 C :    0.000475
   1 C :   -0.058618
   2 C :   -0.154936
   3 C :   -0.054684
   4 N :   -0.116574
   5 H :    0.122695
   6 H :    0.134259
   7 H :   -0.021415
   8 H :   -0.038351
   9 H :    0.031312
  10 H :    0.047761
  11 H :    0.040179
  12 H :    0.044575
  13 H :    0.023323
Sum of atomic charges:    0.0000000

LOEWDIN ATOMIC CHARGES
----------------------
   0 C :   -0.036979
   1 C :   -0.055587
   2 C :    0.003045
   3 C :   -0.178052
   4 N :   -0.022837
   5 H :    0.072350
   6 H :    0.082668
   7 H :    0.001294
   8 H :   -0.006436
   9 H :    0.036179
  10 H :    0.033041
  11 H :    0.028298
  12 H :    0.027596
  13 H :    0.015419

  Mayer bond orders larger than 0.100000
B(  0-C ,  1-C ) :   1.0795 B(  0-C ,  2-C ) :   1.0129 B(  0-C ,  9-H ) :   0.9358
B(  0-C , 10-H ) :   0.9354 B(  1-C , 11-H ) :   0.9685 B(  1-C , 12-H ) :   0.9753
B(  1-C , 13-H ) :   0.9721 B(  2-C ,  3-C ) :   1.8723 B(  2-C ,  4-N ) :   1.2652
B(  3-C ,  7-H ) :   0.9443 B(  3-C ,  8-H ) :   0.9445 B(  4-N ,  5-H ) :   0.9466
B(  4-N ,  6-H ) :   0.9369

Dispersion correction           -0.000195866
FINAL SINGLE POINT ENERGY      -212.280771580899

DIPOLE MOMENT
-------------
                                X             Y             Z
Electronic contribution:     -1.49874      -0.49192       2.07205
Nuclear contribution   :      1.56827      -0.21459      -2.46657
                        -----------------------------------------
Total Dipole Moment    :      0.06952      -0.70651      -0.39452
                        -----------------------------------------
Magnitude (a.u.)       :      0.81218
Magnitude (Debye)      :      2.06439

Rotational constants in cm-1:     0.294070     0.127722     0.097792
Rotational constants in MHz :  8815.983970  3829.010547  2931.715816

                             ****ORCA TERMINATED NORMALLY****
TOTAL RUN TIME: 0 days 0 hours 0 minutes 14 seconds 693 msec
