                         Program Version 5.0.0 -  RELEASE  -
|  1> !M062X D3Zero RIJCOSX def2-SVP def2/J TightSCF
|  2> *xyz 0 1
|  3> C          4.36645       -0.13321       -1.41606
|  4> C          4.50829       -0.93187       -2.72425
|  5> C          3.05650       -0.32080       -0.70738
|  6> N          2.38983        0.71129       -0.24391
|  7> C          2.51600       -1.50772       -0.55023
|  8> H          2.96768       -2.32291       -0.95631
|  9> H          1.54987       -1.49063       -0.24988
| 10> H          2.74307        1.64947       -0.41280
| 11> H          1.44036        0.50278        0.03703
| 12> H          4.48784        0.93300       -1.61157
| 13> H          5.16967       -0.41443       -0.72982
| 14> H          5.46700       -0.73824       -3.15818
| 15> H          3.74074       -0.63528       -3.40821
| 16> H          4.41574       -1.97727       -2.51573
| 17> *
| 18>
| 19> %MaxCore 64000
| 20>
| 21> %pal nprocs 4
| 22> end
| 23>
| 24> %scf
| 25>   MaxIter 150
| 26> end
| 27>
| 28>
| 29>                          ****END OF INPUT****

CARTESIAN COORDINATES (ANGSTROEM)
---------------------------------
  C      4.366450   -0.133210   -1.416060
  C      4.508290   -0.931870   -2.724250
  C      3.056500   -0.320800   -0.707380
  N      2.389830    0.711290   -0.243910
  C      2.516000   -1.507720   -0.550230
  H      2.967680   -2.322910   -0.956310
  H      1.549870   -1.490630   -0.249880
  H      2.743070    1.649470   -0.412800
  H      1.440360    0.502780    0.037030
  H      4.487840    0.933000   -1.611570
  H      5.169670   -0.414430   -0.729820
  H      5.467000   -0.738240   -3.158180
  H      3.740740   -0.635280   -3.408210
  H      4.415740   -1.977270   -2.515730

 Total Charge           Charge          ....    0
 Multiplicity           Mult            ....    1
 Number of Electrons    NEL             ....   40
 Basis Dimension        Dim             ....  115

ORBITAL ENERGIES
----------------

  NO   OCC          E(Eh)            E(eV)
   0   2.0000     -14.751955      -401.4211
   1   2.0000     -10.562508      -287.4205
   2   2.0000     -10.550067      -287.0819
   3   2.0000     -10.535953      -286.6979
   4   2.0000     -10.476164      -285.0709
   5   2.0000      -1.023572       -27.8528
   6   2.0000      -0.865017       -23.5383
   7   2.0000      -0.791292       -21.5322
   8   2.0000      -0.722600       -19.6629
   9   2.0000      -0.621586       -16.9142
  10   2.0000      -0.598738       -16.2925
  11   2.0000      -0.544337       -14.8122
  12   2.0000      -0.516537       -14.0557
  13   2.0000      -0.469202       -12.7676
  14   2.0000      -0.452125       -12.3030
  15   2.0000      -0.442069       -12.0293
  16   2.0000      -0.416921       -11.3450
  17   2.0000      -0.399701       -10.8764
  18   2.0000      -0.386274       -10.5111
  19   2.0000      -0.232903        -6.3376
  20   0.0000       0.091161         2.4806
  21   0.0000       0.095925         2.6103
  22   0.0000       0.132318         3.6006
  23   0.0000       0.136550         3.7157
  24   0.0000       0.165095         4.4925

MULLIKEN ATOMIC CHARGES
-----------------------
   0 C :   -0.003805
   1 C :   -0.042984
   2 C :   -0.153711
   3 N :   -0.122049
   4 C :   -0.059998
   5 H :   -0.022253
   6 H :   -0.035391
   7 H :    0.126436
   8 H :    0.131401
   9 H :    0.006938
  10 H :    0.058213
  11 H :    0.031310
  12 H :    0.039914
  13 H :    0.045980
Sum of atomic charges:    0.0000000

LOEWDIN ATOMIC CHARGES
----------------------
   0 C :   -0.039156
   1 C :   -0.045350
   2 C :    0.004083
   3 N :   -0.020420
   4 C :   -0.183479
   5 H :   -0.000494
   6 H :   -0.005625
   7 H :    0.073907
   8 H :    0.081790
   9 H :    0.018895
  10 H :    0.040483
  11 H :    0.023153
  12 H :    0.026141
  13 H :    0.026072

  Mayer bond orders larger than 0.100000
B(  0-C ,  1-C ) :   1.1010 B(  0-C ,  2-C ) :   0.9861 B(  0-C ,  9-H ) :   0.9379
B(  0-C , 10-H ) :   0.9342 B(  1-C , 11-H ) :   0.9674 B(  1-C , 12-H ) :   0.9768
B(  1-C , 13-H ) :   0.9729 B(  2-C ,  3-N ) :   1.2688 B(  2-C ,  4-C ) :   1.8678
B(  3-N ,  7-H ) :   0.9409 B(  3-N ,  8-H ) :   0.9382 B(  4-C ,  5-H ) :   0.9547
B(  4-C ,  6-H ) :   0.9441

Dispersion correction           -0.000196402
FINAL SINGLE POINT ENERGY      -212.279320514538

DIPOLE MOMENT
-------------
                                X             Y             Z
Electronic contribution:     -1.61052       1.50578       2.36568
Nuclear contribution   :      1.59749      -0.72853      -2.53752
                        -----------------------------------------
Total Dipole Moment    :     -0.01304       0.77724      -0.17184
                        -----------------------------------------
Magnitude (a.u.)       :      0.79612
Magnitude (Debye)      :      2.02358

Rotational constants in cm-1:     0.304597     0.124127     0.096828
Rotational constants in MHz :  9131.600925  3721.227051  2902.830760

                             ****ORCA TERMINATED NORMALLY****
TOTAL RUN TIME: 0 days 0 hours 0 minutes 14 seconds 664 msec
