                         Program Version 5.0.0 -  RELEASE  -
|  1> !M062X D3Zero RIJCOSX def2-TZVP def2/J TightSCF xyzfile
|  2>
|  3> *xyzfile 0 1 D1.xyz
|  4>
|  5> %MaxCore 64000
|  6>
|  7> %pal nprocs 18
|  8> end
|  9>
| 10> %scf
| 11>   MaxIter 150
| 12> end
| 13>
| 14>
| 15>                          ****END OF INPUT****

CARTESIAN COORDINATES (ANGSTROEM)
---------------------------------
  C      4.366454   -0.133215   -1.416062
  C      4.508292   -0.931872   -2.724249
  H      4.753716   -1.972051   -2.488408
  C      3.294164   -0.918214   -3.656570
  H      5.385637   -0.536236   -3.242640
  H      2.483463   -1.477378   -3.185764
  H      3.553092   -1.478495   -4.560331
  C      2.772335    0.460100   -4.051448
  H      2.608762    1.065107   -3.155194
  C      1.465354    0.410537   -4.853644
  H      3.532940    0.988848   -4.635671
  C      0.326171   -0.375613   -4.192580
  H      1.666704   -0.022269   -5.839323
  H      1.138198    1.439246   -5.035449
  C     -0.017405    0.080588   -2.778406
  H      0.585573   -1.439385   -4.168057
  H     -0.560005   -0.311425   -4.831461
  H      0.902090    0.201296   -2.206729
  C     -0.903495   -0.873945   -1.987388
  H     -0.479549    1.074657   -2.811915
  H     -0.502554   -1.892096   -2.081204
  H     -1.917039   -0.895427   -2.406277
  C     -0.960148   -0.522365   -0.489867
  H     -1.690392   -1.208130   -0.021677
  H     -1.414490    0.486329   -0.406677
  F      0.261703   -0.580307    0.138611
  C      3.056503   -0.320797   -0.707384
  C      2.389825    0.711285   -0.243909
  N      2.515999   -1.507721   -0.550229
  H      2.967683   -2.322915   -0.956305
  H      1.549872   -1.490634   -0.249876
  H      2.743071    1.649471   -0.412802
  H      1.440364    0.502778    0.037031
  H      4.487835    0.932997   -1.611569
  H      5.169672   -0.414432   -0.729817

 Total Charge           Charge          ....    0
 Multiplicity           Mult            ....    1
 Number of Electrons    NEL             ....  104
 Basis Dimension        Dim             ....  535

ORBITAL ENERGIES
----------------

  NO   OCC          E(Eh)            E(eV)
   0   2.0000     -25.262822      -687.4363
   1   2.0000     -14.721341      -400.5881
   2   2.0000     -10.627379      -289.1857
   3   2.0000     -10.546590      -286.9873
   4   2.0000     -10.536863      -286.7226
   5   2.0000     -10.527390      -286.4649
   6   2.0000     -10.526902      -286.4516
   7   2.0000     -10.524967      -286.3989
   8   2.0000     -10.524602      -286.3890
   9   2.0000     -10.522737      -286.3382
  10   2.0000     -10.520477      -286.2767
  11   2.0000     -10.518335      -286.2184
  12   2.0000     -10.441057      -284.1156
  13   2.0000      -1.382078       -37.6082
  14   2.0000      -1.025195       -27.8970
  15   2.0000      -0.919424       -25.0188
  16   2.0000      -0.896184       -24.3864
  17   2.0000      -0.868236       -23.6259
  18   2.0000      -0.829203       -22.5638
  19   2.0000      -0.799987       -21.7688
  20   2.0000      -0.777411       -21.1544
  21   2.0000      -0.726931       -19.7808
  22   2.0000      -0.701618       -19.0920
  23   2.0000      -0.669508       -18.2182
  24   2.0000      -0.636918       -17.3314
  25   2.0000      -0.623043       -16.9539
  26   2.0000      -0.619098       -16.8465
  27   2.0000      -0.609325       -16.5806
  28   2.0000      -0.601270       -16.3614
  29   2.0000      -0.561432       -15.2773
  30   2.0000      -0.547129       -14.8881
  31   2.0000      -0.532248       -14.4832
  32   2.0000      -0.513282       -13.9671
  33   2.0000      -0.506882       -13.7929
  34   2.0000      -0.497065       -13.5258
  35   2.0000      -0.489201       -13.3118
  36   2.0000      -0.467456       -12.7201
  37   2.0000      -0.457393       -12.4463
  38   2.0000      -0.444841       -12.1047
  39   2.0000      -0.436479       -11.8772
  40   2.0000      -0.429101       -11.6764
  41   2.0000      -0.422784       -11.5045
  42   2.0000      -0.413448       -11.2505
  43   2.0000      -0.403744       -10.9864
  44   2.0000      -0.401243       -10.9184
  45   2.0000      -0.391551       -10.6547
  46   2.0000      -0.373993       -10.1769
  47   2.0000      -0.372082       -10.1249
  48   2.0000      -0.363518        -9.8918
  49   2.0000      -0.360213        -9.8019
  50   2.0000      -0.356982        -9.7140
  51   2.0000      -0.225620        -6.1394
  52   0.0000       0.055169         1.5012
  53   0.0000       0.067778         1.8443
  54   0.0000       0.074917         2.0386
  55   0.0000       0.082455         2.2437
  56   0.0000       0.087293         2.3754

MULLIKEN ATOMIC CHARGES
-----------------------
   0 C :   -0.332078
   1 C :   -0.369142
   2 H :    0.162538
   3 C :   -0.261252
   4 H :    0.149061
   5 H :    0.129035
   6 H :    0.145756
   7 C :   -0.284722
   8 H :    0.162300
   9 C :   -0.273579
  10 H :    0.144372
  11 C :   -0.304690
  12 H :    0.145169
  13 H :    0.145236
  14 C :   -0.265971
  15 H :    0.156908
  16 H :    0.144112
  17 H :    0.096041
  18 C :   -0.301382
  19 H :    0.151835
  20 H :    0.154383
  21 H :    0.148482
  22 C :   -0.031702
  23 H :    0.140504
  24 H :    0.143164
  25 F :   -0.242701
  26 C :    0.271593
  27 C :   -0.478154
  28 N :   -0.533510
  29 H :    0.239280
  30 H :    0.273867
  31 H :    0.100330
  32 H :    0.152512
  33 H :    0.164203
  34 H :    0.158202
Sum of atomic charges:   -0.0000000

LOEWDIN ATOMIC CHARGES
----------------------
   0 C :   -0.221736
   1 C :   -0.271375
   2 H :    0.134140
   3 C :   -0.274397
   4 H :    0.139802
   5 H :    0.133781
   6 H :    0.137942
   7 C :   -0.271377
   8 H :    0.141729
   9 C :   -0.269490
  10 H :    0.136541
  11 C :   -0.275664
  12 H :    0.137251
  13 H :    0.137814
  14 C :   -0.276411
  15 H :    0.135666
  16 H :    0.135866
  17 H :    0.150864
  18 C :   -0.281486
  19 H :    0.139436
  20 H :    0.139859
  21 H :    0.144622
  22 C :   -0.331860
  23 H :    0.127083
  24 H :    0.130945
  25 F :    0.130496
  26 C :   -0.384586
  27 C :   -0.287219
  28 N :   -0.008602
  29 H :    0.166452
  30 H :    0.162781
  31 H :    0.100572
  32 H :    0.094908
  33 H :    0.149366
  34 H :    0.146290

  Mayer bond orders larger than 0.100000
B(  0-C ,  1-C ) :   0.8753 B(  0-C , 26-C ) :   0.9106 B(  0-C , 33-H ) :   0.9993
B(  0-C , 34-H ) :   0.9823 B(  1-C ,  2-H ) :   1.0026 B(  1-C ,  3-C ) :   0.8921
B(  1-C ,  4-H ) :   0.9809 B(  3-C ,  5-H ) :   0.9826 B(  3-C ,  6-H ) :   0.9787
B(  3-C ,  7-C ) :   0.8664 B(  7-C ,  8-H ) :   0.9814 B(  7-C ,  9-C ) :   0.9211
B(  7-C , 10-H ) :   0.9794 B(  9-C , 11-C ) :   0.9269 B(  9-C , 12-H ) :   0.9897
B(  9-C , 13-H ) :   0.9903 B( 11-C , 14-C ) :   0.9064 B( 11-C , 15-H ) :   0.9905
B( 11-C , 16-H ) :   0.9851 B( 14-C , 17-H ) :   0.9956 B( 14-C , 18-C ) :   0.9015
B( 14-C , 19-H ) :   0.9792 B( 18-C , 20-H ) :   0.9809 B( 18-C , 21-H ) :   0.9607
B( 18-C , 22-C ) :   0.9531 B( 22-C , 23-H ) :   0.9845 B( 22-C , 24-H ) :   0.9846
B( 22-C , 25-F ) :   0.8806 B( 26-C , 27-C ) :   1.7026 B( 26-C , 28-N ) :   1.0763
B( 27-C , 31-H ) :   1.0206 B( 27-C , 32-H ) :   1.0002 B( 28-N , 29-H ) :   0.9304
B( 28-N , 30-H ) :   0.8897

Dispersion correction           -0.002139516
FINAL SINGLE POINT ENERGY      -586.905632499455

DIPOLE MOMENT
-------------
                                X             Y             Z
Electronic contribution:     -2.69663      -1.60056      10.43918
Nuclear contribution   :      1.82572       1.04089     -11.09065
                        -----------------------------------------
Total Dipole Moment    :     -0.87091      -0.55967      -0.65147
                        -----------------------------------------
Magnitude (a.u.)       :      1.22316
Magnitude (Debye)      :      3.10903

Rotational constants in cm-1:     0.028436     0.022359     0.014416
Rotational constants in MHz :   852.496561   670.291843   432.183951

                             ****ORCA TERMINATED NORMALLY****
TOTAL RUN TIME: 0 days 0 hours 0 minutes 53 seconds 724 msec
