                         Program Version 5.0.0 -  RELEASE  -
|  1> !M062X D3Zero RIJCOSX def2-TZVP def2/J TightSCF xyzfile
|  2>
|  3> *xyzfile 0 1 D2.xyz
|  4>
|  5> %MaxCore 64000
|  6>
|  7> %pal nprocs 18
|  8> end
|  9>
| 10> %scf
| 11>   MaxIter 150
| 12> end
| 13>
| 14>
| 15>                          ****END OF INPUT****

CARTESIAN COORDINATES (ANGSTROEM)
---------------------------------
  C      4.366454   -0.133215   -1.416062
  C      4.508292   -0.931872   -2.724249
  H      4.753716   -1.972051   -2.488408
  C      3.294164   -0.918214   -3.656570
  H      5.385637   -0.536236   -3.242640
  H      2.483463   -1.477378   -3.185764
  H      3.553092   -1.478495   -4.560331
  C      2.772335    0.460100   -4.051448
  H      2.608762    1.065107   -3.155194
  C      1.465354    0.410537   -4.853644
  H      3.532940    0.988848   -4.635671
  C      0.326171   -0.375613   -4.192580
  H      1.666704   -0.022269   -5.839323
  H      1.138198    1.439246   -5.035449
  C     -0.017405    0.080588   -2.778406
  H      0.585573   -1.439385   -4.168057
  H     -0.560005   -0.311425   -4.831461
  H      0.902090    0.201296   -2.206729
  C     -0.903495   -0.873945   -1.987388
  H     -0.479549    1.074657   -2.811915
  H     -0.502554   -1.892096   -2.081204
  H     -1.917039   -0.895427   -2.406277
  C     -0.960148   -0.522365   -0.489867
  H     -1.690392   -1.208130   -0.021677
  H     -1.414490    0.486329   -0.406677
  F      0.261703   -0.580307    0.138611
  C      3.056503   -0.320797   -0.707384
  N      2.389825    0.711285   -0.243909
  C      2.515999   -1.507721   -0.550229
  H      2.967683   -2.322915   -0.956305
  H      1.549872   -1.490634   -0.249876
  H      2.743071    1.649471   -0.412802
  H      1.440364    0.502778    0.037031
  H      4.487835    0.932997   -1.611569
  H      5.169672   -0.414432   -0.729817

 Total Charge           Charge          ....    0
 Multiplicity           Mult            ....    1
 Number of Electrons    NEL             ....  104
 Basis Dimension        Dim             ....  535

ORBITAL ENERGIES
----------------

  NO   OCC          E(Eh)            E(eV)
   0   2.0000     -25.262888      -687.4381
   1   2.0000     -14.720900      -400.5760
   2   2.0000     -10.627576      -289.1910
   3   2.0000     -10.544981      -286.9435
   4   2.0000     -10.536611      -286.7158
   5   2.0000     -10.527311      -286.4627
   6   2.0000     -10.526657      -286.4449
   7   2.0000     -10.525134      -286.4034
   8   2.0000     -10.524153      -286.3768
   9   2.0000     -10.523018      -286.3459
  10   2.0000     -10.520119      -286.2670
  11   2.0000     -10.514323      -286.1093
  12   2.0000     -10.439345      -284.0690
  13   2.0000      -1.382097       -37.6088
  14   2.0000      -1.025054       -27.8931
  15   2.0000      -0.919219       -25.0132
  16   2.0000      -0.895687       -24.3729
  17   2.0000      -0.869084       -23.6490
  18   2.0000      -0.825476       -22.4623
  19   2.0000      -0.792847       -21.5745
  20   2.0000      -0.778826       -21.1929
  21   2.0000      -0.730351       -19.8738
  22   2.0000      -0.703286       -19.1374
  23   2.0000      -0.670781       -18.2529
  24   2.0000      -0.634999       -17.2792
  25   2.0000      -0.628190       -17.0939
  26   2.0000      -0.611303       -16.6344
  27   2.0000      -0.607901       -16.5418
  28   2.0000      -0.594657       -16.1814
  29   2.0000      -0.560699       -15.2574
  30   2.0000      -0.548394       -14.9225
  31   2.0000      -0.532624       -14.4934
  32   2.0000      -0.522048       -14.2056
  33   2.0000      -0.504512       -13.7285
  34   2.0000      -0.498038       -13.5523
  35   2.0000      -0.480868       -13.0851
  36   2.0000      -0.466711       -12.6999
  37   2.0000      -0.456164       -12.4128
  38   2.0000      -0.445943       -12.1347
  39   2.0000      -0.432222       -11.7614
  40   2.0000      -0.426776       -11.6132
  41   2.0000      -0.423899       -11.5349
  42   2.0000      -0.413229       -11.2445
  43   2.0000      -0.411141       -11.1877
  44   2.0000      -0.395385       -10.7590
  45   2.0000      -0.387385       -10.5413
  46   2.0000      -0.374182       -10.1820
  47   2.0000      -0.369625       -10.0580
  48   2.0000      -0.365483        -9.9453
  49   2.0000      -0.358613        -9.7584
  50   2.0000      -0.356569        -9.7027
  51   2.0000      -0.224052        -6.0968
  52   0.0000       0.059360         1.6153
  53   0.0000       0.068615         1.8671
  54   0.0000       0.075250         2.0477
  55   0.0000       0.081341         2.2134
  56   0.0000       0.084504         2.2995

MULLIKEN ATOMIC CHARGES
-----------------------
   0 C :   -0.338582
   1 C :   -0.348132
   2 H :    0.164891
   3 C :   -0.217432
   4 H :    0.142839
   5 H :    0.144460
   6 H :    0.141755
   7 C :   -0.319941
   8 H :    0.146812
   9 C :   -0.267005
  10 H :    0.145880
  11 C :   -0.307725
  12 H :    0.146575
  13 H :    0.143581
  14 C :   -0.272764
  15 H :    0.162119
  16 H :    0.143673
  17 H :    0.094808
  18 C :   -0.287060
  19 H :    0.149979
  20 H :    0.164979
  21 H :    0.148654
  22 C :   -0.039509
  23 H :    0.143139
  24 H :    0.137462
  25 F :   -0.241937
  26 C :    0.264537
  27 N :   -0.540127
  28 C :   -0.479009
  29 H :    0.102700
  30 H :    0.143897
  31 H :    0.233220
  32 H :    0.283311
  33 H :    0.146930
  34 H :    0.163020
Sum of atomic charges:   -0.0000000

LOEWDIN ATOMIC CHARGES
----------------------
   0 C :   -0.222348
   1 C :   -0.260954
   2 H :    0.140079
   3 C :   -0.272638
   4 H :    0.137409
   5 H :    0.140715
   6 H :    0.137168
   7 C :   -0.272410
   8 H :    0.133755
   9 C :   -0.269269
  10 H :    0.136607
  11 C :   -0.273950
  12 H :    0.138112
  13 H :    0.136706
  14 C :   -0.278660
  15 H :    0.138177
  16 H :    0.136002
  17 H :    0.147074
  18 C :   -0.277424
  19 H :    0.137214
  20 H :    0.144943
  21 H :    0.144387
  22 C :   -0.332834
  23 H :    0.128571
  24 H :    0.127889
  25 F :    0.130987
  26 C :   -0.385369
  27 N :   -0.015181
  28 C :   -0.286258
  29 H :    0.101808
  30 H :    0.097423
  31 H :    0.164151
  32 H :    0.160256
  33 H :    0.136469
  34 H :    0.151390

  Mayer bond orders larger than 0.100000
B(  0-C ,  1-C ) :   0.9068 B(  0-C , 26-C ) :   0.8948 B(  0-C , 33-H ) :   1.0026
B(  0-C , 34-H ) :   0.9766 B(  1-C ,  2-H ) :   0.9901 B(  1-C ,  3-C ) :   0.9167
B(  1-C ,  4-H ) :   0.9842 B(  3-C ,  5-H ) :   0.9746 B(  3-C ,  6-H ) :   0.9778
B(  3-C ,  7-C ) :   0.8644 B(  7-C ,  8-H ) :   0.9858 B(  7-C ,  9-C ) :   0.9199
B(  7-C , 10-H ) :   0.9792 B(  9-C , 11-C ) :   0.9241 B(  9-C , 12-H ) :   0.9884
B(  9-C , 13-H ) :   0.9918 B( 11-C , 14-C ) :   0.9167 B( 11-C , 15-H ) :   0.9884
B( 11-C , 16-H ) :   0.9848 B( 14-C , 17-H ) :   0.9881 B( 14-C , 18-C ) :   0.9077
B( 14-C , 19-H ) :   0.9769 B( 18-C , 20-H ) :   0.9750 B( 18-C , 21-H ) :   0.9618
B( 18-C , 22-C ) :   0.9517 B( 22-C , 23-H ) :   0.9865 B( 22-C , 24-H ) :   0.9833
B( 22-C , 25-F ) :   0.8874 B( 26-C , 27-N ) :   1.0762 B( 26-C , 28-C ) :   1.7054
B( 27-N , 31-H ) :   0.9311 B( 27-N , 32-H ) :   0.8884 B( 28-C , 29-H ) :   1.0130
B( 28-C , 30-H ) :   0.9983

Dispersion correction           -0.002138619
FINAL SINGLE POINT ENERGY      -586.904989988249

DIPOLE MOMENT
-------------
                                X             Y             Z
Electronic contribution:     -2.78827       0.01245      10.66823
Nuclear contribution   :      1.85154       0.58682     -11.15333
                        -----------------------------------------
Total Dipole Moment    :     -0.93674       0.59927      -0.48510
                        -----------------------------------------
Magnitude (a.u.)       :      1.21323
Magnitude (Debye)      :      3.08379

Rotational constants in cm-1:     0.028379     0.022321     0.014415
Rotational constants in MHz :   850.785777   669.176075   432.155504

                             ****ORCA TERMINATED NORMALLY****
TOTAL RUN TIME: 0 days 0 hours 0 minutes 54 seconds 186 msec
