                         Program Version 5.0.0 -  RELEASE  -
|  1> !wB97X-D3 RIJCOSX def2-SVP def2/J TightSCF
|  2> *xyz -1 1
|  3> C         -0.46129        2.23469       -4.98962
|  4> C          0.84888        2.66797       -4.30235
|  5> C          2.09343        1.86104       -4.65684
|  6> H          2.44481        2.04157       -5.67499
|  7> H          2.90175        2.13786       -3.98034
|  8> S          1.87964        0.07859       -4.46297
|  9> O          3.20757       -0.46611       -4.42026
| 10> O          1.07506       -0.05616       -3.26876
| 11> O          1.13166       -0.31996       -5.67903
| 12> H          0.66843        2.55943       -3.23285
| 13> H          1.03407        3.72943       -4.49708
| 14> H         -0.35183        2.31783       -6.05075
| 15> H         -1.26108        2.86600       -4.66300
| 16> H         -0.68032        1.21949       -4.73211
| 17> *
| 18>
| 19> %MaxCore 64000
| 20>
| 21> %pal nprocs 8
| 22> end
| 23>
| 24> %scf
| 25>   MaxIter 150
| 26> end
| 27>
| 28>
| 29>                          ****END OF INPUT****

CARTESIAN COORDINATES (ANGSTROEM)
---------------------------------
  C     -0.461290    2.234690   -4.989620
  C      0.848880    2.667970   -4.302350
  C      2.093430    1.861040   -4.656840
  H      2.444810    2.041570   -5.674990
  H      2.901750    2.137860   -3.980340
  S      1.879640    0.078590   -4.462970
  O      3.207570   -0.466110   -4.420260
  O      1.075060   -0.056160   -3.268760
  O      1.131660   -0.319960   -5.679030
  H      0.668430    2.559430   -3.232850
  H      1.034070    3.729430   -4.497080
  H     -0.351830    2.317830   -6.050750
  H     -1.261080    2.866000   -4.663000
  H     -0.680320    1.219490   -4.732110

 Total Charge           Charge          ....   -1
 Multiplicity           Mult            ....    1
 Number of Electrons    NEL             ....   66
 Basis Dimension        Dim             ....  137

ORBITAL ENERGIES
----------------

  NO   OCC          E(Eh)            E(eV)
   0   2.0000     -88.943271     -2420.2695
   1   2.0000     -18.998165      -516.9664
   2   2.0000     -18.996871      -516.9311
   3   2.0000     -18.981338      -516.5085
   4   2.0000     -10.148736      -276.1611
   5   2.0000     -10.134279      -275.7678
   6   2.0000     -10.129515      -275.6381
   7   2.0000      -8.023926      -218.3421
   8   2.0000      -5.983007      -162.8059
   9   2.0000      -5.982766      -162.7993
  10   2.0000      -5.982551      -162.7935
  11   2.0000      -1.028522       -27.9875
  12   2.0000      -0.887184       -24.1415
  13   2.0000      -0.859715       -23.3940
  14   2.0000      -0.754000       -20.5174
  15   2.0000      -0.661539       -18.0014
  16   2.0000      -0.562894       -15.3171
  17   2.0000      -0.468427       -12.7465
  18   2.0000      -0.421946       -11.4817
  19   2.0000      -0.407894       -11.0994
  20   2.0000      -0.380781       -10.3616
  21   2.0000      -0.366340        -9.9686
  22   2.0000      -0.341532        -9.2936
  23   2.0000      -0.332418        -9.0455
  24   2.0000      -0.310044        -8.4367
  25   2.0000      -0.299018        -8.1367
  26   2.0000      -0.281198        -7.6518
  27   2.0000      -0.227071        -6.1789
  28   2.0000      -0.225787        -6.1440
  29   2.0000      -0.192454        -5.2369
  30   2.0000      -0.181429        -4.9369
  31   2.0000      -0.169423        -4.6102
  32   2.0000      -0.137490        -3.7413
  33   0.0000       0.278223         7.5708
  34   0.0000       0.324396         8.8273
  35   0.0000       0.330578         8.9955
  36   0.0000       0.345533         9.4024
  37   0.0000       0.362810         9.8726

MULLIKEN ATOMIC CHARGES
-----------------------
   0 C :   -0.007794
   1 C :   -0.075112
   2 C :   -0.080626
   3 H :    0.016333
   4 H :    0.010085
   5 S :    0.879411
   6 O :   -0.567932
   7 O :   -0.579010
   8 O :   -0.619004
   9 H :    0.016807
  10 H :   -0.021127
  11 H :    0.000117
  12 H :   -0.028071
  13 H :    0.055923
Sum of atomic charges:   -1.0000000

LOEWDIN ATOMIC CHARGES
----------------------
   0 C :   -0.064425
   1 C :   -0.059207
   2 C :   -0.187746
   3 H :    0.009690
   4 H :    0.008183
   5 S :    1.103273
   6 O :   -0.603145
   7 O :   -0.610570
   8 O :   -0.650992
   9 H :    0.017593
  10 H :    0.001407
  11 H :    0.011093
  12 H :   -0.000604
  13 H :    0.025450

  Mayer bond orders larger than 0.100000
B(  0-C ,  1-C ) :   1.0868 B(  0-C , 11-H ) :   0.9740 B(  0-C , 12-H ) :   0.9672
B(  0-C , 13-H ) :   0.9595 B(  1-C ,  2-C ) :   1.0477 B(  1-C ,  9-H ) :   0.9491
B(  1-C , 10-H ) :   0.9523 B(  2-C ,  3-H ) :   0.9440 B(  2-C ,  4-H ) :   0.9446
B(  2-C ,  5-S ) :   0.9026 B(  5-S ,  6-O ) :   1.6578 B(  5-S ,  7-O ) :   1.6085
B(  5-S ,  8-O ) :   1.5631

Dispersion correction           -0.004656562
FINAL SINGLE POINT ENERGY      -741.916315957253

DIPOLE MOMENT
-------------
                                X             Y             Z
Electronic contribution:      4.92995      -9.24238       1.05218
Nuclear contribution   :     -5.21326      11.14780      -1.06438
                        -----------------------------------------
Total Dipole Moment    :     -0.28331       1.90542      -0.01220
                        -----------------------------------------
Magnitude (a.u.)       :      1.92641
Magnitude (Debye)      :      4.89653

Rotational constants in cm-1:     0.135673     0.057896     0.054396
Rotational constants in MHz :  4067.361083  1735.682437  1630.763840

                             ****ORCA TERMINATED NORMALLY****
TOTAL RUN TIME: 0 days 0 hours 0 minutes 12 seconds 513 msec
