                         Program Version 5.0.0 -  RELEASE  -
|  1> !wB97X-D3 RIJCOSX def2-SVP def2/J TightSCF
|  2> *xyz 1 1
|  3> C         -0.46129        2.23469       -4.98962
|  4> C          0.84888        2.66797       -4.30235
|  5> C          2.09343        1.86104       -4.65684
|  6> C         -0.42384        2.39877       -6.47432
|  7> N         -0.95947        3.49265       -7.00740
|  8> N          0.14558        1.48689       -7.20399
|  9> H          0.56537        0.69681       -6.72386
| 10> H          0.22068        1.58177       -8.20752
| 11> H         -1.40624        4.18151       -6.40326
| 12> H         -0.93421        3.68160       -7.99947
| 13> H          0.66843        2.55943       -3.23285
| 14> H          1.03407        3.72943       -4.49708
| 15> H         -1.28888        2.82674       -4.59500
| 16> H         -0.65170        1.18634       -4.75655
| 17> H          2.29129        1.95234       -5.70442
| 18> H          1.93270        0.83176       -4.41261
| 19> H          2.92953        2.23285       -4.10223
| 20> *
| 21>
| 22> %MaxCore 64000
| 23>
| 24> %pal nprocs 8
| 25> end
| 26>
| 27> %scf
| 28>   MaxIter 150
| 29> end
| 30>
| 31>
| 32>                          ****END OF INPUT****

CARTESIAN COORDINATES (ANGSTROEM)
---------------------------------
  C     -0.461290    2.234690   -4.989620
  C      0.848880    2.667970   -4.302350
  C      2.093430    1.861040   -4.656840
  C     -0.423840    2.398770   -6.474320
  N     -0.959470    3.492650   -7.007400
  N      0.145580    1.486890   -7.203990
  H      0.565370    0.696810   -6.723860
  H      0.220680    1.581770   -8.207520
  H     -1.406240    4.181510   -6.403260
  H     -0.934210    3.681600   -7.999470
  H      0.668430    2.559430   -3.232850
  H      1.034070    3.729430   -4.497080
  H     -1.288880    2.826740   -4.595000
  H     -0.651700    1.186340   -4.756550
  H      2.291290    1.952340   -5.704420
  H      1.932700    0.831760   -4.412610
  H      2.929530    2.232850   -4.102230

 Total Charge           Charge          ....    1
 Multiplicity           Mult            ....    1
 Number of Electrons    NEL             ....   48
 Basis Dimension        Dim             ....  139

ORBITAL ENERGIES
----------------

  NO   OCC          E(Eh)            E(eV)
   0   2.0000     -14.682257      -399.5245
   1   2.0000     -14.678000      -399.4087
   2   2.0000     -10.610670      -288.7310
   3   2.0000     -10.482758      -285.2504
   4   2.0000     -10.449530      -284.3462
   5   2.0000     -10.418274      -283.4957
   6   2.0000      -1.312810       -35.7234
   7   2.0000      -1.213870       -33.0311
   8   2.0000      -1.084509       -29.5110
   9   2.0000      -0.998035       -27.1579
  10   2.0000      -0.937093       -25.4996
  11   2.0000      -0.891445       -24.2575
  12   2.0000      -0.875695       -23.8289
  13   2.0000      -0.834458       -22.7068
  14   2.0000      -0.798587       -21.7307
  15   2.0000      -0.756147       -20.5758
  16   2.0000      -0.723007       -19.6740
  17   2.0000      -0.706035       -19.2122
  18   2.0000      -0.672061       -18.2877
  19   2.0000      -0.657677       -17.8963
  20   2.0000      -0.603134       -16.4121
  21   2.0000      -0.592104       -16.1120
  22   2.0000      -0.589911       -16.0523
  23   2.0000      -0.577464       -15.7136
  24   0.0000      -0.117085        -3.1860
  25   0.0000      -0.052102        -1.4178
  26   0.0000      -0.006746        -0.1836
  27   0.0000      -0.005178        -0.1409
  28   0.0000       0.016250         0.4422

MULLIKEN ATOMIC CHARGES
-----------------------
   0 C :   -0.017448
   1 C :   -0.101283
   2 C :   -0.051760
   3 C :   -0.040968
   4 N :   -0.039580
   5 N :    0.007276
   6 H :    0.196541
   7 H :    0.186169
   8 H :    0.197603
   9 H :    0.182085
  10 H :    0.089772
  11 H :    0.059999
  12 H :    0.080736
  13 H :    0.090382
  14 H :    0.025257
  15 H :    0.048775
  16 H :    0.086443
Sum of atomic charges:    1.0000000

LOEWDIN ATOMIC CHARGES
----------------------
   0 C :   -0.036014
   1 C :   -0.023624
   2 C :   -0.054860
   3 C :    0.158988
   4 N :    0.079032
   5 N :    0.104419
   6 H :    0.122410
   7 H :    0.116158
   8 H :    0.124632
   9 H :    0.111502
  10 H :    0.050937
  11 H :    0.035538
  12 H :    0.057107
  13 H :    0.058345
  14 H :    0.014877
  15 H :    0.029462
  16 H :    0.051093

  Mayer bond orders larger than 0.100000
B(  0-C ,  1-C ) :   1.0447 B(  0-C ,  3-C ) :   1.0138 B(  0-C , 12-H ) :   0.9284
B(  0-C , 13-H ) :   0.9283 B(  1-C ,  2-C ) :   1.0779 B(  1-C , 10-H ) :   0.9487
B(  1-C , 11-H ) :   0.9532 B(  2-C , 14-H ) :   0.9685 B(  2-C , 15-H ) :   0.9752
B(  2-C , 16-H ) :   0.9644 B(  3-C ,  4-N ) :   1.4997 B(  3-C ,  5-N ) :   1.5211
B(  4-N ,  8-H ) :   0.9177 B(  4-N ,  9-H ) :   0.9311 B(  5-N ,  6-H ) :   0.9134
B(  5-N ,  7-H ) :   0.9258

Dispersion correction           -0.004586189
FINAL SINGLE POINT ENERGY      -268.085478289229

DIPOLE MOMENT
-------------
                                X             Y             Z
Electronic contribution:     -3.57321       0.63164      -4.35574
Nuclear contribution   :      2.80679      -0.44323       2.95915
                        -----------------------------------------
Total Dipole Moment    :     -0.76642       0.18841      -1.39658
                        -----------------------------------------
Magnitude (a.u.)       :      1.60416
Magnitude (Debye)      :      4.07746

Rotational constants in cm-1:     0.187834     0.079484     0.065778
Rotational constants in MHz :  5631.136036  2382.861517  1971.985559

                             ****ORCA TERMINATED NORMALLY****
TOTAL RUN TIME: 0 days 0 hours 0 minutes 13 seconds 287 msec
