                         Program Version 5.0.0 -  RELEASE  -
|  1> !wB97X-D3 RIJCOSX def2-SVP def2/J TightSCF xyzfile
|  2>
|  3> *xyzfile 0 1 B.xyz
|  4>
|  5> %MaxCore 64000
|  6>
|  7> %pal nprocs 18
|  8> end
|  9>
| 10> %scf
| 11>   MaxIter 150
| 12> end
| 13>
| 14>
| 15>                          ****END OF INPUT****

CARTESIAN COORDINATES (ANGSTROEM)
---------------------------------
  C     -0.461293    2.234686   -4.989619
  C      0.848883    2.667967   -4.302351
  C      2.093434    1.861037   -4.656845
  H      2.444814    2.041567   -5.674990
  H      2.901748    2.137864   -3.980338
  S      1.879644    0.078594   -4.462965
  C     -0.423841    2.398772   -6.474317
  N     -0.959467    3.492647   -7.007401
  N      0.145585    1.486891   -7.203987
  H      0.565371    0.696807   -6.723858
  H      0.220682    1.581768   -8.207520
  H     -1.406243    4.181507   -6.403261
  H     -0.934215    3.681601   -7.999468
  O      3.207574   -0.466111   -4.420259
  O      1.075064   -0.056160   -3.268758
  O      1.131661   -0.319960   -5.679031
  H      0.668432    2.559427   -3.232850
  H      1.034074    3.729426   -4.497081
  H     -1.288884    2.826737   -4.594997
  H     -0.651696    1.186343   -4.756552

 Total Charge           Charge          ....    0
 Multiplicity           Mult            ....    1
 Number of Electrons    NEL             ....   88
 Basis Dimension        Dim             ....  194

ORBITAL ENERGIES
----------------

  NO   OCC          E(Eh)            E(eV)
   0   2.0000     -89.100953     -2424.5602
   1   2.0000     -19.160941      -521.3957
   2   2.0000     -19.146330      -520.9981
   3   2.0000     -19.143037      -520.9085
   4   2.0000     -14.545763      -395.8103
   5   2.0000     -14.511250      -394.8712
   6   2.0000     -10.465010      -284.7674
   7   2.0000     -10.338527      -281.3256
   8   2.0000     -10.318403      -280.7780
   9   2.0000     -10.288177      -279.9555
  10   2.0000      -8.181553      -222.6314
  11   2.0000      -6.141173      -167.1098
  12   2.0000      -6.140343      -167.0872
  13   2.0000      -6.139684      -167.0693
  14   2.0000      -1.186065       -32.2745
  15   2.0000      -1.166808       -31.7505
  16   2.0000      -1.069440       -29.1009
  17   2.0000      -1.034538       -28.1512
  18   2.0000      -1.032590       -28.0982
  19   2.0000      -0.944438       -25.6995
  20   2.0000      -0.863265       -23.4906
  21   2.0000      -0.797531       -21.7019
  22   2.0000      -0.754364       -20.5273
  23   2.0000      -0.735427       -20.0120
  24   2.0000      -0.706163       -19.2157
  25   2.0000      -0.661384       -17.9972
  26   2.0000      -0.618046       -16.8179
  27   2.0000      -0.616445       -16.7743
  28   2.0000      -0.581956       -15.8358
  29   2.0000      -0.570765       -15.5313
  30   2.0000      -0.543112       -14.7788
  31   2.0000      -0.531576       -14.4649
  32   2.0000      -0.504452       -13.7268
  33   2.0000      -0.494805       -13.4643
  34   2.0000      -0.484500       -13.1839
  35   2.0000      -0.466945       -12.7062
  36   2.0000      -0.450279       -12.2527
  37   2.0000      -0.437871       -11.9151
  38   2.0000      -0.385866       -10.4999
  39   2.0000      -0.380177       -10.3451
  40   2.0000      -0.350192        -9.5292
  41   2.0000      -0.338189        -9.2026
  42   2.0000      -0.329425        -8.9641
  43   2.0000      -0.296810        -8.0766
  44   0.0000       0.027101         0.7375
  45   0.0000       0.070907         1.9295
  46   0.0000       0.111162         3.0249
  47   0.0000       0.134190         3.6515
  48   0.0000       0.159701         4.3457

MULLIKEN ATOMIC CHARGES
-----------------------
   0 C :    0.008972
   1 C :   -0.037988
   2 C :   -0.119259
   3 H :    0.037235
   4 H :    0.072536
   5 S :    0.907148
   6 C :   -0.075029
   7 N :   -0.059262
   8 N :    0.028990
   9 H :    0.167048
  10 H :    0.146200
  11 H :    0.172708
  12 H :    0.157037
  13 O :   -0.505434
  14 O :   -0.535687
  15 O :   -0.604832
  16 H :    0.077333
  17 H :    0.020467
  18 H :    0.034457
  19 H :    0.107359
Sum of atomic charges:   -0.0000000

LOEWDIN ATOMIC CHARGES
----------------------
   0 C :   -0.042084
   1 C :   -0.035270
   2 C :   -0.188690
   3 H :    0.013191
   4 H :    0.037648
   5 S :    1.122029
   6 C :    0.147116
   7 N :    0.041683
   8 N :    0.110193
   9 H :    0.035400
  10 H :    0.093029
  11 H :    0.108003
  12 H :    0.095293
  13 O :   -0.550938
  14 O :   -0.573271
  15 O :   -0.576359
  16 H :    0.046282
  17 H :    0.020132
  18 H :    0.037224
  19 H :    0.059387

  Mayer bond orders larger than 0.100000
B(  0-C ,  1-C ) :   1.0526 B(  0-C ,  6-C ) :   1.0132 B(  0-C , 18-H ) :   0.9296
B(  0-C , 19-H ) :   0.8939 B(  1-C ,  2-C ) :   1.0442 B(  1-C , 16-H ) :   0.9354
B(  1-C , 17-H ) :   0.9485 B(  2-C ,  3-H ) :   0.9380 B(  2-C ,  4-H ) :   0.9397
B(  2-C ,  5-S ) :   0.9124 B(  5-S , 13-O ) :   1.7272 B(  5-S , 14-O ) :   1.6500
B(  5-S , 15-O ) :   1.3844 B(  6-C ,  7-N ) :   1.4039 B(  6-C ,  8-N ) :   1.6321
B(  7-N , 11-H ) :   0.9268 B(  7-N , 12-H ) :   0.9397 B(  8-N ,  9-H ) :   0.7976
B(  8-N , 10-H ) :   0.9343 B(  9-H , 15-O ) :   0.2371

Dispersion correction           -0.008674276
FINAL SINGLE POINT ENERGY      -891.134247587446

DIPOLE MOMENT
-------------
                                X             Y             Z
Electronic contribution:      3.09507      -7.64230       1.03400
Nuclear contribution   :     -5.91573      12.15027      -4.18945
                        -----------------------------------------
Total Dipole Moment    :     -2.82066       4.50797      -3.15546
                        -----------------------------------------
Magnitude (a.u.)       :      6.18343
Magnitude (Debye)      :     15.71704

Rotational constants in cm-1:     0.082044     0.024757     0.022371
Rotational constants in MHz :  2459.631375   742.181961   670.660570

                             ****ORCA TERMINATED NORMALLY****
TOTAL RUN TIME: 0 days 0 hours 0 minutes 13 seconds 941 msec
