                         Program Version 5.0.0 -  RELEASE  -
|  1> !wB97X-D3 RIJCOSX def2-SVP def2/J TightSCF
|  2> *xyz 0 1
|  3> C         -0.46129        2.23469       -4.98962
|  4> C          0.84888        2.66797       -4.30235
|  5> C          2.09343        1.86104       -4.65684
|  6> H          2.44481        2.04157       -5.67499
|  7> H          2.90175        2.13786       -3.98034
|  8> S          1.87964        0.07859       -4.46297
|  9> F          3.20757       -0.46611       -4.42026
| 10> O          1.07506       -0.05616       -3.26876
| 11> O          1.13166       -0.31996       -5.67903
| 12> H          0.66843        2.55943       -3.23285
| 13> H          1.03407        3.72943       -4.49708
| 14> H         -0.35183        2.31783       -6.05075
| 15> H         -1.26108        2.86600       -4.66300
| 16> H         -0.68032        1.21949       -4.73211
| 17> *
| 18>
| 19> %MaxCore 64000
| 20>
| 21> %pal nprocs 8
| 22> end
| 23>
| 24> %scf
| 25>   MaxIter 150
| 26> end
| 27>
| 28>
| 29>                          ****END OF INPUT****

CARTESIAN COORDINATES (ANGSTROEM)
---------------------------------
  C     -0.461290    2.234690   -4.989620
  C      0.848880    2.667970   -4.302350
  C      2.093430    1.861040   -4.656840
  H      2.444810    2.041570   -5.674990
  H      2.901750    2.137860   -3.980340
  S      1.879640    0.078590   -4.462970
  F      3.207570   -0.466110   -4.420260
  O      1.075060   -0.056160   -3.268760
  O      1.131660   -0.319960   -5.679030
  H      0.668430    2.559430   -3.232850
  H      1.034070    3.729430   -4.497080
  H     -0.351830    2.317830   -6.050750
  H     -1.261080    2.866000   -4.663000
  H     -0.680320    1.219490   -4.732110

 Total Charge           Charge          ....    0
 Multiplicity           Mult            ....    1
 Number of Electrons    NEL             ....   66
 Basis Dimension        Dim             ....  137

ORBITAL ENERGIES
----------------

  NO   OCC          E(Eh)            E(eV)
   0   2.0000     -89.214596     -2427.6526
   1   2.0000     -24.913335      -677.9263
   2   2.0000     -19.244409      -523.6670
   3   2.0000     -19.230221      -523.2809
   4   2.0000     -10.343339      -281.4566
   5   2.0000     -10.312063      -280.6055
   6   2.0000     -10.274691      -279.5886
   7   2.0000      -8.297618      -225.7897
   8   2.0000      -6.260623      -170.3602
   9   2.0000      -6.254156      -170.1842
  10   2.0000      -6.253000      -170.1528
  11   2.0000      -1.495837       -40.7038
  12   2.0000      -1.216970       -33.1154
  13   2.0000      -1.108548       -30.1651
  14   2.0000      -0.936899       -25.4943
  15   2.0000      -0.861214       -23.4348
  16   2.0000      -0.812445       -22.1077
  17   2.0000      -0.739786       -20.1306
  18   2.0000      -0.695037       -18.9129
  19   2.0000      -0.683634       -18.6026
  20   2.0000      -0.652667       -17.7600
  21   2.0000      -0.591954       -16.1079
  22   2.0000      -0.580486       -15.7958
  23   2.0000      -0.550566       -14.9817
  24   2.0000      -0.539878       -14.6908
  25   2.0000      -0.515749       -14.0342
  26   2.0000      -0.480186       -13.0665
  27   2.0000      -0.465229       -12.6595
  28   2.0000      -0.459241       -12.4966
  29   2.0000      -0.440843       -11.9960
  30   2.0000      -0.421648       -11.4736
  31   2.0000      -0.402461       -10.9515
  32   2.0000      -0.392443       -10.6789
  33   0.0000       0.123100         3.3497
  34   0.0000       0.128912         3.5079
  35   0.0000       0.159433         4.3384
  36   0.0000       0.168987         4.5984
  37   0.0000       0.186240         5.0678

MULLIKEN ATOMIC CHARGES
-----------------------
   0 C :   -0.029983
   1 C :   -0.106398
   2 C :   -0.113772
   3 H :    0.085079
   4 H :    0.072450
   5 S :    0.951439
   6 F :   -0.164831
   7 O :   -0.445256
   8 O :   -0.482323
   9 H :    0.056938
  10 H :    0.052068
  11 H :    0.032125
  12 H :    0.031564
  13 H :    0.060899
Sum of atomic charges:    0.0000000

LOEWDIN ATOMIC CHARGES
----------------------
   0 C :   -0.055913
   1 C :   -0.047836
   2 C :   -0.151794
   3 H :    0.038153
   4 H :    0.032268
   5 S :    1.160502
   6 F :   -0.110038
   7 O :   -0.485586
   8 O :   -0.524016
   9 H :    0.033472
  10 H :    0.036037
  11 H :    0.023065
  12 H :    0.025658
  13 H :    0.026028

  Mayer bond orders larger than 0.100000
B(  0-C ,  1-C ) :   1.0859 B(  0-C , 11-H ) :   0.9764 B(  0-C , 12-H ) :   0.9713
B(  0-C , 13-H ) :   0.9649 B(  1-C ,  2-C ) :   1.0489 B(  1-C ,  9-H ) :   0.9512
B(  1-C , 10-H ) :   0.9524 B(  2-C ,  3-H ) :   0.9328 B(  2-C ,  4-H ) :   0.9361
B(  2-C ,  5-S ) :   0.9221 B(  5-S ,  6-F ) :   1.0377 B(  5-S ,  7-O ) :   1.7644
B(  5-S ,  8-O ) :   1.7225

Dispersion correction           -0.004635921
FINAL SINGLE POINT ENERGY      -766.408490220814

DIPOLE MOMENT
-------------
                                X             Y             Z
Electronic contribution:      8.14502     -11.31612       1.24282
Nuclear contribution   :     -7.07796      12.41139      -1.18012
                        -----------------------------------------
Total Dipole Moment    :      1.06706       1.09526       0.06270
                        -----------------------------------------
Magnitude (a.u.)       :      1.53041
Magnitude (Debye)      :      3.88999

Rotational constants in cm-1:     0.134396     0.055628     0.052255
Rotational constants in MHz :  4029.100214  1667.685325  1566.551712

                             ****ORCA TERMINATED NORMALLY****
TOTAL RUN TIME: 0 days 0 hours 0 minutes 12 seconds 999 msec
