                         Program Version 5.0.0 -  RELEASE  -
|  1> !wB97X-D3 RIJCOSX def2-SVP def2/J TightSCF
|  2> *xyz 0 1
|  3> C         -0.46129        2.23469       -4.98962
|  4> C          0.84888        2.66797       -4.30235
|  5> C          2.09343        1.86104       -4.65684
|  6> C         -0.42384        2.39877       -6.47432
|  7> C         -0.95947        3.49265       -7.00740
|  8> N          0.14558        1.48689       -7.20399
|  9> H          0.56537        0.69681       -6.72386
| 10> H          0.22068        1.58177       -8.20752
| 11> H         -1.40624        4.18151       -6.40326
| 12> H         -0.93421        3.68160       -7.99947
| 13> H          0.66843        2.55943       -3.23285
| 14> H          1.03407        3.72943       -4.49708
| 15> H         -1.28888        2.82674       -4.59500
| 16> H         -0.65170        1.18634       -4.75655
| 17> H          2.29129        1.95234       -5.70442
| 18> H          1.93270        0.83176       -4.41261
| 19> H          2.92953        2.23285       -4.10223
| 20> *
| 21>
| 22> %MaxCore 64000
| 23>
| 24> %pal nprocs 8
| 25> end
| 26>
| 27> %scf
| 28>   MaxIter 150
| 29> end
| 30>
| 31>
| 32>                          ****END OF INPUT****

CARTESIAN COORDINATES (ANGSTROEM)
---------------------------------
  C     -0.461290    2.234690   -4.989620
  C      0.848880    2.667970   -4.302350
  C      2.093430    1.861040   -4.656840
  C     -0.423840    2.398770   -6.474320
  C     -0.959470    3.492650   -7.007400
  N      0.145580    1.486890   -7.203990
  H      0.565370    0.696810   -6.723860
  H      0.220680    1.581770   -8.207520
  H     -1.406240    4.181510   -6.403260
  H     -0.934210    3.681600   -7.999470
  H      0.668430    2.559430   -3.232850
  H      1.034070    3.729430   -4.497080
  H     -1.288880    2.826740   -4.595000
  H     -0.651700    1.186340   -4.756550
  H      2.291290    1.952340   -5.704420
  H      1.932700    0.831760   -4.412610
  H      2.929530    2.232850   -4.102230

 Total Charge           Charge          ....    0
 Multiplicity           Mult            ....    1
 Number of Electrons    NEL             ....   48
 Basis Dimension        Dim             ....  139

ORBITAL ENERGIES
----------------

  NO   OCC          E(Eh)            E(eV)
   0   2.0000     -14.433255      -392.7488
   1   2.0000     -10.303988      -280.3858
   2   2.0000     -10.284702      -279.8610
   3   2.0000     -10.283599      -279.8310
   4   2.0000     -10.273420      -279.5540
   5   2.0000     -10.214921      -277.9621
   6   2.0000      -1.039673       -28.2909
   7   2.0000      -0.901583       -24.5333
   8   2.0000      -0.840324       -22.8664
   9   2.0000      -0.784551       -21.3487
  10   2.0000      -0.708963       -19.2919
  11   2.0000      -0.663923       -18.0663
  12   2.0000      -0.624553       -16.9950
  13   2.0000      -0.584900       -15.9159
  14   2.0000      -0.549909       -14.9638
  15   2.0000      -0.530591       -14.4381
  16   2.0000      -0.506154       -13.7731
  17   2.0000      -0.483003       -13.1432
  18   2.0000      -0.468424       -12.7465
  19   2.0000      -0.454245       -12.3606
  20   2.0000      -0.430850       -11.7240
  21   2.0000      -0.417057       -11.3487
  22   2.0000      -0.414247       -11.2722
  23   2.0000      -0.267682        -7.2840
  24   0.0000       0.128443         3.4951
  25   0.0000       0.150526         4.0960
  26   0.0000       0.175613         4.7787
  27   0.0000       0.178913         4.8685
  28   0.0000       0.197224         5.3667

MULLIKEN ATOMIC CHARGES
-----------------------
   0 C :    0.041043
   1 C :   -0.063664
   2 C :   -0.038511
   3 C :   -0.142440
   4 C :   -0.079898
   5 N :   -0.076804
   6 H :    0.121208
   7 H :    0.128534
   8 H :   -0.023047
   9 H :   -0.037935
  10 H :    0.024818
  11 H :    0.029113
  12 H :    0.032127
  13 H :    0.009768
  14 H :    0.027626
  15 H :    0.014807
  16 H :    0.033254
Sum of atomic charges:    0.0000000

LOEWDIN ATOMIC CHARGES
----------------------
   0 C :   -0.029202
   1 C :   -0.033935
   2 C :   -0.062707
   3 C :    0.002336
   4 C :   -0.187589
   5 N :    0.001128
   6 H :    0.071971
   7 H :    0.081635
   8 H :    0.000565
   9 H :   -0.008509
  10 H :    0.021179
  11 H :    0.025277
  12 H :    0.038398
  13 H :    0.019025
  14 H :    0.017361
  15 H :    0.016467
  16 H :    0.026598

  Mayer bond orders larger than 0.100000
B(  0-C ,  1-C ) :   1.0731 B(  0-C ,  3-C ) :   1.0118 B(  0-C , 12-H ) :   0.9360
B(  0-C , 13-H ) :   0.9372 B(  1-C ,  2-C ) :   1.0833 B(  1-C , 10-H ) :   0.9560
B(  1-C , 11-H ) :   0.9531 B(  2-C , 14-H ) :   0.9690 B(  2-C , 15-H ) :   0.9740
B(  2-C , 16-H ) :   0.9696 B(  3-C ,  4-C ) :   1.8597 B(  3-C ,  5-N ) :   1.2622
B(  4-C ,  8-H ) :   0.9479 B(  4-C ,  9-H ) :   0.9637 B(  5-N ,  6-H ) :   0.9474
B(  5-N ,  7-H ) :   0.9471

Dispersion correction           -0.004595727
FINAL SINGLE POINT ENERGY      -251.624318681226

DIPOLE MOMENT
-------------
                                X             Y             Z
Electronic contribution:     -2.06136      -0.50362      -2.65773
Nuclear contribution   :      2.52905      -0.17478       2.67366
                        -----------------------------------------
Total Dipole Moment    :      0.46769      -0.67840       0.01593
                        -----------------------------------------
Magnitude (a.u.)       :      0.82414
Magnitude (Debye)      :      2.09481

Rotational constants in cm-1:     0.190920     0.082419     0.067855
Rotational constants in MHz :  5723.626725  2470.870287  2034.242308

                             ****ORCA TERMINATED NORMALLY****
TOTAL RUN TIME: 0 days 0 hours 0 minutes 13 seconds 286 msec
