                         Program Version 5.0.0 -  RELEASE  -
|  1> !wB97X-D3 RIJCOSX def2-SVP def2/J TightSCF
|  2> *xyz 0 1
|  3> C         -0.46129        2.23469       -4.98962
|  4> C          0.84888        2.66797       -4.30235
|  5> C          2.09343        1.86104       -4.65684
|  6> H          2.44481        2.04157       -5.67499
|  7> H          2.90175        2.13786       -3.98034
|  8> S          1.87964        0.07859       -4.46297
|  9> O          3.20757       -0.46611       -4.42026
| 10> F          1.07506       -0.05616       -3.26876
| 11> O          1.13166       -0.31996       -5.67903
| 12> H          0.66843        2.55943       -3.23285
| 13> H          1.03407        3.72943       -4.49708
| 14> H         -0.35183        2.31783       -6.05075
| 15> H         -1.26108        2.86600       -4.66300
| 16> H         -0.68032        1.21949       -4.73211
| 17> *
| 18>
| 19> %MaxCore 64000
| 20>
| 21> %pal nprocs 8
| 22> end
| 23>
| 24> %scf
| 25>   MaxIter 150
| 26> end
| 27>
| 28>
| 29>                          ****END OF INPUT****

CARTESIAN COORDINATES (ANGSTROEM)
---------------------------------
  C     -0.461290    2.234690   -4.989620
  C      0.848880    2.667970   -4.302350
  C      2.093430    1.861040   -4.656840
  H      2.444810    2.041570   -5.674990
  H      2.901750    2.137860   -3.980340
  S      1.879640    0.078590   -4.462970
  O      3.207570   -0.466110   -4.420260
  F      1.075060   -0.056160   -3.268760
  O      1.131660   -0.319960   -5.679030
  H      0.668430    2.559430   -3.232850
  H      1.034070    3.729430   -4.497080
  H     -0.351830    2.317830   -6.050750
  H     -1.261080    2.866000   -4.663000
  H     -0.680320    1.219490   -4.732110

 Total Charge           Charge          ....    0
 Multiplicity           Mult            ....    1
 Number of Electrons    NEL             ....   66
 Basis Dimension        Dim             ....  137

ORBITAL ENERGIES
----------------

  NO   OCC          E(Eh)            E(eV)
   0   2.0000     -89.213545     -2427.6240
   1   2.0000     -24.908192      -677.7864
   2   2.0000     -19.246833      -523.7329
   3   2.0000     -19.229729      -523.2675
   4   2.0000     -10.342974      -281.4466
   5   2.0000     -10.319240      -280.8008
   6   2.0000     -10.287195      -279.9288
   7   2.0000      -8.296517      -225.7597
   8   2.0000      -6.259798      -170.3378
   9   2.0000      -6.252899      -170.1500
  10   2.0000      -6.251825      -170.1208
  11   2.0000      -1.486952       -40.4620
  12   2.0000      -1.220072       -33.1998
  13   2.0000      -1.111358       -30.2416
  14   2.0000      -0.944377       -25.6978
  15   2.0000      -0.858789       -23.3688
  16   2.0000      -0.815213       -22.1831
  17   2.0000      -0.741975       -20.1902
  18   2.0000      -0.697053       -18.9678
  19   2.0000      -0.688755       -18.7420
  20   2.0000      -0.640940       -17.4409
  21   2.0000      -0.592545       -16.1240
  22   2.0000      -0.580906       -15.8073
  23   2.0000      -0.559468       -15.2239
  24   2.0000      -0.537913       -14.6373
  25   2.0000      -0.527527       -14.3547
  26   2.0000      -0.483140       -13.1469
  27   2.0000      -0.480068       -13.0633
  28   2.0000      -0.470290       -12.7972
  29   2.0000      -0.451443       -12.2844
  30   2.0000      -0.420275       -11.4363
  31   2.0000      -0.404320       -11.0021
  32   2.0000      -0.392467       -10.6796
  33   0.0000       0.111066         3.0223
  34   0.0000       0.142438         3.8759
  35   0.0000       0.156303         4.2532
  36   0.0000       0.171882         4.6772
  37   0.0000       0.179862         4.8943

MULLIKEN ATOMIC CHARGES
-----------------------
   0 C :   -0.025837
   1 C :   -0.133462
   2 C :   -0.110257
   3 H :    0.107752
   4 H :    0.083343
   5 S :    0.949206
   6 O :   -0.427425
   7 F :   -0.178240
   8 O :   -0.481225
   9 H :    0.041884
  10 H :    0.056040
  11 H :    0.043620
  12 H :    0.036104
  13 H :    0.038497
Sum of atomic charges:    0.0000000

LOEWDIN ATOMIC CHARGES
----------------------
   0 C :   -0.057777
   1 C :   -0.061840
   2 C :   -0.146819
   3 H :    0.053066
   4 H :    0.037421
   5 S :    1.162334
   6 O :   -0.475063
   7 F :   -0.118754
   8 O :   -0.524328
   9 H :    0.024250
  10 H :    0.036761
  11 H :    0.028274
  12 H :    0.026757
  13 H :    0.015719

  Mayer bond orders larger than 0.100000
B(  0-C ,  1-C ) :   1.0787 B(  0-C , 11-H ) :   0.9766 B(  0-C , 12-H ) :   0.9710
B(  0-C , 13-H ) :   0.9660 B(  1-C ,  2-C ) :   1.0304 B(  1-C ,  9-H ) :   0.9584
B(  1-C , 10-H ) :   0.9508 B(  2-C ,  3-H ) :   0.9364 B(  2-C ,  4-H ) :   0.9405
B(  2-C ,  5-S ) :   0.9287 B(  5-S ,  6-O ) :   1.8043 B(  5-S ,  7-F ) :   1.0083
B(  5-S ,  8-O ) :   1.7187

Dispersion correction           -0.004631075
FINAL SINGLE POINT ENERGY      -766.412853104968

DIPOLE MOMENT
-------------
                                X             Y             Z
Electronic contribution:      4.43779     -10.54672       3.19472
Nuclear contribution   :     -4.78457      11.97051      -2.41849
                        -----------------------------------------
Total Dipole Moment    :     -0.34678       1.42379       0.77623
                        -----------------------------------------
Magnitude (a.u.)       :      1.65830
Magnitude (Debye)      :      4.21506

Rotational constants in cm-1:     0.129206     0.056639     0.054229
Rotational constants in MHz :  3873.509495  1697.990779  1625.734877

                             ****ORCA TERMINATED NORMALLY****
TOTAL RUN TIME: 0 days 0 hours 0 minutes 13 seconds 376 msec
