                         Program Version 5.0.0 -  RELEASE  -
|  1> !wB97X-D3 RIJCOSX def2-SVP def2/J TightSCF
|  2> *xyz 0 1
|  3> C         -0.46129        2.23469       -4.98962
|  4> C          0.84888        2.66797       -4.30235
|  5> C          2.09343        1.86104       -4.65684
|  6> C         -0.42384        2.39877       -6.47432
|  7> N         -0.95947        3.49265       -7.00740
|  8> C          0.14558        1.48689       -7.20399
|  9> H          0.56537        0.69681       -6.72386
| 10> H          0.22068        1.58177       -8.20752
| 11> H         -1.40624        4.18151       -6.40326
| 12> H         -0.93421        3.68160       -7.99947
| 13> H          0.66843        2.55943       -3.23285
| 14> H          1.03407        3.72943       -4.49708
| 15> H         -1.28888        2.82674       -4.59500
| 16> H         -0.65170        1.18634       -4.75655
| 17> H          2.29129        1.95234       -5.70442
| 18> H          1.93270        0.83176       -4.41261
| 19> H          2.92953        2.23285       -4.10223
| 20> *
| 21>
| 22> %MaxCore 64000
| 23>
| 24> %pal nprocs 8
| 25> end
| 26>
| 27> %scf
| 28>   MaxIter 150
| 29> end
| 30>
| 31>
| 32>                          ****END OF INPUT****

CARTESIAN COORDINATES (ANGSTROEM)
---------------------------------
  C     -0.461290    2.234690   -4.989620
  C      0.848880    2.667970   -4.302350
  C      2.093430    1.861040   -4.656840
  C     -0.423840    2.398770   -6.474320
  N     -0.959470    3.492650   -7.007400
  C      0.145580    1.486890   -7.203990
  H      0.565370    0.696810   -6.723860
  H      0.220680    1.581770   -8.207520
  H     -1.406240    4.181510   -6.403260
  H     -0.934210    3.681600   -7.999470
  H      0.668430    2.559430   -3.232850
  H      1.034070    3.729430   -4.497080
  H     -1.288880    2.826740   -4.595000
  H     -0.651700    1.186340   -4.756550
  H      2.291290    1.952340   -5.704420
  H      1.932700    0.831760   -4.412610
  H      2.929530    2.232850   -4.102230

 Total Charge           Charge          ....    0
 Multiplicity           Mult            ....    1
 Number of Electrons    NEL             ....   48
 Basis Dimension        Dim             ....  139

ORBITAL ENERGIES
----------------

  NO   OCC          E(Eh)            E(eV)
   0   2.0000     -14.428836      -392.6286
   1   2.0000     -10.301740      -280.3246
   2   2.0000     -10.284281      -279.8495
   3   2.0000     -10.282374      -279.7976
   4   2.0000     -10.262629      -279.2603
   5   2.0000     -10.214009      -277.9373
   6   2.0000      -1.026174       -27.9236
   7   2.0000      -0.901221       -24.5235
   8   2.0000      -0.836420       -22.7602
   9   2.0000      -0.790706       -21.5162
  10   2.0000      -0.699185       -19.0258
  11   2.0000      -0.662017       -18.0144
  12   2.0000      -0.616695       -16.7811
  13   2.0000      -0.577747       -15.7213
  14   2.0000      -0.550252       -14.9731
  15   2.0000      -0.532906       -14.5011
  16   2.0000      -0.489934       -13.3318
  17   2.0000      -0.484803       -13.1922
  18   2.0000      -0.467911       -12.7325
  19   2.0000      -0.454846       -12.3770
  20   2.0000      -0.425831       -11.5874
  21   2.0000      -0.414929       -11.2908
  22   2.0000      -0.407829       -11.0976
  23   2.0000      -0.272527        -7.4158
  24   0.0000       0.130764         3.5583
  25   0.0000       0.150205         4.0873
  26   0.0000       0.175230         4.7682
  27   0.0000       0.183947         5.0055
  28   0.0000       0.199070         5.4170

MULLIKEN ATOMIC CHARGES
-----------------------
   0 C :    0.042667
   1 C :   -0.073321
   2 C :   -0.016427
   3 C :   -0.115944
   4 N :   -0.125048
   5 C :   -0.058271
   6 H :   -0.021448
   7 H :   -0.036796
   8 H :    0.119737
   9 H :    0.123654
  10 H :    0.024657
  11 H :    0.018448
  12 H :    0.005032
  13 H :    0.033692
  14 H :    0.037417
  15 H :    0.018120
  16 H :    0.023830
Sum of atomic charges:    0.0000000

LOEWDIN ATOMIC CHARGES
----------------------
   0 C :   -0.030101
   1 C :   -0.033763
   2 C :   -0.057297
   3 C :    0.009202
   4 N :   -0.023064
   5 C :   -0.171574
   6 H :    0.001549
   7 H :   -0.004775
   8 H :    0.072208
   9 H :    0.076186
  10 H :    0.020825
  11 H :    0.019723
  12 H :    0.020255
  13 H :    0.035019
  14 H :    0.023488
  15 H :    0.019507
  16 H :    0.022614

  Mayer bond orders larger than 0.100000
B(  0-C ,  1-C ) :   1.0719 B(  0-C ,  3-C ) :   1.0004 B(  0-C , 12-H ) :   0.9374
B(  0-C , 13-H ) :   0.9409 B(  1-C ,  2-C ) :   1.0924 B(  1-C , 10-H ) :   0.9568
B(  1-C , 11-H ) :   0.9517 B(  2-C , 14-H ) :   0.9651 B(  2-C , 15-H ) :   0.9731
B(  2-C , 16-H ) :   0.9691 B(  3-C ,  4-N ) :   1.2431 B(  3-C ,  5-C ) :   1.8762
B(  4-N ,  8-H ) :   0.9513 B(  4-N ,  9-H ) :   0.9532 B(  5-C ,  6-H ) :   0.9384
B(  5-C ,  7-H ) :   0.9612

Dispersion correction           -0.004539968
FINAL SINGLE POINT ENERGY      -251.623547022684

DIPOLE MOMENT
-------------
                                X             Y             Z
Electronic contribution:     -3.11014       1.33933      -2.49939
Nuclear contribution   :      2.79043      -0.64920       2.62716
                        -----------------------------------------
Total Dipole Moment    :     -0.31970       0.69012       0.12776
                        -----------------------------------------
Magnitude (a.u.)       :      0.77124
Magnitude (Debye)      :      1.96032

Rotational constants in cm-1:     0.196182     0.080190     0.067215
Rotational constants in MHz :  5881.393438  2404.041106  2015.067205

                             ****ORCA TERMINATED NORMALLY****
TOTAL RUN TIME: 0 days 0 hours 0 minutes 13 seconds 305 msec
