                         Program Version 5.0.0 -  RELEASE  -
|  1> !wB97X-D3 RIJCOSX def2-SVP def2/J TightSCF
|  2> *xyz 0 1
|  3> C         -0.46129        2.23469       -4.98962
|  4> C          0.84888        2.66797       -4.30235
|  5> C          2.09343        1.86104       -4.65684
|  6> H          2.44481        2.04157       -5.67499
|  7> H          2.90175        2.13786       -3.98034
|  8> S          1.87964        0.07859       -4.46297
|  9> O          3.20757       -0.46611       -4.42026
| 10> O          1.07506       -0.05616       -3.26876
| 11> F          1.13166       -0.31996       -5.67903
| 12> H          0.66843        2.55943       -3.23285
| 13> H          1.03407        3.72943       -4.49708
| 14> H         -0.35183        2.31783       -6.05075
| 15> H         -1.26108        2.86600       -4.66300
| 16> H         -0.68032        1.21949       -4.73211
| 17> *
| 18>
| 19> %MaxCore 64000
| 20>
| 21> %pal nprocs 8
| 22> end
| 23>
| 24> %scf
| 25>   MaxIter 150
| 26> end
| 27>
| 28>
| 29>                          ****END OF INPUT****

CARTESIAN COORDINATES (ANGSTROEM)
---------------------------------
  C     -0.461290    2.234690   -4.989620
  C      0.848880    2.667970   -4.302350
  C      2.093430    1.861040   -4.656840
  H      2.444810    2.041570   -5.674990
  H      2.901750    2.137860   -3.980340
  S      1.879640    0.078590   -4.462970
  O      3.207570   -0.466110   -4.420260
  O      1.075060   -0.056160   -3.268760
  F      1.131660   -0.319960   -5.679030
  H      0.668430    2.559430   -3.232850
  H      1.034070    3.729430   -4.497080
  H     -0.351830    2.317830   -6.050750
  H     -1.261080    2.866000   -4.663000
  H     -0.680320    1.219490   -4.732110

 Total Charge           Charge          ....    0
 Multiplicity           Mult            ....    1
 Number of Electrons    NEL             ....   66
 Basis Dimension        Dim             ....  137

ORBITAL ENERGIES
----------------

  NO   OCC          E(Eh)            E(eV)
   0   2.0000     -89.212689     -2427.6007
   1   2.0000     -24.888506      -677.2507
   2   2.0000     -19.246960      -523.7364
   3   2.0000     -19.244467      -523.6686
   4   2.0000     -10.342448      -281.4323
   5   2.0000     -10.314048      -280.6595
   6   2.0000     -10.289854      -280.0012
   7   2.0000      -8.295464      -225.7311
   8   2.0000      -6.258469      -170.3016
   9   2.0000      -6.252146      -170.1295
  10   2.0000      -6.250981      -170.0978
  11   2.0000      -1.455149       -39.5966
  12   2.0000      -1.229031       -33.4436
  13   2.0000      -1.131842       -30.7990
  14   2.0000      -0.941248       -25.6126
  15   2.0000      -0.855711       -23.2851
  16   2.0000      -0.803358       -21.8605
  17   2.0000      -0.739470       -20.1220
  18   2.0000      -0.673231       -18.3195
  19   2.0000      -0.666363       -18.1327
  20   2.0000      -0.647435       -17.6176
  21   2.0000      -0.597579       -16.2609
  22   2.0000      -0.576692       -15.6926
  23   2.0000      -0.556149       -15.1336
  24   2.0000      -0.544623       -14.8199
  25   2.0000      -0.530971       -14.4484
  26   2.0000      -0.489750       -13.3268
  27   2.0000      -0.478371       -13.0171
  28   2.0000      -0.466887       -12.7046
  29   2.0000      -0.449174       -12.2226
  30   2.0000      -0.429268       -11.6810
  31   2.0000      -0.414460       -11.2780
  32   2.0000      -0.409421       -11.1409
  33   0.0000       0.118953         3.2369
  34   0.0000       0.136386         3.7113
  35   0.0000       0.160342         4.3631
  36   0.0000       0.169010         4.5990
  37   0.0000       0.184578         5.0226

MULLIKEN ATOMIC CHARGES
-----------------------
   0 C :   -0.050880
   1 C :   -0.104002
   2 C :   -0.121595
   3 H :    0.079306
   4 H :    0.104184
   5 S :    0.956846
   6 O :   -0.432822
   7 O :   -0.448767
   8 F :   -0.211834
   9 H :    0.062546
  10 H :    0.049853
  11 H :    0.029020
  12 H :    0.043628
  13 H :    0.044516
Sum of atomic charges:    0.0000000

LOEWDIN ATOMIC CHARGES
----------------------
   0 C :   -0.062281
   1 C :   -0.055912
   2 C :   -0.151569
   3 H :    0.034481
   4 H :    0.052627
   5 S :    1.166851
   6 O :   -0.478911
   7 O :   -0.488175
   8 F :   -0.155314
   9 H :    0.035017
  10 H :    0.034508
  11 H :    0.019825
  12 H :    0.031549
  13 H :    0.017305

  Mayer bond orders larger than 0.100000
B(  0-C ,  1-C ) :   1.0810 B(  0-C , 11-H ) :   0.9779 B(  0-C , 12-H ) :   0.9721
B(  0-C , 13-H ) :   0.9670 B(  1-C ,  2-C ) :   1.0368 B(  1-C ,  9-H ) :   0.9504
B(  1-C , 10-H ) :   0.9506 B(  2-C ,  3-H ) :   0.9364 B(  2-C ,  4-H ) :   0.9402
B(  2-C ,  5-S ) :   0.9183 B(  5-S ,  6-O ) :   1.8080 B(  5-S ,  7-O ) :   1.7638
B(  5-S ,  8-F ) :   0.9681

Dispersion correction           -0.004617727
FINAL SINGLE POINT ENERGY      -766.430604125856

DIPOLE MOMENT
-------------
                                X             Y             Z
Electronic contribution:      4.52323     -11.00863      -0.94228
Nuclear contribution   :     -4.84544      12.25421       0.17361
                        -----------------------------------------
Total Dipole Moment    :     -0.32221       1.24558      -0.76867
                        -----------------------------------------
Magnitude (a.u.)       :      1.49871
Magnitude (Debye)      :      3.80943

Rotational constants in cm-1:     0.128954     0.057447     0.053381
Rotational constants in MHz :  3865.954571  1722.226669  1600.330369

                             ****ORCA TERMINATED NORMALLY****
TOTAL RUN TIME: 0 days 0 hours 0 minutes 12 seconds 967 msec
