                         Program Version 5.0.0 -  RELEASE  -
|  1> !wB97X-D3 RIJCOSX def2-SVP def2/J TightSCF xyzfile
|  2>
|  3> *xyzfile 0 1 D2.xyz
|  4>
|  5> %MaxCore 64000
|  6>
|  7> %pal nprocs 18
|  8> end
|  9>
| 10> %scf
| 11>   MaxIter 150
| 12> end
| 13>
| 14>
| 15>                          ****END OF INPUT****

CARTESIAN COORDINATES (ANGSTROEM)
---------------------------------
  C     -0.461293    2.234686   -4.989619
  C      0.848883    2.667967   -4.302351
  C      2.093434    1.861037   -4.656845
  H      2.444814    2.041567   -5.674990
  H      2.901748    2.137864   -3.980338
  S      1.879644    0.078594   -4.462965
  C     -0.423841    2.398772   -6.474317
  N     -0.959467    3.492647   -7.007401
  C      0.145585    1.486891   -7.203987
  H      0.565371    0.696807   -6.723858
  H      0.220682    1.581768   -8.207520
  H     -1.406243    4.181507   -6.403261
  H     -0.934215    3.681601   -7.999468
  F      3.207574   -0.466111   -4.420259
  O      1.075064   -0.056160   -3.268758
  O      1.131661   -0.319960   -5.679031
  H      0.668432    2.559427   -3.232850
  H      1.034074    3.729426   -4.497081
  H     -1.288884    2.826737   -4.594997
  H     -0.651696    1.186343   -4.756552

 Total Charge           Charge          ....    0
 Multiplicity           Mult            ....    1
 Number of Electrons    NEL             ....   88
 Basis Dimension        Dim             ....  194

ORBITAL ENERGIES
----------------

  NO   OCC          E(Eh)            E(eV)
   0   2.0000     -89.218572     -2427.7608
   1   2.0000     -24.915303      -677.9799
   2   2.0000     -19.247117      -523.7407
   3   2.0000     -19.234627      -523.4008
   4   2.0000     -14.421237      -392.4218
   5   2.0000     -10.342044      -281.4213
   6   2.0000     -10.314267      -280.6655
   7   2.0000     -10.291672      -280.0506
   8   2.0000     -10.287172      -279.9282
   9   2.0000     -10.188802      -277.2514
  10   2.0000      -8.301441      -225.8937
  11   2.0000      -6.264509      -170.4659
  12   2.0000      -6.258193      -170.2941
  13   2.0000      -6.256622      -170.2513
  14   2.0000      -1.497824       -40.7579
  15   2.0000      -1.222192       -33.2575
  16   2.0000      -1.117262       -30.4023
  17   2.0000      -1.019343       -27.7377
  18   2.0000      -0.939164       -25.5559
  19   2.0000      -0.874714       -23.8022
  20   2.0000      -0.828781       -22.5523
  21   2.0000      -0.804870       -21.9016
  22   2.0000      -0.744179       -20.2501
  23   2.0000      -0.699500       -19.0344
  24   2.0000      -0.691497       -18.8166
  25   2.0000      -0.661983       -18.0135
  26   2.0000      -0.658573       -17.9207
  27   2.0000      -0.609412       -16.5829
  28   2.0000      -0.596329       -16.2269
  29   2.0000      -0.584880       -15.9154
  30   2.0000      -0.570152       -15.5146
  31   2.0000      -0.550088       -14.9687
  32   2.0000      -0.535695       -14.5770
  33   2.0000      -0.500117       -13.6089
  34   2.0000      -0.493954       -13.4412
  35   2.0000      -0.481502       -13.1023
  36   2.0000      -0.463435       -12.6107
  37   2.0000      -0.452751       -12.3200
  38   2.0000      -0.427148       -11.6233
  39   2.0000      -0.425925       -11.5900
  40   2.0000      -0.409853       -11.1527
  41   2.0000      -0.402546       -10.9538
  42   2.0000      -0.378941       -10.3115
  43   2.0000      -0.261836        -7.1249
  44   0.0000       0.119133         3.2418
  45   0.0000       0.127066         3.4576
  46   0.0000       0.148123         4.0306
  47   0.0000       0.157510         4.2861
  48   0.0000       0.161032         4.3819

MULLIKEN ATOMIC CHARGES
-----------------------
   0 C :    0.027236
   1 C :   -0.027050
   2 C :   -0.115544
   3 H :    0.094637
   4 H :    0.072305
   5 S :    0.963584
   6 C :   -0.132441
   7 N :   -0.123592
   8 C :   -0.077737
   9 H :    0.010960
  10 H :   -0.051674
  11 H :    0.111953
  12 H :    0.121841
  13 F :   -0.161938
  14 O :   -0.443187
  15 O :   -0.447894
  16 H :    0.056425
  17 H :    0.044876
  18 H :    0.009802
  19 H :    0.067440
Sum of atomic charges:    0.0000000

LOEWDIN ATOMIC CHARGES
----------------------
   0 C :   -0.033511
   1 C :   -0.033767
   2 C :   -0.148295
   3 H :    0.041731
   4 H :    0.033251
   5 S :    1.168350
   6 C :   -0.009778
   7 N :   -0.031286
   8 C :   -0.170664
   9 H :   -0.029731
  10 H :   -0.011457
  11 H :    0.067015
  12 H :    0.074609
  13 F :   -0.107907
  14 O :   -0.483490
  15 O :   -0.457880
  16 H :    0.033592
  17 H :    0.036861
  18 H :    0.023883
  19 H :    0.038474

  Mayer bond orders larger than 0.100000
B(  0-C ,  1-C ) :   1.0839 B(  0-C ,  6-C ) :   0.9918 B(  0-C , 18-H ) :   0.9343
B(  0-C , 19-H ) :   0.9301 B(  1-C ,  2-C ) :   1.0566 B(  1-C , 16-H ) :   0.9462
B(  1-C , 17-H ) :   0.9424 B(  2-C ,  3-H ) :   0.9176 B(  2-C ,  4-H ) :   0.9332
B(  2-C ,  5-S ) :   0.9339 B(  5-S , 13-F ) :   1.0423 B(  5-S , 14-O ) :   1.7688
B(  5-S , 15-O ) :   1.6685 B(  6-C ,  7-N ) :   1.2199 B(  6-C ,  8-C ) :   1.8963
B(  7-N , 11-H ) :   0.9526 B(  7-N , 12-H ) :   0.9538 B(  8-C ,  9-H ) :   0.8933
B(  8-C , 10-H ) :   0.9586 B(  9-H , 15-O ) :   0.1477

Dispersion correction           -0.008590975
FINAL SINGLE POINT ENERGY      -898.992858323595

DIPOLE MOMENT
-------------
                                X             Y             Z
Electronic contribution:      9.30273     -12.45534       5.45393
Nuclear contribution   :     -8.42493      13.96425      -5.19491
                        -----------------------------------------
Total Dipole Moment    :      0.87780       1.50891       0.25903
                        -----------------------------------------
Magnitude (a.u.)       :      1.76478
Magnitude (Debye)      :      4.48571

Rotational constants in cm-1:     0.082815     0.024151     0.022015
Rotational constants in MHz :  2482.732265   724.035221   660.002136

                             ****ORCA TERMINATED NORMALLY****
TOTAL RUN TIME: 0 days 0 hours 0 minutes 15 seconds 493 msec
