                         Program Version 5.0.0 -  RELEASE  -
|  1> !wB97X-D3 RIJCOSX def2-SVP def2/J TightSCF xyzfile
|  2>
|  3> *xyzfile 0 1 D5.xyz
|  4>
|  5> %MaxCore 64000
|  6>
|  7> %pal nprocs 18
|  8> end
|  9>
| 10> %scf
| 11>   MaxIter 150
| 12> end
| 13>
| 14>
| 15>                          ****END OF INPUT****

CARTESIAN COORDINATES (ANGSTROEM)
---------------------------------
  C     -0.461293    2.234686   -4.989619
  C      0.848883    2.667967   -4.302351
  C      2.093434    1.861037   -4.656845
  H      2.444814    2.041567   -5.674990
  H      2.901748    2.137864   -3.980338
  S      1.879644    0.078594   -4.462965
  C     -0.423841    2.398772   -6.474317
  C     -0.959467    3.492647   -7.007401
  N      0.145585    1.486891   -7.203987
  H      0.565371    0.696807   -6.723858
  H      0.220682    1.581768   -8.207520
  H     -1.406243    4.181507   -6.403261
  H     -0.934215    3.681601   -7.999468
  O      3.207574   -0.466111   -4.420259
  O      1.075064   -0.056160   -3.268758
  F      1.131661   -0.319960   -5.679031
  H      0.668432    2.559427   -3.232850
  H      1.034074    3.729426   -4.497081
  H     -1.288884    2.826737   -4.594997
  H     -0.651696    1.186343   -4.756552

 Total Charge           Charge          ....    0
 Multiplicity           Mult            ....    1
 Number of Electrons    NEL             ....   88
 Basis Dimension        Dim             ....  194

ORBITAL ENERGIES
----------------

  NO   OCC          E(Eh)            E(eV)
   0   2.0000     -89.226736     -2427.9829
   1   2.0000     -24.918005      -678.0534
   2   2.0000     -19.260347      -524.1007
   3   2.0000     -19.257472      -524.0225
   4   2.0000     -14.433989      -392.7688
   5   2.0000     -10.350251      -281.6447
   6   2.0000     -10.318032      -280.7679
   7   2.0000     -10.314643      -280.6757
   8   2.0000     -10.302578      -280.3474
   9   2.0000     -10.224914      -278.2341
  10   2.0000      -8.309802      -226.1212
  11   2.0000      -6.273196      -170.7023
  12   2.0000      -6.266269      -170.5139
  13   2.0000      -6.264950      -170.4780
  14   2.0000      -1.487029       -40.4641
  15   2.0000      -1.244226       -33.8571
  16   2.0000      -1.144749       -31.1502
  17   2.0000      -1.049352       -28.5543
  18   2.0000      -0.949659       -25.8415
  19   2.0000      -0.879957       -23.9449
  20   2.0000      -0.854198       -23.2439
  21   2.0000      -0.805051       -21.9066
  22   2.0000      -0.765187       -20.8218
  23   2.0000      -0.709117       -19.2961
  24   2.0000      -0.696227       -18.9453
  25   2.0000      -0.674822       -18.3628
  26   2.0000      -0.657783       -17.8992
  27   2.0000      -0.635222       -17.2853
  28   2.0000      -0.602571       -16.3968
  29   2.0000      -0.590387       -16.0653
  30   2.0000      -0.573648       -15.6098
  31   2.0000      -0.566873       -15.4254
  32   2.0000      -0.545090       -14.8327
  33   2.0000      -0.520280       -14.1575
  34   2.0000      -0.501920       -13.6579
  35   2.0000      -0.491940       -13.3864
  36   2.0000      -0.481748       -13.1090
  37   2.0000      -0.472298       -12.8519
  38   2.0000      -0.444206       -12.0875
  39   2.0000      -0.442032       -12.0283
  40   2.0000      -0.433594       -11.7987
  41   2.0000      -0.423435       -11.5222
  42   2.0000      -0.419446       -11.4137
  43   2.0000      -0.277253        -7.5444
  44   0.0000       0.101638         2.7657
  45   0.0000       0.132231         3.5982
  46   0.0000       0.133942         3.6448
  47   0.0000       0.147727         4.0199
  48   0.0000       0.161586         4.3970

MULLIKEN ATOMIC CHARGES
-----------------------
   0 C :    0.005008
   1 C :   -0.017358
   2 C :   -0.140291
   3 H :    0.088700
   4 H :    0.108762
   5 S :    0.952991
   6 C :   -0.132235
   7 C :   -0.079203
   8 N :   -0.100701
   9 H :    0.117132
  10 H :    0.128756
  11 H :   -0.022782
  12 H :   -0.033211
  13 O :   -0.420107
  14 O :   -0.435636
  15 F :   -0.212816
  16 H :    0.062239
  17 H :    0.051588
  18 H :    0.044916
  19 H :    0.034248
Sum of atomic charges:    0.0000000

LOEWDIN ATOMIC CHARGES
----------------------
   0 C :   -0.036075
   1 C :   -0.041009
   2 C :   -0.150542
   3 H :    0.035647
   4 H :    0.055446
   5 S :    1.168241
   6 C :   -0.003107
   7 C :   -0.185001
   8 N :   -0.014774
   9 H :    0.021883
  10 H :    0.080651
  11 H :    0.000435
  12 H :   -0.006539
  13 O :   -0.470193
  14 O :   -0.477710
  15 F :   -0.115539
  16 H :    0.035924
  17 H :    0.040157
  18 H :    0.045909
  19 H :    0.016194

  Mayer bond orders larger than 0.100000
B(  0-C ,  1-C ) :   1.0809 B(  0-C ,  6-C ) :   1.0027 B(  0-C , 18-H ) :   0.9309
B(  0-C , 19-H ) :   0.9337 B(  1-C ,  2-C ) :   1.0338 B(  1-C , 16-H ) :   0.9448
B(  1-C , 17-H ) :   0.9405 B(  2-C ,  3-H ) :   0.9268 B(  2-C ,  4-H ) :   0.9342
B(  2-C ,  5-S ) :   0.9246 B(  5-S , 13-O ) :   1.8186 B(  5-S , 14-O ) :   1.7759
B(  5-S , 15-F ) :   0.9039 B(  6-C ,  7-C ) :   1.8584 B(  6-C ,  8-N ) :   1.2673
B(  7-C , 11-H ) :   0.9481 B(  7-C , 12-H ) :   0.9651 B(  8-N ,  9-H ) :   0.9279
B(  8-N , 10-H ) :   0.9453

Dispersion correction           -0.008651607
FINAL SINGLE POINT ENERGY      -899.023227772827

DIPOLE MOMENT
-------------
                                X             Y             Z
Electronic contribution:      6.48951     -13.52401       3.15619
Nuclear contribution   :     -6.26130      13.99605      -3.80018
                        -----------------------------------------
Total Dipole Moment    :      0.22821       0.47204      -0.64399
                        -----------------------------------------
Magnitude (a.u.)       :      0.83043
Magnitude (Debye)      :      2.11079

Rotational constants in cm-1:     0.079895     0.025630     0.022948
Rotational constants in MHz :  2395.188639   768.373696   687.955250

                             ****ORCA TERMINATED NORMALLY****
TOTAL RUN TIME: 0 days 0 hours 0 minutes 17 seconds 981 msec
