                         Program Version 5.0.0 -  RELEASE  -
|  1> !PBE0 D3BJ RIJCOSX def2-SVP def2/J TightSCF
|  2> *xyz -1 1
|  3> C          3.76678       -2.26611       -6.51175
|  4> C          2.49670       -1.84416       -5.73570
|  5> H          1.62642       -2.21743       -6.30895
|  6> H          2.48182       -2.45607       -4.79341
|  7> O          2.45973       -0.50920       -5.50576
|  8> H          3.82914       -1.70941       -7.42340
|  9> H          3.71764       -3.31144       -6.73483
| 10> H          4.63199       -2.06931       -5.91377
| 11> *
| 12>
| 13> %MaxCore 64000
| 14>
| 15> %pal nprocs 4
| 16> end
| 17>
| 18> %scf
| 19>   MaxIter 150
| 20> end
| 21>
| 22>
| 23>                          ****END OF INPUT****

CARTESIAN COORDINATES (ANGSTROEM)
---------------------------------
  C      3.766780   -2.266110   -6.511750
  C      2.496700   -1.844160   -5.735700
  H      1.626420   -2.217430   -6.308950
  H      2.481820   -2.456070   -4.793410
  O      2.459730   -0.509200   -5.505760
  H      3.829140   -1.709410   -7.423400
  H      3.717640   -3.311440   -6.734830
  H      4.631990   -2.069310   -5.913770

 Total Charge           Charge          ....   -1
 Multiplicity           Mult            ....    1
 Number of Electrons    NEL             ....   26
 Basis Dimension        Dim             ....   67

ORBITAL ENERGIES
----------------

  NO   OCC          E(Eh)            E(eV)
   0   2.0000     -18.825293      -512.2623
   1   2.0000     -10.020860      -272.6815
   2   2.0000     -10.006686      -272.2958
   3   2.0000      -0.660357       -17.9692
   4   2.0000      -0.518937       -14.1210
   5   2.0000      -0.361624        -9.8403
   6   2.0000      -0.243866        -6.6359
   7   2.0000      -0.221487        -6.0270
   8   2.0000      -0.165193        -4.4951
   9   2.0000      -0.147254        -4.0070
  10   2.0000      -0.087711        -2.3867
  11   2.0000       0.062848         1.7102
  12   2.0000       0.065070         1.7706
  13   0.0000       0.263438         7.1685
  14   0.0000       0.306353         8.3363
  15   0.0000       0.319290         8.6883
  16   0.0000       0.329336         8.9617
  17   0.0000       0.371289        10.1033

MULLIKEN ATOMIC CHARGES
-----------------------
   0 C :   -0.010697
   1 C :    0.217570
   2 H :   -0.152135
   3 H :   -0.158930
   4 O :   -0.710251
   5 H :   -0.043171
   6 H :   -0.101144
   7 H :   -0.041243
Sum of atomic charges:   -1.0000000

LOEWDIN ATOMIC CHARGES
----------------------
   0 C :   -0.122654
   1 C :    0.000589
   2 H :   -0.081926
   3 H :   -0.084313
   4 O :   -0.654952
   5 H :   -0.011901
   6 H :   -0.033870
   7 H :   -0.010972

  Mayer bond orders larger than 0.100000
B(  0-C ,  1-C ) :   0.9888 B(  0-C ,  5-H ) :   0.9607 B(  0-C ,  6-H ) :   0.9229
B(  0-C ,  7-H ) :   0.9648 B(  1-C ,  2-H ) :   0.8723 B(  1-C ,  3-H ) :   0.8610
B(  1-C ,  4-O ) :   1.4962

Dispersion correction           -0.003050644
FINAL SINGLE POINT ENERGY      -154.100659883564

DIPOLE MOMENT
-------------
                                X             Y             Z
Electronic contribution:     -1.07966       2.88174       1.02064
Nuclear contribution   :      1.63615      -3.79938      -1.48621
                        -----------------------------------------
Total Dipole Moment    :      0.55650      -0.91764      -0.46556
                        -----------------------------------------
Magnitude (a.u.)       :      1.16983
Magnitude (Debye)      :      2.97348

Rotational constants in cm-1:     1.265582     0.329289     0.289024
Rotational constants in MHz : 37941.194363  9871.829581  8664.719106

                             ****ORCA TERMINATED NORMALLY****
TOTAL RUN TIME: 0 days 0 hours 0 minutes 8 seconds 363 msec
