                         Program Version 5.0.0 -  RELEASE  -
|  1> !PBE0 D3BJ RIJCOSX def2-SVP def2/J TightSCF
|  2> *xyz 1 1
|  3> C          4.99986       -1.59613       -5.92488
|  4> N          5.28156       -1.97413       -4.53576
|  5> C          3.76678       -2.26611       -6.51175
|  6> C          4.79250       -1.36132       -3.45730
|  7> N          3.93990       -0.37492       -3.55736
|  8> N          5.25986       -1.75422       -2.23913
|  9> H          5.92282       -2.52145       -2.18672
| 10> H          4.65468       -1.64040       -1.44202
| 11> H          5.70914       -2.87560       -4.38702
| 12> H          3.33010       -0.31764       -4.36125
| 13> H          3.69849        0.11447       -2.70833
| 14> H          4.84333       -0.51793       -5.94302
| 15> H          5.90170       -1.82250       -6.49647
| 16> H          3.63046       -1.94025       -7.52177
| 17> H          2.90710       -2.00116       -5.93240
| 18> H          3.89538       -3.32820       -6.49392
| 19> *
| 20>
| 21> %MaxCore 64000
| 22>
| 23> %pal nprocs 4
| 24> end
| 25>
| 26> %scf
| 27>   MaxIter 150
| 28> end
| 29>
| 30>
| 31>                          ****END OF INPUT****

CARTESIAN COORDINATES (ANGSTROEM)
---------------------------------
  C      4.999860   -1.596130   -5.924880
  N      5.281560   -1.974130   -4.535760
  C      3.766780   -2.266110   -6.511750
  C      4.792500   -1.361320   -3.457300
  N      3.939900   -0.374920   -3.557360
  N      5.259860   -1.754220   -2.239130
  H      5.922820   -2.521450   -2.186720
  H      4.654680   -1.640400   -1.442020
  H      5.709140   -2.875600   -4.387020
  H      3.330100   -0.317640   -4.361250
  H      3.698490    0.114470   -2.708330
  H      4.843330   -0.517930   -5.943020
  H      5.901700   -1.822500   -6.496470
  H      3.630460   -1.940250   -7.521770
  H      2.907100   -2.001160   -5.932400
  H      3.895380   -3.328200   -6.493920

 Total Charge           Charge          ....    1
 Multiplicity           Mult            ....    1
 Number of Electrons    NEL             ....   48
 Basis Dimension        Dim             ....  134

ORBITAL ENERGIES
----------------

  NO   OCC          E(Eh)            E(eV)
   0   2.0000     -14.622236      -397.8913
   1   2.0000     -14.618019      -397.7765
   2   2.0000     -14.612403      -397.6237
   3   2.0000     -10.565168      -287.4928
   4   2.0000     -10.437438      -284.0171
   5   2.0000     -10.371491      -282.2226
   6   2.0000      -1.234524       -33.5931
   7   2.0000      -1.122979       -30.5578
   8   2.0000      -1.106781       -30.1171
   9   2.0000      -0.947530       -25.7836
  10   2.0000      -0.856433       -23.3047
  11   2.0000      -0.817907       -22.2564
  12   2.0000      -0.804640       -21.8954
  13   2.0000      -0.754293       -20.5254
  14   2.0000      -0.710846       -19.3431
  15   2.0000      -0.707093       -19.2410
  16   2.0000      -0.656491       -17.8640
  17   2.0000      -0.644166       -17.5286
  18   2.0000      -0.619205       -16.8494
  19   2.0000      -0.574604       -15.6358
  20   2.0000      -0.544910       -14.8278
  21   2.0000      -0.525325       -14.2948
  22   2.0000      -0.491012       -13.3611
  23   2.0000      -0.462294       -12.5797
  24   0.0000      -0.162391        -4.4189
  25   0.0000      -0.122708        -3.3391
  26   0.0000      -0.092669        -2.5216
  27   0.0000      -0.079711        -2.1691
  28   0.0000      -0.065046        -1.7700

MULLIKEN ATOMIC CHARGES
-----------------------
   0 C :   -0.024837
   1 N :   -0.191687
   2 C :   -0.045501
   3 C :    0.140359
   4 N :   -0.058738
   5 N :   -0.108892
   6 H :    0.179472
   7 H :    0.180403
   8 H :    0.176678
   9 H :    0.188846
  10 H :    0.184559
  11 H :    0.077164
  12 H :    0.100562
  13 H :    0.093460
  14 H :    0.038432
  15 H :    0.069721
Sum of atomic charges:    1.0000000

LOEWDIN ATOMIC CHARGES
----------------------
   0 C :    0.034890
   1 N :    0.025572
   2 C :   -0.057091
   3 C :    0.145349
   4 N :    0.064669
   5 N :    0.023723
   6 H :    0.111529
   7 H :    0.105781
   8 H :    0.104878
   9 H :    0.113417
  10 H :    0.116327
  11 H :    0.038385
  12 H :    0.053819
  13 H :    0.054422
  14 H :    0.024607
  15 H :    0.039722

  Mayer bond orders larger than 0.100000
B(  0-C ,  1-N ) :   0.9242 B(  0-C ,  2-C ) :   1.0867 B(  0-C , 11-H ) :   0.9536
B(  0-C , 12-H ) :   0.9467 B(  1-N ,  3-C ) :   1.3637 B(  1-N ,  8-H ) :   0.9101
B(  2-C , 13-H ) :   0.9620 B(  2-C , 14-H ) :   0.9652 B(  2-C , 15-H ) :   0.9668
B(  3-C ,  4-N ) :   1.4121 B(  3-C ,  5-N ) :   1.3478 B(  4-N ,  9-H ) :   0.9172
B(  4-N , 10-H ) :   0.9225 B(  5-N ,  6-H ) :   0.9257 B(  5-N ,  7-H ) :   0.9301

Dispersion correction           -0.010411658
FINAL SINGLE POINT ENERGY      -283.871700203483

DIPOLE MOMENT
-------------
                                X             Y             Z
Electronic contribution:      1.73221       1.08164       4.81646
Nuclear contribution   :     -1.95709      -1.20097      -3.70214
                        -----------------------------------------
Total Dipole Moment    :     -0.22488      -0.11933       1.11432
                        -----------------------------------------
Magnitude (a.u.)       :      1.14303
Magnitude (Debye)      :      2.90535

Rotational constants in cm-1:     0.241661     0.071598     0.061743
Rotational constants in MHz :  7244.800091  2146.442409  1851.001864

                             ****ORCA TERMINATED NORMALLY****
TOTAL RUN TIME: 0 days 0 hours 0 minutes 15 seconds 668 msec
