                         Program Version 5.0.0 -  RELEASE  -
|  1> !PBE0 D3BJ RIJCOSX def2-TZVP def2/J TightSCF xyzfile
|  2>
|  3> *xyzfile 0 1 B.xyz
|  4>
|  5> %MaxCore 64000
|  6>
|  7> %pal nprocs 18
|  8> end
|  9>
| 10> %scf
| 11>   MaxIter 150
| 12> end
| 13>
| 14>
| 15>                          ****END OF INPUT****

CARTESIAN COORDINATES (ANGSTROEM)
---------------------------------
  C      4.999862   -1.596133   -5.924876
  N      5.281560   -1.974132   -4.535764
  C      3.766779   -2.266110   -6.511752
  C      2.496702   -1.844161   -5.735704
  H      1.626416   -2.217434   -6.308950
  H      2.481824   -2.456069   -4.793414
  O      2.459729   -0.509204   -5.505757
  C      4.792500   -1.361316   -3.457295
  N      3.939898   -0.374925   -3.557359
  N      5.259860   -1.754224   -2.239133
  H      5.922824   -2.521451   -2.186720
  H      4.654678   -1.640404   -1.442016
  H      5.709139   -2.875599   -4.387021
  H      3.330101   -0.317639   -4.361247
  H      3.698494    0.114468   -2.708333
  H      4.843333   -0.517930   -5.943019
  H      5.901695   -1.822503   -6.496467
  H      3.886191   -3.357076   -6.533604
  H      3.685602   -1.922168   -7.547128

 Total Charge           Charge          ....    0
 Multiplicity           Mult            ....    1
 Number of Electrons    NEL             ....   64
 Basis Dimension        Dim             ....  314

ORBITAL ENERGIES
----------------

  NO   OCC          E(Eh)            E(eV)
   0   2.0000     -19.054976      -518.5122
   1   2.0000     -14.445340      -393.0777
   2   2.0000     -14.439049      -392.9065
   3   2.0000     -14.394863      -391.7041
   4   2.0000     -10.376424      -282.3568
   5   2.0000     -10.252636      -278.9884
   6   2.0000     -10.199805      -277.5508
   7   2.0000     -10.187847      -277.2254
   8   2.0000      -1.067323       -29.0433
   9   2.0000      -0.959712       -26.1151
  10   2.0000      -0.942708       -25.6524
  11   2.0000      -0.904836       -24.6218
  12   2.0000      -0.777652       -21.1610
  13   2.0000      -0.695433       -18.9237
  14   2.0000      -0.649813       -17.6823
  15   2.0000      -0.626654       -17.0521
  16   2.0000      -0.600420       -16.3383
  17   2.0000      -0.557093       -15.1593
  18   2.0000      -0.534292       -14.5388
  19   2.0000      -0.516752       -14.0615
  20   2.0000      -0.482233       -13.1222
  21   2.0000      -0.471639       -12.8339
  22   2.0000      -0.446366       -12.1462
  23   2.0000      -0.416162       -11.3243
  24   2.0000      -0.372820       -10.1450
  25   2.0000      -0.351861        -9.5746
  26   2.0000      -0.340302        -9.2601
  27   2.0000      -0.319429        -8.6921
  28   2.0000      -0.308512        -8.3950
  29   2.0000      -0.286956        -7.8085
  30   2.0000      -0.174751        -4.7552
  31   2.0000      -0.169434        -4.6105
  32   0.0000      -0.008110        -0.2207
  33   0.0000       0.012718         0.3461
  34   0.0000       0.033578         0.9137
  35   0.0000       0.052231         1.4213
  36   0.0000       0.084762         2.3065

MULLIKEN ATOMIC CHARGES
-----------------------
   0 C :   -0.161434
   1 N :   -0.282056
   2 C :   -0.115781
   3 C :   -0.023958
   4 H :    0.054944
   5 H :    0.004003
   6 O :   -0.663240
   7 C :    0.398884
   8 N :   -0.387113
   9 N :   -0.472498
  10 H :    0.249337
  11 H :    0.262209
  12 H :    0.221421
  13 H :    0.288168
  14 H :    0.221718
  15 H :    0.150861
  16 H :    0.118997
  17 H :    0.054213
  18 H :    0.081324
Sum of atomic charges:   -0.0000000

LOEWDIN ATOMIC CHARGES
----------------------
   0 C :   -0.279997
   1 N :    0.152955
   2 C :   -0.295123
   3 C :   -0.505200
   4 H :    0.104434
   5 H :    0.081991
   6 O :   -0.272236
   7 C :   -0.438983
   8 N :    0.095441
   9 N :   -0.008843
  10 H :    0.175370
  11 H :    0.176618
  12 H :    0.188969
  13 H :    0.109433
  14 H :    0.175439
  15 H :    0.150496
  16 H :    0.130456
  17 H :    0.120275
  18 H :    0.138507

  Mayer bond orders larger than 0.100000
B(  0-C ,  1-N ) :   0.8864 B(  0-C ,  2-C ) :   1.0153 B(  0-C , 15-H ) :   0.9451
B(  0-C , 16-H ) :   0.9574 B(  1-N ,  7-C ) :   1.3404 B(  1-N , 12-H ) :   0.9132
B(  2-C ,  3-C ) :   0.9515 B(  2-C ,  6-O ) :  -0.1262 B(  2-C , 17-H ) :   0.9380
B(  2-C , 18-H ) :   0.9344 B(  3-C ,  4-H ) :   0.9523 B(  3-C ,  5-H ) :   0.9455
B(  3-C ,  6-O ) :   1.3135 B(  6-O , 13-H ) :   0.3625 B(  7-C ,  8-N ) :   1.5206
B(  7-C ,  9-N ) :   1.2131 B(  8-N , 13-H ) :   0.6486 B(  8-N , 14-H ) :   0.9135
B(  9-N , 10-H ) :   0.9093 B(  9-N , 11-H ) :   0.9036

Dispersion correction           -0.014983158
FINAL SINGLE POINT ENERGY      -398.203390471354

DIPOLE MOMENT
-------------
                                X             Y             Z
Electronic contribution:      1.86293       2.00513       3.70416
Nuclear contribution   :      0.51577      -3.31768      -1.36804
                        -----------------------------------------
Total Dipole Moment    :      2.37869      -1.31255       2.33613
                        -----------------------------------------
Magnitude (a.u.)       :      3.58308
Magnitude (Debye)      :      9.10747

Rotational constants in cm-1:     0.111492     0.050787     0.040163
Rotational constants in MHz :  3342.457536  1522.560798  1204.057148

                             ****ORCA TERMINATED NORMALLY****
TOTAL RUN TIME: 0 days 0 hours 0 minutes 17 seconds 972 msec
