                         Program Version 5.0.0 -  RELEASE  -
|  1> !PBE0 D3BJ RIJCOSX def2-SVP def2/J TightSCF
|  2> *xyz 0 1
|  3> C          3.76678       -2.26611       -6.51175
|  4> C          2.49670       -1.84416       -5.73570
|  5> H          1.62642       -2.21743       -6.30895
|  6> H          2.48182       -2.45607       -4.79341
|  7> F          2.45973       -0.50920       -5.50576
|  8> H          3.82914       -1.70941       -7.42340
|  9> H          3.71764       -3.31144       -6.73483
| 10> H          4.63199       -2.06931       -5.91377
| 11> *
| 12>
| 13> %MaxCore 64000
| 14>
| 15> %pal nprocs 4
| 16> end
| 17>
| 18> %scf
| 19>   MaxIter 150
| 20> end
| 21>
| 22>
| 23>                          ****END OF INPUT****

CARTESIAN COORDINATES (ANGSTROEM)
---------------------------------
  C      3.766780   -2.266110   -6.511750
  C      2.496700   -1.844160   -5.735700
  H      1.626420   -2.217430   -6.308950
  H      2.481820   -2.456070   -4.793410
  F      2.459730   -0.509200   -5.505760
  H      3.829140   -1.709410   -7.423400
  H      3.717640   -3.311440   -6.734830
  H      4.631990   -2.069310   -5.913770

 Total Charge           Charge          ....    0
 Multiplicity           Mult            ....    1
 Number of Electrons    NEL             ....   26
 Basis Dimension        Dim             ....   67

ORBITAL ENERGIES
----------------

  NO   OCC          E(Eh)            E(eV)
   0   2.0000     -24.753468      -673.5761
   1   2.0000     -10.306646      -280.4581
   2   2.0000     -10.224930      -278.2345
   3   2.0000      -1.208878       -32.8952
   4   2.0000      -0.774386       -21.0721
   5   2.0000      -0.640674       -17.4336
   6   2.0000      -0.520823       -14.1723
   7   2.0000      -0.506132       -13.7725
   8   2.0000      -0.469766       -12.7830
   9   2.0000      -0.413928       -11.2635
  10   2.0000      -0.410432       -11.1684
  11   2.0000      -0.340796        -9.2735
  12   2.0000      -0.335687        -9.1345
  13   0.0000       0.075198         2.0462
  14   0.0000       0.120554         3.2804
  15   0.0000       0.126520         3.4428
  16   0.0000       0.145776         3.9668
  17   0.0000       0.160601         4.3702

MULLIKEN ATOMIC CHARGES
-----------------------
   0 C :   -0.118263
   1 C :    0.184793
   2 H :    0.028293
   3 H :    0.029086
   4 F :   -0.261446
   5 H :    0.050389
   6 H :    0.037276
   7 H :    0.049872
Sum of atomic charges:    0.0000000

LOEWDIN ATOMIC CHARGES
----------------------
   0 C :   -0.084844
   1 C :    0.096759
   2 H :    0.011194
   3 H :    0.013691
   4 F :   -0.125557
   5 H :    0.028685
   6 H :    0.032071
   7 H :    0.028001

  Mayer bond orders larger than 0.100000
B(  0-C ,  1-C ) :   1.0839 B(  0-C ,  5-H ) :   0.9717 B(  0-C ,  6-H ) :   0.9628
B(  0-C ,  7-H ) :   0.9735 B(  1-C ,  2-H ) :   0.9583 B(  1-C ,  3-H ) :   0.9557
B(  1-C ,  4-F ) :   0.9939

Dispersion correction           -0.002811007
FINAL SINGLE POINT ENERGY      -178.726276225425

DIPOLE MOMENT
-------------
                                X             Y             Z
Electronic contribution:     -2.09173       4.37665       1.82603
Nuclear contribution   :      2.16248      -5.01128      -1.96962
                        -----------------------------------------
Total Dipole Moment    :      0.07075      -0.63463      -0.14359
                        -----------------------------------------
Magnitude (a.u.)       :      0.65451
Magnitude (Debye)      :      1.66362

Rotational constants in cm-1:     1.244010     0.306580     0.270375
Rotational constants in MHz : 37294.476802  9191.037795  8105.639967

                             ****ORCA TERMINATED NORMALLY****
TOTAL RUN TIME: 0 days 0 hours 0 minutes 7 seconds 847 msec
