                         Program Version 5.0.0 -  RELEASE  -
|  1> !PBE0 D3BJ RIJCOSX def2-SVP def2/J TightSCF
|  2> *xyz 0 1
|  3> C          4.99986       -1.59613       -5.92488
|  4> C          5.28156       -1.97413       -4.53576
|  5> C          3.76678       -2.26611       -6.51175
|  6> C          4.79250       -1.36132       -3.45730
|  7> N          3.93990       -0.37492       -3.55736
|  8> N          5.25986       -1.75422       -2.23913
|  9> H          5.92282       -2.52145       -2.18672
| 10> H          4.65468       -1.64040       -1.44202
| 11> H          5.70914       -2.87560       -4.38702
| 12> H          3.33010       -0.31764       -4.36125
| 13> H          3.69849        0.11447       -2.70833
| 14> H          4.84333       -0.51793       -5.94302
| 15> H          5.90170       -1.82250       -6.49647
| 16> H          3.63046       -1.94025       -7.52177
| 17> H          2.90710       -2.00116       -5.93240
| 18> H          3.89538       -3.32820       -6.49392
| 19> *
| 20>
| 21> %MaxCore 64000
| 22>
| 23> %pal nprocs 4
| 24> end
| 25>
| 26> %scf
| 27>   MaxIter 150
| 28> end
| 29>
| 30>
| 31>                          ****END OF INPUT****

CARTESIAN COORDINATES (ANGSTROEM)
---------------------------------
  C      4.999860   -1.596130   -5.924880
  C      5.281560   -1.974130   -4.535760
  C      3.766780   -2.266110   -6.511750
  C      4.792500   -1.361320   -3.457300
  N      3.939900   -0.374920   -3.557360
  N      5.259860   -1.754220   -2.239130
  H      5.922820   -2.521450   -2.186720
  H      4.654680   -1.640400   -1.442020
  H      5.709140   -2.875600   -4.387020
  H      3.330100   -0.317640   -4.361250
  H      3.698490    0.114470   -2.708330
  H      4.843330   -0.517930   -5.943020
  H      5.901700   -1.822500   -6.496470
  H      3.630460   -1.940250   -7.521770
  H      2.907100   -2.001160   -5.932400
  H      3.895380   -3.328200   -6.493920

 Total Charge           Charge          ....    0
 Multiplicity           Mult            ....    1
 Number of Electrons    NEL             ....   48
 Basis Dimension        Dim             ....  134

ORBITAL ENERGIES
----------------

  NO   OCC          E(Eh)            E(eV)
   0   2.0000     -14.391884      -391.6231
   1   2.0000     -14.382415      -391.3654
   2   2.0000     -10.266373      -279.3622
   3   2.0000     -10.199584      -277.5448
   4   2.0000     -10.196986      -277.4741
   5   2.0000     -10.147294      -276.1219
   6   2.0000      -0.973198       -26.4821
   7   2.0000      -0.879363       -23.9287
   8   2.0000      -0.783198       -21.3119
   9   2.0000      -0.703131       -19.1332
  10   2.0000      -0.623226       -16.9588
  11   2.0000      -0.585892       -15.9429
  12   2.0000      -0.554823       -15.0975
  13   2.0000      -0.511302       -13.9132
  14   2.0000      -0.486168       -13.2293
  15   2.0000      -0.451091       -12.2748
  16   2.0000      -0.423123       -11.5138
  17   2.0000      -0.401335       -10.9209
  18   2.0000      -0.389779       -10.6064
  19   2.0000      -0.358886        -9.7658
  20   2.0000      -0.332527        -9.0485
  21   2.0000      -0.323972        -8.8157
  22   2.0000      -0.268996        -7.3197
  23   2.0000      -0.162410        -4.4194
  24   0.0000       0.052796         1.4367
  25   0.0000       0.084685         2.3044
  26   0.0000       0.101556         2.7635
  27   0.0000       0.111346         3.0299
  28   0.0000       0.123336         3.3562

MULLIKEN ATOMIC CHARGES
-----------------------
   0 C :   -0.033448
   1 C :   -0.201561
   2 C :   -0.003621
   3 C :   -0.001571
   4 N :   -0.105052
   5 N :   -0.145323
   6 H :    0.127608
   7 H :    0.103978
   8 H :   -0.066366
   9 H :    0.141498
  10 H :    0.115040
  11 H :    0.004887
  12 H :    0.019812
  13 H :    0.020378
  14 H :    0.003027
  15 H :    0.020714
Sum of atomic charges:   -0.0000000

LOEWDIN ATOMIC CHARGES
----------------------
   0 C :   -0.052498
   1 C :   -0.216747
   2 C :   -0.064802
   3 C :    0.015509
   4 N :   -0.006894
   5 N :   -0.045407
   6 H :    0.083050
   7 H :    0.055709
   8 H :   -0.010117
   9 H :    0.083645
  10 H :    0.069665
  11 H :    0.013932
  12 H :    0.026388
  13 H :    0.016316
  14 H :    0.011270
  15 H :    0.020982

  Mayer bond orders larger than 0.100000
B(  0-C ,  1-C ) :   1.0877 B(  0-C ,  2-C ) :   1.0783 B(  0-C , 11-H ) :   0.9418
B(  0-C , 12-H ) :   0.9279 B(  1-C ,  3-C ) :   1.6736 B(  1-C ,  8-H ) :   0.9529
B(  2-C , 13-H ) :   0.9655 B(  2-C , 14-H ) :   0.9699 B(  2-C , 15-H ) :   0.9684
B(  3-C ,  4-N ) :   1.2484 B(  3-C ,  5-N ) :   1.2034 B(  4-N ,  9-H ) :   0.9349
B(  4-N , 10-H ) :   0.9466 B(  5-N ,  6-H ) :   0.9430 B(  5-N ,  7-H ) :   0.9476

Dispersion correction           -0.010836642
FINAL SINGLE POINT ENERGY      -267.410319322974

DIPOLE MOMENT
-------------
                                X             Y             Z
Electronic contribution:      1.16940       1.44159       4.66775
Nuclear contribution   :     -1.82485      -1.28952      -3.74132
                        -----------------------------------------
Total Dipole Moment    :     -0.65545       0.15207       0.92644
                        -----------------------------------------
Magnitude (a.u.)       :      1.14500
Magnitude (Debye)      :      2.91036

Rotational constants in cm-1:     0.245790     0.071632     0.062004
Rotational constants in MHz :  7368.599517  2147.482078  1858.844841

                             ****ORCA TERMINATED NORMALLY****
TOTAL RUN TIME: 0 days 0 hours 0 minutes 16 seconds 521 msec
