                         Program Version 5.0.0 -  RELEASE  -
|  1> !PBE0 D3BJ RIJCOSX def2-SVP def2/J TightSCF
|  2> *xyz 0 1
|  3> C          4.99986       -1.59613       -5.92488
|  4> N          5.28156       -1.97413       -4.53576
|  5> C          3.76678       -2.26611       -6.51175
|  6> C          4.79250       -1.36132       -3.45730
|  7> C          3.93990       -0.37492       -3.55736
|  8> N          5.25986       -1.75422       -2.23913
|  9> H          5.92282       -2.52145       -2.18672
| 10> H          4.65468       -1.64040       -1.44202
| 11> H          5.70914       -2.87560       -4.38702
| 12> H          3.33010       -0.31764       -4.36125
| 13> H          3.69849        0.11447       -2.70833
| 14> H          4.84333       -0.51793       -5.94302
| 15> H          5.90170       -1.82250       -6.49647
| 16> H          3.63046       -1.94025       -7.52177
| 17> H          2.90710       -2.00116       -5.93240
| 18> H          3.89538       -3.32820       -6.49392
| 19> *
| 20>
| 21> %MaxCore 64000
| 22>
| 23> %pal nprocs 4
| 24> end
| 25>
| 26> %scf
| 27>   MaxIter 150
| 28> end
| 29>
| 30>
| 31>                          ****END OF INPUT****

CARTESIAN COORDINATES (ANGSTROEM)
---------------------------------
  C      4.999860   -1.596130   -5.924880
  N      5.281560   -1.974130   -4.535760
  C      3.766780   -2.266110   -6.511750
  C      4.792500   -1.361320   -3.457300
  C      3.939900   -0.374920   -3.557360
  N      5.259860   -1.754220   -2.239130
  H      5.922820   -2.521450   -2.186720
  H      4.654680   -1.640400   -1.442020
  H      5.709140   -2.875600   -4.387020
  H      3.330100   -0.317640   -4.361250
  H      3.698490    0.114470   -2.708330
  H      4.843330   -0.517930   -5.943020
  H      5.901700   -1.822500   -6.496470
  H      3.630460   -1.940250   -7.521770
  H      2.907100   -2.001160   -5.932400
  H      3.895380   -3.328200   -6.493920

 Total Charge           Charge          ....    0
 Multiplicity           Mult            ....    1
 Number of Electrons    NEL             ....   48
 Basis Dimension        Dim             ....  134

ORBITAL ENERGIES
----------------

  NO   OCC          E(Eh)            E(eV)
   0   2.0000     -14.389624      -391.5616
   1   2.0000     -14.384061      -391.4102
   2   2.0000     -10.268471      -279.4193
   3   2.0000     -10.259079      -279.1637
   4   2.0000     -10.214673      -277.9554
   5   2.0000     -10.139005      -275.8964
   6   2.0000      -0.974013       -26.5042
   7   2.0000      -0.888944       -24.1894
   8   2.0000      -0.767833       -20.8938
   9   2.0000      -0.725068       -19.7301
  10   2.0000      -0.647528       -17.6201
  11   2.0000      -0.572680       -15.5834
  12   2.0000      -0.552689       -15.0394
  13   2.0000      -0.519823       -14.1451
  14   2.0000      -0.466975       -12.7070
  15   2.0000      -0.455101       -12.3839
  16   2.0000      -0.434006       -11.8099
  17   2.0000      -0.406561       -11.0631
  18   2.0000      -0.390517       -10.6265
  19   2.0000      -0.379769       -10.3340
  20   2.0000      -0.360634        -9.8133
  21   2.0000      -0.353017        -9.6061
  22   2.0000      -0.254543        -6.9265
  23   2.0000      -0.174063        -4.7365
  24   0.0000       0.056743         1.5441
  25   0.0000       0.087109         2.3704
  26   0.0000       0.095038         2.5861
  27   0.0000       0.112555         3.0628
  28   0.0000       0.126578         3.4444

MULLIKEN ATOMIC CHARGES
-----------------------
   0 C :    0.037900
   1 N :   -0.234486
   2 C :   -0.035262
   3 C :    0.058438
   4 C :   -0.142440
   5 N :   -0.164610
   6 H :    0.107764
   7 H :    0.134457
   8 H :    0.108592
   9 H :   -0.018921
  10 H :   -0.038734
  11 H :    0.051719
  12 H :    0.032889
  13 H :    0.034161
  14 H :    0.045273
  15 H :    0.023261
Sum of atomic charges:    0.0000000

LOEWDIN ATOMIC CHARGES
----------------------
   0 C :    0.034744
   1 N :   -0.036760
   2 C :   -0.071659
   3 C :    0.036972
   4 C :   -0.249325
   5 N :   -0.042510
   6 H :    0.064194
   7 H :    0.077578
   8 H :    0.061400
   9 H :   -0.002652
  10 H :   -0.002915
  11 H :    0.032462
  12 H :    0.022324
  13 H :    0.027581
  14 H :    0.028668
  15 H :    0.019898

  Mayer bond orders larger than 0.100000
B(  0-C ,  1-N ) :   0.9921 B(  0-C ,  2-C ) :   1.0929 B(  0-C , 11-H ) :   0.9381
B(  0-C , 12-H ) :   0.9593 B(  1-N ,  3-C ) :   1.1571 B(  1-N ,  8-H ) :   0.9328
B(  2-C , 13-H ) :   0.9648 B(  2-C , 14-H ) :   0.9674 B(  2-C , 15-H ) :   0.9680
B(  3-C ,  4-C ) :   1.7647 B(  3-C ,  5-N ) :   1.1821 B(  4-C ,  9-H ) :   0.9363
B(  4-C , 10-H ) :   0.9411 B(  5-N ,  6-H ) :   0.9537 B(  5-N ,  7-H ) :   0.9501

Dispersion correction           -0.010802060
FINAL SINGLE POINT ENERGY      -267.402405864210

DIPOLE MOMENT
-------------
                                X             Y             Z
Electronic contribution:      2.46204      -0.16957       3.58128
Nuclear contribution   :     -2.10948      -0.95026      -3.53375
                        -----------------------------------------
Total Dipole Moment    :      0.35257      -1.11982       0.04752
                        -----------------------------------------
Magnitude (a.u.)       :      1.17498
Magnitude (Debye)      :      2.98655

Rotational constants in cm-1:     0.255209     0.072067     0.062929
Rotational constants in MHz :  7650.964615  2160.525743  1886.569524

                             ****ORCA TERMINATED NORMALLY****
TOTAL RUN TIME: 0 days 0 hours 0 minutes 15 seconds 527 msec
