                         Program Version 5.0.0 -  RELEASE  -
|  1> !PBE0 D3BJ RIJCOSX def2-SVP def2/J TightSCF
|  2> *xyz 0 1
|  3> C          4.99986       -1.59613       -5.92488
|  4> N          5.28156       -1.97413       -4.53576
|  5> C          3.76678       -2.26611       -6.51175
|  6> C          4.79250       -1.36132       -3.45730
|  7> N          3.93990       -0.37492       -3.55736
|  8> C          5.25986       -1.75422       -2.23913
|  9> H          5.92282       -2.52145       -2.18672
| 10> H          4.65468       -1.64040       -1.44202
| 11> H          5.70914       -2.87560       -4.38702
| 12> H          3.33010       -0.31764       -4.36125
| 13> H          3.69849        0.11447       -2.70833
| 14> H          4.84333       -0.51793       -5.94302
| 15> H          5.90170       -1.82250       -6.49647
| 16> H          3.63046       -1.94025       -7.52177
| 17> H          2.90710       -2.00116       -5.93240
| 18> H          3.89538       -3.32820       -6.49392
| 19> *
| 20>
| 21> %MaxCore 64000
| 22>
| 23> %pal nprocs 4
| 24> end
| 25>
| 26> %scf
| 27>   MaxIter 150
| 28> end
| 29>
| 30>
| 31>                          ****END OF INPUT****

CARTESIAN COORDINATES (ANGSTROEM)
---------------------------------
  C      4.999860   -1.596130   -5.924880
  N      5.281560   -1.974130   -4.535760
  C      3.766780   -2.266110   -6.511750
  C      4.792500   -1.361320   -3.457300
  N      3.939900   -0.374920   -3.557360
  C      5.259860   -1.754220   -2.239130
  H      5.922820   -2.521450   -2.186720
  H      4.654680   -1.640400   -1.442020
  H      5.709140   -2.875600   -4.387020
  H      3.330100   -0.317640   -4.361250
  H      3.698490    0.114470   -2.708330
  H      4.843330   -0.517930   -5.943020
  H      5.901700   -1.822500   -6.496470
  H      3.630460   -1.940250   -7.521770
  H      2.907100   -2.001160   -5.932400
  H      3.895380   -3.328200   -6.493920

 Total Charge           Charge          ....    0
 Multiplicity           Mult            ....    1
 Number of Electrons    NEL             ....   48
 Basis Dimension        Dim             ....  134

ORBITAL ENERGIES
----------------

  NO   OCC          E(Eh)            E(eV)
   0   2.0000     -14.392874      -391.6500
   1   2.0000     -14.390018      -391.5723
   2   2.0000     -10.272465      -279.5280
   3   2.0000     -10.269010      -279.4340
   4   2.0000     -10.226549      -278.2785
   5   2.0000     -10.135626      -275.8044
   6   2.0000      -0.984716       -26.7955
   7   2.0000      -0.900659       -24.5082
   8   2.0000      -0.785942       -21.3866
   9   2.0000      -0.706469       -19.2240
  10   2.0000      -0.638746       -17.3812
  11   2.0000      -0.613512       -16.6945
  12   2.0000      -0.555455       -15.1147
  13   2.0000      -0.510162       -13.8822
  14   2.0000      -0.493040       -13.4163
  15   2.0000      -0.456223       -12.4145
  16   2.0000      -0.441053       -12.0017
  17   2.0000      -0.413865       -11.2618
  18   2.0000      -0.394253       -10.7282
  19   2.0000      -0.375651       -10.2220
  20   2.0000      -0.372741       -10.1428
  21   2.0000      -0.354604        -9.6493
  22   2.0000      -0.261881        -7.1262
  23   2.0000      -0.161259        -4.3881
  24   0.0000       0.049550         1.3483
  25   0.0000       0.085320         2.3217
  26   0.0000       0.094091         2.5603
  27   0.0000       0.102917         2.8005
  28   0.0000       0.119081         3.2404

MULLIKEN ATOMIC CHARGES
-----------------------
   0 C :    0.009831
   1 N :   -0.218897
   2 C :   -0.029229
   3 C :   -0.012938
   4 N :   -0.105364
   5 C :   -0.136685
   6 H :   -0.043012
   7 H :   -0.029636
   8 H :    0.136389
   9 H :    0.117784
  10 H :    0.136632
  11 H :    0.037012
  12 H :    0.042095
  13 H :    0.036274
  14 H :    0.024187
  15 H :    0.035558
Sum of atomic charges:    0.0000000

LOEWDIN ATOMIC CHARGES
----------------------
   0 C :    0.021591
   1 N :   -0.030802
   2 C :   -0.074286
   3 C :    0.029662
   4 N :   -0.004308
   5 C :   -0.281099
   6 H :   -0.009233
   7 H :   -0.011039
   8 H :    0.082412
   9 H :    0.066280
  10 H :    0.088984
  11 H :    0.022989
  12 H :    0.026819
  13 H :    0.027787
  14 H :    0.019006
  15 H :    0.025239

  Mayer bond orders larger than 0.100000
B(  0-C ,  1-N ) :   1.0054 B(  0-C ,  2-C ) :   1.0791 B(  0-C , 11-H ) :   0.9525
B(  0-C , 12-H ) :   0.9561 B(  1-N ,  3-C ) :   1.1797 B(  1-N ,  8-H ) :   0.9295
B(  2-C , 13-H ) :   0.9630 B(  2-C , 14-H ) :   0.9660 B(  2-C , 15-H ) :   0.9676
B(  3-C ,  4-N ) :   1.2505 B(  3-C ,  5-C ) :   1.6959 B(  4-N ,  9-H ) :   0.9410
B(  4-N , 10-H ) :   0.9403 B(  5-C ,  6-H ) :   0.9474 B(  5-C ,  7-H ) :   0.9511

Dispersion correction           -0.010736485
FINAL SINGLE POINT ENERGY      -267.398440358825

DIPOLE MOMENT
-------------
                                X             Y             Z
Electronic contribution:      1.11678       1.28801       2.16407
Nuclear contribution   :     -1.82946      -1.24287      -3.25410
                        -----------------------------------------
Total Dipole Moment    :     -0.71268       0.04514      -1.09002
                        -----------------------------------------
Magnitude (a.u.)       :      1.30311
Magnitude (Debye)      :      3.31224

Rotational constants in cm-1:     0.244672     0.074506     0.064043
Rotational constants in MHz :  7335.067153  2233.624025  1919.970379

                             ****ORCA TERMINATED NORMALLY****
TOTAL RUN TIME: 0 days 0 hours 0 minutes 17 seconds 202 msec
