                         Program Version 5.0.0 -  RELEASE  -
|  1> !PBE0 D3BJ RIJCOSX def2-TZVP def2/J TightSCF xyzfile
|  2>
|  3> *xyzfile 0 1 D3.xyz
|  4>
|  5> %MaxCore 64000
|  6>
|  7> %pal nprocs 18
|  8> end
|  9>
| 10> %scf
| 11>   MaxIter 150
| 12> end
| 13>
| 14>
| 15>                          ****END OF INPUT****

CARTESIAN COORDINATES (ANGSTROEM)
---------------------------------
  C      4.999862   -1.596133   -5.924876
  N      5.281560   -1.974132   -4.535764
  C      3.766779   -2.266110   -6.511752
  C      2.496702   -1.844161   -5.735704
  H      1.626416   -2.217434   -6.308950
  H      2.481824   -2.456069   -4.793414
  F      2.459729   -0.509204   -5.505757
  C      4.792500   -1.361316   -3.457295
  N      3.939898   -0.374925   -3.557359
  C      5.259860   -1.754224   -2.239133
  H      5.922824   -2.521451   -2.186720
  H      4.654678   -1.640404   -1.442016
  H      5.709139   -2.875599   -4.387021
  H      3.330101   -0.317639   -4.361247
  H      3.698494    0.114468   -2.708333
  H      4.843333   -0.517930   -5.943019
  H      5.901695   -1.822503   -6.496467
  H      3.886191   -3.357076   -6.533604
  H      3.685602   -1.922168   -7.547128

 Total Charge           Charge          ....    0
 Multiplicity           Mult            ....    1
 Number of Electrons    NEL             ....   64
 Basis Dimension        Dim             ....  314

ORBITAL ENERGIES
----------------

  NO   OCC          E(Eh)            E(eV)
   0   2.0000     -24.807663      -675.0508
   1   2.0000     -14.383384      -391.3918
   2   2.0000     -14.356467      -390.6593
   3   2.0000     -10.321325      -280.8575
   4   2.0000     -10.262292      -279.2512
   5   2.0000     -10.257931      -279.1325
   6   2.0000     -10.242871      -278.7227
   7   2.0000     -10.118470      -275.3376
   8   2.0000      -1.293107       -35.1872
   9   2.0000      -0.990194       -26.9445
  10   2.0000      -0.906143       -24.6574
  11   2.0000      -0.823116       -22.3981
  12   2.0000      -0.750267       -20.4158
  13   2.0000      -0.692053       -18.8317
  14   2.0000      -0.639393       -17.3988
  15   2.0000      -0.613700       -16.6996
  16   2.0000      -0.591875       -16.1057
  17   2.0000      -0.561384       -15.2760
  18   2.0000      -0.531521       -14.4634
  19   2.0000      -0.519039       -14.1238
  20   2.0000      -0.488141       -13.2830
  21   2.0000      -0.484238       -13.1768
  22   2.0000      -0.450519       -12.2592
  23   2.0000      -0.439378       -11.9561
  24   2.0000      -0.400594       -10.9007
  25   2.0000      -0.391532       -10.6541
  26   2.0000      -0.383007       -10.4222
  27   2.0000      -0.367941       -10.0122
  28   2.0000      -0.356372        -9.6974
  29   2.0000      -0.351845        -9.5742
  30   2.0000      -0.258863        -7.0440
  31   2.0000      -0.160468        -4.3666
  32   0.0000       0.031719         0.8631
  33   0.0000       0.059703         1.6246
  34   0.0000       0.067177         1.8280
  35   0.0000       0.071264         1.9392
  36   0.0000       0.086104         2.3430

MULLIKEN ATOMIC CHARGES
-----------------------
   0 C :   -0.209185
   1 N :   -0.310735
   2 C :   -0.169110
   3 C :   -0.047835
   4 H :    0.127133
   5 H :    0.141266
   6 F :   -0.195153
   7 C :    0.344204
   8 N :   -0.497107
   9 C :   -0.569152
  10 H :    0.071771
  11 H :    0.092316
  12 H :    0.222718
  13 H :    0.260511
  14 H :    0.236270
  15 H :    0.155225
  16 H :    0.133128
  17 H :    0.110749
  18 H :    0.102987
Sum of atomic charges:   -0.0000000

LOEWDIN ATOMIC CHARGES
----------------------
   0 C :   -0.295494
   1 N :    0.121034
   2 C :   -0.282547
   3 C :   -0.360201
   4 H :    0.128351
   5 H :    0.139456
   6 F :    0.166211
   7 C :   -0.484439
   8 N :    0.011770
   9 C :   -0.380277
  10 H :    0.090718
  11 H :    0.090945
  12 H :    0.189863
  13 H :    0.124779
  14 H :    0.178591
  15 H :    0.143459
  16 H :    0.135276
  17 H :    0.142619
  18 H :    0.139886

  Mayer bond orders larger than 0.100000
B(  0-C ,  1-N ) :   0.9574 B(  0-C ,  2-C ) :   0.9822 B(  0-C , 15-H ) :   0.9712
B(  0-C , 16-H ) :   0.9658 B(  1-N ,  7-C ) :   1.1639 B(  1-N , 12-H ) :   0.9197
B(  2-C ,  3-C ) :   1.0187 B(  2-C , 17-H ) :   0.9395 B(  2-C , 18-H ) :   0.9477
B(  3-C ,  4-H ) :   0.9614 B(  3-C ,  5-H ) :   0.9716 B(  3-C ,  6-F ) :   0.9440
B(  6-F , 13-H ) :   0.1078 B(  7-C ,  8-N ) :   1.2091 B(  7-C ,  9-C ) :   1.6039
B(  8-N , 13-H ) :   0.8516 B(  8-N , 14-H ) :   0.9204 B(  9-C , 10-H ) :   1.0119
B(  9-C , 11-H ) :   0.9797

Dispersion correction           -0.014829077
FINAL SINGLE POINT ENERGY      -406.146355618214

DIPOLE MOMENT
-------------
                                X             Y             Z
Electronic contribution:     -3.49874       3.88454      -1.51107
Nuclear contribution   :      2.63642      -4.47741       0.00296
                        -----------------------------------------
Total Dipole Moment    :     -0.86232      -0.59287      -1.50812
                        -----------------------------------------
Magnitude (a.u.)       :      1.83562
Magnitude (Debye)      :      4.66578

Rotational constants in cm-1:     0.108041     0.051979     0.040387
Rotational constants in MHz :  3238.993235  1558.297571  1210.782552

                             ****ORCA TERMINATED NORMALLY****
TOTAL RUN TIME: 0 days 0 hours 0 minutes 19 seconds 524 msec
