                         Program Version 5.0.0 -  RELEASE  -
|  1> !PBE0 D3BJ RIJCOSX def2-TZVP def2/J TightSCF
|  2> *xyz -1 1
|  3> C          3.76678       -2.26611       -6.51175
|  4> C          2.49670       -1.84416       -5.73570
|  5> H          1.62642       -2.21743       -6.30895
|  6> H          2.48182       -2.45607       -4.79341
|  7> O          2.45973       -0.50920       -5.50576
|  8> H          3.82914       -1.70941       -7.42340
|  9> H          3.71764       -3.31144       -6.73483
| 10> H          4.63199       -2.06931       -5.91377
| 11> *
| 12>
| 13> %MaxCore 64000
| 14>
| 15> %pal nprocs 4
| 16> end
| 17>
| 18> %scf
| 19>   MaxIter 150
| 20> end
| 21>
| 22>
| 23>                          ****END OF INPUT****

CARTESIAN COORDINATES (ANGSTROEM)
---------------------------------
  C      3.766780   -2.266110   -6.511750
  C      2.496700   -1.844160   -5.735700
  H      1.626420   -2.217430   -6.308950
  H      2.481820   -2.456070   -4.793410
  O      2.459730   -0.509200   -5.505760
  H      3.829140   -1.709410   -7.423400
  H      3.717640   -3.311440   -6.734830
  H      4.631990   -2.069310   -5.913770

 Total Charge           Charge          ....   -1
 Multiplicity           Mult            ....    1
 Number of Electrons    NEL             ....   26
 Basis Dimension        Dim             ....  123

ORBITAL ENERGIES
----------------

  NO   OCC          E(Eh)            E(eV)
   0   2.0000     -18.850773      -512.9556
   1   2.0000     -10.023796      -272.7613
   2   2.0000     -10.001209      -272.1467
   3   2.0000      -0.697446       -18.9785
   4   2.0000      -0.537493       -14.6259
   5   2.0000      -0.380383       -10.3508
   6   2.0000      -0.253663        -6.9025
   7   2.0000      -0.231626        -6.3029
   8   2.0000      -0.175926        -4.7872
   9   2.0000      -0.158830        -4.3220
  10   2.0000      -0.115876        -3.1531
  11   2.0000       0.033022         0.8986
  12   2.0000       0.034751         0.9456
  13   0.0000       0.227051         6.1784
  14   0.0000       0.262146         7.1334
  15   0.0000       0.287163         7.8141
  16   0.0000       0.292989         7.9726
  17   0.0000       0.324856         8.8398

MULLIKEN ATOMIC CHARGES
-----------------------
   0 C :   -0.175610
   1 C :    0.044479
   2 H :   -0.065391
   3 H :   -0.078723
   4 O :   -0.763030
   5 H :    0.031627
   6 H :   -0.026773
   7 H :    0.033422
Sum of atomic charges:   -1.0000000

LOEWDIN ATOMIC CHARGES
----------------------
   0 C :   -0.369531
   1 C :   -0.569077
   2 H :    0.050574
   3 H :    0.049708
   4 O :   -0.407693
   5 H :    0.086827
   6 H :    0.072213
   7 H :    0.086979

  Mayer bond orders larger than 0.100000
B(  0-C ,  1-C ) :   0.9066 B(  0-C ,  4-O ) :  -0.2417 B(  0-C ,  5-H ) :   0.9617
B(  0-C ,  6-H ) :   0.9217 B(  0-C ,  7-H ) :   0.9670 B(  1-C ,  2-H ) :   0.9197
B(  1-C ,  3-H ) :   0.9073 B(  1-C ,  4-O ) :   1.6184

Dispersion correction           -0.003050644
FINAL SINGLE POINT ENERGY      -154.298134203172

DIPOLE MOMENT
-------------
                                X             Y             Z
Electronic contribution:     -1.08241       2.72882       0.99292
Nuclear contribution   :      1.63615      -3.79938      -1.48621
                        -----------------------------------------
Total Dipole Moment    :      0.55374      -1.07056      -0.49329
                        -----------------------------------------
Magnitude (a.u.)       :      1.30233
Magnitude (Debye)      :      3.31027

Rotational constants in cm-1:     1.265582     0.329289     0.289024
Rotational constants in MHz : 37941.194363  9871.829581  8664.719106

                             ****ORCA TERMINATED NORMALLY****
TOTAL RUN TIME: 0 days 0 hours 0 minutes 11 seconds 675 msec
