                         Program Version 5.0.0 -  RELEASE  -
|  1> !PBE0 D3BJ RIJCOSX def2-TZVP def2/J TightSCF
|  2> *xyz 1 1
|  3> C          4.99986       -1.59613       -5.92488
|  4> N          5.28156       -1.97413       -4.53576
|  5> C          3.76678       -2.26611       -6.51175
|  6> C          4.79250       -1.36132       -3.45730
|  7> N          3.93990       -0.37492       -3.55736
|  8> N          5.25986       -1.75422       -2.23913
|  9> H          5.92282       -2.52145       -2.18672
| 10> H          4.65468       -1.64040       -1.44202
| 11> H          5.70914       -2.87560       -4.38702
| 12> H          3.33010       -0.31764       -4.36125
| 13> H          3.69849        0.11447       -2.70833
| 14> H          4.84333       -0.51793       -5.94302
| 15> H          5.90170       -1.82250       -6.49647
| 16> H          3.63046       -1.94025       -7.52177
| 17> H          2.90710       -2.00116       -5.93240
| 18> H          3.89538       -3.32820       -6.49392
| 19> *
| 20>
| 21> %MaxCore 64000
| 22>
| 23> %pal nprocs 4
| 24> end
| 25>
| 26> %scf
| 27>   MaxIter 150
| 28> end
| 29>
| 30>
| 31>                          ****END OF INPUT****

CARTESIAN COORDINATES (ANGSTROEM)
---------------------------------
  C      4.999860   -1.596130   -5.924880
  N      5.281560   -1.974130   -4.535760
  C      3.766780   -2.266110   -6.511750
  C      4.792500   -1.361320   -3.457300
  N      3.939900   -0.374920   -3.557360
  N      5.259860   -1.754220   -2.239130
  H      5.922820   -2.521450   -2.186720
  H      4.654680   -1.640400   -1.442020
  H      5.709140   -2.875600   -4.387020
  H      3.330100   -0.317640   -4.361250
  H      3.698490    0.114470   -2.708330
  H      4.843330   -0.517930   -5.943020
  H      5.901700   -1.822500   -6.496470
  H      3.630460   -1.940250   -7.521770
  H      2.907100   -2.001160   -5.932400
  H      3.895380   -3.328200   -6.493920

 Total Charge           Charge          ....    1
 Multiplicity           Mult            ....    1
 Number of Electrons    NEL             ....   48
 Basis Dimension        Dim             ....  246

ORBITAL ENERGIES
----------------

  NO   OCC          E(Eh)            E(eV)
   0   2.0000     -14.610674      -397.5766
   1   2.0000     -14.608501      -397.5175
   2   2.0000     -14.601462      -397.3260
   3   2.0000     -10.554901      -287.2135
   4   2.0000     -10.427012      -283.7334
   5   2.0000     -10.358437      -281.8674
   6   2.0000      -1.242838       -33.8194
   7   2.0000      -1.132032       -30.8042
   8   2.0000      -1.116302       -30.3761
   9   2.0000      -0.954349       -25.9692
  10   2.0000      -0.861808       -23.4510
  11   2.0000      -0.821727       -22.3603
  12   2.0000      -0.804692       -21.8968
  13   2.0000      -0.755488       -20.5579
  14   2.0000      -0.710522       -19.3343
  15   2.0000      -0.706492       -19.2246
  16   2.0000      -0.655967       -17.8498
  17   2.0000      -0.644303       -17.5324
  18   2.0000      -0.620346       -16.8805
  19   2.0000      -0.574883       -15.6434
  20   2.0000      -0.546366       -14.8674
  21   2.0000      -0.526645       -14.3307
  22   2.0000      -0.492805       -13.4099
  23   2.0000      -0.463432       -12.6106
  24   0.0000      -0.168541        -4.5862
  25   0.0000      -0.139755        -3.8029
  26   0.0000      -0.109818        -2.9883
  27   0.0000      -0.097482        -2.6526
  28   0.0000      -0.080176        -2.1817

MULLIKEN ATOMIC CHARGES
-----------------------
   0 C :   -0.227145
   1 N :   -0.245287
   2 C :   -0.308198
   3 C :    0.440068
   4 N :   -0.404080
   5 N :   -0.429241
   6 H :    0.285112
   7 H :    0.285521
   8 H :    0.259568
   9 H :    0.297808
  10 H :    0.286485
  11 H :    0.161516
  12 H :    0.176815
  13 H :    0.169939
  14 H :    0.107025
  15 H :    0.144094
Sum of atomic charges:    1.0000000

LOEWDIN ATOMIC CHARGES
----------------------
   0 C :   -0.284507
   1 N :    0.170713
   2 C :   -0.288894
   3 C :   -0.408236
   4 N :    0.089785
   5 N :    0.039585
   6 H :    0.195961
   7 H :    0.190968
   8 H :    0.206941
   9 H :    0.201834
  10 H :    0.203842
  11 H :    0.145341
  12 H :    0.151792
  13 H :    0.139526
  14 H :    0.116888
  15 H :    0.128460

  Mayer bond orders larger than 0.100000
B(  0-C ,  1-N ) :   0.8942 B(  0-C ,  2-C ) :   1.0105 B(  0-C , 11-H ) :   0.9635
B(  0-C , 12-H ) :   0.9464 B(  1-N ,  3-C ) :   1.3887 B(  1-N ,  8-H ) :   0.8966
B(  2-C , 13-H ) :   0.9620 B(  2-C , 14-H ) :   0.9527 B(  2-C , 15-H ) :   0.9659
B(  3-C ,  4-N ) :   1.3656 B(  3-C ,  5-N ) :   1.3037 B(  4-N ,  9-H ) :   0.8779
B(  4-N , 10-H ) :   0.8907 B(  5-N ,  6-H ) :   0.8959 B(  5-N ,  7-H ) :   0.8885

Dispersion correction           -0.010411658
FINAL SINGLE POINT ENERGY      -284.180701876863

DIPOLE MOMENT
-------------
                                X             Y             Z
Electronic contribution:      1.75101       1.08227       4.74712
Nuclear contribution   :     -1.95709      -1.20097      -3.70214
                        -----------------------------------------
Total Dipole Moment    :     -0.20608      -0.11870       1.04498
                        -----------------------------------------
Magnitude (a.u.)       :      1.07170
Magnitude (Debye)      :      2.72405

Rotational constants in cm-1:     0.241661     0.071598     0.061743
Rotational constants in MHz :  7244.800091  2146.442409  1851.001864

                             ****ORCA TERMINATED NORMALLY****
TOTAL RUN TIME: 0 days 0 hours 0 minutes 34 seconds 568 msec
