                         Program Version 5.0.0 -  RELEASE  -
|  1> !PBE0 D3BJ RIJCOSX def2-TZVP def2/J TightSCF
|  2> *xyz 0 1
|  3> C          3.76678       -2.26611       -6.51175
|  4> C          2.49670       -1.84416       -5.73570
|  5> H          1.62642       -2.21743       -6.30895
|  6> H          2.48182       -2.45607       -4.79341
|  7> F          2.45973       -0.50920       -5.50576
|  8> H          3.82914       -1.70941       -7.42340
|  9> H          3.71764       -3.31144       -6.73483
| 10> H          4.63199       -2.06931       -5.91377
| 11> *
| 12>
| 13> %MaxCore 64000
| 14>
| 15> %pal nprocs 4
| 16> end
| 17>
| 18> %scf
| 19>   MaxIter 150
| 20> end
| 21>
| 22>
| 23>                          ****END OF INPUT****

CARTESIAN COORDINATES (ANGSTROEM)
---------------------------------
  C      3.766780   -2.266110   -6.511750
  C      2.496700   -1.844160   -5.735700
  H      1.626420   -2.217430   -6.308950
  H      2.481820   -2.456070   -4.793410
  F      2.459730   -0.509200   -5.505760
  H      3.829140   -1.709410   -7.423400
  H      3.717640   -3.311440   -6.734830
  H      4.631990   -2.069310   -5.913770

 Total Charge           Charge          ....    0
 Multiplicity           Mult            ....    1
 Number of Electrons    NEL             ....   26
 Basis Dimension        Dim             ....  123

ORBITAL ENERGIES
----------------

  NO   OCC          E(Eh)            E(eV)
   0   2.0000     -24.758650      -673.7171
   1   2.0000     -10.298762      -280.2436
   2   2.0000     -10.212946      -277.9084
   3   2.0000      -1.236590       -33.6493
   4   2.0000      -0.784177       -21.3386
   5   2.0000      -0.651136       -17.7183
   6   2.0000      -0.527356       -14.3501
   7   2.0000      -0.511029       -13.9058
   8   2.0000      -0.476125       -12.9560
   9   2.0000      -0.419037       -11.4026
  10   2.0000      -0.412956       -11.2371
  11   2.0000      -0.345908        -9.4126
  12   2.0000      -0.340622        -9.2688
  13   0.0000       0.051863         1.4113
  14   0.0000       0.090119         2.4523
  15   0.0000       0.108082         2.9411
  16   0.0000       0.109420         2.9775
  17   0.0000       0.124735         3.3942

MULLIKEN ATOMIC CHARGES
-----------------------
   0 C :   -0.344728
   1 C :    0.017883
   2 H :    0.095149
   3 H :    0.091498
   4 F :   -0.220444
   5 H :    0.123388
   6 H :    0.114235
   7 H :    0.123018
Sum of atomic charges:   -0.0000000

LOEWDIN ATOMIC CHARGES
----------------------
   0 C :   -0.314584
   1 C :   -0.387044
   2 H :    0.115569
   3 H :    0.118751
   4 F :    0.112819
   5 H :    0.117068
   6 H :    0.121037
   7 H :    0.116384

  Mayer bond orders larger than 0.100000
B(  0-C ,  1-C ) :   1.0111 B(  0-C ,  5-H ) :   0.9673 B(  0-C ,  6-H ) :   0.9571
B(  0-C ,  7-H ) :   0.9689 B(  1-C ,  2-H ) :   0.9665 B(  1-C ,  3-H ) :   0.9651
B(  1-C ,  4-F ) :   1.0096

Dispersion correction           -0.002811007
FINAL SINGLE POINT ENERGY      -178.936651540131

DIPOLE MOMENT
-------------
                                X             Y             Z
Electronic contribution:     -2.08248       4.36179       1.81732
Nuclear contribution   :      2.16248      -5.01128      -1.96962
                        -----------------------------------------
Total Dipole Moment    :      0.08000      -0.64949      -0.15230
                        -----------------------------------------
Magnitude (a.u.)       :      0.67189
Magnitude (Debye)      :      1.70781

Rotational constants in cm-1:     1.244010     0.306580     0.270375
Rotational constants in MHz : 37294.476802  9191.037795  8105.639967

                             ****ORCA TERMINATED NORMALLY****
TOTAL RUN TIME: 0 days 0 hours 0 minutes 10 seconds 364 msec
