                         Program Version 5.0.0 -  RELEASE  -
|  1> !PBE0 D3BJ RIJCOSX def2-TZVP def2/J TightSCF
|  2> *xyz 0 1
|  3> C          4.99986       -1.59613       -5.92488
|  4> C          5.28156       -1.97413       -4.53576
|  5> C          3.76678       -2.26611       -6.51175
|  6> C          4.79250       -1.36132       -3.45730
|  7> N          3.93990       -0.37492       -3.55736
|  8> N          5.25986       -1.75422       -2.23913
|  9> H          5.92282       -2.52145       -2.18672
| 10> H          4.65468       -1.64040       -1.44202
| 11> H          5.70914       -2.87560       -4.38702
| 12> H          3.33010       -0.31764       -4.36125
| 13> H          3.69849        0.11447       -2.70833
| 14> H          4.84333       -0.51793       -5.94302
| 15> H          5.90170       -1.82250       -6.49647
| 16> H          3.63046       -1.94025       -7.52177
| 17> H          2.90710       -2.00116       -5.93240
| 18> H          3.89538       -3.32820       -6.49392
| 19> *
| 20>
| 21> %MaxCore 64000
| 22>
| 23> %pal nprocs 4
| 24> end
| 25>
| 26> %scf
| 27>   MaxIter 150
| 28> end
| 29>
| 30>
| 31>                          ****END OF INPUT****

CARTESIAN COORDINATES (ANGSTROEM)
---------------------------------
  C      4.999860   -1.596130   -5.924880
  C      5.281560   -1.974130   -4.535760
  C      3.766780   -2.266110   -6.511750
  C      4.792500   -1.361320   -3.457300
  N      3.939900   -0.374920   -3.557360
  N      5.259860   -1.754220   -2.239130
  H      5.922820   -2.521450   -2.186720
  H      4.654680   -1.640400   -1.442020
  H      5.709140   -2.875600   -4.387020
  H      3.330100   -0.317640   -4.361250
  H      3.698490    0.114470   -2.708330
  H      4.843330   -0.517930   -5.943020
  H      5.901700   -1.822500   -6.496470
  H      3.630460   -1.940250   -7.521770
  H      2.907100   -2.001160   -5.932400
  H      3.895380   -3.328200   -6.493920

 Total Charge           Charge          ....    0
 Multiplicity           Mult            ....    1
 Number of Electrons    NEL             ....   48
 Basis Dimension        Dim             ....  246

ORBITAL ENERGIES
----------------

  NO   OCC          E(Eh)            E(eV)
   0   2.0000     -14.385323      -391.4446
   1   2.0000     -14.376947      -391.2166
   2   2.0000     -10.260758      -279.2094
   3   2.0000     -10.191928      -277.3365
   4   2.0000     -10.185498      -277.1615
   5   2.0000     -10.142385      -275.9883
   6   2.0000      -0.988114       -26.8879
   7   2.0000      -0.894942       -24.3526
   8   2.0000      -0.794924       -21.6310
   9   2.0000      -0.714646       -19.4465
  10   2.0000      -0.632961       -17.2237
  11   2.0000      -0.592867       -16.1327
  12   2.0000      -0.560116       -15.2415
  13   2.0000      -0.517855       -14.0915
  14   2.0000      -0.490612       -13.3502
  15   2.0000      -0.455550       -12.3961
  16   2.0000      -0.427056       -11.6208
  17   2.0000      -0.406497       -11.0613
  18   2.0000      -0.394705       -10.7405
  19   2.0000      -0.362785        -9.8719
  20   2.0000      -0.336565        -9.1584
  21   2.0000      -0.328518        -8.9394
  22   2.0000      -0.276447        -7.5225
  23   2.0000      -0.170404        -4.6369
  24   0.0000       0.028249         0.7687
  25   0.0000       0.057945         1.5768
  26   0.0000       0.074731         2.0335
  27   0.0000       0.086434         2.3520
  28   0.0000       0.097665         2.6576

MULLIKEN ATOMIC CHARGES
-----------------------
   0 C :   -0.225176
   1 C :   -0.321111
   2 C :   -0.296795
   3 C :    0.326015
   4 N :   -0.490435
   5 N :   -0.495976
   6 H :    0.244335
   7 H :    0.211812
   8 H :    0.086969
   9 H :    0.255389
  10 H :    0.222188
  11 H :    0.090250
  12 H :    0.097943
  13 H :    0.106702
  14 H :    0.083854
  15 H :    0.104036
Sum of atomic charges:   -0.0000000

LOEWDIN ATOMIC CHARGES
----------------------
   0 C :   -0.313577
   1 C :   -0.275264
   2 C :   -0.310850
   3 C :   -0.466549
   4 N :    0.008096
   5 N :   -0.039019
   6 H :    0.175341
   7 H :    0.150590
   8 H :    0.116923
   9 H :    0.179909
  10 H :    0.167752
  11 H :    0.134793
  12 H :    0.138192
  13 H :    0.110629
  14 H :    0.108043
  15 H :    0.114992

  Mayer bond orders larger than 0.100000
B(  0-C ,  1-C ) :   1.0697 B(  0-C ,  2-C ) :   0.9818 B(  0-C , 11-H ) :   0.9707
B(  0-C , 12-H ) :   0.9659 B(  1-C ,  3-C ) :   1.6813 B(  1-C ,  8-H ) :   0.9754
B(  2-C , 13-H ) :   0.9700 B(  2-C , 14-H ) :   0.9726 B(  2-C , 15-H ) :   0.9768
B(  3-C ,  4-N ) :   1.1410 B(  3-C ,  5-N ) :   1.1396 B(  4-N ,  9-H ) :   0.9084
B(  4-N , 10-H ) :   0.9184 B(  5-N ,  6-H ) :   0.9178 B(  5-N ,  7-H ) :   0.9144

Dispersion correction           -0.010836642
FINAL SINGLE POINT ENERGY      -267.706938240402

DIPOLE MOMENT
-------------
                                X             Y             Z
Electronic contribution:      1.20725       1.41177       4.57746
Nuclear contribution   :     -1.82485      -1.28952      -3.74132
                        -----------------------------------------
Total Dipole Moment    :     -0.61760       0.12225       0.83615
                        -----------------------------------------
Magnitude (a.u.)       :      1.04667
Magnitude (Debye)      :      2.66042

Rotational constants in cm-1:     0.245790     0.071632     0.062004
Rotational constants in MHz :  7368.599517  2147.482078  1858.844841

                             ****ORCA TERMINATED NORMALLY****
TOTAL RUN TIME: 0 days 0 hours 0 minutes 37 seconds 880 msec
