                         Program Version 5.0.0 -  RELEASE  -
|  1> !PBE0 D3BJ RIJCOSX def2-TZVP def2/J TightSCF
|  2> *xyz 0 1
|  3> C          4.99986       -1.59613       -5.92488
|  4> N          5.28156       -1.97413       -4.53576
|  5> C          3.76678       -2.26611       -6.51175
|  6> C          4.79250       -1.36132       -3.45730
|  7> C          3.93990       -0.37492       -3.55736
|  8> N          5.25986       -1.75422       -2.23913
|  9> H          5.92282       -2.52145       -2.18672
| 10> H          4.65468       -1.64040       -1.44202
| 11> H          5.70914       -2.87560       -4.38702
| 12> H          3.33010       -0.31764       -4.36125
| 13> H          3.69849        0.11447       -2.70833
| 14> H          4.84333       -0.51793       -5.94302
| 15> H          5.90170       -1.82250       -6.49647
| 16> H          3.63046       -1.94025       -7.52177
| 17> H          2.90710       -2.00116       -5.93240
| 18> H          3.89538       -3.32820       -6.49392
| 19> *
| 20>
| 21> %MaxCore 64000
| 22>
| 23> %pal nprocs 4
| 24> end
| 25>
| 26> %scf
| 27>   MaxIter 150
| 28> end
| 29>
| 30>
| 31>                          ****END OF INPUT****

CARTESIAN COORDINATES (ANGSTROEM)
---------------------------------
  C      4.999860   -1.596130   -5.924880
  N      5.281560   -1.974130   -4.535760
  C      3.766780   -2.266110   -6.511750
  C      4.792500   -1.361320   -3.457300
  C      3.939900   -0.374920   -3.557360
  N      5.259860   -1.754220   -2.239130
  H      5.922820   -2.521450   -2.186720
  H      4.654680   -1.640400   -1.442020
  H      5.709140   -2.875600   -4.387020
  H      3.330100   -0.317640   -4.361250
  H      3.698490    0.114470   -2.708330
  H      4.843330   -0.517930   -5.943020
  H      5.901700   -1.822500   -6.496470
  H      3.630460   -1.940250   -7.521770
  H      2.907100   -2.001160   -5.932400
  H      3.895380   -3.328200   -6.493920

 Total Charge           Charge          ....    0
 Multiplicity           Mult            ....    1
 Number of Electrons    NEL             ....   48
 Basis Dimension        Dim             ....  246

ORBITAL ENERGIES
----------------

  NO   OCC          E(Eh)            E(eV)
   0   2.0000     -14.384668      -391.4267
   1   2.0000     -14.378440      -391.2572
   2   2.0000     -10.262699      -279.2622
   3   2.0000     -10.250669      -278.9349
   4   2.0000     -10.202687      -277.6292
   5   2.0000     -10.130548      -275.6662
   6   2.0000      -0.987972       -26.8841
   7   2.0000      -0.903320       -24.5806
   8   2.0000      -0.778056       -21.1720
   9   2.0000      -0.737380       -20.0651
  10   2.0000      -0.655746       -17.8437
  11   2.0000      -0.580169       -15.7872
  12   2.0000      -0.557552       -15.1718
  13   2.0000      -0.525722       -14.3056
  14   2.0000      -0.469777       -12.7833
  15   2.0000      -0.458421       -12.4743
  16   2.0000      -0.437865       -11.9149
  17   2.0000      -0.411205       -11.1895
  18   2.0000      -0.395272       -10.7559
  19   2.0000      -0.383006       -10.4221
  20   2.0000      -0.364573        -9.9205
  21   2.0000      -0.357050        -9.7158
  22   2.0000      -0.260940        -7.1006
  23   2.0000      -0.182008        -4.9527
  24   0.0000       0.031098         0.8462
  25   0.0000       0.060649         1.6503
  26   0.0000       0.071269         1.9393
  27   0.0000       0.087406         2.3784
  28   0.0000       0.099702         2.7130

MULLIKEN ATOMIC CHARGES
-----------------------
   0 C :   -0.137123
   1 N :   -0.318980
   2 C :   -0.319042
   3 C :    0.387286
   4 C :   -0.563547
   5 N :   -0.505132
   6 H :    0.217792
   7 H :    0.247467
   8 H :    0.192362
   9 H :    0.117017
  10 H :    0.088541
  11 H :    0.135151
  12 H :    0.113959
  13 H :    0.114795
  14 H :    0.130419
  15 H :    0.099036
Sum of atomic charges:   -0.0000000

LOEWDIN ATOMIC CHARGES
----------------------
   0 C :   -0.301697
   1 N :    0.114228
   2 C :   -0.310724
   3 C :   -0.463654
   4 C :   -0.332543
   5 N :   -0.034073
   6 H :    0.158655
   7 H :    0.170172
   8 H :    0.172389
   9 H :    0.102692
  10 H :    0.101941
  11 H :    0.141986
  12 H :    0.128397
  13 H :    0.118803
  14 H :    0.120592
  15 H :    0.112835

  Mayer bond orders larger than 0.100000
B(  0-C ,  1-N ) :   0.9466 B(  0-C ,  2-C ) :   0.9947 B(  0-C , 11-H ) :   0.9589
B(  0-C , 12-H ) :   0.9678 B(  1-N ,  3-C ) :   1.1631 B(  1-N ,  8-H ) :   0.9199
B(  2-C , 13-H ) :   0.9677 B(  2-C , 14-H ) :   0.9707 B(  2-C , 15-H ) :   0.9713
B(  3-C ,  4-C ) :   1.6596 B(  3-C ,  5-N ) :   1.0942 B(  4-C ,  9-H ) :   0.9787
B(  4-C , 10-H ) :   1.0007 B(  5-N ,  6-H ) :   0.9255 B(  5-N ,  7-H ) :   0.9150

Dispersion correction           -0.010802060
FINAL SINGLE POINT ENERGY      -267.699317726092

DIPOLE MOMENT
-------------
                                X             Y             Z
Electronic contribution:      2.44462      -0.14082       3.53196
Nuclear contribution   :     -2.10948      -0.95026      -3.53375
                        -----------------------------------------
Total Dipole Moment    :      0.33514      -1.09108      -0.00180
                        -----------------------------------------
Magnitude (a.u.)       :      1.14140
Magnitude (Debye)      :      2.90120

Rotational constants in cm-1:     0.255209     0.072067     0.062929
Rotational constants in MHz :  7650.964615  2160.525743  1886.569524

                             ****ORCA TERMINATED NORMALLY****
TOTAL RUN TIME: 0 days 0 hours 0 minutes 34 seconds 413 msec
