                         Program Version 5.0.0 -  RELEASE  -
|  1> !PBE0 D3BJ RIJCOSX def2-TZVP def2/J TightSCF
|  2> *xyz 0 1
|  3> C          4.99986       -1.59613       -5.92488
|  4> N          5.28156       -1.97413       -4.53576
|  5> C          3.76678       -2.26611       -6.51175
|  6> C          4.79250       -1.36132       -3.45730
|  7> N          3.93990       -0.37492       -3.55736
|  8> C          5.25986       -1.75422       -2.23913
|  9> H          5.92282       -2.52145       -2.18672
| 10> H          4.65468       -1.64040       -1.44202
| 11> H          5.70914       -2.87560       -4.38702
| 12> H          3.33010       -0.31764       -4.36125
| 13> H          3.69849        0.11447       -2.70833
| 14> H          4.84333       -0.51793       -5.94302
| 15> H          5.90170       -1.82250       -6.49647
| 16> H          3.63046       -1.94025       -7.52177
| 17> H          2.90710       -2.00116       -5.93240
| 18> H          3.89538       -3.32820       -6.49392
| 19> *
| 20>
| 21> %MaxCore 64000
| 22>
| 23> %pal nprocs 4
| 24> end
| 25>
| 26> %scf
| 27>   MaxIter 150
| 28> end
| 29>
| 30>
| 31>                          ****END OF INPUT****

CARTESIAN COORDINATES (ANGSTROEM)
---------------------------------
  C      4.999860   -1.596130   -5.924880
  N      5.281560   -1.974130   -4.535760
  C      3.766780   -2.266110   -6.511750
  C      4.792500   -1.361320   -3.457300
  N      3.939900   -0.374920   -3.557360
  C      5.259860   -1.754220   -2.239130
  H      5.922820   -2.521450   -2.186720
  H      4.654680   -1.640400   -1.442020
  H      5.709140   -2.875600   -4.387020
  H      3.330100   -0.317640   -4.361250
  H      3.698490    0.114470   -2.708330
  H      4.843330   -0.517930   -5.943020
  H      5.901700   -1.822500   -6.496470
  H      3.630460   -1.940250   -7.521770
  H      2.907100   -2.001160   -5.932400
  H      3.895380   -3.328200   -6.493920

 Total Charge           Charge          ....    0
 Multiplicity           Mult            ....    1
 Number of Electrons    NEL             ....   48
 Basis Dimension        Dim             ....  246

ORBITAL ENERGIES
----------------

  NO   OCC          E(Eh)            E(eV)
   0   2.0000     -14.386310      -391.4714
   1   2.0000     -14.385415      -391.4470
   2   2.0000     -10.267494      -279.3927
   3   2.0000     -10.259971      -279.1880
   4   2.0000     -10.214006      -277.9372
   5   2.0000     -10.127727      -275.5895
   6   2.0000      -0.998842       -27.1799
   7   2.0000      -0.914932       -24.8966
   8   2.0000      -0.795561       -21.6483
   9   2.0000      -0.717963       -19.5368
  10   2.0000      -0.647562       -17.6211
  11   2.0000      -0.620453       -16.8834
  12   2.0000      -0.561053       -15.2670
  13   2.0000      -0.514309       -13.9951
  14   2.0000      -0.496398       -13.5077
  15   2.0000      -0.459117       -12.4932
  16   2.0000      -0.444374       -12.0920
  17   2.0000      -0.417520       -11.3613
  18   2.0000      -0.399520       -10.8715
  19   2.0000      -0.378840       -10.3088
  20   2.0000      -0.375382       -10.2147
  21   2.0000      -0.359332        -9.7779
  22   2.0000      -0.268099        -7.2954
  23   2.0000      -0.169049        -4.6001
  24   0.0000       0.027040         0.7358
  25   0.0000       0.060417         1.6440
  26   0.0000       0.067771         1.8441
  27   0.0000       0.081074         2.2061
  28   0.0000       0.092649         2.5211

MULLIKEN ATOMIC CHARGES
-----------------------
   0 C :   -0.196968
   1 N :   -0.303360
   2 C :   -0.289626
   3 C :    0.378135
   4 N :   -0.484649
   5 C :   -0.558318
   6 H :    0.078962
   7 H :    0.096741
   8 H :    0.225027
   9 H :    0.227816
  10 H :    0.248417
  11 H :    0.126627
  12 H :    0.124085
  13 H :    0.115831
  14 H :    0.100708
  15 H :    0.110572
Sum of atomic charges:   -0.0000000

LOEWDIN ATOMIC CHARGES
----------------------
   0 C :   -0.317419
   1 N :    0.121349
   2 C :   -0.313022
   3 C :   -0.472254
   4 N :    0.012273
   5 C :   -0.368478
   6 H :    0.093597
   7 H :    0.091972
   8 H :    0.191126
   9 H :    0.164193
  10 H :    0.183949
  11 H :    0.134161
  12 H :    0.131366
  13 H :    0.118687
  14 H :    0.111984
  15 H :    0.116514

  Mayer bond orders larger than 0.100000
B(  0-C ,  1-N ) :   0.9620 B(  0-C ,  2-C ) :   0.9900 B(  0-C , 11-H ) :   0.9708
B(  0-C , 12-H ) :   0.9673 B(  1-N ,  3-C ) :   1.1838 B(  1-N ,  8-H ) :   0.9195
B(  2-C , 13-H ) :   0.9661 B(  2-C , 14-H ) :   0.9648 B(  2-C , 15-H ) :   0.9713
B(  3-C ,  4-N ) :   1.1643 B(  3-C ,  5-C ) :   1.5875 B(  4-N ,  9-H ) :   0.9076
B(  4-N , 10-H ) :   0.9134 B(  5-C ,  6-H ) :   1.0176 B(  5-C ,  7-H ) :   0.9732

Dispersion correction           -0.010736485
FINAL SINGLE POINT ENERGY      -267.694158360591

DIPOLE MOMENT
-------------
                                X             Y             Z
Electronic contribution:      1.14237       1.25658       2.13202
Nuclear contribution   :     -1.82946      -1.24287      -3.25410
                        -----------------------------------------
Total Dipole Moment    :     -0.68708       0.01372      -1.12208
                        -----------------------------------------
Magnitude (a.u.)       :      1.31580
Magnitude (Debye)      :      3.34450

Rotational constants in cm-1:     0.244672     0.074506     0.064043
Rotational constants in MHz :  7335.067153  2233.624025  1919.970379

                             ****ORCA TERMINATED NORMALLY****
TOTAL RUN TIME: 0 days 0 hours 0 minutes 36 seconds 8 msec
