                         Program Version 5.0.0 -  RELEASE  -
|  1> !PBE0 D3BJ RIJCOSX def2-TZVP def2/J TightSCF xyzfile
|  2>
|  3> *xyzfile 0 1 D1.xyz
|  4>
|  5> %MaxCore 64000
|  6>
|  7> %pal nprocs 18
|  8> end
|  9>
| 10> %scf
| 11>   MaxIter 150
| 12> end
| 13>
| 14>
| 15>                          ****END OF INPUT****

CARTESIAN COORDINATES (ANGSTROEM)
---------------------------------
  C      4.999862   -1.596133   -5.924876
  C      5.281560   -1.974132   -4.535764
  C      3.766779   -2.266110   -6.511752
  C      2.496702   -1.844161   -5.735704
  H      1.626416   -2.217434   -6.308950
  H      2.481824   -2.456069   -4.793414
  F      2.459729   -0.509204   -5.505757
  C      4.792500   -1.361316   -3.457295
  N      3.939898   -0.374925   -3.557359
  N      5.259860   -1.754224   -2.239133
  H      5.922824   -2.521451   -2.186720
  H      4.654678   -1.640404   -1.442016
  H      5.709139   -2.875599   -4.387021
  H      3.330101   -0.317639   -4.361247
  H      3.698494    0.114468   -2.708333
  H      4.843333   -0.517930   -5.943019
  H      5.901695   -1.822503   -6.496467
  H      3.886191   -3.357076   -6.533604
  H      3.685602   -1.922168   -7.547128

 Total Charge           Charge          ....    0
 Multiplicity           Mult            ....    1
 Number of Electrons    NEL             ....   64
 Basis Dimension        Dim             ....  314

ORBITAL ENERGIES
----------------

  NO   OCC          E(Eh)            E(eV)
   0   2.0000     -24.792628      -674.6417
   1   2.0000     -14.371619      -391.0716
   2   2.0000     -14.357445      -390.6859
   3   2.0000     -10.301428      -280.3161
   4   2.0000     -10.254966      -279.0518
   5   2.0000     -10.214760      -277.9578
   6   2.0000     -10.194323      -277.4016
   7   2.0000     -10.138422      -275.8805
   8   2.0000      -1.277756       -34.7695
   9   2.0000      -0.976757       -26.5789
  10   2.0000      -0.884910       -24.0796
  11   2.0000      -0.817184       -22.2367
  12   2.0000      -0.744905       -20.2699
  13   2.0000      -0.691380       -18.8134
  14   2.0000      -0.618337       -16.8258
  15   2.0000      -0.603920       -16.4335
  16   2.0000      -0.559112       -15.2142
  17   2.0000      -0.543340       -14.7850
  18   2.0000      -0.530207       -14.4277
  19   2.0000      -0.510610       -13.8944
  20   2.0000      -0.504395       -13.7253
  21   2.0000      -0.466898       -12.7049
  22   2.0000      -0.436843       -11.8871
  23   2.0000      -0.418915       -11.3993
  24   2.0000      -0.405539       -11.0353
  25   2.0000      -0.383760       -10.4426
  26   2.0000      -0.362269        -9.8578
  27   2.0000      -0.347186        -9.4474
  28   2.0000      -0.334529        -9.1030
  29   2.0000      -0.325138        -8.8475
  30   2.0000      -0.264955        -7.2098
  31   2.0000      -0.166667        -4.5352
  32   0.0000       0.039337         1.0704
  33   0.0000       0.060238         1.6392
  34   0.0000       0.076669         2.0863
  35   0.0000       0.082694         2.2502
  36   0.0000       0.087782         2.3887

MULLIKEN ATOMIC CHARGES
-----------------------
   0 C :   -0.230830
   1 C :   -0.372951
   2 C :   -0.125986
   3 C :   -0.063113
   4 H :    0.118992
   5 H :    0.134151
   6 F :   -0.204526
   7 C :    0.307061
   8 N :   -0.502523
   9 N :   -0.495455
  10 H :    0.240263
  11 H :    0.211750
  12 H :    0.084456
  13 H :    0.277322
  14 H :    0.209325
  15 H :    0.119685
  16 H :    0.105366
  17 H :    0.094889
  18 H :    0.092124
Sum of atomic charges:    0.0000000

LOEWDIN ATOMIC CHARGES
----------------------
   0 C :   -0.292696
   1 C :   -0.286288
   2 C :   -0.275648
   3 C :   -0.361650
   4 H :    0.124371
   5 H :    0.135330
   6 F :    0.163219
   7 C :   -0.472948
   8 N :    0.010916
   9 N :   -0.039038
  10 H :    0.172942
  11 H :    0.150561
  12 H :    0.115418
  13 H :    0.133795
  14 H :    0.162226
  15 H :    0.144531
  16 H :    0.142008
  17 H :    0.140727
  18 H :    0.132224

  Mayer bond orders larger than 0.100000
B(  0-C ,  1-C ) :   1.0627 B(  0-C ,  2-C ) :   0.9701 B(  0-C , 15-H ) :   0.9742
B(  0-C , 16-H ) :   0.9617 B(  1-C ,  7-C ) :   1.6489 B(  1-C , 12-H ) :   0.9739
B(  2-C ,  3-C ) :   1.0170 B(  2-C , 17-H ) :   0.9389 B(  2-C , 18-H ) :   0.9445
B(  3-C ,  4-H ) :   0.9630 B(  3-C ,  5-H ) :   0.9759 B(  3-C ,  6-F ) :   0.9327
B(  6-F , 13-H ) :   0.1167 B(  7-C ,  8-N ) :   1.1894 B(  7-C ,  9-N ) :   1.1476
B(  8-N , 13-H ) :   0.8419 B(  8-N , 14-H ) :   0.9231 B(  9-N , 10-H ) :   0.9173
B(  9-N , 11-H ) :   0.9147

Dispersion correction           -0.014962955
FINAL SINGLE POINT ENERGY      -406.163497152095

DIPOLE MOMENT
-------------
                                X             Y             Z
Electronic contribution:     -3.35277       4.02232       0.86040
Nuclear contribution   :      2.63975      -4.51113      -0.34926
                        -----------------------------------------
Total Dipole Moment    :     -0.71302      -0.48881       0.51114
                        -----------------------------------------
Magnitude (a.u.)       :      1.00429
Magnitude (Debye)      :      2.55271

Rotational constants in cm-1:     0.109429     0.049838     0.039337
Rotational constants in MHz :  3280.611039  1494.113088  1179.280063

                             ****ORCA TERMINATED NORMALLY****
TOTAL RUN TIME: 0 days 0 hours 0 minutes 17 seconds 553 msec
