                         Program Version 5.0.0 -  RELEASE  -
|  1> !PBE0 D3BJ RIJCOSX def2-TZVP def2/J TightSCF xyzfile
|  2>
|  3> *xyzfile 0 1 D2.xyz
|  4>
|  5> %MaxCore 64000
|  6>
|  7> %pal nprocs 18
|  8> end
|  9>
| 10> %scf
| 11>   MaxIter 150
| 12> end
| 13>
| 14>
| 15>                          ****END OF INPUT****

CARTESIAN COORDINATES (ANGSTROEM)
---------------------------------
  C      4.999862   -1.596133   -5.924876
  N      5.281560   -1.974132   -4.535764
  C      3.766779   -2.266110   -6.511752
  C      2.496702   -1.844161   -5.735704
  H      1.626416   -2.217434   -6.308950
  H      2.481824   -2.456069   -4.793414
  F      2.459729   -0.509204   -5.505757
  C      4.792500   -1.361316   -3.457295
  C      3.939898   -0.374925   -3.557359
  N      5.259860   -1.754224   -2.239133
  H      5.922824   -2.521451   -2.186720
  H      4.654678   -1.640404   -1.442016
  H      5.709139   -2.875599   -4.387021
  H      3.330101   -0.317639   -4.361247
  H      3.698494    0.114468   -2.708333
  H      4.843333   -0.517930   -5.943019
  H      5.901695   -1.822503   -6.496467
  H      3.886191   -3.357076   -6.533604
  H      3.685602   -1.922168   -7.547128

 Total Charge           Charge          ....    0
 Multiplicity           Mult            ....    1
 Number of Electrons    NEL             ....   64
 Basis Dimension        Dim             ....  314

ORBITAL ENERGIES
----------------

  NO   OCC          E(Eh)            E(eV)
   0   2.0000     -24.769849      -674.0218
   1   2.0000     -14.381618      -391.3437
   2   2.0000     -14.370126      -391.0310
   3   2.0000     -10.300678      -280.2957
   4   2.0000     -10.253124      -279.0017
   5   2.0000     -10.251225      -278.9500
   6   2.0000     -10.230491      -278.3858
   7   2.0000     -10.104719      -274.9634
   8   2.0000      -1.257403       -34.2157
   9   2.0000      -0.982973       -26.7481
  10   2.0000      -0.899218       -24.4690
  11   2.0000      -0.806908       -21.9571
  12   2.0000      -0.732025       -19.9194
  13   2.0000      -0.712720       -19.3941
  14   2.0000      -0.631323       -17.1792
  15   2.0000      -0.584366       -15.9014
  16   2.0000      -0.562930       -15.3181
  17   2.0000      -0.533040       -14.5048
  18   2.0000      -0.529849       -14.4179
  19   2.0000      -0.510784       -13.8991
  20   2.0000      -0.497668       -13.5422
  21   2.0000      -0.469914       -12.7870
  22   2.0000      -0.439490       -11.9591
  23   2.0000      -0.421562       -11.4713
  24   2.0000      -0.398620       -10.8470
  25   2.0000      -0.389448       -10.5974
  26   2.0000      -0.370640       -10.0856
  27   2.0000      -0.354230        -9.6391
  28   2.0000      -0.345889        -9.4121
  29   2.0000      -0.316688        -8.6175
  30   2.0000      -0.257164        -6.9978
  31   2.0000      -0.170690        -4.6447
  32   0.0000       0.029895         0.8135
  33   0.0000       0.056077         1.5259
  34   0.0000       0.072118         1.9624
  35   0.0000       0.081319         2.2128
  36   0.0000       0.090924         2.4742

MULLIKEN ATOMIC CHARGES
-----------------------
   0 C :   -0.151668
   1 N :   -0.333208
   2 C :   -0.181189
   3 C :   -0.032502
   4 H :    0.114613
   5 H :    0.127459
   6 F :   -0.171945
   7 C :    0.358024
   8 C :   -0.599071
   9 N :   -0.507987
  10 H :    0.212039
  11 H :    0.245876
  12 H :    0.188397
  13 H :    0.176149
  14 H :    0.077724
  15 H :    0.156127
  16 H :    0.123621
  17 H :    0.098826
  18 H :    0.098715
Sum of atomic charges:   -0.0000000

LOEWDIN ATOMIC CHARGES
----------------------
   0 C :   -0.280829
   1 N :    0.111703
   2 C :   -0.282939
   3 C :   -0.361135
   4 H :    0.123320
   5 H :    0.135338
   6 F :    0.169196
   7 C :   -0.480856
   8 C :   -0.326212
   9 N :   -0.039560
  10 H :    0.155090
  11 H :    0.168971
  12 H :    0.170455
  13 H :    0.078812
  14 H :    0.098638
  15 H :    0.150099
  16 H :    0.132432
  17 H :    0.138300
  18 H :    0.139177

  Mayer bond orders larger than 0.100000
B(  0-C ,  1-N ) :   0.9395 B(  0-C ,  2-C ) :   1.0041 B(  0-C , 15-H ) :   0.9591
B(  0-C , 16-H ) :   0.9650 B(  1-N ,  7-C ) :   1.1457 B(  1-N , 12-H ) :   0.9175
B(  2-C ,  3-C ) :   1.0219 B(  2-C , 17-H ) :   0.9412 B(  2-C , 18-H ) :   0.9471
B(  3-C ,  4-H ) :   0.9568 B(  3-C ,  5-H ) :   0.9723 B(  3-C ,  6-F ) :   0.9806
B(  7-C ,  8-C ) :   1.6678 B(  7-C ,  9-N ) :   1.0753 B(  8-C , 13-H ) :   0.9537
B(  8-C , 14-H ) :   1.0046 B(  9-N , 10-H ) :   0.9258 B(  9-N , 11-H ) :   0.9149

Dispersion correction           -0.014931052
FINAL SINGLE POINT ENERGY      -406.131383726979

DIPOLE MOMENT
-------------
                                X             Y             Z
Electronic contribution:     -2.24276       2.66178      -0.10932
Nuclear contribution   :      2.43398      -4.26587      -0.19921
                        -----------------------------------------
Total Dipole Moment    :      0.19122      -1.60409      -0.30853
                        -----------------------------------------
Magnitude (a.u.)       :      1.64465
Magnitude (Debye)      :      4.18036

Rotational constants in cm-1:     0.110089     0.049944     0.039407
Rotational constants in MHz :  3300.378855  1497.273856  1181.385913

                             ****ORCA TERMINATED NORMALLY****
TOTAL RUN TIME: 0 days 0 hours 0 minutes 17 seconds 721 msec
