                         Program Version 5.0.0 -  RELEASE  -
|  1> !wB97X-D3 RIJCOSX def2-TZVPD def2/J TightSCF
|  2> *xyz -1 1
|  3> C         -1.36646        2.47911       -4.31393
|  4> C         -2.35773        2.30686       -3.13675
|  5> O         -3.44376        2.84652       -3.25274
|  6> O         -1.97092        1.58304       -2.15123
|  7> H         -1.80853        3.10058       -5.06443
|  8> H         -1.13980        1.52081       -4.73248
|  9> H         -0.46612        2.93495       -3.95827
| 10> *
| 11> %MaxCore 64000
| 12>
| 13> %pal nprocs 18
| 14> end
| 15>
| 16> %scf
| 17>   MaxIter 150
| 18> end
| 19>
| 20>
| 21>                          ****END OF INPUT****

CARTESIAN COORDINATES (ANGSTROEM)
---------------------------------
  C     -1.366460    2.479110   -4.313930
  C     -2.357730    2.306860   -3.136750
  O     -3.443760    2.846520   -3.252740
  O     -1.970920    1.583040   -2.151230
  H     -1.808530    3.100580   -5.064430
  H     -1.139800    1.520810   -4.732480
  H     -0.466120    2.934950   -3.958270

 Total Charge           Charge          ....   -1
 Multiplicity           Mult            ....    1
 Number of Electrons    NEL             ....   32
 Basis Dimension        Dim             ....  181

ORBITAL ENERGIES
----------------

  NO   OCC          E(Eh)            E(eV)
   0   2.0000     -18.966308      -516.0995
   1   2.0000     -18.954739      -515.7847
   2   2.0000     -10.156951      -276.3847
   3   2.0000     -10.082955      -274.3712
   4   2.0000      -0.939625       -25.5685
   5   2.0000      -0.836377       -22.7590
   6   2.0000      -0.654207       -17.8019
   7   2.0000      -0.407145       -11.0790
   8   2.0000      -0.357341        -9.7238
   9   2.0000      -0.343704        -9.3527
  10   2.0000      -0.327254        -8.9050
  11   2.0000      -0.282607        -7.6901
  12   2.0000      -0.265381        -7.2214
  13   2.0000      -0.137595        -3.7442
  14   2.0000      -0.131946        -3.5904
  15   2.0000      -0.119552        -3.2532
  16   0.0000       0.203172         5.5286
  17   0.0000       0.223747         6.0885
  18   0.0000       0.235952         6.4206
  19   0.0000       0.254553         6.9267
  20   0.0000       0.275178         7.4880

MULLIKEN ATOMIC CHARGES
-----------------------
   0 C :   -0.709482
   1 C :    0.537250
   2 O :   -0.713053
   3 O :   -0.779712
   4 H :    0.240340
   5 H :    0.210168
   6 H :    0.214488
Sum of atomic charges:   -1.0000000

LOEWDIN ATOMIC CHARGES
----------------------
   0 C :   -0.069137
   1 C :   -0.811018
   2 O :   -0.085890
   3 O :   -0.162606
   4 H :    0.040320
   5 H :    0.044553
   6 H :    0.043778

  Mayer bond orders larger than 0.100000
B(  0-C ,  1-C ) :   0.8849 B(  0-C ,  4-H ) :   0.9838 B(  0-C ,  5-H ) :   0.9473
B(  0-C ,  6-H ) :   0.9507 B(  1-C ,  2-O ) :   1.5227 B(  1-C ,  3-O ) :   1.4391

Dispersion correction           -0.000909507
FINAL SINGLE POINT ENERGY      -228.552061930598

DIPOLE MOMENT
-------------
                                X             Y             Z
Electronic contribution:     -2.43959      -0.33149       2.70308
Nuclear contribution   :      3.20990       0.60513      -3.84153
                        -----------------------------------------
Total Dipole Moment    :      0.77031       0.27364      -1.13844
                        -----------------------------------------
Magnitude (a.u.)       :      1.40154
Magnitude (Debye)      :      3.56243

Rotational constants in cm-1:     0.394521     0.330294     0.185888
Rotational constants in MHz : 11827.441786  9901.964904  5572.768963

                             ****ORCA TERMINATED NORMALLY****
TOTAL RUN TIME: 0 days 0 hours 0 minutes 10 seconds 772 msec
