                         Program Version 5.0.0 -  RELEASE  -
|  1> !wB97X-D3 RIJCOSX def2-TZVPD def2/J TightSCF
|  2> *xyz 1 1
|  3> C          0.64866        1.00359       -3.64560
|  4> N          0.28128        0.67645       -2.24018
|  5> H          0.39079       -0.31925       -2.02649
|  6> H         -0.69269        0.99010       -2.13812
|  7> H          0.85421        1.21221       -1.57528
|  8> H          0.03905        0.43387       -4.31545
|  9> H          1.67860        0.76457       -3.80989
| 10> H          0.49232        2.04741       -3.82138
| 11> *
| 12> %MaxCore 64000
| 13>
| 14> %pal nprocs 18
| 15> end
| 16>
| 17> %scf
| 18>   MaxIter 150
| 19> end
| 20>
| 21>
| 22>                          ****END OF INPUT****

CARTESIAN COORDINATES (ANGSTROEM)
---------------------------------
  C      0.648660    1.003590   -3.645600
  N      0.281280    0.676450   -2.240180
  H      0.390790   -0.319250   -2.026490
  H     -0.692690    0.990100   -2.138120
  H      0.854210    1.212210   -1.575280
  H      0.039050    0.433870   -4.315450
  H      1.678600    0.764570   -3.809890
  H      0.492320    2.047410   -3.821380

 Total Charge           Charge          ....    1
 Multiplicity           Mult            ....    1
 Number of Electrons    NEL             ....   18
 Basis Dimension        Dim             ....  128

ORBITAL ENERGIES
----------------

  NO   OCC          E(Eh)            E(eV)
   0   2.0000     -14.771263      -401.9465
   1   2.0000     -10.530502      -286.5495
   2   2.0000      -1.343570       -36.5604
   3   2.0000      -1.050734       -28.5919
   4   2.0000      -0.918399       -24.9909
   5   2.0000      -0.908927       -24.7332
   6   2.0000      -0.809937       -22.0395
   7   2.0000      -0.725204       -19.7338
   8   2.0000      -0.722960       -19.6727
   9   0.0000      -0.131358        -3.5744
  10   0.0000      -0.070317        -1.9134
  11   0.0000      -0.061693        -1.6788
  12   0.0000      -0.060930        -1.6580
  13   0.0000      -0.021857        -0.5948

MULLIKEN ATOMIC CHARGES
-----------------------
   0 C :   -0.846567
   1 N :   -0.339985
   2 H :    0.366308
   3 H :    0.386060
   4 H :    0.373081
   5 H :    0.355056
   6 H :    0.349712
   7 H :    0.356334
Sum of atomic charges:    1.0000000

LOEWDIN ATOMIC CHARGES
----------------------
   0 C :   -0.010749
   1 N :    0.152788
   2 H :    0.180876
   3 H :    0.180849
   4 H :    0.181876
   5 H :    0.105189
   6 H :    0.103630
   7 H :    0.105541

  Mayer bond orders larger than 0.100000
B(  0-C ,  1-N ) :   0.9429 B(  0-C ,  5-H ) :   0.8868 B(  0-C ,  6-H ) :   0.8934
B(  0-C ,  7-H ) :   0.8815 B(  1-N ,  2-H ) :   0.8615 B(  1-N ,  3-H ) :   0.8402
B(  1-N ,  4-H ) :   0.8562

Dispersion correction           -0.000495160
FINAL SINGLE POINT ENERGY       -96.225904375655

DIPOLE MOMENT
-------------
                                X             Y             Z
Electronic contribution:     -0.26020      -0.27565       1.05252
Nuclear contribution   :      0.04246       0.12404      -0.26487
                        -----------------------------------------
Total Dipole Moment    :     -0.21775      -0.15161       0.78765
                        -----------------------------------------
Magnitude (a.u.)       :      0.83114
Magnitude (Debye)      :      2.11260

Rotational constants in cm-1:     2.856727     0.687609     0.685111
Rotational constants in MHz : 85642.512409 20614.005719 20539.101620

                             ****ORCA TERMINATED NORMALLY****
TOTAL RUN TIME: 0 days 0 hours 0 minutes 6 seconds 245 msec
