                         Program Version 5.0.0 -  RELEASE  -
|  1> !wB97X-D3 RIJCOSX def2-TZVPD def2/J TightSCF
|  2> *xyz 0 1
|  3> C         -1.36646        2.47911       -4.31393
|  4> C         -2.35773        2.30686       -3.13675
|  5> F         -3.44376        2.84652       -3.25274
|  6> O         -1.97092        1.58304       -2.15123
|  7> H         -1.80853        3.10058       -5.06443
|  8> H         -1.13980        1.52081       -4.73248
|  9> H         -0.46612        2.93495       -3.95827
| 10> *
| 11> %MaxCore 64000
| 12>
| 13> %pal nprocs 18
| 14> end
| 15>
| 16> %scf
| 17>   MaxIter 150
| 18> end
| 19>
| 20>
| 21>                          ****END OF INPUT****

CARTESIAN COORDINATES (ANGSTROEM)
---------------------------------
  C     -1.366460    2.479110   -4.313930
  C     -2.357730    2.306860   -3.136750
  F     -3.443760    2.846520   -3.252740
  O     -1.970920    1.583040   -2.151230
  H     -1.808530    3.100580   -5.064430
  H     -1.139800    1.520810   -4.732480
  H     -0.466120    2.934950   -3.958270

 Total Charge           Charge          ....    0
 Multiplicity           Mult            ....    1
 Number of Electrons    NEL             ....   32
 Basis Dimension        Dim             ....  181

ORBITAL ENERGIES
----------------

  NO   OCC          E(Eh)            E(eV)
   0   2.0000     -24.872377      -676.8118
   1   2.0000     -19.233794      -523.3781
   2   2.0000     -10.464343      -284.7492
   3   2.0000     -10.300021      -280.2778
   4   2.0000      -1.467469       -39.9319
   5   2.0000      -1.133560       -30.8457
   6   2.0000      -0.886564       -24.1246
   7   2.0000      -0.784553       -21.3488
   8   2.0000      -0.672073       -18.2880
   9   2.0000      -0.665755       -18.1161
  10   2.0000      -0.608012       -16.5449
  11   2.0000      -0.544415       -14.8143
  12   2.0000      -0.531756       -14.4698
  13   2.0000      -0.494289       -13.4503
  14   2.0000      -0.440272       -11.9804
  15   2.0000      -0.386822       -10.5260
  16   0.0000       0.053239         1.4487
  17   0.0000       0.060824         1.6551
  18   0.0000       0.092880         2.5274
  19   0.0000       0.107445         2.9237
  20   0.0000       0.117226         3.1899

MULLIKEN ATOMIC CHARGES
-----------------------
   0 C :   -0.785606
   1 C :    0.710997
   2 F :   -0.200300
   3 O :   -0.566442
   4 H :    0.306335
   5 H :    0.266319
   6 H :    0.268697
Sum of atomic charges:    0.0000000

LOEWDIN ATOMIC CHARGES
----------------------
   0 C :    0.011084
   1 C :   -0.515580
   2 F :    0.241553
   3 O :    0.034933
   4 H :    0.067415
   5 H :    0.080526
   6 H :    0.080070

  Mayer bond orders larger than 0.100000
B(  0-C ,  1-C ) :   0.8796 B(  0-C ,  4-H ) :   0.9280 B(  0-C ,  5-H ) :   0.9306
B(  0-C ,  6-H ) :   0.9345 B(  1-C ,  2-F ) :   1.0339 B(  1-C ,  3-O ) :   1.6832

Dispersion correction           -0.000915317
FINAL SINGLE POINT ENERGY      -253.109635653549

DIPOLE MOMENT
-------------
                                X             Y             Z
Electronic contribution:     -4.31898       0.52608       2.68704
Nuclear contribution   :      4.40923       0.04336      -3.80230
                        -----------------------------------------
Total Dipole Moment    :      0.09025       0.56944      -1.11527
                        -----------------------------------------
Magnitude (a.u.)       :      1.25548
Magnitude (Debye)      :      3.19117

Rotational constants in cm-1:     0.364425     0.322930     0.176742
Rotational constants in MHz : 10925.196996  9681.206479  5298.597717

                             ****ORCA TERMINATED NORMALLY****
TOTAL RUN TIME: 0 days 0 hours 0 minutes 11 seconds 582 msec
