                         Program Version 5.0.0 -  RELEASE  -
|  1> !wB97X-D3 RIJCOSX def2-TZVPD def2/J TightSCF
|  2> *xyz 0 1
|  3> C          0.64866        1.00359       -3.64560
|  4> C          0.28128        0.67645       -2.24018
|  5> H          0.39079       -0.31925       -2.02649
|  6> H         -0.69269        0.99010       -2.13812
|  7> H          0.85421        1.21221       -1.57528
|  8> H          0.03905        0.43387       -4.31545
|  9> H          1.67860        0.76457       -3.80989
| 10> H          0.49232        2.04741       -3.82138
| 11> *
| 12> %MaxCore 64000
| 13>
| 14> %pal nprocs 18
| 15> end
| 16>
| 17> %scf
| 18>   MaxIter 150
| 19> end
| 20>
| 21>
| 22>                          ****END OF INPUT****

CARTESIAN COORDINATES (ANGSTROEM)
---------------------------------
  C      0.648660    1.003590   -3.645600
  C      0.281280    0.676450   -2.240180
  H      0.390790   -0.319250   -2.026490
  H     -0.692690    0.990100   -2.138120
  H      0.854210    1.212210   -1.575280
  H      0.039050    0.433870   -4.315450
  H      1.678600    0.764570   -3.809890
  H      0.492320    2.047410   -3.821380

 Total Charge           Charge          ....    0
 Multiplicity           Mult            ....    1
 Number of Electrons    NEL             ....   18
 Basis Dimension        Dim             ....  128

ORBITAL ENERGIES
----------------

  NO   OCC          E(Eh)            E(eV)
   0   2.0000     -10.247848      -278.8581
   1   2.0000     -10.233377      -278.4643
   2   2.0000      -0.885911       -24.1069
   3   2.0000      -0.731093       -19.8941
   4   2.0000      -0.553779       -15.0691
   5   2.0000      -0.547724       -14.9043
   6   2.0000      -0.461646       -12.5620
   7   2.0000      -0.442168       -12.0320
   8   2.0000      -0.436883       -11.8882
   9   0.0000       0.078419         2.1339
  10   0.0000       0.099591         2.7100
  11   0.0000       0.142926         3.8892
  12   0.0000       0.144314         3.9270
  13   0.0000       0.169109         4.6017

MULLIKEN ATOMIC CHARGES
-----------------------
   0 C :   -0.821309
   1 C :   -0.962575
   2 H :    0.335902
   3 H :    0.292499
   4 H :    0.325722
   5 H :    0.275278
   6 H :    0.272566
   7 H :    0.281917
Sum of atomic charges:    0.0000000

LOEWDIN ATOMIC CHARGES
----------------------
   0 C :   -0.165723
   1 C :   -0.165388
   2 H :    0.047314
   3 H :    0.048419
   4 H :    0.048280
   5 H :    0.062734
   6 H :    0.060957
   7 H :    0.063407

  Mayer bond orders larger than 0.100000
B(  0-C ,  1-C ) :   0.5915 B(  0-C ,  5-H ) :   0.9713 B(  0-C ,  6-H ) :   0.9642
B(  0-C ,  7-H ) :   0.9697 B(  1-C ,  2-H ) :   0.9218 B(  1-C ,  3-H ) :   0.9669
B(  1-C ,  4-H ) :   0.9465

Dispersion correction           -0.000484224
FINAL SINGLE POINT ENERGY       -79.822423382710

DIPOLE MOMENT
-------------
                                X             Y             Z
Electronic contribution:      0.01325      -0.06373       0.04472
Nuclear contribution   :     -0.02064       0.06655      -0.02194
                        -----------------------------------------
Total Dipole Moment    :     -0.00739       0.00281       0.02278
                        -----------------------------------------
Magnitude (a.u.)       :      0.02412
Magnitude (Debye)      :      0.06130

Rotational constants in cm-1:     2.856742     0.718110     0.715385
Rotational constants in MHz : 85642.970161 21528.388214 21446.695095

                             ****ORCA TERMINATED NORMALLY****
TOTAL RUN TIME: 0 days 0 hours 0 minutes 5 seconds 958 msec
