                         Program Version 5.0.0 -  RELEASE  -
|  1> !wB97X-D3 RIJCOSX def2-TZVPD def2/J TightSCF
|  2> *xyz 0 1
|  3> C         -1.36646        2.47911       -4.31393
|  4> C         -2.35773        2.30686       -3.13675
|  5> O         -3.44376        2.84652       -3.25274
|  6> F         -1.97092        1.58304       -2.15123
|  7> H         -1.80853        3.10058       -5.06443
|  8> H         -1.13980        1.52081       -4.73248
|  9> H         -0.46612        2.93495       -3.95827
| 10> *
| 11> %MaxCore 64000
| 12>
| 13> %pal nprocs 18
| 14> end
| 15>
| 16> %scf
| 17>   MaxIter 150
| 18> end
| 19>
| 20>
| 21>                          ****END OF INPUT****

CARTESIAN COORDINATES (ANGSTROEM)
---------------------------------
  C     -1.366460    2.479110   -4.313930
  C     -2.357730    2.306860   -3.136750
  O     -3.443760    2.846520   -3.252740
  F     -1.970920    1.583040   -2.151230
  H     -1.808530    3.100580   -5.064430
  H     -1.139800    1.520810   -4.732480
  H     -0.466120    2.934950   -3.958270

 Total Charge           Charge          ....    0
 Multiplicity           Mult            ....    1
 Number of Electrons    NEL             ....   32
 Basis Dimension        Dim             ....  181

ORBITAL ENERGIES
----------------

  NO   OCC          E(Eh)            E(eV)
   0   2.0000     -24.848828      -676.1710
   1   2.0000     -19.243056      -523.6302
   2   2.0000     -10.458111      -284.5797
   3   2.0000     -10.299475      -280.2630
   4   2.0000      -1.419181       -38.6179
   5   2.0000      -1.174417       -31.9575
   6   2.0000      -0.883055       -24.0291
   7   2.0000      -0.758887       -20.6504
   8   2.0000      -0.644673       -17.5424
   9   2.0000      -0.642450       -17.4820
  10   2.0000      -0.609663       -16.5898
  11   2.0000      -0.542473       -14.7614
  12   2.0000      -0.534365       -14.5408
  13   2.0000      -0.504506       -13.7283
  14   2.0000      -0.465729       -12.6731
  15   2.0000      -0.396582       -10.7915
  16   0.0000       0.060838         1.6555
  17   0.0000       0.063925         1.7395
  18   0.0000       0.094072         2.5598
  19   0.0000       0.106613         2.9011
  20   0.0000       0.115985         3.1561

MULLIKEN ATOMIC CHARGES
-----------------------
   0 C :   -0.808467
   1 C :    0.711936
   2 O :   -0.521759
   3 F :   -0.229128
   4 H :    0.270940
   5 H :    0.286117
   6 H :    0.290360
Sum of atomic charges:    0.0000000

LOEWDIN ATOMIC CHARGES
----------------------
   0 C :    0.011076
   1 C :   -0.506491
   2 O :    0.099849
   3 F :    0.167820
   4 H :    0.077504
   5 H :    0.075572
   6 H :    0.074669

  Mayer bond orders larger than 0.100000
B(  0-C ,  1-C ) :   0.8632 B(  0-C ,  4-H ) :   0.9735 B(  0-C ,  5-H ) :   0.9179
B(  0-C ,  6-H ) :   0.9207 B(  1-C ,  2-O ) :   1.7385 B(  1-C ,  3-F ) :   0.9550

Dispersion correction           -0.000897233
FINAL SINGLE POINT ENERGY      -253.127666122466

DIPOLE MOMENT
-------------
                                X             Y             Z
Electronic contribution:     -1.89919      -1.54519       4.48914
Nuclear contribution   :      2.88734       1.34891      -4.94049
                        -----------------------------------------
Total Dipole Moment    :      0.98815      -0.19628      -0.45135
                        -----------------------------------------
Magnitude (a.u.)       :      1.10394
Magnitude (Debye)      :      2.80599

Rotational constants in cm-1:     0.375207     0.313199     0.176202
Rotational constants in MHz : 11248.433436  9389.476975  5282.390844

                             ****ORCA TERMINATED NORMALLY****
TOTAL RUN TIME: 0 days 0 hours 0 minutes 11 seconds 707 msec
