                         Program Version 5.0.0 -  RELEASE  -
|  1> !wB97X-D3 RIJCOSX def2-TZVPD def2/J TightSCF xyzfile
|  2>
|  3> *xyzfile 0 1 D2.xyz
|  4>
|  5> %MaxCore 64000
|  6>
|  7> %pal nprocs 18
|  8> end
|  9>
| 10> %scf
| 11>   MaxIter 150
| 12> end
| 13>
| 14>
| 15>                          ****END OF INPUT****

CARTESIAN COORDINATES (ANGSTROEM)
---------------------------------
  C      0.648656    1.003595   -3.645601
  C      0.281280    0.676454   -2.240179
  C      0.132968    2.385869   -4.024618
  C     -1.366462    2.479106   -4.313932
  C     -2.357732    2.306858   -3.136753
  H     -1.636802    1.727095   -5.063993
  H     -1.582347    3.445605   -4.768687
  H      0.390790   -0.319253   -2.026495
  H     -0.692686    0.990104   -2.138123
  H      0.854206    1.212214   -1.575279
  O     -3.443763    2.846518   -3.252744
  F     -1.970922    1.583042   -2.151229
  H      0.190993    0.239655   -4.275752
  H      1.731572    0.931729   -3.750751
  H      0.414839    3.102847   -3.245165
  H      0.683167    2.687560   -4.919721

 Total Charge           Charge          ....    0
 Multiplicity           Mult            ....    1
 Number of Electrons    NEL             ....   56
 Basis Dimension        Dim             ....  346

ORBITAL ENERGIES
----------------

  NO   OCC          E(Eh)            E(eV)
   0   2.0000     -24.858155      -676.4248
   1   2.0000     -19.248561      -523.7800
   2   2.0000     -10.461944      -284.6840
   3   2.0000     -10.310232      -280.5557
   4   2.0000     -10.286882      -279.9203
   5   2.0000     -10.267799      -279.4010
   6   2.0000     -10.212607      -277.8992
   7   2.0000      -1.439541       -39.1719
   8   2.0000      -1.180374       -32.1196
   9   2.0000      -0.942273       -25.6405
  10   2.0000      -0.879915       -23.9437
  11   2.0000      -0.790010       -21.4973
  12   2.0000      -0.788281       -21.4502
  13   2.0000      -0.694627       -18.9018
  14   2.0000      -0.668919       -18.2022
  15   2.0000      -0.656308       -17.8591
  16   2.0000      -0.612399       -16.6642
  17   2.0000      -0.574496       -15.6328
  18   2.0000      -0.554659       -15.0930
  19   2.0000      -0.548598       -14.9281
  20   2.0000      -0.520851       -14.1731
  21   2.0000      -0.488778       -13.3003
  22   2.0000      -0.481285       -13.0964
  23   2.0000      -0.460611       -12.5339
  24   2.0000      -0.431839       -11.7509
  25   2.0000      -0.426418       -11.6034
  26   2.0000      -0.418345       -11.3837
  27   2.0000      -0.386543       -10.5184
  28   0.0000       0.051516         1.4018
  29   0.0000       0.065422         1.7802
  30   0.0000       0.082217         2.2372
  31   0.0000       0.085544         2.3278
  32   0.0000       0.087740         2.3875

MULLIKEN ATOMIC CHARGES
-----------------------
   0 C :   -0.154715
   1 C :   -1.414061
   2 C :   -0.383578
   3 C :   -0.490615
   4 C :    0.601321
   5 H :    0.295286
   6 H :    0.283798
   7 H :    0.387671
   8 H :    0.345483
   9 H :    0.416221
  10 O :   -0.593532
  11 F :   -0.291603
  12 H :    0.289727
  13 H :    0.211298
  14 H :    0.264697
  15 H :    0.232600
Sum of atomic charges:    0.0000000

LOEWDIN ATOMIC CHARGES
----------------------
   0 C :   -0.252800
   1 C :   -0.105033
   2 C :   -0.209319
   3 C :   -0.087819
   4 C :   -0.437521
   5 H :    0.130993
   6 H :    0.121292
   7 H :    0.060922
   8 H :   -0.013348
   9 H :    0.066511
  10 O :    0.119627
  11 F :    0.153952
  12 H :    0.112361
  13 H :    0.107638
  14 H :    0.122264
  15 H :    0.110278

  Mayer bond orders larger than 0.100000
B(  0-C ,  1-C ) :   0.5816 B(  0-C ,  2-C ) :   0.7346 B(  0-C ,  3-C ) :   0.1452
B(  0-C ,  8-H ) :  -0.1052 B(  0-C , 12-H ) :   0.9501 B(  0-C , 13-H ) :   1.0042
B(  1-C ,  2-C ) :   0.2426 B(  1-C ,  7-H ) :   0.9165 B(  1-C ,  8-H ) :   1.0465
B(  1-C ,  9-H ) :   0.9680 B(  1-C , 11-F ) :   0.1354 B(  2-C ,  3-C ) :   0.8556
B(  2-C , 14-H ) :   0.9868 B(  2-C , 15-H ) :   0.9966 B(  3-C ,  4-C ) :   0.9421
B(  3-C ,  5-H ) :   0.9084 B(  3-C ,  6-H ) :   0.9685 B(  4-C , 10-O ) :   1.6469
B(  4-C , 11-F ) :   0.9456 B(  8-H , 11-F ) :  -0.2415

Dispersion correction           -0.004650496
FINAL SINGLE POINT ENERGY      -371.023584328742

DIPOLE MOMENT
-------------
                                X             Y             Z
Electronic contribution:    -10.27031       2.33323       3.30518
Nuclear contribution   :     11.08738      -2.45618      -3.73478
                        -----------------------------------------
Total Dipole Moment    :      0.81707      -0.12295      -0.42960
                        -----------------------------------------
Magnitude (a.u.)       :      0.93128
Magnitude (Debye)      :      2.36712

Rotational constants in cm-1:     0.156244     0.063730     0.048063
Rotational constants in MHz :  4684.071402  1910.571278  1440.877811

                             ****ORCA TERMINATED NORMALLY****
TOTAL RUN TIME: 0 days 0 hours 0 minutes 32 seconds 140 msec
