                         Program Version 5.0.0 -  RELEASE  -
|  1> !PBE D3BJ RIJCOSX def2-SVPD def2/J TightSCF
|  2> *xyz -1 1
|  3> C         -5.57236       -5.80780       -0.81644
|  4> S         -6.90318       -4.61903       -0.52846
|  5> O         -8.11485       -5.25093       -0.95701
|  6> O         -6.53271       -3.42684       -1.31485
|  7> O         -6.86563       -4.29496        0.91412
|  8> H         -5.55376       -6.07856       -1.85145
|  9> H         -5.73990       -6.68165       -0.22212
| 10> H         -4.63562       -5.36690       -0.54622
| 11> *
| 12> %MaxCore 64000
| 13>
| 14> %pal nprocs 4
| 15> end
| 16>
| 17> %scf
| 18>   MaxIter 150
| 19> end
| 20>
| 21>                          ****END OF INPUT****

CARTESIAN COORDINATES (ANGSTROEM)
---------------------------------
  C     -5.572360   -5.807800   -0.816440
  S     -6.903180   -4.619030   -0.528460
  O     -8.114850   -5.250930   -0.957010
  O     -6.532710   -3.426840   -1.314850
  O     -6.865630   -4.294960    0.914120
  H     -5.553760   -6.078560   -1.851450
  H     -5.739900   -6.681650   -0.222120
  H     -4.635620   -5.366900   -0.546220

 Total Charge           Charge          ....   -1
 Multiplicity           Mult            ....    1
 Number of Electrons    NEL             ....   50
 Basis Dimension        Dim             ....  140

ORBITAL ENERGIES
----------------

  NO   OCC          E(Eh)            E(eV)
   0   2.0000     -88.055050     -2396.0997
   1   2.0000     -18.548107      -504.7197
   2   2.0000     -18.536188      -504.3953
   3   2.0000     -18.535238      -504.3695
   4   2.0000      -9.748584      -265.2725
   5   2.0000      -7.659007      -208.4122
   6   2.0000      -5.685988      -154.7236
   7   2.0000      -5.685805      -154.7186
   8   2.0000      -5.685507      -154.7105
   9   2.0000      -0.837313       -22.7844
  10   2.0000      -0.702054       -19.1039
  11   2.0000      -0.679208       -18.4822
  12   2.0000      -0.509466       -13.8633
  13   2.0000      -0.329098        -8.9552
  14   2.0000      -0.247045        -6.7224
  15   2.0000      -0.240108        -6.5337
  16   2.0000      -0.238929        -6.5016
  17   2.0000      -0.197269        -5.3680
  18   2.0000      -0.195872        -5.3300
  19   2.0000      -0.102329        -2.7845
  20   2.0000      -0.100727        -2.7409
  21   2.0000      -0.072679        -1.9777
  22   2.0000      -0.063780        -1.7355
  23   2.0000      -0.054706        -1.4886
  24   2.0000      -0.016843        -0.4583
  25   0.0000       0.135598         3.6898
  26   0.0000       0.172372         4.6905
  27   0.0000       0.172440         4.6923
  28   0.0000       0.175679         4.7805
  29   0.0000       0.195857         5.3295

MULLIKEN ATOMIC CHARGES
-----------------------
   0 C :    0.505711
   1 S :    0.922360
   2 O :   -0.689234
   3 O :   -0.739060
   4 O :   -0.740665
   5 H :   -0.084198
   6 H :   -0.089887
   7 H :   -0.085027
Sum of atomic charges:   -1.0000000

LOEWDIN ATOMIC CHARGES
----------------------
   0 C :    0.053392
   1 S :    0.782783
   2 O :   -0.554958
   3 O :   -0.577372
   4 O :   -0.576527
   5 H :   -0.042684
   6 H :   -0.043427
   7 H :   -0.041207

  Mayer bond orders larger than 0.100000
B(  0-C ,  1-S ) :   0.9295 B(  0-C ,  5-H ) :   0.9189 B(  0-C ,  6-H ) :   0.9210
B(  0-C ,  7-H ) :   0.9230 B(  1-S ,  2-O ) :   1.3810 B(  1-S ,  3-O ) :   1.3455
B(  1-S ,  4-O ) :   1.3410 B(  1-S ,  5-H ) :   0.1156 B(  1-S ,  6-H ) :   0.1157
B(  1-S ,  7-H ) :   0.1242

Dispersion correction           -0.006283263
FINAL SINGLE POINT ENERGY      -663.053564134517

DIPOLE MOMENT
-------------
                                X             Y             Z
Electronic contribution:     -3.29923       2.78948       0.64973
Nuclear contribution   :      4.23639      -3.86101      -0.94151
                        -----------------------------------------
Total Dipole Moment    :      0.93716      -1.07153      -0.29178
                        -----------------------------------------
Magnitude (a.u.)       :      1.45313
Magnitude (Debye)      :      3.69355

Rotational constants in cm-1:     0.172406     0.155169     0.153146
Rotational constants in MHz :  5168.590738  4651.861875  4591.214998

                             ****ORCA TERMINATED NORMALLY****
TOTAL RUN TIME: 0 days 0 hours 0 minutes 4 seconds 659 msec
