                         Program Version 5.0.0 -  RELEASE  -
|  1> !PBE D3BJ RIJCOSX def2-SVPD def2/J TightSCF
|  2> *xyz 1 1
|  3> C         -4.38262       -1.67089        1.21620
|  4> N         -5.76354       -1.91517        0.70501
|  5> H         -5.84081       -2.11520       -0.30065
|  6> H         -6.40882       -1.14866        0.93612
|  7> H         -6.17478       -2.79061        1.05143
|  8> H         -4.01369       -0.74796        0.81997
|  9> H         -3.74223       -2.47168        0.91037
| 10> H         -4.40201       -1.61791        2.28471
| 11> *
| 12> %MaxCore 64000
| 13>
| 14> %pal nprocs 4
| 15> end
| 16>
| 17> %scf
| 18>   MaxIter 150
| 19> end
| 20>
| 21>                          ****END OF INPUT****

CARTESIAN COORDINATES (ANGSTROEM)
---------------------------------
  C     -4.382620   -1.670890    1.216200
  N     -5.763540   -1.915170    0.705010
  H     -5.840810   -2.115200   -0.300650
  H     -6.408820   -1.148660    0.936120
  H     -6.174780   -2.790610    1.051430
  H     -4.013690   -0.747960    0.819970
  H     -3.742230   -2.471680    0.910370
  H     -4.402010   -1.617910    2.284710

 Total Charge           Charge          ....    1
 Multiplicity           Mult            ....    1
 Number of Electrons    NEL             ....   18
 Basis Dimension        Dim             ....   88

ORBITAL ENERGIES
----------------

  NO   OCC          E(Eh)            E(eV)
   0   2.0000     -14.349046      -390.4574
   1   2.0000     -10.154976      -276.3309
   2   2.0000      -1.139679       -31.0122
   3   2.0000      -0.875528       -23.8243
   4   2.0000      -0.764682       -20.8081
   5   2.0000      -0.740990       -20.1634
   6   2.0000      -0.675404       -18.3787
   7   2.0000      -0.583231       -15.8705
   8   2.0000      -0.580316       -15.7912
   9   0.0000      -0.228021        -6.2048
  10   0.0000      -0.164606        -4.4792
  11   0.0000      -0.161046        -4.3823
  12   0.0000      -0.153760        -4.1840
  13   0.0000      -0.106057        -2.8860

MULLIKEN ATOMIC CHARGES
-----------------------
   0 C :    1.026730
   1 N :   -0.838066
   2 H :    0.335916
   3 H :    0.367387
   4 H :    0.344065
   5 H :   -0.081095
   6 H :   -0.084841
   7 H :   -0.070096
Sum of atomic charges:    1.0000000

LOEWDIN ATOMIC CHARGES
----------------------
   0 C :    0.290297
   1 N :    0.313561
   2 H :    0.106841
   3 H :    0.109344
   4 H :    0.104295
   5 H :    0.024916
   6 H :    0.024906
   7 H :    0.025840

  Mayer bond orders larger than 0.100000
B(  0-C ,  1-N ) :   0.7624 B(  0-C ,  5-H ) :   0.8826 B(  0-C ,  6-H ) :   0.8838
B(  0-C ,  7-H ) :   0.8732 B(  1-N ,  2-H ) :   0.8030 B(  1-N ,  3-H ) :   0.7510
B(  1-N ,  4-H ) :   0.8006 B(  1-N ,  5-H ) :   0.1041 B(  1-N ,  6-H ) :   0.1044
B(  1-N ,  7-H ) :   0.1083

Dispersion correction           -0.003350958
FINAL SINGLE POINT ENERGY       -96.016652881826

DIPOLE MOMENT
-------------
                                X             Y             Z
Electronic contribution:     -0.95602      -0.13191      -0.35183
Nuclear contribution   :      0.12888      -0.05969       0.04130
                        -----------------------------------------
Total Dipole Moment    :     -0.82714      -0.19161      -0.31053
                        -----------------------------------------
Magnitude (a.u.)       :      0.90405
Magnitude (Debye)      :      2.29792

Rotational constants in cm-1:     2.932748     0.676653     0.669753
Rotational constants in MHz : 87921.559023 20285.538082 20078.692306

                             ****ORCA TERMINATED NORMALLY****
TOTAL RUN TIME: 0 days 0 hours 0 minutes 2 seconds 786 msec
