                         Program Version 5.0.0 -  RELEASE  -
|  1> !PBE D3BJ RIJCOSX def2-SVPD def2/J TightSCF xyzfile
|  2>
|  3> *xyzfile 0 1 B.xyz
|  4>
|  5> %MaxCore 64000
|  6>
|  7> %pal nprocs 4
|  8> end
|  9>
| 10> %scf
| 11>   MaxIter 150
| 12> end
| 13>
| 14>
| 15>                          ****END OF INPUT****

CARTESIAN COORDINATES (ANGSTROEM)
---------------------------------
  C     -4.382623   -1.670889    1.216201
  N     -5.763539   -1.915170    0.705012
  C     -3.281728   -2.191272    0.294361
  C     -5.572364   -5.807798   -0.816445
  S     -6.903179   -4.619033   -0.528458
  H     -5.840812   -2.115205   -0.300646
  H     -6.408823   -1.148656    0.936124
  H     -6.174781   -2.790606    1.051433
  O     -8.114853   -5.250932   -0.957007
  O     -6.532715   -3.426838   -1.314848
  H     -4.328618   -2.139223    2.198103
  H     -4.261583   -0.597399    1.357248
  O     -6.865632   -4.294957    0.914118
  C     -3.474641   -3.605898   -0.259608
  H     -2.354548   -2.127602    0.871433
  H     -3.166611   -1.499693   -0.545037
  C     -3.827078   -4.661097    0.786174
  H     -2.560559   -3.889391   -0.788050
  H     -4.255932   -3.570040   -1.019300
  C     -4.457800   -5.941875    0.229195
  H     -5.177347   -5.542575   -1.797714
  H     -6.074202   -6.768894   -0.921272
  H     -4.530506   -4.253640    1.511979
  H     -2.933400   -4.932302    1.356825
  H     -3.681064   -6.562236   -0.229885
  H     -4.843942   -6.512728    1.075805

 Total Charge           Charge          ....    0
 Multiplicity           Mult            ....    1
 Number of Electrons    NEL             ....   98
 Basis Dimension        Dim             ....  356

ORBITAL ENERGIES
----------------

  NO   OCC          E(Eh)            E(eV)
   0   2.0000     -88.226389     -2400.7621
   1   2.0000     -18.722888      -509.4757
   2   2.0000     -18.719045      -509.3711
   3   2.0000     -18.707492      -509.0567
   4   2.0000     -14.103519      -383.7763
   5   2.0000      -9.982278      -271.6316
   6   2.0000      -9.931595      -270.2524
   7   2.0000      -9.906539      -269.5706
   8   2.0000      -9.902448      -269.4593
   9   2.0000      -9.902013      -269.4475
  10   2.0000      -9.900720      -269.4123
  11   2.0000      -7.829724      -213.0576
  12   2.0000      -5.857592      -159.3932
  13   2.0000      -5.856591      -159.3659
  14   2.0000      -5.855228      -159.3289
  15   2.0000      -1.013956       -27.5911
  16   2.0000      -0.919045       -25.0085
  17   2.0000      -0.873079       -23.7577
  18   2.0000      -0.867981       -23.6190
  19   2.0000      -0.753778       -20.5113
  20   2.0000      -0.716328       -19.4923
  21   2.0000      -0.670793       -18.2532
  22   2.0000      -0.623566       -16.9681
  23   2.0000      -0.575134       -15.6502
  24   2.0000      -0.548232       -14.9182
  25   2.0000      -0.527869       -14.3641
  26   2.0000      -0.522661       -14.2223
  27   2.0000      -0.483465       -13.1558
  28   2.0000      -0.461719       -12.5640
  29   2.0000      -0.441788       -12.0216
  30   2.0000      -0.435902       -11.8615
  31   2.0000      -0.422888       -11.5074
  32   2.0000      -0.402686       -10.9577
  33   2.0000      -0.394235       -10.7277
  34   2.0000      -0.386430       -10.5153
  35   2.0000      -0.377784       -10.2800
  36   2.0000      -0.370939       -10.0938
  37   2.0000      -0.347183        -9.4473
  38   2.0000      -0.335379        -9.1261
  39   2.0000      -0.331356        -9.0167
  40   2.0000      -0.307546        -8.3687
  41   2.0000      -0.298030        -8.1098
  42   2.0000      -0.292414        -7.9570
  43   2.0000      -0.279493        -7.6054
  44   2.0000      -0.271347        -7.3837
  45   2.0000      -0.237144        -6.4530
  46   2.0000      -0.233767        -6.3611
  47   2.0000      -0.227569        -6.1925
  48   2.0000      -0.202345        -5.5061
  49   0.0000      -0.040777        -1.1096
  50   0.0000      -0.004559        -0.1241
  51   0.0000       0.002759         0.0751
  52   0.0000       0.005641         0.1535
  53   0.0000       0.018951         0.5157

MULLIKEN ATOMIC CHARGES
-----------------------
   0 C :    0.785106
   1 N :   -0.465099
   2 C :    0.262362
   3 C :    0.179673
   4 S :    1.241978
   5 H :    0.299500
   6 H :    0.272616
   7 H :    0.143731
   8 O :   -0.737304
   9 O :   -0.739052
  10 H :    0.159363
  11 H :   -0.423244
  12 O :   -0.802060
  13 C :    0.193238
  14 H :   -0.038561
  15 H :   -0.020891
  16 C :   -0.030263
  17 H :   -0.298382
  18 H :   -0.030033
  19 C :    0.490586
  20 H :    0.127890
  21 H :   -0.306633
  22 H :    0.055180
  23 H :   -0.277614
  24 H :   -0.036926
  25 H :   -0.005160
Sum of atomic charges:    0.0000000

LOEWDIN ATOMIC CHARGES
----------------------
   0 C :    0.088431
   1 N :    0.343346
   2 C :   -0.008971
   3 C :   -0.055374
   4 S :    0.924289
   5 H :   -0.016122
   6 H :    0.096403
   7 H :   -0.068110
   8 O :   -0.471401
   9 O :   -0.516693
  10 H :    0.034567
  11 H :    0.029201
  12 O :   -0.495127
  13 C :   -0.009163
  14 H :    0.031396
  15 H :    0.029932
  16 C :   -0.021997
  17 H :    0.031877
  18 H :   -0.014902
  19 C :   -0.026239
  20 H :    0.012981
  21 H :    0.010580
  22 H :   -0.013736
  23 H :    0.027719
  24 H :    0.026565
  25 H :    0.030548

  Mayer bond orders larger than 0.100000
B(  0-C ,  1-N ) :   0.7049 B(  0-C ,  2-C ) :   1.2133 B(  0-C , 10-H ) :   0.6863
B(  0-C , 11-H ) :   0.9388 B(  0-C , 14-H ) :   0.1502 B(  0-C , 15-H ) :   0.1427
B(  1-N ,  5-H ) :   0.6965 B(  1-N ,  6-H ) :   0.8511 B(  1-N ,  7-H ) :   1.1379
B(  1-N , 18-H ) :   0.1194 B(  1-N , 22-H ) :   0.1037 B(  2-C , 10-H ) :   0.1103
B(  2-C , 11-H ) :   0.1712 B(  2-C , 13-C ) :   1.2747 B(  2-C , 14-H ) :   0.7932
B(  2-C , 15-H ) :   0.6866 B(  2-C , 17-H ) :   0.1066 B(  2-C , 18-H ) :   0.1088
B(  3-C ,  4-S ) :   0.8899 B(  3-C ,  8-O ) :   0.1483 B(  3-C , 19-C ) :   1.2306
B(  3-C , 20-H ) :   0.8349 B(  3-C , 21-H ) :   0.8975 B(  3-C , 24-H ) :   0.1551
B(  3-C , 25-H ) :   0.1376 B(  4-S ,  8-O ) :   1.4834 B(  4-S ,  9-O ) :   1.1477
B(  4-S , 12-O ) :   1.1199 B(  5-H ,  9-O ) :   0.1902 B(  7-H , 12-O ) :   0.1660
B(  9-O , 12-O ) :   0.1530 B( 10-H , 11-H ) :  -0.1586 B( 10-H , 22-H ) :   0.1025
B( 13-C , 14-H ) :   0.1411 B( 13-C , 15-H ) :   0.2231 B( 13-C , 16-C ) :   1.2037
B( 13-C , 17-H ) :   0.7734 B( 13-C , 18-H ) :   0.8287 B( 13-C , 23-H ) :   0.1682
B( 16-C , 17-H ) :   0.1794 B( 16-C , 18-H ) :   0.1759 B( 16-C , 19-C ) :   1.3087
B( 16-C , 22-H ) :   0.8441 B( 16-C , 23-H ) :   0.8254 B( 16-C , 24-H ) :   0.1460
B( 16-C , 25-H ) :   0.2651 B( 19-C , 21-H ) :   0.2004 B( 19-C , 24-H ) :   0.7280
B( 19-C , 25-H ) :   0.6294

Dispersion correction           -0.031108572
FINAL SINGLE POINT ENERGY      -915.015059812477

DIPOLE MOMENT
-------------
                                X             Y             Z
Electronic contribution:    -13.59007      -2.98407      -3.70775
Nuclear contribution   :     16.18863       5.15617       4.97370
                        -----------------------------------------
Total Dipole Moment    :      2.59856       2.17210       1.26595
                        -----------------------------------------
Magnitude (a.u.)       :      3.61569
Magnitude (Debye)      :      9.19034

Rotational constants in cm-1:     0.048546     0.025588     0.020102
Rotational constants in MHz :  1455.374030   767.095631   602.645620

                             ****ORCA TERMINATED NORMALLY****
TOTAL RUN TIME: 0 days 0 hours 0 minutes 28 seconds 736 msec
