                         Program Version 5.0.0 -  RELEASE  -
|  1> !PBE D3BJ RIJCOSX def2-SVPD def2/J TightSCF
|  2> *xyz 0 1
|  3> C         -5.57236       -5.80780       -0.81644
|  4> S         -6.90318       -4.61903       -0.52846
|  5> F         -8.11485       -5.25093       -0.95701
|  6> O         -6.53271       -3.42684       -1.31485
|  7> O         -6.86563       -4.29496        0.91412
|  8> H         -5.55376       -6.07856       -1.85145
|  9> H         -5.73990       -6.68165       -0.22212
| 10> H         -4.63562       -5.36690       -0.54622
| 11> *
| 12> %MaxCore 64000
| 13>
| 14> %pal nprocs 4
| 15> end
| 16>
| 17> %scf
| 18>   MaxIter 150
| 19> end
| 20>
| 21>                          ****END OF INPUT****

CARTESIAN COORDINATES (ANGSTROEM)
---------------------------------
  C     -5.572360   -5.807800   -0.816440
  S     -6.903180   -4.619030   -0.528460
  F     -8.114850   -5.250930   -0.957010
  O     -6.532710   -3.426840   -1.314850
  O     -6.865630   -4.294960    0.914120
  H     -5.553760   -6.078560   -1.851450
  H     -5.739900   -6.681650   -0.222120
  H     -4.635620   -5.366900   -0.546220

 Total Charge           Charge          ....    0
 Multiplicity           Mult            ....    1
 Number of Electrons    NEL             ....   50
 Basis Dimension        Dim             ....  140

ORBITAL ENERGIES
----------------

  NO   OCC          E(Eh)            E(eV)
   0   2.0000     -88.318216     -2403.2608
   1   2.0000     -24.397821      -663.8985
   2   2.0000     -18.773514      -510.8533
   3   2.0000     -18.772546      -510.8269
   4   2.0000      -9.957684      -270.9624
   5   2.0000      -7.922871      -215.5923
   6   2.0000      -5.954250      -162.0234
   7   2.0000      -5.947381      -161.8365
   8   2.0000      -5.946357      -161.8086
   9   2.0000      -1.284863       -34.9629
  10   2.0000      -1.012346       -27.5473
  11   2.0000      -0.913807       -24.8660
  12   2.0000      -0.732070       -19.9206
  13   2.0000      -0.659998       -17.9595
  14   2.0000      -0.551226       -14.9996
  15   2.0000      -0.533536       -14.5182
  16   2.0000      -0.503099       -13.6900
  17   2.0000      -0.432164       -11.7598
  18   2.0000      -0.427380       -11.6296
  19   2.0000      -0.420393       -11.4395
  20   2.0000      -0.390450       -10.6247
  21   2.0000      -0.337126        -9.1737
  22   2.0000      -0.292954        -7.9717
  23   2.0000      -0.284667        -7.7462
  24   2.0000      -0.259010        -7.0480
  25   0.0000      -0.034465        -0.9379
  26   0.0000      -0.000548        -0.0149
  27   0.0000       0.010853         0.2953
  28   0.0000       0.023734         0.6458
  29   0.0000       0.031131         0.8471

MULLIKEN ATOMIC CHARGES
-----------------------
   0 C :    0.495937
   1 S :    1.102009
   2 F :   -0.320298
   3 O :   -0.595679
   4 O :   -0.596464
   5 H :   -0.022870
   6 H :   -0.027384
   7 H :   -0.035251
Sum of atomic charges:   -0.0000000

LOEWDIN ATOMIC CHARGES
----------------------
   0 C :    0.121896
   1 S :    1.057642
   2 F :   -0.238446
   3 O :   -0.455968
   4 O :   -0.454525
   5 H :   -0.015049
   6 H :   -0.015362
   7 H :   -0.000188

  Mayer bond orders larger than 0.100000
B(  0-C ,  1-S ) :   0.9907 B(  0-C ,  5-H ) :   0.9065 B(  0-C ,  6-H ) :   0.9094
B(  0-C ,  7-H ) :   0.9131 B(  1-S ,  2-F ) :   0.7605 B(  1-S ,  3-O ) :   1.5447
B(  1-S ,  4-O ) :   1.5401 B(  1-S ,  7-H ) :   0.1215

Dispersion correction           -0.005901032
FINAL SINGLE POINT ENERGY      -687.520680592050

DIPOLE MOMENT
-------------
                                X             Y             Z
Electronic contribution:     -5.23483       1.69636      -0.06254
Nuclear contribution   :      5.53040      -3.27628      -0.52239
                        -----------------------------------------
Total Dipole Moment    :      0.29557      -1.57992      -0.58493
                        -----------------------------------------
Magnitude (a.u.)       :      1.71045
Magnitude (Debye)      :      4.34762

Rotational constants in cm-1:     0.163239     0.153903     0.144751
Rotational constants in MHz :  4893.777363  4613.882823  4339.513182

                             ****ORCA TERMINATED NORMALLY****
TOTAL RUN TIME: 0 days 0 hours 0 minutes 4 seconds 455 msec
