                         Program Version 5.0.0 -  RELEASE  -
|  1> !PBE D3BJ RIJCOSX def2-SVPD def2/J TightSCF
|  2> *xyz 0 1
|  3> C         -4.38262       -1.67089        1.21620
|  4> C         -5.76354       -1.91517        0.70501
|  5> H         -5.84081       -2.11520       -0.30065
|  6> H         -6.40882       -1.14866        0.93612
|  7> H         -6.17478       -2.79061        1.05143
|  8> H         -4.01369       -0.74796        0.81997
|  9> H         -3.74223       -2.47168        0.91037
| 10> H         -4.40201       -1.61791        2.28471
| 11> *
| 12> %MaxCore 64000
| 13>
| 14> %pal nprocs 4
| 15> end
| 16>
| 17> %scf
| 18>   MaxIter 150
| 19> end
| 20>
| 21>                          ****END OF INPUT****

CARTESIAN COORDINATES (ANGSTROEM)
---------------------------------
  C     -4.382620   -1.670890    1.216200
  C     -5.763540   -1.915170    0.705010
  H     -5.840810   -2.115200   -0.300650
  H     -6.408820   -1.148660    0.936120
  H     -6.174780   -2.790610    1.051430
  H     -4.013690   -0.747960    0.819970
  H     -3.742230   -2.471680    0.910370
  H     -4.402010   -1.617910    2.284710

 Total Charge           Charge          ....    0
 Multiplicity           Mult            ....    1
 Number of Electrons    NEL             ....   18
 Basis Dimension        Dim             ....   88

ORBITAL ENERGIES
----------------

  NO   OCC          E(Eh)            E(eV)
   0   2.0000      -9.875917      -268.7374
   1   2.0000      -9.861474      -268.3443
   2   2.0000      -0.689750       -18.7691
   3   2.0000      -0.559566       -15.2266
   4   2.0000      -0.402097       -10.9416
   5   2.0000      -0.389540       -10.5999
   6   2.0000      -0.333624        -9.0784
   7   2.0000      -0.306751        -8.3471
   8   2.0000      -0.294014        -8.0005
   9   0.0000       0.012101         0.3293
  10   0.0000       0.043642         1.1876
  11   0.0000       0.082061         2.2330
  12   0.0000       0.084995         2.3128
  13   0.0000       0.104853         2.8532

MULLIKEN ATOMIC CHARGES
-----------------------
   0 C :    0.301385
   1 C :    0.530407
   2 H :   -0.233133
   3 H :   -0.195532
   4 H :   -0.219149
   5 H :   -0.068323
   6 H :   -0.056870
   7 H :   -0.058785
Sum of atomic charges:    0.0000000

LOEWDIN ATOMIC CHARGES
----------------------
   0 C :    0.086195
   1 C :    0.077441
   2 H :   -0.038327
   3 H :   -0.033418
   4 H :   -0.039764
   5 H :   -0.018067
   6 H :   -0.017390
   7 H :   -0.016670

  Mayer bond orders larger than 0.100000
B(  0-C ,  1-C ) :   1.4859 B(  0-C ,  2-H ) :   0.1432 B(  0-C ,  3-H ) :   0.1713
B(  0-C ,  4-H ) :   0.1563 B(  0-C ,  5-H ) :   0.8512 B(  0-C ,  6-H ) :   0.8604
B(  0-C ,  7-H ) :   0.8353 B(  1-C ,  2-H ) :   0.7438 B(  1-C ,  3-H ) :   0.7765
B(  1-C ,  4-H ) :   0.7366 B(  1-C ,  5-H ) :   0.1639 B(  1-C ,  6-H ) :   0.1647
B(  1-C ,  7-H ) :   0.1697 B(  2-H ,  4-H ) :   0.2504

Dispersion correction           -0.003342427
FINAL SINGLE POINT ENERGY       -79.631363065372

DIPOLE MOMENT
-------------
                                X             Y             Z
Electronic contribution:      0.07792       0.07482       0.03208
Nuclear contribution   :     -0.10782      -0.10031      -0.04623
                        -----------------------------------------
Total Dipole Moment    :     -0.02990      -0.02549      -0.01414
                        -----------------------------------------
Magnitude (a.u.)       :      0.04176
Magnitude (Debye)      :      0.10615

Rotational constants in cm-1:     2.932831     0.705715     0.698218
Rotational constants in MHz : 87924.050302 21156.813368 20932.044240

                             ****ORCA TERMINATED NORMALLY****
TOTAL RUN TIME: 0 days 0 hours 0 minutes 2 seconds 743 msec
