                         Program Version 5.0.0 -  RELEASE  -
|  1> !PBE D3BJ RIJCOSX def2-SVPD def2/J TightSCF
|  2> *xyz 0 1
|  3> C         -5.57236       -5.80780       -0.81644
|  4> S         -6.90318       -4.61903       -0.52846
|  5> O         -8.11485       -5.25093       -0.95701
|  6> F         -6.53271       -3.42684       -1.31485
|  7> O         -6.86563       -4.29496        0.91412
|  8> H         -5.55376       -6.07856       -1.85145
|  9> H         -5.73990       -6.68165       -0.22212
| 10> H         -4.63562       -5.36690       -0.54622
| 11> *
| 12> %MaxCore 64000
| 13>
| 14> %pal nprocs 4
| 15> end
| 16>
| 17> %scf
| 18>   MaxIter 150
| 19> end
| 20>
| 21>                          ****END OF INPUT****

CARTESIAN COORDINATES (ANGSTROEM)
---------------------------------
  C     -5.572360   -5.807800   -0.816440
  S     -6.903180   -4.619030   -0.528460
  O     -8.114850   -5.250930   -0.957010
  F     -6.532710   -3.426840   -1.314850
  O     -6.865630   -4.294960    0.914120
  H     -5.553760   -6.078560   -1.851450
  H     -5.739900   -6.681650   -0.222120
  H     -4.635620   -5.366900   -0.546220

 Total Charge           Charge          ....    0
 Multiplicity           Mult            ....    1
 Number of Electrons    NEL             ....   50
 Basis Dimension        Dim             ....  140

ORBITAL ENERGIES
----------------

  NO   OCC          E(Eh)            E(eV)
   0   2.0000     -88.315569     -2403.1888
   1   2.0000     -24.377152      -663.3360
   2   2.0000     -18.785364      -511.1757
   3   2.0000     -18.772987      -510.8389
   4   2.0000      -9.956874      -270.9403
   5   2.0000      -7.920337      -215.5233
   6   2.0000      -5.951395      -161.9457
   7   2.0000      -5.945130      -161.7752
   8   2.0000      -5.944030      -161.7453
   9   2.0000      -1.249002       -33.9871
  10   2.0000      -1.027807       -27.9680
  11   2.0000      -0.928928       -25.2774
  12   2.0000      -0.729732       -19.8570
  13   2.0000      -0.643327       -17.5058
  14   2.0000      -0.536450       -14.5975
  15   2.0000      -0.509021       -13.8512
  16   2.0000      -0.497543       -13.5388
  17   2.0000      -0.431722       -11.7477
  18   2.0000      -0.429550       -11.6887
  19   2.0000      -0.419077       -11.4037
  20   2.0000      -0.395946       -10.7742
  21   2.0000      -0.346120        -9.4184
  22   2.0000      -0.303887        -8.2692
  23   2.0000      -0.289751        -7.8845
  24   2.0000      -0.271013        -7.3746
  25   0.0000      -0.033367        -0.9079
  26   0.0000      -0.001504        -0.0409
  27   0.0000       0.011787         0.3208
  28   0.0000       0.030969         0.8427
  29   0.0000       0.031937         0.8690

MULLIKEN ATOMIC CHARGES
-----------------------
   0 C :    0.494064
   1 S :    1.110487
   2 O :   -0.563202
   3 F :   -0.346110
   4 O :   -0.607722
   5 H :   -0.022500
   6 H :   -0.038137
   7 H :   -0.026879
Sum of atomic charges:   -0.0000000

LOEWDIN ATOMIC CHARGES
----------------------
   0 C :    0.122638
   1 S :    1.055874
   2 O :   -0.436145
   3 F :   -0.256795
   4 O :   -0.455096
   5 H :   -0.014719
   6 H :   -0.001579
   7 H :   -0.014177

  Mayer bond orders larger than 0.100000
B(  0-C ,  1-S ) :   0.9896 B(  0-C ,  5-H ) :   0.9083 B(  0-C ,  6-H ) :   0.9098
B(  0-C ,  7-H ) :   0.9124 B(  1-S ,  2-O ) :   1.5764 B(  1-S ,  3-F ) :   0.7095
B(  1-S ,  4-O ) :   1.5375 B(  1-S ,  6-H ) :   0.1149

Dispersion correction           -0.005901097
FINAL SINGLE POINT ENERGY      -687.538406536475

DIPOLE MOMENT
-------------
                                X             Y             Z
Electronic contribution:     -2.65526       4.67393      -0.65925
Nuclear contribution   :      3.94974      -5.09866      -0.16489
                        -----------------------------------------
Total Dipole Moment    :      1.29448      -0.42474      -0.82414
                        -----------------------------------------
Magnitude (a.u.)       :      1.59225
Magnitude (Debye)      :      4.04719

Rotational constants in cm-1:     0.163657     0.151977     0.145976
Rotational constants in MHz :  4906.325390  4556.144033  4376.262759

                             ****ORCA TERMINATED NORMALLY****
TOTAL RUN TIME: 0 days 0 hours 0 minutes 4 seconds 771 msec
