                         Program Version 5.0.0 -  RELEASE  -
|  1> !PBE D3BJ RIJCOSX def2-SVPD def2/J TightSCF
|  2> *xyz 0 1
|  3> C         -5.57236       -5.80780       -0.81644
|  4> S         -6.90318       -4.61903       -0.52846
|  5> O         -8.11485       -5.25093       -0.95701
|  6> O         -6.53271       -3.42684       -1.31485
|  7> F         -6.86563       -4.29496        0.91412
|  8> H         -5.55376       -6.07856       -1.85145
|  9> H         -5.73990       -6.68165       -0.22212
| 10> H         -4.63562       -5.36690       -0.54622
| 11> *
| 12> %MaxCore 64000
| 13>
| 14> %pal nprocs 4
| 15> end
| 16>
| 17> %scf
| 18>   MaxIter 150
| 19> end
| 20>
| 21>                          ****END OF INPUT****

CARTESIAN COORDINATES (ANGSTROEM)
---------------------------------
  C     -5.572360   -5.807800   -0.816440
  S     -6.903180   -4.619030   -0.528460
  O     -8.114850   -5.250930   -0.957010
  O     -6.532710   -3.426840   -1.314850
  F     -6.865630   -4.294960    0.914120
  H     -5.553760   -6.078560   -1.851450
  H     -5.739900   -6.681650   -0.222120
  H     -4.635620   -5.366900   -0.546220

 Total Charge           Charge          ....    0
 Multiplicity           Mult            ....    1
 Number of Electrons    NEL             ....   50
 Basis Dimension        Dim             ....  140

ORBITAL ENERGIES
----------------

  NO   OCC          E(Eh)            E(eV)
   0   2.0000     -88.315278     -2403.1809
   1   2.0000     -24.376982      -663.3314
   2   2.0000     -18.785474      -511.1787
   3   2.0000     -18.772152      -510.8162
   4   2.0000      -9.956861      -270.9400
   5   2.0000      -7.920087      -215.5165
   6   2.0000      -5.951113      -161.9380
   7   2.0000      -5.944877      -161.7683
   8   2.0000      -5.943807      -161.7392
   9   2.0000      -1.247095       -33.9352
  10   2.0000      -1.028553       -27.9883
  11   2.0000      -0.929725       -25.2991
  12   2.0000      -0.729017       -19.8375
  13   2.0000      -0.643099       -17.4996
  14   2.0000      -0.535893       -14.5824
  15   2.0000      -0.507794       -13.8178
  16   2.0000      -0.496963       -13.5231
  17   2.0000      -0.431436       -11.7400
  18   2.0000      -0.429275       -11.6812
  19   2.0000      -0.419993       -11.4286
  20   2.0000      -0.395960       -10.7746
  21   2.0000      -0.346341        -9.4244
  22   2.0000      -0.303795        -8.2667
  23   2.0000      -0.289254        -7.8710
  24   2.0000      -0.271137        -7.3780
  25   0.0000      -0.035930        -0.9777
  26   0.0000      -0.003030        -0.0825
  27   0.0000       0.012078         0.3287
  28   0.0000       0.031007         0.8438
  29   0.0000       0.031977         0.8701

MULLIKEN ATOMIC CHARGES
-----------------------
   0 C :    0.495073
   1 S :    1.110107
   2 O :   -0.562834
   3 O :   -0.606698
   4 F :   -0.348318
   5 H :   -0.032918
   6 H :   -0.029077
   7 H :   -0.025336
Sum of atomic charges:    0.0000000

LOEWDIN ATOMIC CHARGES
----------------------
   0 C :    0.122783
   1 S :    1.056207
   2 O :   -0.435904
   3 O :   -0.456100
   4 F :   -0.256378
   5 H :   -0.001106
   6 H :   -0.015753
   7 H :   -0.013749

  Mayer bond orders larger than 0.100000
B(  0-C ,  1-S ) :   0.9901 B(  0-C ,  5-H ) :   0.9079 B(  0-C ,  6-H ) :   0.9095
B(  0-C ,  7-H ) :   0.9130 B(  1-S ,  2-O ) :   1.5759 B(  1-S ,  3-O ) :   1.5411
B(  1-S ,  4-F ) :   0.7044 B(  1-S ,  5-H ) :   0.1143

Dispersion correction           -0.005902612
FINAL SINGLE POINT ENERGY      -687.538043999389

DIPOLE MOMENT
-------------
                                X             Y             Z
Electronic contribution:     -3.20089       3.24669       2.99550
Nuclear contribution   :      4.28235      -4.23136      -2.39177
                        -----------------------------------------
Total Dipole Moment    :      1.08146      -0.98466       0.60372
                        -----------------------------------------
Magnitude (a.u.)       :      1.58227
Magnitude (Debye)      :      4.02182

Rotational constants in cm-1:     0.164456     0.151338     0.145749
Rotational constants in MHz :  4930.268698  4537.002642  4369.437533

                             ****ORCA TERMINATED NORMALLY****
TOTAL RUN TIME: 0 days 0 hours 0 minutes 4 seconds 598 msec
