                         Program Version 5.0.0 -  RELEASE  -
|  1> !PBE D3BJ RIJCOSX def2-SVPD def2/J TightSCF xyzfile
|  2>
|  3> *xyzfile 0 1 D2.xyz
|  4>
|  5> %MaxCore 64000
|  6>
|  7> %pal nprocs 4
|  8> end
|  9>
| 10> %scf
| 11>   MaxIter 150
| 12> end
| 13>
| 14>
| 15>                          ****END OF INPUT****

CARTESIAN COORDINATES (ANGSTROEM)
---------------------------------
  C     -4.382623   -1.670889    1.216201
  C     -5.763539   -1.915170    0.705012
  C     -3.281728   -2.191272    0.294361
  C     -5.572364   -5.807798   -0.816445
  S     -6.903179   -4.619033   -0.528458
  H     -5.840812   -2.115205   -0.300646
  H     -6.408823   -1.148656    0.936124
  H     -6.174781   -2.790606    1.051433
  O     -8.114853   -5.250932   -0.957007
  F     -6.532715   -3.426838   -1.314848
  H     -4.328618   -2.139223    2.198103
  H     -4.261583   -0.597399    1.357248
  O     -6.865632   -4.294957    0.914118
  C     -3.474641   -3.605898   -0.259608
  H     -2.354548   -2.127602    0.871433
  H     -3.166611   -1.499693   -0.545037
  C     -3.827078   -4.661097    0.786174
  H     -2.560559   -3.889391   -0.788050
  H     -4.255932   -3.570040   -1.019300
  C     -4.457800   -5.941875    0.229195
  H     -5.177347   -5.542575   -1.797714
  H     -6.074202   -6.768894   -0.921272
  H     -4.530506   -4.253640    1.511979
  H     -2.933400   -4.932302    1.356825
  H     -3.681064   -6.562236   -0.229885
  H     -4.843942   -6.512728    1.075805

 Total Charge           Charge          ....    0
 Multiplicity           Mult            ....    1
 Number of Electrons    NEL             ....   98
 Basis Dimension        Dim             ....  356

ORBITAL ENERGIES
----------------

  NO   OCC          E(Eh)            E(eV)
   0   2.0000     -88.314587     -2403.1621
   1   2.0000     -24.376863      -663.3282
   2   2.0000     -18.786679      -511.2115
   3   2.0000     -18.773765      -510.8601
   4   2.0000      -9.958885      -270.9950
   5   2.0000      -9.925235      -270.0794
   6   2.0000      -9.900487      -269.4059
   7   2.0000      -9.898868      -269.3619
   8   2.0000      -9.888242      -269.0728
   9   2.0000      -9.875964      -268.7387
  10   2.0000      -9.827891      -267.4305
  11   2.0000      -7.918502      -215.4734
  12   2.0000      -5.949595      -161.8967
  13   2.0000      -5.943520      -161.7314
  14   2.0000      -5.941947      -161.6886
  15   2.0000      -1.251709       -34.0607
  16   2.0000      -1.029484       -28.0137
  17   2.0000      -0.934374       -25.4256
  18   2.0000      -0.760795       -20.7023
  19   2.0000      -0.727357       -19.7924
  20   2.0000      -0.683618       -18.6022
  21   2.0000      -0.660409       -17.9706
  22   2.0000      -0.627454       -17.0739
  23   2.0000      -0.589890       -16.0517
  24   2.0000      -0.555308       -15.1107
  25   2.0000      -0.521425       -14.1887
  26   2.0000      -0.509451       -13.8629
  27   2.0000      -0.497838       -13.5469
  28   2.0000      -0.495019       -13.4702
  29   2.0000      -0.448930       -12.2160
  30   2.0000      -0.441034       -12.0011
  31   2.0000      -0.422617       -11.5000
  32   2.0000      -0.415433       -11.3045
  33   2.0000      -0.408781       -11.1235
  34   2.0000      -0.392520       -10.6810
  35   2.0000      -0.380600       -10.3566
  36   2.0000      -0.359845        -9.7919
  37   2.0000      -0.352374        -9.5886
  38   2.0000      -0.347738        -9.4624
  39   2.0000      -0.343278        -9.3411
  40   2.0000      -0.318417        -8.6646
  41   2.0000      -0.311460        -8.4753
  42   2.0000      -0.309804        -8.4302
  43   2.0000      -0.294572        -8.0157
  44   2.0000      -0.288794        -7.8585
  45   2.0000      -0.279731        -7.6119
  46   2.0000      -0.272543        -7.4163
  47   2.0000      -0.271347        -7.3837
  48   2.0000      -0.236027        -6.4226
  49   0.0000      -0.027513        -0.7487
  50   0.0000      -0.014434        -0.3928
  51   0.0000       0.000383         0.0104
  52   0.0000       0.010672         0.2904
  53   0.0000       0.014216         0.3868

MULLIKEN ATOMIC CHARGES
-----------------------
   0 C :   -0.045656
   1 C :    1.818129
   2 C :    0.453560
   3 C :    0.194771
   4 S :    1.380529
   5 H :   -0.369866
   6 H :   -0.436296
   7 H :   -0.774104
   8 O :   -0.658092
   9 F :   -0.399401
  10 H :    0.154747
  11 H :   -0.425142
  12 O :   -0.718189
  13 C :    0.057657
  14 H :   -0.054666
  15 H :    0.058341
  16 C :    0.009346
  17 H :   -0.343940
  18 H :   -0.011096
  19 C :    0.507826
  20 H :    0.153031
  21 H :   -0.306231
  22 H :    0.029513
  23 H :   -0.244319
  24 H :   -0.030263
  25 H :   -0.000188
Sum of atomic charges:    0.0000000

LOEWDIN ATOMIC CHARGES
----------------------
   0 C :   -0.044431
   1 C :    0.137123
   2 C :   -0.026346
   3 C :   -0.038315
   4 S :    1.121573
   5 H :   -0.077912
   6 H :   -0.017324
   7 H :   -0.137190
   8 O :   -0.418190
   9 F :   -0.261578
  10 H :    0.019441
  11 H :    0.017423
  12 O :   -0.420347
  13 C :   -0.015754
  14 H :    0.019161
  15 H :    0.025906
  16 C :   -0.012474
  17 H :    0.026575
  18 H :   -0.015134
  19 C :   -0.020166
  20 H :    0.017138
  21 H :    0.022048
  22 H :   -0.001767
  23 H :    0.033048
  24 H :    0.033610
  25 H :    0.033881

  Mayer bond orders larger than 0.100000
B(  0-C ,  1-C ) :   1.1251 B(  0-C ,  2-C ) :   1.1751 B(  0-C ,  5-H ) :   0.3388
B(  0-C ,  6-H ) :   0.1033 B(  0-C ,  7-H ) :   0.3849 B(  0-C , 10-H ) :   0.6433
B(  0-C , 11-H ) :   1.0236 B(  0-C , 14-H ) :   0.1774 B(  0-C , 15-H ) :   0.1683
B(  0-C , 16-C ) :   0.1087 B(  1-C ,  2-C ) :   0.1715 B(  1-C ,  6-H ) :   0.5049
B(  1-C ,  7-H ) :  -0.3336 B(  1-C , 10-H ) :   0.2143 B(  1-C , 17-H ) :   0.1313
B(  2-C , 10-H ) :   0.1373 B(  2-C , 13-C ) :   1.2857 B(  2-C , 14-H ) :   0.7370
B(  2-C , 15-H ) :   0.6184 B(  2-C , 17-H ) :   0.1171 B(  2-C , 18-H ) :   0.1208
B(  3-C ,  4-S ) :   0.9076 B(  3-C ,  8-O ) :   0.1176 B(  3-C , 16-C ) :   0.1197
B(  3-C , 19-C ) :   1.2410 B(  3-C , 20-H ) :   0.8261 B(  3-C , 21-H ) :   0.8804
B(  3-C , 24-H ) :   0.1468 B(  3-C , 25-H ) :   0.1368 B(  4-S ,  8-O ) :   1.5946
B(  4-S ,  9-F ) :   0.6166 B(  4-S , 12-O ) :   1.4440 B(  5-H ,  6-H ) :  -0.1239
B(  5-H ,  7-H ) :   0.9078 B(  5-H ,  9-F ) :   0.1578 B(  5-H , 11-H ) :   0.1546
B(  5-H , 17-H ) :  -0.1149 B(  5-H , 18-H ) :   0.1611 B(  6-H ,  7-H ) :   0.1380
B(  6-H , 11-H ) :  -0.1446 B(  6-H , 17-H ) :   0.1286 B(  6-H , 18-H ) :  -0.1522
B(  7-H , 10-H ) :  -0.1218 B(  7-H , 11-H ) :   0.1018 B(  7-H , 12-O ) :   0.1172
B(  7-H , 17-H ) :  -0.1514 B(  9-F , 12-O ) :   0.1176 B( 10-H , 11-H ) :  -0.2379
B( 10-H , 22-H ) :   0.1550 B( 11-H , 14-H ) :   0.1154 B( 13-C , 14-H ) :   0.1895
B( 13-C , 15-H ) :   0.2581 B( 13-C , 16-C ) :   1.2242 B( 13-C , 17-H ) :   0.8568
B( 13-C , 18-H ) :   0.7833 B( 13-C , 22-H ) :   0.1252 B( 13-C , 23-H ) :   0.1771
B( 14-H , 15-H ) :  -0.1070 B( 16-C , 17-H ) :   0.2030 B( 16-C , 18-H ) :   0.1784
B( 16-C , 19-C ) :   1.2901 B( 16-C , 22-H ) :   0.8557 B( 16-C , 23-H ) :   0.7999
B( 16-C , 24-H ) :   0.1439 B( 16-C , 25-H ) :   0.2570 B( 19-C , 21-H ) :   0.2048
B( 19-C , 24-H ) :   0.7251 B( 19-C , 25-H ) :   0.6354

Dispersion correction           -0.030379386
FINAL SINGLE POINT ENERGY      -922.885770532183

DIPOLE MOMENT
-------------
                                X             Y             Z
Electronic contribution:    -16.00749      -5.36509      -7.17780
Nuclear contribution   :     17.25367       4.78608       6.55647
                        -----------------------------------------
Total Dipole Moment    :      1.24618      -0.57901      -0.62133
                        -----------------------------------------
Magnitude (a.u.)       :      1.50807
Magnitude (Debye)      :      3.83320

Rotational constants in cm-1:     0.048508     0.025517     0.020225
Rotational constants in MHz :  1454.219007   764.979652   606.316599

                             ****ORCA TERMINATED NORMALLY****
TOTAL RUN TIME: 0 days 0 hours 0 minutes 32 seconds 345 msec
