                         Program Version 5.0.0 -  RELEASE  -
|  1> !PBE D3BJ RIJCOSX def2-SVPD def2/J TightSCF
|  2> *xyz -1 1
|  3> C         -7.33044       -2.67899       -3.20681
|  4> S         -6.01966       -2.92697       -4.41913
|  5> O         -5.64583       -1.58838       -4.91931
|  6> O         -4.88196       -3.50370       -3.66724
|  7> O         -6.54927       -3.80515       -5.42507
|  8> C         -7.46900       -1.24615       -2.71383
|  9> H         -7.11825       -3.37982       -2.39805
| 10> H         -8.24184       -3.00474       -3.70651
| 11> H         -7.67580       -0.60214       -3.54292
| 12> H         -6.55749       -0.94096       -2.24382
| 13> H         -8.27114       -1.18777       -2.00810
| 14> *
| 15> %MaxCore 64000
| 16>
| 17> %pal nprocs 4
| 18> end
| 19>
| 20> %scf
| 21>   MaxIter 150
| 22> end
| 23>
| 24>
| 25>                          ****END OF INPUT****

CARTESIAN COORDINATES (ANGSTROEM)
---------------------------------
  C     -7.330440   -2.678990   -3.206810
  S     -6.019660   -2.926970   -4.419130
  O     -5.645830   -1.588380   -4.919310
  O     -4.881960   -3.503700   -3.667240
  O     -6.549270   -3.805150   -5.425070
  C     -7.469000   -1.246150   -2.713830
  H     -7.118250   -3.379820   -2.398050
  H     -8.241840   -3.004740   -3.706510
  H     -7.675800   -0.602140   -3.542920
  H     -6.557490   -0.940960   -2.243820
  H     -8.271140   -1.187770   -2.008100

 Total Charge           Charge          ....   -1
 Multiplicity           Mult            ....    1
 Number of Electrons    NEL             ....   58
 Basis Dimension        Dim             ....  176

ORBITAL ENERGIES
----------------

  NO   OCC          E(Eh)            E(eV)
   0   2.0000     -88.053153     -2396.0481
   1   2.0000     -18.548021      -504.7173
   2   2.0000     -18.537955      -504.4434
   3   2.0000     -18.534554      -504.3508
   4   2.0000      -9.759571      -265.5714
   5   2.0000      -9.753810      -265.4147
   6   2.0000      -7.657507      -208.3714
   7   2.0000      -5.684523      -154.6837
   8   2.0000      -5.684409      -154.6806
   9   2.0000      -5.683744      -154.6625
  10   2.0000      -0.836649       -22.7664
  11   2.0000      -0.701338       -19.0844
  12   2.0000      -0.679170       -18.4811
  13   2.0000      -0.559227       -15.2174
  14   2.0000      -0.441802       -12.0221
  15   2.0000      -0.324913        -8.8413
  16   2.0000      -0.272550        -7.4165
  17   2.0000      -0.262799        -7.1511
  18   2.0000      -0.229652        -6.2491
  19   2.0000      -0.209731        -5.7071
  20   2.0000      -0.207448        -5.6449
  21   2.0000      -0.186029        -5.0621
  22   2.0000      -0.176359        -4.7990
  23   2.0000      -0.102030        -2.7764
  24   2.0000      -0.099717        -2.7134
  25   2.0000      -0.071004        -1.9321
  26   2.0000      -0.063656        -1.7322
  27   2.0000      -0.053504        -1.4559
  28   2.0000      -0.017531        -0.4770
  29   0.0000       0.124652         3.3919
  30   0.0000       0.154791         4.2121
  31   0.0000       0.163465         4.4481
  32   0.0000       0.169202         4.6042
  33   0.0000       0.191047         5.1986

MULLIKEN ATOMIC CHARGES
-----------------------
   0 C :   -0.386744
   1 S :    1.173607
   2 O :   -0.787771
   3 O :   -0.780466
   4 O :   -0.727100
   5 C :    0.777659
   6 H :   -0.032606
   7 H :   -0.013846
   8 H :   -0.009572
   9 H :   -0.038008
  10 H :   -0.175152
Sum of atomic charges:   -1.0000000

LOEWDIN ATOMIC CHARGES
----------------------
   0 C :   -0.132651
   1 S :    0.818430
   2 O :   -0.564031
   3 O :   -0.579191
   4 O :   -0.555056
   5 C :    0.091465
   6 H :   -0.000441
   7 H :   -0.006827
   8 H :   -0.022059
   9 H :   -0.013330
  10 H :   -0.036310

  Mayer bond orders larger than 0.100000
B(  0-C ,  1-S ) :   0.8603 B(  0-C ,  4-O ) :   0.1005 B(  0-C ,  5-C ) :   1.3299
B(  0-C ,  6-H ) :   0.9711 B(  0-C ,  7-H ) :   0.9738 B(  0-C ,  8-H ) :   0.2096
B(  0-C ,  9-H ) :   0.2010 B(  0-C , 10-H ) :   0.2305 B(  1-S ,  2-O ) :   1.3131
B(  1-S ,  3-O ) :   1.3145 B(  1-S ,  4-O ) :   1.3721 B(  5-C ,  8-H ) :   0.7904
B(  5-C ,  9-H ) :   0.7984 B(  5-C , 10-H ) :   0.7789

Dispersion correction           -0.009632645
FINAL SINGLE POINT ENERGY      -702.285481040195

DIPOLE MOMENT
-------------
                                X             Y             Z
Electronic contribution:      4.71411      -3.51669      -5.12522
Nuclear contribution   :     -6.18165       4.01759       6.33106
                        -----------------------------------------
Total Dipole Moment    :     -1.46754       0.50091       1.20585
                        -----------------------------------------
Magnitude (a.u.)       :      1.96435
Magnitude (Debye)      :      4.99297

Rotational constants in cm-1:     0.161711     0.082788     0.081165
Rotational constants in MHz :  4847.971521  2481.906910  2433.276832

                             ****ORCA TERMINATED NORMALLY****
TOTAL RUN TIME: 0 days 0 hours 0 minutes 11 seconds 304 msec
