                         Program Version 5.0.0 -  RELEASE  -
|  1> !PBE D3BJ RIJCOSX def2-SVPD def2/J TightSCF
|  2> *xyz 1 1
|  3> C         -2.16038       -1.36949       -3.46710
|  4> N         -3.03011       -1.91086       -4.54107
|  5> C         -2.04772        0.14658       -3.51177
|  6> H         -3.47744       -2.79151       -4.25710
|  7> H         -2.53801       -2.01786       -5.43808
|  8> H         -3.89159       -1.37604       -4.71437
|  9> H         -1.18444       -1.84400       -3.56639
| 10> H         -2.59819       -1.70838       -2.52848
| 11> H         -1.61525        0.44478       -4.44395
| 12> H         -1.42718        0.48198       -2.70720
| 13> H         -3.02145        0.57958       -3.41560
| 14> *
| 15> %MaxCore 64000
| 16>
| 17> %pal nprocs 4
| 18> end
| 19>
| 20> %scf
| 21>   MaxIter 150
| 22> end
| 23>
| 24>
| 25>                          ****END OF INPUT****

CARTESIAN COORDINATES (ANGSTROEM)
---------------------------------
  C     -2.160380   -1.369490   -3.467100
  N     -3.030110   -1.910860   -4.541070
  C     -2.047720    0.146580   -3.511770
  H     -3.477440   -2.791510   -4.257100
  H     -2.538010   -2.017860   -5.438080
  H     -3.891590   -1.376040   -4.714370
  H     -1.184440   -1.844000   -3.566390
  H     -2.598190   -1.708380   -2.528480
  H     -1.615250    0.444780   -4.443950
  H     -1.427180    0.481980   -2.707200
  H     -3.021450    0.579580   -3.415600

 Total Charge           Charge          ....    1
 Multiplicity           Mult            ....    1
 Number of Electrons    NEL             ....   26
 Basis Dimension        Dim             ....  124

ORBITAL ENERGIES
----------------

  NO   OCC          E(Eh)            E(eV)
   0   2.0000     -14.335109      -390.0781
   1   2.0000     -10.150323      -276.2043
   2   2.0000     -10.071836      -274.0686
   3   2.0000      -1.131356       -30.7857
   4   2.0000      -0.895046       -24.3554
   5   2.0000      -0.784602       -21.3501
   6   2.0000      -0.759617       -20.6702
   7   2.0000      -0.720301       -19.6004
   8   2.0000      -0.654315       -17.8048
   9   2.0000      -0.596528       -16.2323
  10   2.0000      -0.540681       -14.7127
  11   2.0000      -0.526056       -14.3147
  12   2.0000      -0.507650       -13.8139
  13   0.0000      -0.218625        -5.9491
  14   0.0000      -0.163551        -4.4504
  15   0.0000      -0.161060        -4.3827
  16   0.0000      -0.145162        -3.9501
  17   0.0000      -0.112860        -3.0711

MULLIKEN ATOMIC CHARGES
-----------------------
   0 C :    0.265865
   1 N :   -0.828854
   2 C :    0.641514
   3 H :    0.357147
   4 H :    0.403285
   5 H :    0.375758
   6 H :   -0.098087
   7 H :   -0.065888
   8 H :    0.012524
   9 H :   -0.022957
  10 H :   -0.040307
Sum of atomic charges:    1.0000000

LOEWDIN ATOMIC CHARGES
----------------------
   0 C :    0.049938
   1 N :    0.328270
   2 C :    0.174395
   3 H :    0.103848
   4 H :    0.111660
   5 H :    0.103153
   6 H :    0.055756
   7 H :    0.053234
   8 H :    0.002723
   9 H :    0.016444
  10 H :    0.000579

  Mayer bond orders larger than 0.100000
B(  0-C ,  1-N ) :   0.7280 B(  0-C ,  2-C ) :   1.3694 B(  0-C ,  6-H ) :   0.8974
B(  0-C ,  7-H ) :   0.8987 B(  0-C ,  8-H ) :   0.1607 B(  0-C ,  9-H ) :   0.1924
B(  0-C , 10-H ) :   0.1776 B(  1-N ,  3-H ) :   0.7519 B(  1-N ,  4-H ) :   0.6845
B(  1-N ,  5-H ) :   0.7306 B(  1-N ,  6-H ) :   0.1277 B(  2-C ,  8-H ) :   0.8022
B(  2-C ,  9-H ) :   0.8120 B(  2-C , 10-H ) :   0.8339

Dispersion correction           -0.006126575
FINAL SINGLE POINT ENERGY      -135.255776382802

DIPOLE MOMENT
-------------
                                X             Y             Z
Electronic contribution:     -0.63902      -1.47653      -0.76701
Nuclear contribution   :     -0.15215       0.37393      -0.04773
                        -----------------------------------------
Total Dipole Moment    :     -0.79117      -1.10260      -0.81474
                        -----------------------------------------
Magnitude (a.u.)       :      1.58287
Magnitude (Debye)      :      4.02333

Rotational constants in cm-1:     1.020762     0.277172     0.247319
Rotational constants in MHz : 30601.664035  8309.399682  7414.438136

                             ****ORCA TERMINATED NORMALLY****
TOTAL RUN TIME: 0 days 0 hours 0 minutes 8 seconds 314 msec
