                         Program Version 5.0.0 -  RELEASE  -
|  1> !PBE D3BJ RIJCOSX def2-SVPD def2/J TightSCF
|  2> *xyz 0 1
|  3> C         -7.33044       -2.67899       -3.20681
|  4> S         -6.01966       -2.92697       -4.41913
|  5> F         -5.64583       -1.58838       -4.91931
|  6> O         -4.88196       -3.50370       -3.66724
|  7> O         -6.54927       -3.80515       -5.42507
|  8> C         -7.46900       -1.24615       -2.71383
|  9> H         -7.11825       -3.37982       -2.39805
| 10> H         -8.24184       -3.00474       -3.70651
| 11> H         -7.67580       -0.60214       -3.54292
| 12> H         -6.55749       -0.94096       -2.24382
| 13> H         -8.27114       -1.18777       -2.00810
| 14> *
| 15> %MaxCore 64000
| 16>
| 17> %pal nprocs 4
| 18> end
| 19>
| 20> %scf
| 21>   MaxIter 150
| 22> end
| 23>
| 24>
| 25>                          ****END OF INPUT****

CARTESIAN COORDINATES (ANGSTROEM)
---------------------------------
  C     -7.330440   -2.678990   -3.206810
  S     -6.019660   -2.926970   -4.419130
  F     -5.645830   -1.588380   -4.919310
  O     -4.881960   -3.503700   -3.667240
  O     -6.549270   -3.805150   -5.425070
  C     -7.469000   -1.246150   -2.713830
  H     -7.118250   -3.379820   -2.398050
  H     -8.241840   -3.004740   -3.706510
  H     -7.675800   -0.602140   -3.542920
  H     -6.557490   -0.940960   -2.243820
  H     -8.271140   -1.187770   -2.008100

 Total Charge           Charge          ....    0
 Multiplicity           Mult            ....    1
 Number of Electrons    NEL             ....   58
 Basis Dimension        Dim             ....  176

ORBITAL ENERGIES
----------------

  NO   OCC          E(Eh)            E(eV)
   0   2.0000     -88.307106     -2402.9585
   1   2.0000     -24.372983      -663.2226
   2   2.0000     -18.780631      -511.0470
   3   2.0000     -18.766656      -510.6667
   4   2.0000      -9.960366      -271.0353
   5   2.0000      -9.924893      -270.0701
   6   2.0000      -7.912505      -215.3102
   7   2.0000      -5.943676      -161.7357
   8   2.0000      -5.937387      -161.5645
   9   2.0000      -5.935804      -161.5214
  10   2.0000      -1.243927       -33.8490
  11   2.0000      -1.021625       -27.7998
  12   2.0000      -0.922312       -25.0974
  13   2.0000      -0.754803       -20.5392
  14   2.0000      -0.657803       -17.8997
  15   2.0000      -0.614293       -16.7158
  16   2.0000      -0.528537       -14.3822
  17   2.0000      -0.504878       -13.7384
  18   2.0000      -0.486964       -13.2510
  19   2.0000      -0.451439       -12.2843
  20   2.0000      -0.424556       -11.5528
  21   2.0000      -0.406174       -11.0525
  22   2.0000      -0.397229       -10.8091
  23   2.0000      -0.373404       -10.1608
  24   2.0000      -0.356293        -9.6952
  25   2.0000      -0.341013        -9.2794
  26   2.0000      -0.294166        -8.0047
  27   2.0000      -0.279928        -7.6172
  28   2.0000      -0.265671        -7.2293
  29   0.0000      -0.037721        -1.0265
  30   0.0000       0.005962         0.1622
  31   0.0000       0.013519         0.3679
  32   0.0000       0.019983         0.5438
  33   0.0000       0.023428         0.6375

MULLIKEN ATOMIC CHARGES
-----------------------
   0 C :   -0.357971
   1 S :    1.337000
   2 F :   -0.393438
   3 O :   -0.646891
   4 O :   -0.595356
   5 C :    0.786801
   6 H :    0.007897
   7 H :    0.029230
   8 H :   -0.007680
   9 H :   -0.025717
  10 H :   -0.133874
Sum of atomic charges:    0.0000000

LOEWDIN ATOMIC CHARGES
----------------------
   0 C :   -0.085050
   1 S :    1.080513
   2 F :   -0.257046
   3 O :   -0.460809
   4 O :   -0.438305
   5 C :    0.123990
   6 H :    0.031176
   7 H :    0.019800
   8 H :   -0.008750
   9 H :   -0.001022
  10 H :   -0.004496

  Mayer bond orders larger than 0.100000
B(  0-C ,  1-S ) :   0.9418 B(  0-C ,  5-C ) :   1.3512 B(  0-C ,  6-H ) :   0.9572
B(  0-C ,  7-H ) :   0.9651 B(  0-C ,  8-H ) :   0.1919 B(  0-C ,  9-H ) :   0.1828
B(  0-C , 10-H ) :   0.2249 B(  1-S ,  2-F ) :   0.6859 B(  1-S ,  3-O ) :   1.5154
B(  1-S ,  4-O ) :   1.5734 B(  5-C ,  8-H ) :   0.7952 B(  5-C ,  9-H ) :   0.8040
B(  5-C , 10-H ) :   0.7735

Dispersion correction           -0.009161702
FINAL SINGLE POINT ENERGY      -726.770899401313

DIPOLE MOMENT
-------------
                                X             Y             Z
Electronic contribution:      5.66583      -1.76104      -6.38478
Nuclear contribution   :     -6.81251       2.87933       7.15058
                        -----------------------------------------
Total Dipole Moment    :     -1.14668       1.11829       0.76579
                        -----------------------------------------
Magnitude (a.u.)       :      1.77536
Magnitude (Debye)      :      4.51259

Rotational constants in cm-1:     0.152543     0.082494     0.078987
Rotational constants in MHz :  4573.135887  2473.116216  2367.980829

                             ****ORCA TERMINATED NORMALLY****
TOTAL RUN TIME: 0 days 0 hours 0 minutes 11 seconds 821 msec
