                         Program Version 5.0.0 -  RELEASE  -
|  1> !PBE D3BJ RIJCOSX def2-SVPD def2/J TightSCF
|  2> *xyz 0 1
|  3> C         -2.16038       -1.36949       -3.46710
|  4> C         -3.03011       -1.91086       -4.54107
|  5> C         -2.04772        0.14658       -3.51177
|  6> H         -3.47744       -2.79151       -4.25710
|  7> H         -2.53801       -2.01786       -5.43808
|  8> H         -3.89159       -1.37604       -4.71437
|  9> H         -1.18444       -1.84400       -3.56639
| 10> H         -2.59819       -1.70838       -2.52848
| 11> H         -1.61525        0.44478       -4.44395
| 12> H         -1.42718        0.48198       -2.70720
| 13> H         -3.02145        0.57958       -3.41560
| 14> *
| 15> %MaxCore 64000
| 16>
| 17> %pal nprocs 4
| 18> end
| 19>
| 20> %scf
| 21>   MaxIter 150
| 22> end
| 23>
| 24>
| 25>                          ****END OF INPUT****

CARTESIAN COORDINATES (ANGSTROEM)
---------------------------------
  C     -2.160380   -1.369490   -3.467100
  C     -3.030110   -1.910860   -4.541070
  C     -2.047720    0.146580   -3.511770
  H     -3.477440   -2.791510   -4.257100
  H     -2.538010   -2.017860   -5.438080
  H     -3.891590   -1.376040   -4.714370
  H     -1.184440   -1.844000   -3.566390
  H     -2.598190   -1.708380   -2.528480
  H     -1.615250    0.444780   -4.443950
  H     -1.427180    0.481980   -2.707200
  H     -3.021450    0.579580   -3.415600

 Total Charge           Charge          ....    0
 Multiplicity           Mult            ....    1
 Number of Electrons    NEL             ....   26
 Basis Dimension        Dim             ....  124

ORBITAL ENERGIES
----------------

  NO   OCC          E(Eh)            E(eV)
   0   2.0000      -9.884554      -268.9724
   1   2.0000      -9.874916      -268.7101
   2   2.0000      -9.858268      -268.2571
   3   2.0000      -0.712763       -19.3953
   4   2.0000      -0.619458       -16.8563
   5   2.0000      -0.524075       -14.2608
   6   2.0000      -0.420374       -11.4390
   7   2.0000      -0.392359       -10.6766
   8   2.0000      -0.357360        -9.7242
   9   2.0000      -0.348490        -9.4829
  10   2.0000      -0.298915        -8.1339
  11   2.0000      -0.287269        -7.8170
  12   2.0000      -0.285393        -7.7659
  13   0.0000       0.009052         0.2463
  14   0.0000       0.039797         1.0829
  15   0.0000       0.045751         1.2449
  16   0.0000       0.062857         1.7104
  17   0.0000       0.085104         2.3158

MULLIKEN ATOMIC CHARGES
-----------------------
   0 C :   -0.576193
   1 C :    0.929414
   2 C :    0.659625
   3 H :   -0.203397
   4 H :   -0.194457
   5 H :   -0.253983
   6 H :   -0.118131
   7 H :   -0.059451
   8 H :   -0.059411
   9 H :   -0.091761
  10 H :   -0.032257
Sum of atomic charges:   -0.0000000

LOEWDIN ATOMIC CHARGES
----------------------
   0 C :   -0.117990
   1 C :    0.110211
   2 C :    0.116931
   3 H :   -0.036483
   4 H :   -0.026774
   5 H :   -0.035140
   6 H :    0.022761
   7 H :    0.021020
   8 H :   -0.015434
   9 H :   -0.022306
  10 H :   -0.016798

  Mayer bond orders larger than 0.100000
B(  0-C ,  1-C ) :   1.3516 B(  0-C ,  2-C ) :   1.3061 B(  0-C ,  3-H ) :   0.2228
B(  0-C ,  4-H ) :   0.2416 B(  0-C ,  5-H ) :   0.1998 B(  0-C ,  6-H ) :   0.9357
B(  0-C ,  7-H ) :   0.9042 B(  0-C ,  8-H ) :   0.1952 B(  0-C ,  9-H ) :   0.2038
B(  0-C , 10-H ) :   0.1652 B(  1-C ,  3-H ) :   0.6398 B(  1-C ,  4-H ) :   0.7007
B(  1-C ,  5-H ) :   0.6681 B(  1-C ,  6-H ) :   0.1253 B(  1-C ,  7-H ) :   0.1195
B(  2-C ,  8-H ) :   0.8186 B(  2-C ,  9-H ) :   0.8078 B(  2-C , 10-H ) :   0.8283
B(  3-H ,  5-H ) :   0.2324 B(  4-H ,  5-H ) :   0.1234

Dispersion correction           -0.006124422
FINAL SINGLE POINT ENERGY      -118.861593606693

DIPOLE MOMENT
-------------
                                X             Y             Z
Electronic contribution:      0.31744      -0.13365       0.27618
Nuclear contribution   :     -0.34625       0.09603      -0.26933
                        -----------------------------------------
Total Dipole Moment    :     -0.02881      -0.03762       0.00685
                        -----------------------------------------
Magnitude (a.u.)       :      0.04788
Magnitude (Debye)      :      0.12169

Rotational constants in cm-1:     1.028617     0.291238     0.258956
Rotational constants in MHz : 30837.159054  8731.095379  7763.318586

                             ****ORCA TERMINATED NORMALLY****
TOTAL RUN TIME: 0 days 0 hours 0 minutes 8 seconds 486 msec
