                         Program Version 5.0.0 -  RELEASE  -
|  1> !PBE D3BJ RIJCOSX def2-SVPD def2/J TightSCF
|  2> *xyz 0 1
|  3> C         -7.33044       -2.67899       -3.20681
|  4> S         -6.01966       -2.92697       -4.41913
|  5> O         -5.64583       -1.58838       -4.91931
|  6> F         -4.88196       -3.50370       -3.66724
|  7> O         -6.54927       -3.80515       -5.42507
|  8> C         -7.46900       -1.24615       -2.71383
|  9> H         -7.11825       -3.37982       -2.39805
| 10> H         -8.24184       -3.00474       -3.70651
| 11> H         -7.67580       -0.60214       -3.54292
| 12> H         -6.55749       -0.94096       -2.24382
| 13> H         -8.27114       -1.18777       -2.00810
| 14> *
| 15> %MaxCore 64000
| 16>
| 17> %pal nprocs 4
| 18> end
| 19>
| 20> %scf
| 21>   MaxIter 150
| 22> end
| 23>
| 24>
| 25>                          ****END OF INPUT****

CARTESIAN COORDINATES (ANGSTROEM)
---------------------------------
  C     -7.330440   -2.678990   -3.206810
  S     -6.019660   -2.926970   -4.419130
  O     -5.645830   -1.588380   -4.919310
  F     -4.881960   -3.503700   -3.667240
  O     -6.549270   -3.805150   -5.425070
  C     -7.469000   -1.246150   -2.713830
  H     -7.118250   -3.379820   -2.398050
  H     -8.241840   -3.004740   -3.706510
  H     -7.675800   -0.602140   -3.542920
  H     -6.557490   -0.940960   -2.243820
  H     -8.271140   -1.187770   -2.008100

 Total Charge           Charge          ....    0
 Multiplicity           Mult            ....    1
 Number of Electrons    NEL             ....   58
 Basis Dimension        Dim             ....  176

ORBITAL ENERGIES
----------------

  NO   OCC          E(Eh)            E(eV)
   0   2.0000     -88.306988     -2402.9553
   1   2.0000     -24.370048      -663.1427
   2   2.0000     -18.780588      -511.0458
   3   2.0000     -18.769846      -510.7535
   4   2.0000      -9.960603      -271.0418
   5   2.0000      -9.916539      -269.8427
   6   2.0000      -7.912415      -215.3078
   7   2.0000      -5.943492      -161.7306
   8   2.0000      -5.937308      -161.5624
   9   2.0000      -5.935794      -161.5212
  10   2.0000      -1.240275       -33.7496
  11   2.0000      -1.022431       -27.8218
  12   2.0000      -0.925571       -25.1861
  13   2.0000      -0.750731       -20.4284
  14   2.0000      -0.658726       -17.9248
  15   2.0000      -0.607754       -16.5378
  16   2.0000      -0.519939       -14.1483
  17   2.0000      -0.500933       -13.6311
  18   2.0000      -0.494210       -13.4481
  19   2.0000      -0.446636       -12.1536
  20   2.0000      -0.431634       -11.7454
  21   2.0000      -0.407139       -11.0788
  22   2.0000      -0.386063       -10.5053
  23   2.0000      -0.363074        -9.8797
  24   2.0000      -0.354478        -9.6458
  25   2.0000      -0.339698        -9.2436
  26   2.0000      -0.293619        -7.9898
  27   2.0000      -0.285820        -7.7776
  28   2.0000      -0.268453        -7.3050
  29   0.0000      -0.029069        -0.7910
  30   0.0000      -0.009812        -0.2670
  31   0.0000       0.009631         0.2621
  32   0.0000       0.023021         0.6264
  33   0.0000       0.026210         0.7132

MULLIKEN ATOMIC CHARGES
-----------------------
   0 C :   -0.393576
   1 S :    1.358006
   2 O :   -0.661088
   3 F :   -0.382850
   4 O :   -0.601541
   5 C :    0.819125
   6 H :    0.003558
   7 H :    0.023584
   8 H :    0.011685
   9 H :   -0.034513
  10 H :   -0.142388
Sum of atomic charges:    0.0000000

LOEWDIN ATOMIC CHARGES
----------------------
   0 C :   -0.091234
   1 S :    1.083145
   2 O :   -0.451186
   3 F :   -0.262423
   4 O :   -0.438979
   5 C :    0.128686
   6 H :    0.018278
   7 H :    0.024157
   8 H :   -0.003478
   9 H :   -0.001778
  10 H :   -0.005189

  Mayer bond orders larger than 0.100000
B(  0-C ,  1-S ) :   0.9311 B(  0-C ,  5-C ) :   1.3748 B(  0-C ,  6-H ) :   0.9425
B(  0-C ,  7-H ) :   0.9701 B(  0-C ,  8-H ) :   0.2042 B(  0-C ,  9-H ) :   0.1983
B(  0-C , 10-H ) :   0.2232 B(  1-S ,  2-O ) :   1.5190 B(  1-S ,  3-F ) :   0.6728
B(  1-S ,  4-O ) :   1.5724 B(  2-O ,  4-O ) :   0.1022 B(  5-C ,  8-H ) :   0.7919
B(  5-C ,  9-H ) :   0.7943 B(  5-C , 10-H ) :   0.7667

Dispersion correction           -0.009206325
FINAL SINGLE POINT ENERGY      -726.774079992664

DIPOLE MOMENT
-------------
                                X             Y             Z
Electronic contribution:      6.97647      -4.95172      -4.31937
Nuclear contribution   :     -7.60849       4.87515       5.84588
                        -----------------------------------------
Total Dipole Moment    :     -0.63202      -0.07657       1.52651
                        -----------------------------------------
Magnitude (a.u.)       :      1.65395
Magnitude (Debye)      :      4.20400

Rotational constants in cm-1:     0.153704     0.080342     0.079431
Rotational constants in MHz :  4607.928650  2408.599360  2381.267225

                             ****ORCA TERMINATED NORMALLY****
TOTAL RUN TIME: 0 days 0 hours 0 minutes 10 seconds 896 msec
