                         Program Version 5.0.0 -  RELEASE  -
|  1> !PBE D3BJ RIJCOSX def2-SVPD def2/J TightSCF
|  2> *xyz 0 1
|  3> C         -7.33044       -2.67899       -3.20681
|  4> S         -6.01966       -2.92697       -4.41913
|  5> O         -5.64583       -1.58838       -4.91931
|  6> O         -4.88196       -3.50370       -3.66724
|  7> F         -6.54927       -3.80515       -5.42507
|  8> C         -7.46900       -1.24615       -2.71383
|  9> H         -7.11825       -3.37982       -2.39805
| 10> H         -8.24184       -3.00474       -3.70651
| 11> H         -7.67580       -0.60214       -3.54292
| 12> H         -6.55749       -0.94096       -2.24382
| 13> H         -8.27114       -1.18777       -2.00810
| 14> *
| 15> %MaxCore 64000
| 16>
| 17> %pal nprocs 4
| 18> end
| 19>
| 20> %scf
| 21>   MaxIter 150
| 22> end
| 23>
| 24>
| 25>                          ****END OF INPUT****

CARTESIAN COORDINATES (ANGSTROEM)
---------------------------------
  C     -7.330440   -2.678990   -3.206810
  S     -6.019660   -2.926970   -4.419130
  O     -5.645830   -1.588380   -4.919310
  O     -4.881960   -3.503700   -3.667240
  F     -6.549270   -3.805150   -5.425070
  C     -7.469000   -1.246150   -2.713830
  H     -7.118250   -3.379820   -2.398050
  H     -8.241840   -3.004740   -3.706510
  H     -7.675800   -0.602140   -3.542920
  H     -6.557490   -0.940960   -2.243820
  H     -8.271140   -1.187770   -2.008100

 Total Charge           Charge          ....    0
 Multiplicity           Mult            ....    1
 Number of Electrons    NEL             ....   58
 Basis Dimension        Dim             ....  176

ORBITAL ENERGIES
----------------

  NO   OCC          E(Eh)            E(eV)
   0   2.0000     -88.309555     -2403.0251
   1   2.0000     -24.391313      -663.7214
   2   2.0000     -18.770186      -510.7627
   3   2.0000     -18.767220      -510.6820
   4   2.0000      -9.961407      -271.0637
   5   2.0000      -9.916834      -269.8508
   6   2.0000      -7.914892      -215.3752
   7   2.0000      -5.946236      -161.8053
   8   2.0000      -5.939564      -161.6238
   9   2.0000      -5.938046      -161.5825
  10   2.0000      -1.276627       -34.7388
  11   2.0000      -1.007688       -27.4206
  12   2.0000      -0.908851       -24.7311
  13   2.0000      -0.751215       -20.4416
  14   2.0000      -0.672442       -18.2981
  15   2.0000      -0.614700       -16.7268
  16   2.0000      -0.530847       -14.4451
  17   2.0000      -0.526444       -14.3253
  18   2.0000      -0.500836       -13.6285
  19   2.0000      -0.448080       -12.1929
  20   2.0000      -0.432095       -11.7579
  21   2.0000      -0.399450       -10.8696
  22   2.0000      -0.383949       -10.4478
  23   2.0000      -0.365020        -9.9327
  24   2.0000      -0.348535        -9.4841
  25   2.0000      -0.333946        -9.0871
  26   2.0000      -0.285981        -7.7819
  27   2.0000      -0.277630        -7.5547
  28   2.0000      -0.255240        -6.9454
  29   0.0000      -0.028709        -0.7812
  30   0.0000      -0.011235        -0.3057
  31   0.0000       0.008190         0.2229
  32   0.0000       0.021491         0.5848
  33   0.0000       0.025663         0.6983

MULLIKEN ATOMIC CHARGES
-----------------------
   0 C :   -0.395576
   1 S :    1.357213
   2 O :   -0.650759
   3 O :   -0.639862
   4 F :   -0.351467
   5 C :    0.794730
   6 H :    0.004051
   7 H :    0.024798
   8 H :    0.012027
   9 H :   -0.013296
  10 H :   -0.141859
Sum of atomic charges:    0.0000000

LOEWDIN ATOMIC CHARGES
----------------------
   0 C :   -0.096788
   1 S :    1.085966
   2 O :   -0.452145
   3 O :   -0.459916
   4 F :   -0.243632
   5 C :    0.135261
   6 H :    0.023648
   7 H :    0.012110
   8 H :   -0.005333
   9 H :    0.004411
  10 H :   -0.003582

  Mayer bond orders larger than 0.100000
B(  0-C ,  1-S ) :   0.9234 B(  0-C ,  5-C ) :   1.3888 B(  0-C ,  6-H ) :   0.9677
B(  0-C ,  7-H ) :   0.9339 B(  0-C ,  8-H ) :   0.2076 B(  0-C ,  9-H ) :   0.1904
B(  0-C , 10-H ) :   0.2232 B(  1-S ,  2-O ) :   1.5125 B(  1-S ,  3-O ) :   1.5156
B(  1-S ,  4-F ) :   0.7340 B(  5-C ,  8-H ) :   0.7867 B(  5-C ,  9-H ) :   0.7996
B(  5-C , 10-H ) :   0.7682

Dispersion correction           -0.009220362
FINAL SINGLE POINT ENERGY      -726.755855852579

DIPOLE MOMENT
-------------
                                X             Y             Z
Electronic contribution:      4.19442      -5.43548      -7.25146
Nuclear contribution   :     -5.87110       5.18927       7.67759
                        -----------------------------------------
Total Dipole Moment    :     -1.67668      -0.24620       0.42613
                        -----------------------------------------
Magnitude (a.u.)       :      1.74742
Magnitude (Debye)      :      4.44158

Rotational constants in cm-1:     0.155988     0.080452     0.078187
Rotational constants in MHz :  4676.405251  2411.902056  2343.983816

                             ****ORCA TERMINATED NORMALLY****
TOTAL RUN TIME: 0 days 0 hours 0 minutes 10 seconds 742 msec
