                         Program Version 5.0.0 -  RELEASE  -
|  1> !PBE D3BJ RIJCOSX def2-SVPD def2/J TightSCF xyzfile
|  2>
|  3> *xyzfile 0 1 D3.xyz
|  4>
|  5> %MaxCore 64000
|  6>
|  7> %pal nprocs 4
|  8> end
|  9>
| 10> %scf
| 11>   MaxIter 150
| 12> end
| 13>
| 14>
| 15>                          ****END OF INPUT****

CARTESIAN COORDINATES (ANGSTROEM)
---------------------------------
  C     -2.160376   -1.369486   -3.467104
  C     -3.030108   -1.910857   -4.541074
  C     -2.047717    0.146583   -3.511774
  C     -7.330440   -2.678991   -3.206811
  S     -6.019659   -2.926965   -4.419128
  H     -3.477443   -2.791513   -4.257096
  H     -2.538013   -2.017860   -5.438075
  H     -3.891589   -1.376039   -4.714365
  O     -5.645830   -1.588384   -4.919307
  O     -4.881961   -3.503697   -3.667235
  H     -1.184438   -1.843997   -3.566393
  H     -2.598195   -1.708376   -2.528477
  F     -6.549267   -3.805150   -5.425071
  C     -3.328755    0.875037   -3.103669
  H     -1.740034    0.452343   -4.517126
  H     -1.232611    0.434938   -2.842208
  C     -3.628487    0.771601   -1.609363
  H     -4.175106    0.490791   -3.682203
  H     -3.237812    1.928663   -3.381480
  C     -4.975718    1.361432   -1.190644
  H     -2.830700    1.276234   -1.054766
  H     -3.594312   -0.275838   -1.294603
  C     -6.184720    0.784347   -1.926464
  H     -4.956292    2.445725   -1.342200
  H     -5.097256    1.205252   -0.114136
  C     -6.286921   -0.735882   -1.893531
  H     -6.163994    1.100199   -2.974250
  H     -7.094530    1.223459   -1.504509
  C     -7.468999   -1.246153   -2.713833
  H     -6.360641   -1.090347   -0.859176
  H     -5.369848   -1.171853   -2.295982
  H     -7.601914   -0.601349   -3.585329
  H     -8.389791   -1.173436   -2.126922
  H     -7.118254   -3.379818   -2.398055
  H     -8.241838   -3.004745   -3.706513

 Total Charge           Charge          ....    0
 Multiplicity           Mult            ....    1
 Number of Electrons    NEL             ....  122
 Basis Dimension        Dim             ....  464

ORBITAL ENERGIES
----------------

  NO   OCC          E(Eh)            E(eV)
   0   2.0000     -88.319750     -2403.3026
   1   2.0000     -24.398336      -663.9125
   2   2.0000     -18.779368      -511.0126
   3   2.0000     -18.776229      -510.9272
   4   2.0000      -9.961213      -271.0584
   5   2.0000      -9.924246      -270.0525
   6   2.0000      -9.899325      -269.3743
   7   2.0000      -9.891726      -269.1676
   8   2.0000      -9.886005      -269.0119
   9   2.0000      -9.878375      -268.8043
  10   2.0000      -9.872850      -268.6539
  11   2.0000      -9.866885      -268.4916
  12   2.0000      -9.856632      -268.2126
  13   2.0000      -9.803940      -266.7788
  14   2.0000      -7.923471      -215.6086
  15   2.0000      -5.954971      -162.0430
  16   2.0000      -5.948299      -161.8614
  17   2.0000      -5.946639      -161.8163
  18   2.0000      -1.282365       -34.8949
  19   2.0000      -1.020293       -27.7636
  20   2.0000      -0.921454       -25.0740
  21   2.0000      -0.764328       -20.7984
  22   2.0000      -0.729949       -19.8629
  23   2.0000      -0.702897       -19.1268
  24   2.0000      -0.685687       -18.6585
  25   2.0000      -0.655157       -17.8277
  26   2.0000      -0.629328       -17.1249
  27   2.0000      -0.597276       -16.2527
  28   2.0000      -0.564144       -15.3511
  29   2.0000      -0.545014       -14.8306
  30   2.0000      -0.535155       -14.5623
  31   2.0000      -0.527934       -14.3658
  32   2.0000      -0.507745       -13.8164
  33   2.0000      -0.500322       -13.6145
  34   2.0000      -0.473726       -12.8907
  35   2.0000      -0.449689       -12.2367
  36   2.0000      -0.440106       -11.9759
  37   2.0000      -0.423425       -11.5220
  38   2.0000      -0.420398       -11.4396
  39   2.0000      -0.412048       -11.2124
  40   2.0000      -0.398371       -10.8402
  41   2.0000      -0.388286       -10.5658
  42   2.0000      -0.376670       -10.2497
  43   2.0000      -0.372130       -10.1262
  44   2.0000      -0.358580        -9.7575
  45   2.0000      -0.344513        -9.3747
  46   2.0000      -0.338272        -9.2048
  47   2.0000      -0.335380        -9.1262
  48   2.0000      -0.323526        -8.8036
  49   2.0000      -0.311809        -8.4848
  50   2.0000      -0.306202        -8.3322
  51   2.0000      -0.297503        -8.0955
  52   2.0000      -0.292369        -7.9558
  53   2.0000      -0.289283        -7.8718
  54   2.0000      -0.281517        -7.6605
  55   2.0000      -0.273441        -7.4407
  56   2.0000      -0.269464        -7.3325
  57   2.0000      -0.264987        -7.2107
  58   2.0000      -0.251499        -6.8436
  59   2.0000      -0.241146        -6.5619
  60   2.0000      -0.227009        -6.1772
  61   0.0000      -0.032190        -0.8759
  62   0.0000      -0.015642        -0.4256
  63   0.0000       0.004622         0.1258
  64   0.0000       0.009023         0.2455
  65   0.0000       0.011537         0.3139

MULLIKEN ATOMIC CHARGES
-----------------------
   0 C :    0.032710
   1 C :    1.918971
   2 C :    0.578498
   3 C :    0.408296
   4 S :    1.451942
   5 H :   -0.504862
   6 H :   -0.274465
   7 H :   -0.933164
   8 O :   -0.686037
   9 O :   -0.713683
  10 H :   -0.310374
  11 H :   -0.001822
  12 F :   -0.506450
  13 C :    0.396432
  14 H :   -0.091224
  15 H :   -0.114281
  16 C :   -0.163913
  17 H :   -0.553816
  18 H :   -0.066435
  19 C :    0.700143
  20 H :   -0.368165
  21 H :    0.149793
  22 C :   -0.129561
  23 H :   -0.030287
  24 H :    0.002292
  25 C :    0.268662
  26 H :    0.233682
  27 H :   -0.443849
  28 C :    0.275157
  29 H :   -0.054992
  30 H :   -0.321792
  31 H :    0.137560
  32 H :   -0.235657
  33 H :   -0.016158
  34 H :   -0.033150
Sum of atomic charges:    0.0000000

LOEWDIN ATOMIC CHARGES
----------------------
   0 C :   -0.043902
   1 C :    0.124799
   2 C :   -0.030754
   3 C :   -0.043291
   4 S :    1.146415
   5 H :   -0.121306
   6 H :   -0.015609
   7 H :   -0.113291
   8 O :   -0.427933
   9 O :   -0.431796
  10 H :    0.021192
  11 H :    0.010917
  12 F :   -0.230687
  13 C :   -0.021473
  14 H :    0.025623
  15 H :    0.015935
  16 C :   -0.037278
  17 H :   -0.000326
  18 H :    0.026095
  19 C :   -0.032378
  20 H :    0.024497
  21 H :    0.006033
  22 C :   -0.037419
  23 H :    0.023423
  24 H :    0.021774
  25 C :   -0.022063
  26 H :    0.021377
  27 H :    0.025039
  28 C :   -0.035459
  29 H :    0.039262
  30 H :    0.004050
  31 H :    0.026253
  32 H :    0.038520
  33 H :    0.028986
  34 H :    0.014777

  Mayer bond orders larger than 0.100000
B(  0-C ,  1-C ) :   1.0076 B(  0-C ,  2-C ) :   1.2230 B(  0-C ,  5-H ) :   0.4254
B(  0-C ,  6-H ) :   0.1375 B(  0-C ,  7-H ) :   0.4147 B(  0-C , 10-H ) :   0.8739
B(  0-C , 11-H ) :   0.7288 B(  0-C , 13-C ) :   0.1227 B(  0-C , 14-H ) :   0.1590
B(  0-C , 15-H ) :   0.1942 B(  1-C ,  5-H ) :  -0.2224 B(  1-C ,  6-H ) :   0.5887
B(  1-C ,  7-H ) :  -0.5295 B(  1-C , 11-H ) :   0.2491 B(  2-C ,  7-H ) :  -0.1032
B(  2-C , 11-H ) :   0.1173 B(  2-C , 13-C ) :   1.2000 B(  2-C , 14-H ) :   0.6623
B(  2-C , 15-H ) :   0.6968 B(  2-C , 17-H ) :   0.1740 B(  3-C ,  4-S ) :   0.8947
B(  3-C , 12-F ) :   0.1246 B(  3-C , 28-C ) :   1.2894 B(  3-C , 31-H ) :   0.1051
B(  3-C , 33-H ) :   0.8868 B(  3-C , 34-H ) :   0.6945 B(  4-S ,  8-O ) :   1.3877
B(  4-S ,  9-O ) :   1.3962 B(  4-S , 12-F ) :   0.5481 B(  5-H ,  6-H ) :  -0.1812
B(  5-H ,  7-H ) :   0.9417 B(  5-H ,  9-O ) :   0.1724 B(  6-H ,  7-H ) :   0.1651
B(  7-H ,  9-O ) :   0.1482 B(  7-H , 10-H ) :   0.1059 B(  7-H , 17-H ) :   0.1855
B(  8-O ,  9-O ) :   0.1227 B( 10-H , 11-H ) :  -0.1118 B( 11-H , 21-H ) :   0.1187
B( 13-C , 14-H ) :   0.2138 B( 13-C , 15-H ) :   0.1713 B( 13-C , 16-C ) :   1.1844
B( 13-C , 17-H ) :   0.7331 B( 13-C , 18-H ) :   0.7074 B( 13-C , 20-H ) :   0.2055
B( 13-C , 21-H ) :   0.1091 B( 14-H , 15-H ) :  -0.1595 B( 16-C , 17-H ) :   0.2216
B( 16-C , 18-H ) :   0.2084 B( 16-C , 19-C ) :   1.1870 B( 16-C , 20-H ) :   0.9738
B( 16-C , 21-H ) :   0.8260 B( 16-C , 22-C ) :   0.1769 B( 16-C , 23-H ) :   0.1647
B( 16-C , 24-H ) :   0.2825 B( 17-H , 26-H ) :   0.1063 B( 19-C , 22-C ) :   1.1509
B( 19-C , 23-H ) :   0.6427 B( 19-C , 24-H ) :   0.6423 B( 22-C , 23-H ) :   0.2495
B( 22-C , 24-H ) :   0.1281 B( 22-C , 25-C ) :   1.2816 B( 22-C , 26-H ) :   0.7504
B( 22-C , 27-H ) :   1.0196 B( 22-C , 28-C ) :   0.1511 B( 22-C , 29-H ) :   0.1170
B( 22-C , 30-H ) :   0.1332 B( 23-H , 24-H ) :  -0.1149 B( 25-C , 26-H ) :   0.1189
B( 25-C , 27-H ) :   0.2005 B( 25-C , 28-C ) :   1.1595 B( 25-C , 29-H ) :   0.6905
B( 25-C , 30-H ) :   0.8480 B( 25-C , 32-H ) :   0.2030 B( 28-C , 29-H ) :   0.1395
B( 28-C , 31-H ) :   0.8138 B( 28-C , 32-H ) :   0.7794 B( 28-C , 34-H ) :   0.2457
B( 29-H , 30-H ) :   0.2367

Dispersion correction           -0.041394233
FINAL SINGLE POINT ENERGY     -1040.579804044292

DIPOLE MOMENT
-------------
                                X             Y             Z
Electronic contribution:    -12.57328     -20.23423     -14.29379
Nuclear contribution   :     10.70731      19.84772      14.63855
                        -----------------------------------------
Total Dipole Moment    :     -1.86597      -0.38651       0.34477
                        -----------------------------------------
Magnitude (a.u.)       :      1.93652
Magnitude (Debye)      :      4.92223

Rotational constants in cm-1:     0.026014     0.014812     0.010477
Rotational constants in MHz :   779.874765   444.063394   314.081855

                             ****ORCA TERMINATED NORMALLY****
TOTAL RUN TIME: 0 days 0 hours 0 minutes 51 seconds 36 msec
