                         Program Version 5.0.0 -  RELEASE  -
|  1> !M062X D3Zero RIJCOSX def2-TZVPD def2/J TightSCF
|  2> *xyz -1 1
|  3> C          1.44442        5.26658       -0.97546
|  4> O          1.56525        4.23349       -1.86489
|  5> C          0.14812        5.21087       -0.13809
|  6> H          1.47425        6.26464       -1.47692
|  7> H          2.28962        5.30327       -0.26445
|  8> H         -0.69779        5.17417       -0.79230
|  9> H          0.08430        6.08276        0.47887
| 10> H          0.15965        4.33708        0.47938
| 11> *
| 12> %MaxCore 64000
| 13>
| 14> %pal nprocs 4
| 15> end
| 16>
| 17> %scf
| 18>   MaxIter 150
| 19> end
| 20>
| 21>
| 22>                          ****END OF INPUT****

CARTESIAN COORDINATES (ANGSTROEM)
---------------------------------
  C      1.444420    5.266580   -0.975460
  O      1.565250    4.233490   -1.864890
  C      0.148120    5.210870   -0.138090
  H      1.474250    6.264640   -1.476920
  H      2.289620    5.303270   -0.264450
  H     -0.697790    5.174170   -0.792300
  H      0.084300    6.082760    0.478870
  H      0.159650    4.337080    0.479380

 Total Charge           Charge          ....   -1
 Multiplicity           Mult            ....    1
 Number of Electrons    NEL             ....   26
 Basis Dimension        Dim             ....  159

ORBITAL ENERGIES
----------------

  NO   OCC          E(Eh)            E(eV)
   0   2.0000     -19.288522      -524.8674
   1   2.0000     -10.346277      -281.5365
   2   2.0000     -10.322585      -280.8918
   3   2.0000      -0.792398       -21.5622
   4   2.0000      -0.619487       -16.8571
   5   2.0000      -0.455158       -12.3855
   6   2.0000      -0.316682        -8.6174
   7   2.0000      -0.294160        -8.0045
   8   2.0000      -0.234976        -6.3940
   9   2.0000      -0.219343        -5.9686
  10   2.0000      -0.178209        -4.8493
  11   2.0000      -0.035069        -0.9543
  12   2.0000      -0.032984        -0.8975
  13   0.0000       0.168043         4.5727
  14   0.0000       0.187151         5.0926
  15   0.0000       0.218688         5.9508
  16   0.0000       0.219303         5.9675
  17   0.0000       0.240183         6.5357

MULLIKEN ATOMIC CHARGES
-----------------------
   0 C :   -0.277513
   1 O :   -0.975342
   2 C :   -0.991385
   3 H :    0.218767
   4 H :    0.219347
   5 H :    0.248707
   6 H :    0.304586
   7 H :    0.252834
Sum of atomic charges:   -1.0000000

LOEWDIN ATOMIC CHARGES
----------------------
   0 C :   -0.623887
   1 O :   -0.433550
   2 C :   -0.171497
   3 H :    0.061961
   4 H :    0.057935
   5 H :    0.040539
   6 H :    0.028937
   7 H :    0.039562

  Mayer bond orders larger than 0.100000
B(  0-C ,  1-O ) :   0.8008 B(  0-C ,  2-C ) :   0.6932 B(  0-C ,  3-H ) :   1.0444
B(  0-C ,  4-H ) :   1.0506 B(  1-O ,  2-C ) :   0.3533 B(  2-C ,  5-H ) :   1.0087
B(  2-C ,  6-H ) :   0.9792 B(  2-C ,  7-H ) :   1.0059

Dispersion correction           -0.000015293
FINAL SINGLE POINT ENERGY      -154.409491007996

DIPOLE MOMENT
-------------
                                X             Y             Z
Electronic contribution:      1.17877      -1.58302      -2.02308
Nuclear contribution   :     -1.83256       2.47114       3.17273
                        -----------------------------------------
Total Dipole Moment    :     -0.65378       0.88812       1.14966
                        -----------------------------------------
Magnitude (a.u.)       :      1.59308
Magnitude (Debye)      :      4.04929

Rotational constants in cm-1:     1.286062     0.322579     0.284728
Rotational constants in MHz : 38555.180127  9670.683110  8535.939140

                             ****ORCA TERMINATED NORMALLY****
TOTAL RUN TIME: 0 days 0 hours 0 minutes 17 seconds 318 msec
