                         Program Version 5.0.0 -  RELEASE  -
|  1> !M062X D3Zero RIJCOSX def2-TZVPD def2/J TightSCF
|  2> *xyz 1 1
|  3> C         -0.70169        4.07250       -4.00392
|  4> N          0.68053        4.61482       -4.04800
|  5> H          0.69993        5.58489       -4.38827
|  6> H          1.27804        4.05598       -4.66824
|  7> H          1.08573        4.53358       -3.10652
|  8> C         -1.70347        5.09320       -3.47740
|  9> H         -0.99590        3.74039       -5.00065
| 10> H         -0.64358        3.20191       -3.35153
| 11> H         -1.73704        5.93384       -4.13853
| 12> H         -1.40338        5.41759       -2.50291
| 13> H         -2.67335        4.64479       -3.42108
| 14> *
| 15> %MaxCore 64000
| 16>
| 17> %pal nprocs 4
| 18> end
| 19>
| 20> %scf
| 21>   MaxIter 150
| 22> end
| 23>
| 24>
| 25>                          ****END OF INPUT****

CARTESIAN COORDINATES (ANGSTROEM)
---------------------------------
  C     -0.701690    4.072500   -4.003920
  N      0.680530    4.614820   -4.048000
  H      0.699930    5.584890   -4.388270
  H      1.278040    4.055980   -4.668240
  H      1.085730    4.533580   -3.106520
  C     -1.703470    5.093200   -3.477400
  H     -0.995900    3.740390   -5.000650
  H     -0.643580    3.201910   -3.351530
  H     -1.737040    5.933840   -4.138530
  H     -1.403380    5.417590   -2.502910
  H     -2.673350    4.644790   -3.421080

 Total Charge           Charge          ....    1
 Multiplicity           Mult            ....    1
 Number of Electrons    NEL             ....   26
 Basis Dimension        Dim             ....  183

ORBITAL ENERGIES
----------------

  NO   OCC          E(Eh)            E(eV)
   0   2.0000     -15.081602      -410.3913
   1   2.0000     -10.790226      -293.6170
   2   2.0000     -10.709334      -291.4158
   3   2.0000      -1.326283       -36.0900
   4   2.0000      -1.061872       -28.8950
   5   2.0000      -0.931130       -25.3373
   6   2.0000      -0.879787       -23.9402
   7   2.0000      -0.861255       -23.4359
   8   2.0000      -0.766066       -20.8457
   9   2.0000      -0.711909       -19.3720
  10   2.0000      -0.647487       -17.6190
  11   2.0000      -0.630672       -17.1615
  12   2.0000      -0.614954       -16.7338
  13   0.0000      -0.177505        -4.8302
  14   0.0000      -0.121419        -3.3040
  15   0.0000      -0.120996        -3.2925
  16   0.0000      -0.113985        -3.1017
  17   0.0000      -0.082861        -2.2548

MULLIKEN ATOMIC CHARGES
-----------------------
   0 C :   -0.290729
   1 N :   -0.476186
   2 H :    0.384742
   3 H :    0.399434
   4 H :    0.405118
   5 C :   -1.185559
   6 H :    0.331259
   7 H :    0.336102
   8 H :    0.383003
   9 H :    0.381093
  10 H :    0.331724
Sum of atomic charges:    1.0000000

LOEWDIN ATOMIC CHARGES
----------------------
   0 C :   -0.203120
   1 N :    0.175957
   2 H :    0.182742
   3 H :    0.181904
   4 H :    0.184608
   5 C :   -0.055478
   6 H :    0.136928
   7 H :    0.135814
   8 H :    0.083882
   9 H :    0.083707
  10 H :    0.093056

  Mayer bond orders larger than 0.100000
B(  0-C ,  1-N ) :   0.8296 B(  0-C ,  5-C ) :   0.5290 B(  0-C ,  6-H ) :   0.9213
B(  0-C ,  7-H ) :   0.9210 B(  1-N ,  2-H ) :   0.8435 B(  1-N ,  3-H ) :   0.8432
B(  1-N ,  4-H ) :   0.8369 B(  5-C ,  8-H ) :   0.9022 B(  5-C ,  9-H ) :   0.9218
B(  5-C , 10-H ) :   0.9795

Dispersion correction           -0.000054032
FINAL SINGLE POINT ENERGY      -135.507945588454

DIPOLE MOMENT
-------------
                                X             Y             Z
Electronic contribution:      1.74161      -0.32941      -0.45128
Nuclear contribution   :     -0.23930       0.27560       0.19485
                        -----------------------------------------
Total Dipole Moment    :      1.50231      -0.05380      -0.25643
                        -----------------------------------------
Magnitude (a.u.)       :      1.52499
Magnitude (Debye)      :      3.87621

Rotational constants in cm-1:     1.018556     0.279088     0.248454
Rotational constants in MHz : 30535.536069  8366.847891  7448.451392

                             ****ORCA TERMINATED NORMALLY****
TOTAL RUN TIME: 0 days 0 hours 0 minutes 21 seconds 182 msec
