                         Program Version 5.0.0 -  RELEASE  -
|  1> !M062X D3Zero RIJCOSX def2-TZVPD def2/J TightSCF xyzfile
|  2>
|  3> *xyzfile 0 1 B.xyz
|  4>
|  5> %MaxCore 64000
|  6>
|  7> %pal nprocs 4
|  8> end
|  9>
| 10> %scf
| 11>   MaxIter 150
| 12> end
| 13>
| 14>
| 15>                          ****END OF INPUT****

CARTESIAN COORDINATES (ANGSTROEM)
---------------------------------
  C     -0.701686    4.072499   -4.003920
  N      0.680528    4.614820   -4.048005
  C      1.444422    5.266576   -0.975463
  O      1.565248    4.233493   -1.864885
  H      0.699926    5.584890   -4.388272
  H      1.278044    4.055977   -4.668235
  H      1.085729    4.533581   -3.106524
  C     -1.703475    5.093197   -3.477396
  H     -0.995895    3.740394   -5.000654
  H     -0.643580    3.201910   -3.351533
  C     -1.313997    5.785995   -2.169271
  H     -1.877057    5.850103   -4.251154
  H     -2.653264    4.564475   -3.354796
  H     -2.097137    6.509395   -1.929558
  H     -0.416875    6.387594   -2.339097
  C     -1.073895    4.844728   -0.979904
  H     -1.968893    4.809608   -0.352568
  C      0.148120    5.210874   -0.138092
  H     -0.909754    3.827531   -1.338975
  H      1.474250    6.264638   -1.476917
  H      2.289622    5.303267   -0.264450
  H      0.261827    4.450942    0.640711
  H     -0.002516    6.171031    0.371483

 Total Charge           Charge          ....    0
 Multiplicity           Mult            ....    1
 Number of Electrons    NEL             ....   66
 Basis Dimension        Dim             ....  434

ORBITAL ENERGIES
----------------

  NO   OCC          E(Eh)            E(eV)
   0   2.0000     -19.494084      -530.4610
   1   2.0000     -14.824981      -403.4083
   2   2.0000     -10.601904      -288.4925
   3   2.0000     -10.555554      -287.2312
   4   2.0000     -10.530647      -286.5535
   5   2.0000     -10.519210      -286.2422
   6   2.0000     -10.508812      -285.9593
   7   2.0000     -10.490296      -285.4555
   8   2.0000      -1.098026       -29.8788
   9   2.0000      -1.009445       -27.4684
  10   2.0000      -0.909352       -24.7447
  11   2.0000      -0.843317       -22.9478
  12   2.0000      -0.786429       -21.3998
  13   2.0000      -0.723556       -19.6890
  14   2.0000      -0.672507       -18.2999
  15   2.0000      -0.646543       -17.5933
  16   2.0000      -0.643571       -17.5124
  17   2.0000      -0.600385       -16.3373
  18   2.0000      -0.559344       -15.2205
  19   2.0000      -0.534624       -14.5479
  20   2.0000      -0.525621       -14.3029
  21   2.0000      -0.486059       -13.2263
  22   2.0000      -0.474084       -12.9005
  23   2.0000      -0.459149       -12.4941
  24   2.0000      -0.440086       -11.9754
  25   2.0000      -0.419165       -11.4060
  26   2.0000      -0.414178       -11.2704
  27   2.0000      -0.394926       -10.7465
  28   2.0000      -0.370347       -10.0777
  29   2.0000      -0.360852        -9.8193
  30   2.0000      -0.354676        -9.6512
  31   2.0000      -0.248252        -6.7553
  32   2.0000      -0.244800        -6.6613
  33   0.0000      -0.009502        -0.2586
  34   0.0000       0.017344         0.4720
  35   0.0000       0.021292         0.5794
  36   0.0000       0.036831         1.0022
  37   0.0000       0.052548         1.4299

MULLIKEN ATOMIC CHARGES
-----------------------
   0 C :   -0.616769
   1 N :   -0.472533
   2 C :   -0.403813
   3 O :   -1.042847
   4 H :    0.373758
   5 H :    0.383332
   6 H :    0.368719
   7 C :   -0.700051
   8 H :    0.347092
   9 H :    0.323463
  10 C :   -0.684862
  11 H :    0.352387
  12 H :    0.373061
  13 H :    0.377396
  14 H :    0.245715
  15 C :   -0.276680
  16 H :    0.402220
  17 C :   -0.849084
  18 H :    0.167878
  19 H :    0.254928
  20 H :    0.323415
  21 H :    0.399008
  22 H :    0.354267
Sum of atomic charges:   -0.0000000

LOEWDIN ATOMIC CHARGES
----------------------
   0 C :   -0.177102
   1 N :    0.135172
   2 C :   -0.422279
   3 O :   -0.290961
   4 H :    0.163944
   5 H :    0.163444
   6 H :   -0.038432
   7 C :   -0.197356
   8 H :    0.118362
   9 H :    0.124191
  10 C :   -0.207396
  11 H :    0.111956
  12 H :    0.120494
  13 H :    0.112744
  14 H :    0.093389
  15 C :   -0.215023
  16 H :    0.107827
  17 C :   -0.204633
  18 H :    0.096149
  19 H :    0.092681
  20 H :    0.099366
  21 H :    0.105829
  22 H :    0.107634

  Mayer bond orders larger than 0.100000
B(  0-C ,  1-N ) :   0.8528 B(  0-C ,  7-C ) :   0.6020 B(  0-C ,  8-H ) :   0.9517
B(  0-C ,  9-H ) :   0.9770 B(  1-N ,  3-O ) :  -0.1449 B(  1-N ,  4-H ) :   0.8579
B(  1-N ,  5-H ) :   0.8728 B(  1-N ,  6-H ) :   0.6019 B(  2-C ,  3-O ) :   0.7015
B(  2-C , 17-C ) :   0.7106 B(  2-C , 19-H ) :   1.0618 B(  2-C , 20-H ) :   0.9780
B(  3-O ,  6-H ) :   0.2362 B(  3-O , 10-C ) :   0.1137 B(  3-O , 15-C ) :  -0.1873
B(  3-O , 17-C ) :   0.1284 B(  7-C , 10-C ) :   0.6267 B(  7-C , 11-H ) :   0.9667
B(  7-C , 12-H ) :   0.9479 B( 10-C , 13-H ) :   0.9383 B( 10-C , 14-H ) :   1.0232
B( 10-C , 15-C ) :   0.5018 B( 10-C , 17-C ) :   0.1983 B( 15-C , 16-H ) :   0.8936
B( 15-C , 17-C ) :   0.6833 B( 15-C , 18-H ) :   1.0393 B( 17-C , 21-H ) :   0.9100
B( 17-C , 22-H ) :   0.9729

Dispersion correction           -0.000753177
FINAL SINGLE POINT ENERGY      -367.559646084343

DIPOLE MOMENT
-------------
                                X             Y             Z
Electronic contribution:      1.99355      -1.53106      -1.27550
Nuclear contribution   :     -3.16446       1.92310      -1.11926
                        -----------------------------------------
Total Dipole Moment    :     -1.17091       0.39204      -2.39476
                        -----------------------------------------
Magnitude (a.u.)       :      2.69436
Magnitude (Debye)      :      6.84852

Rotational constants in cm-1:     0.085554     0.055600     0.038553
Rotational constants in MHz :  2564.854379  1666.836664  1155.798427

                             ****ORCA TERMINATED NORMALLY****
TOTAL RUN TIME: 0 days 0 hours 2 minutes 20 seconds 807 msec
