                         Program Version 5.0.0 -  RELEASE  -
|  1> !M062X D3Zero RIJCOSX def2-TZVPD def2/J TightSCF
|  2> *xyz 0 1
|  3> C          1.44442        5.26658       -0.97546
|  4> F          1.56525        4.23349       -1.86489
|  5> C          0.14812        5.21087       -0.13809
|  6> H          1.47425        6.26464       -1.47692
|  7> H          2.28962        5.30327       -0.26445
|  8> H         -0.69779        5.17417       -0.79230
|  9> H          0.08430        6.08276        0.47887
| 10> H          0.15965        4.33708        0.47938
| 11> *
| 12> %MaxCore 64000
| 13>
| 14> %pal nprocs 4
| 15> end
| 16>
| 17> %scf
| 18>   MaxIter 150
| 19> end
| 20>
| 21>
| 22>                          ****END OF INPUT****

CARTESIAN COORDINATES (ANGSTROEM)
---------------------------------
  C      1.444420    5.266580   -0.975460
  F      1.565250    4.233490   -1.864890
  C      0.148120    5.210870   -0.138090
  H      1.474250    6.264640   -1.476920
  H      2.289620    5.303270   -0.264450
  H     -0.697790    5.174170   -0.792300
  H      0.084300    6.082760    0.478870
  H      0.159650    4.337080    0.479380

 Total Charge           Charge          ....    0
 Multiplicity           Mult            ....    1
 Number of Electrons    NEL             ....   26
 Basis Dimension        Dim             ....  159

ORBITAL ENERGIES
----------------

  NO   OCC          E(Eh)            E(eV)
   0   2.0000     -25.233557      -686.6400
   1   2.0000     -10.615363      -288.8587
   2   2.0000     -10.529572      -286.5242
   3   2.0000      -1.343621       -36.5618
   4   2.0000      -0.862206       -23.4618
   5   2.0000      -0.723912       -19.6987
   6   2.0000      -0.590624       -16.0717
   7   2.0000      -0.581443       -15.8219
   8   2.0000      -0.546548       -14.8723
   9   2.0000      -0.483205       -13.1487
  10   2.0000      -0.469082       -12.7644
  11   2.0000      -0.405843       -11.0435
  12   2.0000      -0.399372       -10.8675
  13   0.0000       0.019495         0.5305
  14   0.0000       0.042947         1.1686
  15   0.0000       0.065277         1.7763
  16   0.0000       0.066366         1.8059
  17   0.0000       0.094437         2.5698

MULLIKEN ATOMIC CHARGES
-----------------------
   0 C :   -0.108066
   1 F :   -0.311395
   2 C :   -0.979768
   3 H :    0.249504
   4 H :    0.250717
   5 H :    0.295379
   6 H :    0.316492
   7 H :    0.287136
Sum of atomic charges:    0.0000000

LOEWDIN ATOMIC CHARGES
----------------------
   0 C :   -0.283064
   1 F :   -0.055719
   2 C :   -0.083894
   3 H :    0.115861
   4 H :    0.110270
   5 H :    0.065328
   6 H :    0.066792
   7 H :    0.064426

  Mayer bond orders larger than 0.100000
B(  0-C ,  1-F ) :   0.6956 B(  0-C ,  2-C ) :   0.6955 B(  0-C ,  3-H ) :   0.9806
B(  0-C ,  4-H ) :   0.9823 B(  1-F ,  2-C ) :   0.1129 B(  2-C ,  5-H ) :   0.9529
B(  2-C ,  6-H ) :   0.9508 B(  2-C ,  7-H ) :   0.9604

Dispersion correction           -0.000019424
FINAL SINGLE POINT ENERGY      -179.051886535258

DIPOLE MOMENT
-------------
                                X             Y             Z
Electronic contribution:      2.29937      -2.73563      -3.69358
Nuclear contribution   :     -2.43357       3.25919       4.19687
                        -----------------------------------------
Total Dipole Moment    :     -0.13420       0.52357       0.50329
                        -----------------------------------------
Magnitude (a.u.)       :      0.73853
Magnitude (Debye)      :      1.87720

Rotational constants in cm-1:     1.264662     0.300144     0.266170
Rotational constants in MHz : 37913.611527  8998.095216  7979.576054

                             ****ORCA TERMINATED NORMALLY****
TOTAL RUN TIME: 0 days 0 hours 0 minutes 15 seconds 185 msec
