                         Program Version 5.0.0 -  RELEASE  -
|  1> !M062X D3Zero RIJCOSX def2-TZVPD def2/J TightSCF
|  2> *xyz 0 1
|  3> C         -0.70169        4.07250       -4.00392
|  4> C          0.68053        4.61482       -4.04800
|  5> H          0.69993        5.58489       -4.38827
|  6> H          1.27804        4.05598       -4.66824
|  7> H          1.08573        4.53358       -3.10652
|  8> C         -1.70347        5.09320       -3.47740
|  9> H         -0.99590        3.74039       -5.00065
| 10> H         -0.64358        3.20191       -3.35153
| 11> H         -1.73704        5.93384       -4.13853
| 12> H         -1.40338        5.41759       -2.50291
| 13> H         -2.67335        4.64479       -3.42108
| 14> *
| 15> %MaxCore 64000
| 16>
| 17> %pal nprocs 4
| 18> end
| 19>
| 20> %scf
| 21>   MaxIter 150
| 22> end
| 23>
| 24>
| 25>                          ****END OF INPUT****

CARTESIAN COORDINATES (ANGSTROEM)
---------------------------------
  C     -0.701690    4.072500   -4.003920
  C      0.680530    4.614820   -4.048000
  H      0.699930    5.584890   -4.388270
  H      1.278040    4.055980   -4.668240
  H      1.085730    4.533580   -3.106520
  C     -1.703470    5.093200   -3.477400
  H     -0.995900    3.740390   -5.000650
  H     -0.643580    3.201910   -3.351530
  H     -1.737040    5.933840   -4.138530
  H     -1.403380    5.417590   -2.502910
  H     -2.673350    4.644790   -3.421080

 Total Charge           Charge          ....    0
 Multiplicity           Mult            ....    1
 Number of Electrons    NEL             ....   26
 Basis Dimension        Dim             ....  183

ORBITAL ENERGIES
----------------

  NO   OCC          E(Eh)            E(eV)
   0   2.0000     -10.518639      -286.2267
   1   2.0000     -10.510318      -286.0003
   2   2.0000     -10.491965      -285.5009
   3   2.0000      -0.890754       -24.2387
   4   2.0000      -0.782725       -21.2990
   5   2.0000      -0.668045       -18.1784
   6   2.0000      -0.540407       -14.7052
   7   2.0000      -0.513482       -13.9725
   8   2.0000      -0.467489       -12.7210
   9   2.0000      -0.456852       -12.4316
  10   2.0000      -0.395774       -10.7696
  11   2.0000      -0.393407       -10.7051
  12   2.0000      -0.386181       -10.5085
  13   0.0000       0.024376         0.6633
  14   0.0000       0.044037         1.1983
  15   0.0000       0.046880         1.2757
  16   0.0000       0.073210         1.9921
  17   0.0000       0.094567         2.5733

MULLIKEN ATOMIC CHARGES
-----------------------
   0 C :   -0.142289
   1 C :   -1.265748
   2 H :    0.343613
   3 H :    0.336395
   4 H :    0.352797
   5 C :   -1.161704
   6 H :    0.308195
   7 H :    0.281082
   8 H :    0.320196
   9 H :    0.325794
  10 H :    0.301669
Sum of atomic charges:   -0.0000000

LOEWDIN ATOMIC CHARGES
----------------------
   0 C :   -0.323108
   1 C :   -0.129973
   2 H :    0.056265
   3 H :    0.051925
   4 H :    0.057603
   5 C :   -0.118923
   6 H :    0.104375
   7 H :    0.104459
   8 H :    0.067342
   9 H :    0.068578
  10 H :    0.061458

  Mayer bond orders larger than 0.100000
B(  0-C ,  1-C ) :   0.4651 B(  0-C ,  5-C ) :   0.5201 B(  0-C ,  6-H ) :   0.9474
B(  0-C ,  7-H ) :   0.9664 B(  1-C ,  2-H ) :   0.9122 B(  1-C ,  3-H ) :   0.9765
B(  1-C ,  4-H ) :   0.9723 B(  1-C ,  5-C ) :   0.1140 B(  5-C ,  8-H ) :   0.9797
B(  5-C ,  9-H ) :   0.9608 B(  5-C , 10-H ) :   0.9962

Dispersion correction           -0.000052614
FINAL SINGLE POINT ENERGY      -119.098728827640

DIPOLE MOMENT
-------------
                                X             Y             Z
Electronic contribution:     -0.13794      -0.30908      -0.13679
Nuclear contribution   :      0.16058       0.27975       0.12812
                        -----------------------------------------
Total Dipole Moment    :      0.02263      -0.02933      -0.00868
                        -----------------------------------------
Magnitude (a.u.)       :      0.03805
Magnitude (Debye)      :      0.09672

Rotational constants in cm-1:     1.027122     0.293327     0.260229
Rotational constants in MHz : 30792.337141  8793.723318  7801.458329

                             ****ORCA TERMINATED NORMALLY****
TOTAL RUN TIME: 0 days 0 hours 0 minutes 19 seconds 340 msec
