                         Program Version 5.0.0 -  RELEASE  -
|  1> !M062X D3Zero RIJCOSX def2-TZVPD def2/J TightSCF xyzfile
|  2>
|  3> *xyzfile 0 1 D.xyz
|  4>
|  5> %MaxCore 64000
|  6>
|  7> %pal nprocs 4
|  8> end
|  9>
| 10> %scf
| 11>   MaxIter 150
| 12> end
| 13>
| 14>
| 15>                          ****END OF INPUT****

CARTESIAN COORDINATES (ANGSTROEM)
---------------------------------
  C     -0.701686    4.072499   -4.003920
  C      0.680528    4.614820   -4.048005
  C      1.444422    5.266576   -0.975463
  F      1.565248    4.233493   -1.864885
  H      0.699926    5.584890   -4.388272
  H      1.278044    4.055977   -4.668235
  H      1.085729    4.533581   -3.106524
  C     -1.703475    5.093197   -3.477396
  H     -0.995895    3.740394   -5.000654
  H     -0.643580    3.201910   -3.351533
  C     -1.313997    5.785995   -2.169271
  H     -1.877057    5.850103   -4.251154
  H     -2.653264    4.564475   -3.354796
  H     -2.097137    6.509395   -1.929558
  H     -0.416875    6.387594   -2.339097
  C     -1.073895    4.844728   -0.979904
  H     -1.968893    4.809608   -0.352568
  C      0.148120    5.210874   -0.138092
  H     -0.909754    3.827531   -1.338975
  H      1.474250    6.264638   -1.476917
  H      2.289622    5.303267   -0.264450
  H      0.261827    4.450942    0.640711
  H     -0.002516    6.171031    0.371483

 Total Charge           Charge          ....    0
 Multiplicity           Mult            ....    1
 Number of Electrons    NEL             ....   66
 Basis Dimension        Dim             ....  434

ORBITAL ENERGIES
----------------

  NO   OCC          E(Eh)            E(eV)
   0   2.0000     -25.253318      -687.1777
   1   2.0000     -10.622989      -289.0662
   2   2.0000     -10.544343      -286.9262
   3   2.0000     -10.530059      -286.5375
   4   2.0000     -10.523386      -286.3559
   5   2.0000     -10.516310      -286.1633
   6   2.0000     -10.503352      -285.8107
   7   2.0000     -10.449287      -284.3396
   8   2.0000      -1.378057       -37.4988
   9   2.0000      -0.914819       -24.8935
  10   2.0000      -0.883646       -24.0452
  11   2.0000      -0.819509       -22.3000
  12   2.0000      -0.784872       -21.3575
  13   2.0000      -0.719916       -19.5899
  14   2.0000      -0.682501       -18.5718
  15   2.0000      -0.628169       -17.0933
  16   2.0000      -0.620353       -16.8807
  17   2.0000      -0.606981       -16.5168
  18   2.0000      -0.575628       -15.6636
  19   2.0000      -0.531673       -14.4675
  20   2.0000      -0.526774       -14.3342
  21   2.0000      -0.498410       -13.5624
  22   2.0000      -0.485064       -13.1993
  23   2.0000      -0.456451       -12.4207
  24   2.0000      -0.444613       -12.0985
  25   2.0000      -0.433691       -11.8013
  26   2.0000      -0.425188       -11.5700
  27   2.0000      -0.401602       -10.9282
  28   2.0000      -0.390641       -10.6299
  29   2.0000      -0.373663       -10.1679
  30   2.0000      -0.360920        -9.8211
  31   2.0000      -0.358713        -9.7611
  32   2.0000      -0.341362        -9.2889
  33   0.0000       0.016267         0.4426
  34   0.0000       0.028046         0.7632
  35   0.0000       0.031510         0.8574
  36   0.0000       0.036026         0.9803
  37   0.0000       0.053060         1.4438

MULLIKEN ATOMIC CHARGES
-----------------------
   0 C :   -0.263428
   1 C :   -1.280394
   2 C :   -0.364368
   3 F :   -0.392556
   4 H :    0.328437
   5 H :    0.453502
   6 H :    0.249226
   7 C :   -0.864577
   8 H :    0.359175
   9 H :    0.248679
  10 C :   -0.579753
  11 H :    0.388218
  12 H :    0.344988
  13 H :    0.373943
  14 H :    0.259951
  15 C :   -0.530501
  16 H :    0.402839
  17 C :   -0.788695
  18 H :    0.253636
  19 H :    0.314552
  20 H :    0.332129
  21 H :    0.391626
  22 H :    0.363371
Sum of atomic charges:    0.0000000

LOEWDIN ATOMIC CHARGES
----------------------
   0 C :   -0.258642
   1 C :   -0.109648
   2 C :   -0.201829
   3 F :   -0.048816
   4 H :    0.067092
   5 H :    0.061856
   6 H :   -0.032981
   7 C :   -0.218376
   8 H :    0.107289
   9 H :    0.103299
  10 C :   -0.208665
  11 H :    0.113724
  12 H :    0.109884
  13 H :    0.110299
  14 H :    0.093970
  15 C :   -0.204698
  16 H :    0.113561
  17 C :   -0.179616
  18 H :    0.103174
  19 H :    0.126599
  20 H :    0.122202
  21 H :    0.109510
  22 H :    0.120812

  Mayer bond orders larger than 0.100000
B(  0-C ,  1-C ) :   0.2274 B(  0-C ,  6-H ) :  -0.1041 B(  0-C ,  7-C ) :   0.6596
B(  0-C ,  8-H ) :   0.9310 B(  0-C ,  9-H ) :   1.0061 B(  1-C ,  4-H ) :   1.1123
B(  1-C ,  5-H ) :   0.9894 B(  1-C ,  6-H ) :   0.8719 B(  1-C ,  7-C ) :   0.1703
B(  2-C ,  3-F ) :   0.6546 B(  2-C , 17-C ) :   0.7386 B(  2-C , 19-H ) :   1.0035
B(  2-C , 20-H ) :   0.9416 B(  3-F ,  6-H ) :  -0.2428 B(  3-F , 17-C ) :   0.1030
B(  7-C , 10-C ) :   0.7156 B(  7-C , 11-H ) :   0.9429 B(  7-C , 12-H ) :   0.9469
B(  7-C , 15-C ) :   0.1095 B( 10-C , 13-H ) :   0.9281 B( 10-C , 14-H ) :   1.0404
B( 10-C , 15-C ) :   0.4806 B( 10-C , 17-C ) :   0.1364 B( 14-H , 15-C ) :  -0.1165
B( 15-C , 16-H ) :   0.8897 B( 15-C , 17-C ) :   0.6478 B( 15-C , 18-H ) :   1.0533
B( 17-C , 21-H ) :   0.9202 B( 17-C , 22-H ) :   0.9484

Dispersion correction           -0.000741841
FINAL SINGLE POINT ENERGY      -375.525500680138

DIPOLE MOMENT
-------------
                                X             Y             Z
Electronic contribution:      5.12402      -2.26548       2.77949
Nuclear contribution   :     -5.08831       2.68947      -1.99048
                        -----------------------------------------
Total Dipole Moment    :      0.03572       0.42400       0.78902
                        -----------------------------------------
Magnitude (a.u.)       :      0.89644
Magnitude (Debye)      :      2.27856

Rotational constants in cm-1:     0.084646     0.055672     0.038419
Rotational constants in MHz :  2537.625105  1668.992890  1151.781380

                             ****ORCA TERMINATED NORMALLY****
TOTAL RUN TIME: 0 days 0 hours 2 minutes 10 seconds 624 msec
