                         Program Version 5.0.0 -  RELEASE  -
|  1> !LC-PBE RIJCOSX def2-SVP def2/J TightSCF
|  2> *xyz -1 1
|  3> C         -7.33044       -2.67899       -3.20681
|  4> S         -6.01966       -2.92697       -4.41913
|  5> O         -5.64583       -1.58838       -4.91931
|  6> O         -4.88196       -3.50370       -3.66724
|  7> O         -6.54927       -3.80515       -5.42507
|  8> C         -7.46900       -1.24615       -2.71383
|  9> H         -7.11825       -3.37982       -2.39805
| 10> H         -8.24184       -3.00474       -3.70651
| 11> H         -7.67580       -0.60214       -3.54292
| 12> H         -6.55749       -0.94096       -2.24382
| 13> H         -8.27114       -1.18777       -2.00810
| 14> *
| 15> %MaxCore 64000
| 16>
| 17> %pal nprocs 4
| 18> end
| 19>
| 20> %scf
| 21>   MaxIter 150
| 22> end
| 23>
| 24>
| 25>                          ****END OF INPUT****

CARTESIAN COORDINATES (ANGSTROEM)
---------------------------------
  C     -7.330440   -2.678990   -3.206810
  S     -6.019660   -2.926970   -4.419130
  O     -5.645830   -1.588380   -4.919310
  O     -4.881960   -3.503700   -3.667240
  O     -6.549270   -3.805150   -5.425070
  C     -7.469000   -1.246150   -2.713830
  H     -7.118250   -3.379820   -2.398050
  H     -8.241840   -3.004740   -3.706510
  H     -7.675800   -0.602140   -3.542920
  H     -6.557490   -0.940960   -2.243820
  H     -8.271140   -1.187770   -2.008100

 Total Charge           Charge          ....   -1
 Multiplicity           Mult            ....    1
 Number of Electrons    NEL             ....   58
 Basis Dimension        Dim             ....  113

ORBITAL ENERGIES
----------------

  NO   OCC          E(Eh)            E(eV)
   0   2.0000     -88.274175     -2402.0624
   1   2.0000     -18.740818      -509.9636
   2   2.0000     -18.729573      -509.6576
   3   2.0000     -18.723156      -509.4830
   4   2.0000      -9.980192      -271.5748
   5   2.0000      -9.979588      -271.5584
   6   2.0000      -7.904124      -215.0822
   7   2.0000      -5.926047      -161.2559
   8   2.0000      -5.925756      -161.2480
   9   2.0000      -5.925573      -161.2430
  10   2.0000      -1.077924       -29.3318
  11   2.0000      -0.920513       -25.0484
  12   2.0000      -0.896068       -24.3832
  13   2.0000      -0.801989       -21.8232
  14   2.0000      -0.662832       -18.0366
  15   2.0000      -0.517965       -14.0945
  16   2.0000      -0.461572       -12.5600
  17   2.0000      -0.446815       -12.1584
  18   2.0000      -0.408095       -11.1048
  19   2.0000      -0.384488       -10.4624
  20   2.0000      -0.379594       -10.3293
  21   2.0000      -0.355284        -9.6678
  22   2.0000      -0.344711        -9.3801
  23   2.0000      -0.259971        -7.0742
  24   2.0000      -0.258744        -7.0408
  25   2.0000      -0.220987        -6.0134
  26   2.0000      -0.213365        -5.8060
  27   2.0000      -0.204733        -5.5711
  28   2.0000      -0.165655        -4.5077
  29   0.0000       0.290923         7.9164
  30   0.0000       0.347768         9.4632
  31   0.0000       0.348876         9.4934
  32   0.0000       0.357555         9.7296
  33   0.0000       0.380077        10.3424

MULLIKEN ATOMIC CHARGES
-----------------------
   0 C :   -0.223075
   1 S :    0.828495
   2 O :   -0.591018
   3 O :   -0.608957
   4 O :   -0.557507
   5 C :   -0.107816
   6 H :    0.065120
   7 H :    0.057160
   8 H :    0.061986
   9 H :    0.061591
  10 H :    0.014021
Sum of atomic charges:   -1.0000000

LOEWDIN ATOMIC CHARGES
----------------------
   0 C :   -0.214424
   1 S :    1.093547
   2 O :   -0.640908
   3 O :   -0.655825
   4 O :   -0.604165
   5 C :   -0.105915
   6 H :    0.026639
   7 H :    0.022169
   8 H :    0.031832
   9 H :    0.033185
  10 H :    0.013867

  Mayer bond orders larger than 0.100000
B(  0-C ,  1-S ) :   0.8877 B(  0-C ,  5-C ) :   1.0570 B(  0-C ,  6-H ) :   0.9524
B(  0-C ,  7-H ) :   0.9540 B(  1-S ,  2-O ) :   1.6307 B(  1-S ,  3-O ) :   1.6153
B(  1-S ,  4-O ) :   1.6703 B(  5-C ,  8-H ) :   0.9690 B(  5-C ,  9-H ) :   0.9725
B(  5-C , 10-H ) :   0.9698

FINAL SINGLE POINT ENERGY      -701.514089317559

DIPOLE MOMENT
-------------
                                X             Y             Z
Electronic contribution:      4.67117      -3.52728      -5.10539
Nuclear contribution   :     -6.18165       4.01759       6.33106
                        -----------------------------------------
Total Dipole Moment    :     -1.51048       0.49032       1.22567
                        -----------------------------------------
Magnitude (a.u.)       :      2.00604
Magnitude (Debye)      :      5.09896

Rotational constants in cm-1:     0.161711     0.082788     0.081165
Rotational constants in MHz :  4847.971521  2481.906910  2433.276832

                             ****ORCA TERMINATED NORMALLY****
TOTAL RUN TIME: 0 days 0 hours 0 minutes 13 seconds 469 msec
