                         Program Version 5.0.0 -  RELEASE  -
|  1> !LC-PBE RIJCOSX def2-SVP def2/J TightSCF
|  2> *xyz 1 1
|  3> C         -2.16038       -1.36949       -3.46710
|  4> N         -3.03011       -1.91086       -4.54107
|  5> C         -2.04772        0.14658       -3.51177
|  6> H         -3.47744       -2.79151       -4.25710
|  7> H         -2.53801       -2.01786       -5.43808
|  8> H         -3.89159       -1.37604       -4.71437
|  9> H         -1.18444       -1.84400       -3.56639
| 10> H         -2.59819       -1.70838       -2.52848
| 11> H         -1.61525        0.44478       -4.44395
| 12> H         -1.42718        0.48198       -2.70720
| 13> H         -3.02145        0.57958       -3.41560
| 14> *
| 15> %MaxCore 64000
| 16>
| 17> %pal nprocs 4
| 18> end
| 19>
| 20> %scf
| 21>   MaxIter 150
| 22> end
| 23>
| 24>
| 25>                          ****END OF INPUT****

CARTESIAN COORDINATES (ANGSTROEM)
---------------------------------
  C     -2.160380   -1.369490   -3.467100
  N     -3.030110   -1.910860   -4.541070
  C     -2.047720    0.146580   -3.511770
  H     -3.477440   -2.791510   -4.257100
  H     -2.538010   -2.017860   -5.438080
  H     -3.891590   -1.376040   -4.714370
  H     -1.184440   -1.844000   -3.566390
  H     -2.598190   -1.708380   -2.528480
  H     -1.615250    0.444780   -4.443950
  H     -1.427180    0.481980   -2.707200
  H     -3.021450    0.579580   -3.415600

 Total Charge           Charge          ....    1
 Multiplicity           Mult            ....    1
 Number of Electrons    NEL             ....   26
 Basis Dimension        Dim             ....   82

ORBITAL ENERGIES
----------------

  NO   OCC          E(Eh)            E(eV)
   0   2.0000     -14.567883      -396.4123
   1   2.0000     -10.380442      -282.4662
   2   2.0000     -10.298459      -280.2353
   3   2.0000      -1.386094       -37.7175
   4   2.0000      -1.136542       -30.9269
   5   2.0000      -1.006128       -27.3781
   6   2.0000      -0.961320       -26.1589
   7   2.0000      -0.920011       -25.0348
   8   2.0000      -0.845144       -22.9975
   9   2.0000      -0.785277       -21.3685
  10   2.0000      -0.717234       -19.5169
  11   2.0000      -0.700482       -19.0611
  12   2.0000      -0.679306       -18.4849
  13   0.0000      -0.087312        -2.3759
  14   0.0000      -0.027948        -0.7605
  15   0.0000      -0.025728        -0.7001
  16   0.0000       0.006313         0.1718
  17   0.0000       0.048615         1.3229

MULLIKEN ATOMIC CHARGES
-----------------------
   0 C :   -0.131138
   1 N :   -0.075497
   2 C :   -0.160640
   3 H :    0.240599
   4 H :    0.250567
   5 H :    0.232168
   6 H :    0.151377
   7 H :    0.143952
   8 H :    0.105314
   9 H :    0.140841
  10 H :    0.102457
Sum of atomic charges:    1.0000000

LOEWDIN ATOMIC CHARGES
----------------------
   0 C :    0.023380
   1 N :    0.271276
   2 C :   -0.076446
   3 H :    0.158654
   4 H :    0.157363
   5 H :    0.154030
   6 H :    0.068542
   7 H :    0.065361
   8 H :    0.052172
   9 H :    0.074990
  10 H :    0.050679

  Mayer bond orders larger than 0.100000
B(  0-C ,  1-N ) :   0.8991 B(  0-C ,  2-C ) :   1.0717 B(  0-C ,  6-H ) :   0.9509
B(  0-C ,  7-H ) :   0.9546 B(  1-N ,  3-H ) :   0.9257 B(  1-N ,  4-H ) :   0.9226
B(  1-N ,  5-H ) :   0.9241 B(  2-C ,  8-H ) :   0.9701 B(  2-C ,  9-H ) :   0.9577
B(  2-C , 10-H ) :   0.9681

FINAL SINGLE POINT ENERGY      -134.981616784108

DIPOLE MOMENT
-------------
                                X             Y             Z
Electronic contribution:     -0.69684      -1.54833      -0.82095
Nuclear contribution   :     -0.15215       0.37393      -0.04773
                        -----------------------------------------
Total Dipole Moment    :     -0.84898      -1.17440      -0.86868
                        -----------------------------------------
Magnitude (a.u.)       :      1.68956
Magnitude (Debye)      :      4.29451

Rotational constants in cm-1:     1.020762     0.277172     0.247319
Rotational constants in MHz : 30601.664035  8309.399682  7414.438136

                             ****ORCA TERMINATED NORMALLY****
TOTAL RUN TIME: 0 days 0 hours 0 minutes 8 seconds 997 msec
