                         Program Version 5.0.0 -  RELEASE  -
|  1> !LC-PBE RIJCOSX def2-TZVP def2/J TightSCF xyzfile
|  2>
|  3> *xyzfile 0 1 B.xyz
|  4>
|  5> %MaxCore 64000
|  6>
|  7> %pal nprocs 18
|  8> end
|  9>
| 10> %scf
| 11>   MaxIter 150
| 12> end
| 13>
| 14>
| 15>                          ****END OF INPUT****

CARTESIAN COORDINATES (ANGSTROEM)
---------------------------------
  C     -2.160376   -1.369486   -3.467104
  N     -3.030108   -1.910857   -4.541074
  C     -2.047717    0.146583   -3.511774
  C     -7.330440   -2.678991   -3.206811
  S     -6.019659   -2.926965   -4.419128
  H     -3.477443   -2.791513   -4.257096
  H     -2.538013   -2.017860   -5.438075
  H     -3.891589   -1.376039   -4.714365
  O     -5.645830   -1.588384   -4.919307
  O     -4.881961   -3.503697   -3.667235
  H     -1.184438   -1.843997   -3.566393
  H     -2.598195   -1.708376   -2.528477
  O     -6.549267   -3.805150   -5.425071
  C     -3.328755    0.875037   -3.103669
  H     -1.740034    0.452343   -4.517126
  H     -1.232611    0.434938   -2.842208
  C     -3.628487    0.771601   -1.609363
  H     -4.175106    0.490791   -3.682203
  H     -3.237812    1.928663   -3.381480
  C     -4.975718    1.361432   -1.190644
  H     -2.830700    1.276234   -1.054766
  H     -3.594312   -0.275838   -1.294603
  C     -6.184720    0.784347   -1.926464
  H     -4.956292    2.445725   -1.342200
  H     -5.097256    1.205252   -0.114136
  C     -6.286921   -0.735882   -1.893531
  H     -6.163994    1.100199   -2.974250
  H     -7.094530    1.223459   -1.504509
  C     -7.468999   -1.246153   -2.713833
  H     -6.360641   -1.090347   -0.859176
  H     -5.369848   -1.171853   -2.295982
  H     -7.601914   -0.601349   -3.585329
  H     -8.389791   -1.173436   -2.126922
  H     -7.118254   -3.379818   -2.398055
  H     -8.241838   -3.004745   -3.706513

 Total Charge           Charge          ....    0
 Multiplicity           Mult            ....    1
 Number of Electrons    NEL             ....  122
 Basis Dimension        Dim             ....  566

ORBITAL ENERGIES
----------------

  NO   OCC          E(Eh)            E(eV)
   0   2.0000     -88.438978     -2406.5469
   1   2.0000     -18.930590      -515.1275
   2   2.0000     -18.930355      -515.1211
   3   2.0000     -18.913751      -514.6693
   4   2.0000     -14.319444      -389.6519
   5   2.0000     -10.200189      -277.5613
   6   2.0000     -10.152282      -276.2577
   7   2.0000     -10.131614      -275.6952
   8   2.0000     -10.123232      -275.4672
   9   2.0000     -10.118287      -275.3326
  10   2.0000     -10.115335      -275.2523
  11   2.0000     -10.107521      -275.0396
  12   2.0000     -10.107394      -275.0362
  13   2.0000     -10.103814      -274.9388
  14   2.0000      -8.050452      -219.0639
  15   2.0000      -6.067046      -165.0927
  16   2.0000      -6.066311      -165.0727
  17   2.0000      -6.065116      -165.0402
  18   2.0000      -1.271221       -34.5917
  19   2.0000      -1.182131       -32.1674
  20   2.0000      -1.118316       -30.4309
  21   2.0000      -1.116473       -30.3808
  22   2.0000      -1.020543       -27.7704
  23   2.0000      -0.989552       -26.9271
  24   2.0000      -0.961265       -26.1573
  25   2.0000      -0.912038       -24.8178
  26   2.0000      -0.876879       -23.8611
  27   2.0000      -0.828696       -22.5500
  28   2.0000      -0.787362       -21.4252
  29   2.0000      -0.766863       -20.8674
  30   2.0000      -0.751244       -20.4424
  31   2.0000      -0.725101       -19.7310
  32   2.0000      -0.716493       -19.4968
  33   2.0000      -0.689399       -18.7595
  34   2.0000      -0.659577       -17.9480
  35   2.0000      -0.640756       -17.4359
  36   2.0000      -0.636967       -17.3328
  37   2.0000      -0.623840       -16.9756
  38   2.0000      -0.604067       -16.4375
  39   2.0000      -0.592944       -16.1348
  40   2.0000      -0.582523       -15.8512
  41   2.0000      -0.579298       -15.7635
  42   2.0000      -0.570368       -15.5205
  43   2.0000      -0.553452       -15.0602
  44   2.0000      -0.550934       -14.9917
  45   2.0000      -0.537248       -14.6193
  46   2.0000      -0.522732       -14.2243
  47   2.0000      -0.507154       -13.8004
  48   2.0000      -0.501211       -13.6387
  49   2.0000      -0.484734       -13.1903
  50   2.0000      -0.476048       -12.9539
  51   2.0000      -0.471279       -12.8242
  52   2.0000      -0.460215       -12.5231
  53   2.0000      -0.456961       -12.4345
  54   2.0000      -0.448440       -12.2027
  55   2.0000      -0.441745       -12.0205
  56   2.0000      -0.437737       -11.9114
  57   2.0000      -0.418101       -11.3771
  58   2.0000      -0.408180       -11.1072
  59   2.0000      -0.395682       -10.7670
  60   2.0000      -0.374093       -10.1796
  61   0.0000       0.076508         2.0819
  62   0.0000       0.111488         3.0337
  63   0.0000       0.120029         3.2662
  64   0.0000       0.124033         3.3751
  65   0.0000       0.138071         3.7571

MULLIKEN ATOMIC CHARGES
-----------------------
   0 C :   -0.297906
   1 N :   -0.318728
   2 C :   -0.277365
   3 C :   -0.331575
   4 S :    0.777615
   5 H :    0.335299
   6 H :    0.297524
   7 H :    0.322301
   8 O :   -0.585279
   9 O :   -0.585231
  10 H :    0.188453
  11 H :    0.217039
  12 O :   -0.457951
  13 C :   -0.364899
  14 H :    0.168013
  15 H :    0.165970
  16 C :   -0.355727
  17 H :    0.196860
  18 H :    0.165510
  19 C :   -0.245664
  20 H :    0.159712
  21 H :    0.163980
  22 C :   -0.366063
  23 H :    0.151591
  24 H :    0.153222
  25 C :   -0.293845
  26 H :    0.183460
  27 H :    0.155916
  28 C :   -0.297410
  29 H :    0.147252
  30 H :    0.130344
  31 H :    0.181425
  32 H :    0.150373
  33 H :    0.173241
  34 H :    0.192544
Sum of atomic charges:    0.0000000

LOEWDIN ATOMIC CHARGES
----------------------
   0 C :   -0.289438
   1 N :    0.131836
   2 C :   -0.288616
   3 C :   -0.386128
   4 S :    0.442892
   5 H :    0.176414
   6 H :    0.203472
   7 H :    0.183819
   8 O :   -0.381244
   9 O :   -0.387756
  10 H :    0.145666
  11 H :    0.153092
  12 O :   -0.312722
  13 C :   -0.283121
  14 H :    0.148442
  15 H :    0.156838
  16 C :   -0.289561
  17 H :    0.149776
  18 H :    0.150747
  19 C :   -0.285275
  20 H :    0.145461
  21 H :    0.142581
  22 C :   -0.290400
  23 H :    0.145539
  24 H :    0.146601
  25 C :   -0.287941
  26 H :    0.147620
  27 H :    0.146479
  28 C :   -0.307989
  29 H :    0.143016
  30 H :    0.139118
  31 H :    0.153536
  32 H :    0.145744
  33 H :    0.145026
  34 H :    0.146476

  Mayer bond orders larger than 0.100000
B(  0-C ,  1-N ) :   0.8841 B(  0-C ,  2-C ) :   0.9283 B(  0-C , 10-H ) :   0.9753
B(  0-C , 11-H ) :   0.9721 B(  1-N ,  5-H ) :   0.7870 B(  1-N ,  6-H ) :   0.8916
B(  1-N ,  7-H ) :   0.8177 B(  2-C , 13-C ) :   0.9471 B(  2-C , 14-H ) :   0.9774
B(  2-C , 15-H ) :   0.9719 B(  3-C ,  4-S ) :   0.9099 B(  3-C , 28-C ) :   0.9476
B(  3-C , 33-H ) :   0.9520 B(  3-C , 34-H ) :   0.9611 B(  4-S ,  8-O ) :   1.5848
B(  4-S ,  9-O ) :   1.5646 B(  4-S , 12-O ) :   1.9694 B(  5-H ,  9-O ) :   0.1480
B(  7-H ,  8-O ) :   0.1115 B( 13-C , 16-C ) :   0.8767 B( 13-C , 17-H ) :   0.9826
B( 13-C , 18-H ) :   0.9711 B( 16-C , 19-C ) :   0.9434 B( 16-C , 20-H ) :   0.9694
B( 16-C , 21-H ) :   0.9911 B( 19-C , 22-C ) :   0.9352 B( 19-C , 23-H ) :   0.9902
B( 19-C , 24-H ) :   0.9864 B( 22-C , 25-C ) :   0.8946 B( 22-C , 26-H ) :   0.9884
B( 22-C , 27-H ) :   0.9782 B( 25-C , 28-C ) :   0.9277 B( 25-C , 29-H ) :   0.9648
B( 25-C , 30-H ) :   0.9794 B( 28-C , 31-H ) :   0.9768 B( 28-C , 32-H ) :   0.9642

FINAL SINGLE POINT ENERGY     -1032.168397593688

DIPOLE MOMENT
-------------
                                X             Y             Z
Electronic contribution:     -5.93783     -15.19102     -11.40970
Nuclear contribution   :      8.59301      16.99497      12.41069
                        -----------------------------------------
Total Dipole Moment    :      2.65519       1.80396       1.00098
                        -----------------------------------------
Magnitude (a.u.)       :      3.36248
Magnitude (Debye)      :      8.54674

Rotational constants in cm-1:     0.025617     0.015295     0.010641
Rotational constants in MHz :   767.991150   458.522408   319.013093

                             ****ORCA TERMINATED NORMALLY****
TOTAL RUN TIME: 0 days 0 hours 1 minutes 6 seconds 321 msec
