                         Program Version 5.0.0 -  RELEASE  -
|  1> !LC-PBE RIJCOSX def2-SVP def2/J TightSCF
|  2> *xyz 0 1
|  3> C         -7.33044       -2.67899       -3.20681
|  4> S         -6.01966       -2.92697       -4.41913
|  5> F         -5.64583       -1.58838       -4.91931
|  6> O         -4.88196       -3.50370       -3.66724
|  7> O         -6.54927       -3.80515       -5.42507
|  8> C         -7.46900       -1.24615       -2.71383
|  9> H         -7.11825       -3.37982       -2.39805
| 10> H         -8.24184       -3.00474       -3.70651
| 11> H         -7.67580       -0.60214       -3.54292
| 12> H         -6.55749       -0.94096       -2.24382
| 13> H         -8.27114       -1.18777       -2.00810
| 14> *
| 15> %MaxCore 64000
| 16>
| 17> %pal nprocs 4
| 18> end
| 19>
| 20> %scf
| 21>   MaxIter 150
| 22> end
| 23>
| 24>
| 25>                          ****END OF INPUT****

CARTESIAN COORDINATES (ANGSTROEM)
---------------------------------
  C     -7.330440   -2.678990   -3.206810
  S     -6.019660   -2.926970   -4.419130
  F     -5.645830   -1.588380   -4.919310
  O     -4.881960   -3.503700   -3.667240
  O     -6.549270   -3.805150   -5.425070
  C     -7.469000   -1.246150   -2.713830
  H     -7.118250   -3.379820   -2.398050
  H     -8.241840   -3.004740   -3.706510
  H     -7.675800   -0.602140   -3.542920
  H     -6.557490   -0.940960   -2.243820
  H     -8.271140   -1.187770   -2.008100

 Total Charge           Charge          ....    0
 Multiplicity           Mult            ....    1
 Number of Electrons    NEL             ....   58
 Basis Dimension        Dim             ....  113

ORBITAL ENERGIES
----------------

  NO   OCC          E(Eh)            E(eV)
   0   2.0000     -88.547855     -2409.5096
   1   2.0000     -24.599696      -669.3918
   2   2.0000     -18.993291      -516.8337
   3   2.0000     -18.976137      -516.3669
   4   2.0000     -10.191125      -277.3146
   5   2.0000     -10.156437      -276.3707
   6   2.0000      -8.180097      -222.5917
   7   2.0000      -6.206581      -168.8896
   8   2.0000      -6.199229      -168.6896
   9   2.0000      -6.198238      -168.6626
  10   2.0000      -1.505793       -40.9747
  11   2.0000      -1.273589       -34.6561
  12   2.0000      -1.160399       -31.5761
  13   2.0000      -1.006355       -27.3843
  14   2.0000      -0.881547       -23.9881
  15   2.0000      -0.835639       -22.7389
  16   2.0000      -0.743141       -20.2219
  17   2.0000      -0.718234       -19.5441
  18   2.0000      -0.683760       -18.6060
  19   2.0000      -0.648233       -17.6393
  20   2.0000      -0.616670       -16.7804
  21   2.0000      -0.593321       -16.1451
  22   2.0000      -0.576130       -15.6773
  23   2.0000      -0.553345       -15.0573
  24   2.0000      -0.532055       -14.4779
  25   2.0000      -0.519321       -14.1315
  26   2.0000      -0.461048       -12.5458
  27   2.0000      -0.446826       -12.1588
  28   2.0000      -0.434117       -11.8129
  29   0.0000       0.111862         3.0439
  30   0.0000       0.156036         4.2460
  31   0.0000       0.173954         4.7335
  32   0.0000       0.184036         5.0079
  33   0.0000       0.194271         5.2864

MULLIKEN ATOMIC CHARGES
-----------------------
   0 C :   -0.248376
   1 S :    0.920638
   2 F :   -0.184378
   3 O :   -0.472384
   4 O :   -0.420206
   5 C :   -0.152873
   6 H :    0.149536
   7 H :    0.132445
   8 H :    0.086040
   9 H :    0.095677
  10 H :    0.093880
Sum of atomic charges:    0.0000000

LOEWDIN ATOMIC CHARGES
----------------------
   0 C :   -0.170704
   1 S :    1.156916
   2 F :   -0.139174
   3 O :   -0.529340
   4 O :   -0.476943
   5 C :   -0.097807
   6 H :    0.066047
   7 H :    0.054861
   8 H :    0.040184
   9 H :    0.044715
  10 H :    0.051245

  Mayer bond orders larger than 0.100000
B(  0-C ,  1-S ) :   0.9240 B(  0-C ,  5-C ) :   1.0378 B(  0-C ,  6-H ) :   0.9347
B(  0-C ,  7-H ) :   0.9394 B(  1-S ,  2-F ) :   1.0192 B(  1-S ,  3-O ) :   1.7665
B(  1-S ,  4-O ) :   1.8188 B(  5-C ,  8-H ) :   0.9738 B(  5-C ,  9-H ) :   0.9718
B(  5-C , 10-H ) :   0.9656

FINAL SINGLE POINT ENERGY      -725.997768243871

DIPOLE MOMENT
-------------
                                X             Y             Z
Electronic contribution:      5.61565      -1.67529      -6.37580
Nuclear contribution   :     -6.81251       2.87933       7.15058
                        -----------------------------------------
Total Dipole Moment    :     -1.19686       1.20404       0.77478
                        -----------------------------------------
Magnitude (a.u.)       :      1.86614
Magnitude (Debye)      :      4.74334

Rotational constants in cm-1:     0.152543     0.082494     0.078987
Rotational constants in MHz :  4573.135887  2473.116216  2367.980829

                             ****ORCA TERMINATED NORMALLY****
TOTAL RUN TIME: 0 days 0 hours 0 minutes 14 seconds 870 msec
