                         Program Version 5.0.0 -  RELEASE  -
|  1> !LC-PBE RIJCOSX def2-SVP def2/J TightSCF
|  2> *xyz 0 1
|  3> C         -2.16038       -1.36949       -3.46710
|  4> C         -3.03011       -1.91086       -4.54107
|  5> C         -2.04772        0.14658       -3.51177
|  6> H         -3.47744       -2.79151       -4.25710
|  7> H         -2.53801       -2.01786       -5.43808
|  8> H         -3.89159       -1.37604       -4.71437
|  9> H         -1.18444       -1.84400       -3.56639
| 10> H         -2.59819       -1.70838       -2.52848
| 11> H         -1.61525        0.44478       -4.44395
| 12> H         -1.42718        0.48198       -2.70720
| 13> H         -3.02145        0.57958       -3.41560
| 14> *
| 15> %MaxCore 64000
| 16>
| 17> %pal nprocs 4
| 18> end
| 19>
| 20> %scf
| 21>   MaxIter 150
| 22> end
| 23>
| 24>
| 25>                          ****END OF INPUT****

CARTESIAN COORDINATES (ANGSTROEM)
---------------------------------
  C     -2.160380   -1.369490   -3.467100
  C     -3.030110   -1.910860   -4.541070
  C     -2.047720    0.146580   -3.511770
  H     -3.477440   -2.791510   -4.257100
  H     -2.538010   -2.017860   -5.438080
  H     -3.891590   -1.376040   -4.714370
  H     -1.184440   -1.844000   -3.566390
  H     -2.598190   -1.708380   -2.528480
  H     -1.615250    0.444780   -4.443950
  H     -1.427180    0.481980   -2.707200
  H     -3.021450    0.579580   -3.415600

 Total Charge           Charge          ....    0
 Multiplicity           Mult            ....    1
 Number of Electrons    NEL             ....   26
 Basis Dimension        Dim             ....   82

ORBITAL ENERGIES
----------------

  NO   OCC          E(Eh)            E(eV)
   0   2.0000     -10.111878      -275.1582
   1   2.0000     -10.102715      -274.9089
   2   2.0000     -10.085565      -274.4422
   3   2.0000      -0.963535       -26.2191
   4   2.0000      -0.854281       -23.2462
   5   2.0000      -0.741939       -20.1892
   6   2.0000      -0.616229       -16.7684
   7   2.0000      -0.583320       -15.8730
   8   2.0000      -0.540230       -14.7004
   9   2.0000      -0.529002       -14.3949
  10   2.0000      -0.469071       -12.7641
  11   2.0000      -0.456262       -12.4155
  12   2.0000      -0.452957       -12.3256
  13   0.0000       0.155752         4.2382
  14   0.0000       0.204291         5.5590
  15   0.0000       0.208332         5.6690
  16   0.0000       0.209187         5.6923
  17   0.0000       0.242099         6.5878

MULLIKEN ATOMIC CHARGES
-----------------------
   0 C :   -0.188896
   1 C :   -0.077204
   2 C :   -0.124942
   3 H :    0.032422
   4 H :    0.045870
   5 H :    0.025990
   6 H :    0.060477
   7 H :    0.056555
   8 H :    0.056158
   9 H :    0.058132
  10 H :    0.055438
Sum of atomic charges:    0.0000000

LOEWDIN ATOMIC CHARGES
----------------------
   0 C :   -0.069235
   1 C :   -0.086024
   2 C :   -0.087853
   3 H :    0.029237
   4 H :    0.025731
   5 H :    0.025987
   6 H :    0.033745
   7 H :    0.032404
   8 H :    0.032090
   9 H :    0.032296
  10 H :    0.031620

  Mayer bond orders larger than 0.100000
B(  0-C ,  1-C ) :   1.0716 B(  0-C ,  2-C ) :   1.0737 B(  0-C ,  6-H ) :   0.9668
B(  0-C ,  7-H ) :   0.9702 B(  1-C ,  3-H ) :   0.9713 B(  1-C ,  4-H ) :   0.9762
B(  1-C ,  5-H ) :   0.9713 B(  2-C ,  8-H ) :   0.9791 B(  2-C ,  9-H ) :   0.9775
B(  2-C , 10-H ) :   0.9776

FINAL SINGLE POINT ENERGY      -118.605276092545

DIPOLE MOMENT
-------------
                                X             Y             Z
Electronic contribution:      0.30784      -0.12625       0.27007
Nuclear contribution   :     -0.34625       0.09603      -0.26933
                        -----------------------------------------
Total Dipole Moment    :     -0.03840      -0.03021       0.00074
                        -----------------------------------------
Magnitude (a.u.)       :      0.04887
Magnitude (Debye)      :      0.12422

Rotational constants in cm-1:     1.028617     0.291238     0.258956
Rotational constants in MHz : 30837.159054  8731.095379  7763.318586

                             ****ORCA TERMINATED NORMALLY****
TOTAL RUN TIME: 0 days 0 hours 0 minutes 9 seconds 926 msec
