                         Program Version 5.0.0 -  RELEASE  -
|  1> !LC-PBE RIJCOSX def2-SVP def2/J TightSCF
|  2> *xyz 0 1
|  3> C         -7.33044       -2.67899       -3.20681
|  4> S         -6.01966       -2.92697       -4.41913
|  5> O         -5.64583       -1.58838       -4.91931
|  6> F         -4.88196       -3.50370       -3.66724
|  7> O         -6.54927       -3.80515       -5.42507
|  8> C         -7.46900       -1.24615       -2.71383
|  9> H         -7.11825       -3.37982       -2.39805
| 10> H         -8.24184       -3.00474       -3.70651
| 11> H         -7.67580       -0.60214       -3.54292
| 12> H         -6.55749       -0.94096       -2.24382
| 13> H         -8.27114       -1.18777       -2.00810
| 14> *
| 15> %MaxCore 64000
| 16>
| 17> %pal nprocs 4
| 18> end
| 19>
| 20> %scf
| 21>   MaxIter 150
| 22> end
| 23>
| 24>
| 25>                          ****END OF INPUT****

CARTESIAN COORDINATES (ANGSTROEM)
---------------------------------
  C     -7.330440   -2.678990   -3.206810
  S     -6.019660   -2.926970   -4.419130
  O     -5.645830   -1.588380   -4.919310
  F     -4.881960   -3.503700   -3.667240
  O     -6.549270   -3.805150   -5.425070
  C     -7.469000   -1.246150   -2.713830
  H     -7.118250   -3.379820   -2.398050
  H     -8.241840   -3.004740   -3.706510
  H     -7.675800   -0.602140   -3.542920
  H     -6.557490   -0.940960   -2.243820
  H     -8.271140   -1.187770   -2.008100

 Total Charge           Charge          ....    0
 Multiplicity           Mult            ....    1
 Number of Electrons    NEL             ....   58
 Basis Dimension        Dim             ....  113

ORBITAL ENERGIES
----------------

  NO   OCC          E(Eh)            E(eV)
   0   2.0000     -88.548756     -2409.5341
   1   2.0000     -24.595882      -669.2880
   2   2.0000     -18.993814      -516.8479
   3   2.0000     -18.981885      -516.5233
   4   2.0000     -10.191665      -277.3293
   5   2.0000     -10.146780      -276.1079
   6   2.0000      -8.180935      -222.6146
   7   2.0000      -6.207286      -168.9088
   8   2.0000      -6.200108      -168.7135
   9   2.0000      -6.199205      -168.6890
  10   2.0000      -1.501759       -40.8650
  11   2.0000      -1.275197       -34.6999
  12   2.0000      -1.165072       -31.7032
  13   2.0000      -1.001387       -27.2491
  14   2.0000      -0.883456       -24.0401
  15   2.0000      -0.827318       -22.5125
  16   2.0000      -0.732587       -19.9347
  17   2.0000      -0.713881       -19.4257
  18   2.0000      -0.695003       -18.9120
  19   2.0000      -0.640638       -17.4327
  20   2.0000      -0.625578       -17.0229
  21   2.0000      -0.592508       -16.1230
  22   2.0000      -0.565223       -15.3805
  23   2.0000      -0.540568       -14.7096
  24   2.0000      -0.533512       -14.5176
  25   2.0000      -0.516284       -14.0488
  26   2.0000      -0.461376       -12.5547
  27   2.0000      -0.454069       -12.3559
  28   2.0000      -0.438390       -11.9292
  29   0.0000       0.129287         3.5181
  30   0.0000       0.135703         3.6927
  31   0.0000       0.170352         4.6355
  32   0.0000       0.183784         5.0010
  33   0.0000       0.198333         5.3969

MULLIKEN ATOMIC CHARGES
-----------------------
   0 C :   -0.266357
   1 S :    0.924130
   2 O :   -0.460166
   3 F :   -0.192375
   4 O :   -0.422176
   5 C :   -0.120542
   6 H :    0.119829
   7 H :    0.143609
   8 H :    0.104499
   9 H :    0.085690
  10 H :    0.083859
Sum of atomic charges:   -0.0000000

LOEWDIN ATOMIC CHARGES
----------------------
   0 C :   -0.177696
   1 S :    1.157571
   2 O :   -0.517057
   3 F :   -0.147461
   4 O :   -0.477735
   5 C :   -0.089173
   6 H :    0.048510
   7 H :    0.062750
   8 H :    0.049590
   9 H :    0.043620
  10 H :    0.047082

  Mayer bond orders larger than 0.100000
B(  0-C ,  1-S ) :   0.9077 B(  0-C ,  5-C ) :   1.0460 B(  0-C ,  6-H ) :   0.9377
B(  0-C ,  7-H ) :   0.9375 B(  1-S ,  2-O ) :   1.7816 B(  1-S ,  3-F ) :   1.0115
B(  1-S ,  4-O ) :   1.8200 B(  5-C ,  8-H ) :   0.9669 B(  5-C ,  9-H ) :   0.9731
B(  5-C , 10-H ) :   0.9646

FINAL SINGLE POINT ENERGY      -726.001814114493

DIPOLE MOMENT
-------------
                                X             Y             Z
Electronic contribution:      6.97973      -5.01615      -4.23276
Nuclear contribution   :     -7.60849       4.87515       5.84588
                        -----------------------------------------
Total Dipole Moment    :     -0.62875      -0.14100       1.61312
                        -----------------------------------------
Magnitude (a.u.)       :      1.73706
Magnitude (Debye)      :      4.41525

Rotational constants in cm-1:     0.153704     0.080342     0.079431
Rotational constants in MHz :  4607.928650  2408.599360  2381.267225

                             ****ORCA TERMINATED NORMALLY****
TOTAL RUN TIME: 0 days 0 hours 0 minutes 14 seconds 815 msec
