                         Program Version 5.0.0 -  RELEASE  -
|  1> !LC-PBE RIJCOSX def2-SVP def2/J TightSCF
|  2> *xyz 0 1
|  3> C         -7.33044       -2.67899       -3.20681
|  4> S         -6.01966       -2.92697       -4.41913
|  5> O         -5.64583       -1.58838       -4.91931
|  6> O         -4.88196       -3.50370       -3.66724
|  7> F         -6.54927       -3.80515       -5.42507
|  8> C         -7.46900       -1.24615       -2.71383
|  9> H         -7.11825       -3.37982       -2.39805
| 10> H         -8.24184       -3.00474       -3.70651
| 11> H         -7.67580       -0.60214       -3.54292
| 12> H         -6.55749       -0.94096       -2.24382
| 13> H         -8.27114       -1.18777       -2.00810
| 14> *
| 15> %MaxCore 64000
| 16>
| 17> %pal nprocs 4
| 18> end
| 19>
| 20> %scf
| 21>   MaxIter 150
| 22> end
| 23>
| 24>
| 25>                          ****END OF INPUT****

CARTESIAN COORDINATES (ANGSTROEM)
---------------------------------
  C     -7.330440   -2.678990   -3.206810
  S     -6.019660   -2.926970   -4.419130
  O     -5.645830   -1.588380   -4.919310
  O     -4.881960   -3.503700   -3.667240
  F     -6.549270   -3.805150   -5.425070
  C     -7.469000   -1.246150   -2.713830
  H     -7.118250   -3.379820   -2.398050
  H     -8.241840   -3.004740   -3.706510
  H     -7.675800   -0.602140   -3.542920
  H     -6.557490   -0.940960   -2.243820
  H     -8.271140   -1.187770   -2.008100

 Total Charge           Charge          ....    0
 Multiplicity           Mult            ....    1
 Number of Electrons    NEL             ....   58
 Basis Dimension        Dim             ....  113

ORBITAL ENERGIES
----------------

  NO   OCC          E(Eh)            E(eV)
   0   2.0000     -88.549909     -2409.5655
   1   2.0000     -24.619208      -669.9227
   2   2.0000     -18.981512      -516.5132
   3   2.0000     -18.976897      -516.3876
   4   2.0000     -10.192427      -277.3500
   5   2.0000     -10.146642      -276.1042
   6   2.0000      -8.182350      -222.6531
   7   2.0000      -6.208903      -168.9528
   8   2.0000      -6.201279      -168.7454
   9   2.0000      -6.200341      -168.7199
  10   2.0000      -1.539657       -41.8962
  11   2.0000      -1.259915       -34.2840
  12   2.0000      -1.146174       -31.1890
  13   2.0000      -1.001268       -27.2459
  14   2.0000      -0.896409       -24.3925
  15   2.0000      -0.837043       -22.7771
  16   2.0000      -0.745963       -20.2987
  17   2.0000      -0.741813       -20.1858
  18   2.0000      -0.700659       -19.0659
  19   2.0000      -0.643578       -17.5127
  20   2.0000      -0.622979       -16.9521
  21   2.0000      -0.580107       -15.7855
  22   2.0000      -0.561171       -15.2702
  23   2.0000      -0.543256       -14.7827
  24   2.0000      -0.522903       -14.2289
  25   2.0000      -0.512682       -13.9508
  26   2.0000      -0.452125       -12.3030
  27   2.0000      -0.444740       -12.1020
  28   2.0000      -0.423222       -11.5164
  29   0.0000       0.131334         3.5738
  30   0.0000       0.134901         3.6708
  31   0.0000       0.166294         4.5251
  32   0.0000       0.186668         5.0795
  33   0.0000       0.193294         5.2598

MULLIKEN ATOMIC CHARGES
-----------------------
   0 C :   -0.260193
   1 S :    0.914917
   2 O :   -0.455428
   3 O :   -0.467821
   4 F :   -0.146352
   5 C :   -0.116935
   6 H :    0.139167
   7 H :    0.110295
   8 H :    0.095052
   9 H :    0.102281
  10 H :    0.085016
Sum of atomic charges:    0.0000000

LOEWDIN ATOMIC CHARGES
----------------------
   0 C :   -0.176874
   1 S :    1.151501
   2 O :   -0.513590
   3 O :   -0.524313
   4 F :   -0.101008
   5 C :   -0.083637
   6 H :    0.059251
   7 H :    0.043628
   8 H :    0.046709
   9 H :    0.050513
  10 H :    0.047819

  Mayer bond orders larger than 0.100000
B(  0-C ,  1-S ) :   0.9094 B(  0-C ,  5-C ) :   1.0544 B(  0-C ,  6-H ) :   0.9343
B(  0-C ,  7-H ) :   0.9380 B(  1-S ,  2-O ) :   1.7763 B(  1-S ,  3-O ) :   1.7618
B(  1-S ,  4-F ) :   1.0639 B(  5-C ,  8-H ) :   0.9667 B(  5-C ,  9-H ) :   0.9705
B(  5-C , 10-H ) :   0.9652

FINAL SINGLE POINT ENERGY      -725.981094176355

DIPOLE MOMENT
-------------
                                X             Y             Z
Electronic contribution:      4.08221      -5.51957      -7.28982
Nuclear contribution   :     -5.87110       5.18927       7.67759
                        -----------------------------------------
Total Dipole Moment    :     -1.78889      -0.33030       0.38777
                        -----------------------------------------
Magnitude (a.u.)       :      1.85999
Magnitude (Debye)      :      4.72773

Rotational constants in cm-1:     0.155988     0.080452     0.078187
Rotational constants in MHz :  4676.405251  2411.902056  2343.983816

                             ****ORCA TERMINATED NORMALLY****
TOTAL RUN TIME: 0 days 0 hours 0 minutes 13 seconds 321 msec
