                         Program Version 5.0.0 -  RELEASE  -
|  1> !LC-PBE RIJCOSX def2-TZVPD def2/J TightSCF
|  2> *xyz -1 1
|  3> C          3.76678       -2.26611       -6.51175
|  4> C          2.49670       -1.84416       -5.73570
|  5> H          1.62642       -2.21743       -6.30895
|  6> H          2.48182       -2.45607       -4.79341
|  7> O          2.45973       -0.50920       -5.50576
|  8> H          3.82914       -1.70941       -7.42340
|  9> H          3.71764       -3.31144       -6.73483
| 10> H          4.63199       -2.06931       -5.91377
| 11> *
| 12>
| 13> %MaxCore 64000
| 14>
| 15> %pal nprocs 4
| 16> end
| 17>
| 18> %scf
| 19>   MaxIter 150
| 20> end
| 21>
| 22>
| 23>                          ****END OF INPUT****

CARTESIAN COORDINATES (ANGSTROEM)
---------------------------------
  C      3.766780   -2.266110   -6.511750
  C      2.496700   -1.844160   -5.735700
  H      1.626420   -2.217430   -6.308950
  H      2.481820   -2.456070   -4.793410
  O      2.459730   -0.509200   -5.505760
  H      3.829140   -1.709410   -7.423400
  H      3.717640   -3.311440   -6.734830
  H      4.631990   -2.069310   -5.913770

 Total Charge           Charge          ....   -1
 Multiplicity           Mult            ....    1
 Number of Electrons    NEL             ....   26
 Basis Dimension        Dim             ....  159

ORBITAL ENERGIES
----------------

  NO   OCC          E(Eh)            E(eV)
   0   2.0000     -18.632243      -507.0091
   1   2.0000      -9.926827      -270.1227
   2   2.0000      -9.901027      -269.4207
   3   2.0000      -0.847437       -23.0599
   4   2.0000      -0.692896       -18.8547
   5   2.0000      -0.527308       -14.3488
   6   2.0000      -0.392652       -10.6846
   7   2.0000      -0.365656        -9.9500
   8   2.0000      -0.307354        -8.3635
   9   2.0000      -0.287310        -7.8181
  10   2.0000      -0.245296        -6.6748
  11   2.0000      -0.092466        -2.5161
  12   2.0000      -0.090551        -2.4640
  13   0.0000       0.210180         5.7193
  14   0.0000       0.230116         6.2618
  15   0.0000       0.261226         7.1083
  16   0.0000       0.262152         7.1335
  17   0.0000       0.285997         7.7824

MULLIKEN ATOMIC CHARGES
-----------------------
   0 C :   -1.004366
   1 C :   -0.394359
   2 H :    0.214376
   3 H :    0.206469
   4 O :   -0.909432
   5 H :    0.272453
   6 H :    0.349646
   7 H :    0.265213
Sum of atomic charges:   -1.0000000

LOEWDIN ATOMIC CHARGES
----------------------
   0 C :   -0.189209
   1 C :   -0.653745
   2 H :    0.064222
   3 H :    0.070584
   4 O :   -0.423864
   5 H :    0.048026
   6 H :    0.036916
   7 H :    0.047069

  Mayer bond orders larger than 0.100000
B(  0-C ,  1-C ) :   0.7608 B(  0-C ,  4-O ) :   0.1901 B(  0-C ,  5-H ) :   0.9714
B(  0-C ,  6-H ) :   0.9281 B(  0-C ,  7-H ) :   0.9730 B(  1-C ,  2-H ) :   1.0433
B(  1-C ,  3-H ) :   1.0368 B(  1-C ,  4-O ) :   1.0155

FINAL SINGLE POINT ENERGY      -154.011141922709

DIPOLE MOMENT
-------------
                                X             Y             Z
Electronic contribution:     -1.03275       2.37593       0.91113
Nuclear contribution   :      1.63615      -3.79938      -1.48621
                        -----------------------------------------
Total Dipole Moment    :      0.60341      -1.42345      -0.57508
                        -----------------------------------------
Magnitude (a.u.)       :      1.64956
Magnitude (Debye)      :      4.19284

Rotational constants in cm-1:     1.265582     0.329289     0.289024
Rotational constants in MHz : 37941.194363  9871.829581  8664.719106

                             ****ORCA TERMINATED NORMALLY****
TOTAL RUN TIME: 0 days 0 hours 0 minutes 15 seconds 950 msec
