                         Program Version 5.0.0 -  RELEASE  -
|  1> !LC-PBE RIJCOSX def2-TZVPD def2/J TightSCF
|  2> *xyz 1 1
|  3> C          4.99986       -1.59613       -5.92488
|  4> N          5.28156       -1.97413       -4.53576
|  5> C          3.76678       -2.26611       -6.51175
|  6> C          4.79250       -1.36132       -3.45730
|  7> N          3.93990       -0.37492       -3.55736
|  8> N          5.25986       -1.75422       -2.23913
|  9> H          5.92282       -2.52145       -2.18672
| 10> H          4.65468       -1.64040       -1.44202
| 11> H          5.70914       -2.87560       -4.38702
| 12> H          3.33010       -0.31764       -4.36125
| 13> H          3.69849        0.11447       -2.70833
| 14> H          4.84333       -0.51793       -5.94302
| 15> H          5.90170       -1.82250       -6.49647
| 16> H          3.63046       -1.94025       -7.52177
| 17> H          2.90710       -2.00116       -5.93240
| 18> H          3.89538       -3.32820       -6.49392
| 19> *
| 20>
| 21> %MaxCore 64000
| 22>
| 23> %pal nprocs 4
| 24> end
| 25>
| 26> %scf
| 27>   MaxIter 150
| 28> end
| 29>
| 30>
| 31>                          ****END OF INPUT****

CARTESIAN COORDINATES (ANGSTROEM)
---------------------------------
  C      4.999860   -1.596130   -5.924880
  N      5.281560   -1.974130   -4.535760
  C      3.766780   -2.266110   -6.511750
  C      4.792500   -1.361320   -3.457300
  N      3.939900   -0.374920   -3.557360
  N      5.259860   -1.754220   -2.239130
  H      5.922820   -2.521450   -2.186720
  H      4.654680   -1.640400   -1.442020
  H      5.709140   -2.875600   -4.387020
  H      3.330100   -0.317640   -4.361250
  H      3.698490    0.114470   -2.708330
  H      4.843330   -0.517930   -5.943020
  H      5.901700   -1.822500   -6.496470
  H      3.630460   -1.940250   -7.521770
  H      2.907100   -2.001160   -5.932400
  H      3.895380   -3.328200   -6.493920

 Total Charge           Charge          ....    1
 Multiplicity           Mult            ....    1
 Number of Electrons    NEL             ....   48
 Basis Dimension        Dim             ....  312

ORBITAL ENERGIES
----------------

  NO   OCC          E(Eh)            E(eV)
   0   2.0000     -14.443388      -393.0246
   1   2.0000     -14.441069      -392.9615
   2   2.0000     -14.433483      -392.7550
   3   2.0000     -10.461273      -284.6657
   4   2.0000     -10.321757      -280.8693
   5   2.0000     -10.251726      -278.9636
   6   2.0000      -1.396804       -38.0090
   7   2.0000      -1.278302       -34.7844
   8   2.0000      -1.262176       -34.3456
   9   2.0000      -1.105971       -30.0950
  10   2.0000      -1.001474       -27.2515
  11   2.0000      -0.963121       -26.2079
  12   2.0000      -0.941903       -25.6305
  13   2.0000      -0.889662       -24.2089
  14   2.0000      -0.839231       -22.8366
  15   2.0000      -0.833272       -22.6745
  16   2.0000      -0.783974       -21.3330
  17   2.0000      -0.782006       -21.2795
  18   2.0000      -0.748746       -20.3744
  19   2.0000      -0.701250       -19.0820
  20   2.0000      -0.667120       -18.1532
  21   2.0000      -0.645204       -17.5569
  22   2.0000      -0.614240       -16.7143
  23   2.0000      -0.579464       -15.7680
  24   0.0000      -0.093593        -2.5468
  25   0.0000      -0.081139        -2.2079
  26   0.0000      -0.057003        -1.5511
  27   0.0000      -0.048875        -1.3300
  28   0.0000      -0.026825        -0.7299

MULLIKEN ATOMIC CHARGES
-----------------------
   0 C :   -0.799837
   1 N :   -0.198829
   2 C :   -1.035205
   3 C :    0.699982
   4 N :   -0.368652
   5 N :   -0.476731
   6 H :    0.259575
   7 H :    0.268122
   8 H :    0.236713
   9 H :    0.270772
  10 H :    0.239478
  11 H :    0.452934
  12 H :    0.358596
  13 H :    0.380108
  14 H :    0.347199
  15 H :    0.365776
Sum of atomic charges:    1.0000000

LOEWDIN ATOMIC CHARGES
----------------------
   0 C :   -0.222172
   1 N :    0.081718
   2 C :   -0.085709
   3 C :   -0.434211
   4 N :    0.220490
   5 N :    0.184110
   6 H :    0.139750
   7 H :    0.134139
   8 H :    0.169745
   9 H :    0.139199
  10 H :    0.151099
  11 H :    0.128127
  12 H :    0.139566
  13 H :    0.092661
  14 H :    0.074448
  15 H :    0.087038

  Mayer bond orders larger than 0.100000
B(  0-C ,  1-N ) :   0.8047 B(  0-C ,  2-C ) :   0.6001 B(  0-C ,  3-C ) :  -0.1475
B(  0-C ,  4-N ) :   0.1351 B(  0-C , 11-H ) :   0.8442 B(  0-C , 12-H ) :   0.9079
B(  1-N ,  3-C ) :   1.1833 B(  1-N ,  8-H ) :   1.0064 B(  2-C , 13-H ) :   0.9528
B(  2-C , 14-H ) :   0.8835 B(  2-C , 15-H ) :   0.9369 B(  3-C ,  4-N ) :   1.1554
B(  3-C ,  5-N ) :   1.0302 B(  4-N ,  9-H ) :   0.9202 B(  4-N , 10-H ) :   0.9840
B(  5-N ,  6-H ) :   0.9382 B(  5-N ,  7-H ) :   0.9658

FINAL SINGLE POINT ENERGY      -283.600737271177

DIPOLE MOMENT
-------------
                                X             Y             Z
Electronic contribution:      1.73806       1.08942       4.73739
Nuclear contribution   :     -1.95709      -1.20097      -3.70214
                        -----------------------------------------
Total Dipole Moment    :     -0.21903      -0.11155       1.03525
                        -----------------------------------------
Magnitude (a.u.)       :      1.06403
Magnitude (Debye)      :      2.70454

Rotational constants in cm-1:     0.241661     0.071598     0.061743
Rotational constants in MHz :  7244.800091  2146.442409  1851.001864

                             ****ORCA TERMINATED NORMALLY****
TOTAL RUN TIME: 0 days 0 hours 1 minutes 6 seconds 441 msec
