                         Program Version 5.0.0 -  RELEASE  -
|  1> !LC-PBE RIJCOSX def2-TZVPD def2/J TightSCF xyzfile
|  2>
|  3> *xyzfile 0 1 B.xyz
|  4>
|  5> %MaxCore 64000
|  6>
|  7> %pal nprocs 4
|  8> end
|  9>
| 10> %scf
| 11>   MaxIter 150
| 12> end
| 13>
| 14>
| 15>                          ****END OF INPUT****

CARTESIAN COORDINATES (ANGSTROEM)
---------------------------------
  C      4.999862   -1.596133   -5.924876
  N      5.281560   -1.974132   -4.535764
  C      3.766779   -2.266110   -6.511752
  C      2.496702   -1.844161   -5.735704
  H      1.626416   -2.217434   -6.308950
  H      2.481824   -2.456069   -4.793414
  O      2.459729   -0.509204   -5.505757
  C      4.792500   -1.361316   -3.457295
  N      3.939898   -0.374925   -3.557359
  N      5.259860   -1.754224   -2.239133
  H      5.922824   -2.521451   -2.186720
  H      4.654678   -1.640404   -1.442016
  H      5.709139   -2.875599   -4.387021
  H      3.330101   -0.317639   -4.361247
  H      3.698494    0.114468   -2.708333
  H      4.843333   -0.517930   -5.943019
  H      5.901695   -1.822503   -6.496467
  H      3.886191   -3.357076   -6.533604
  H      3.685602   -1.922168   -7.547128

 Total Charge           Charge          ....    0
 Multiplicity           Mult            ....    1
 Number of Electrons    NEL             ....   64
 Basis Dimension        Dim             ....  398

ORBITAL ENERGIES
----------------

  NO   OCC          E(Eh)            E(eV)
   0   2.0000     -18.824213      -512.2329
   1   2.0000     -14.280629      -388.5957
   2   2.0000     -14.274128      -388.4188
   3   2.0000     -14.228436      -387.1754
   4   2.0000     -10.285146      -279.8731
   5   2.0000     -10.148852      -276.1643
   6   2.0000     -10.096560      -274.7414
   7   2.0000     -10.083599      -274.3887
   8   2.0000      -1.223524       -33.2938
   9   2.0000      -1.109304       -30.1857
  10   2.0000      -1.089317       -29.6418
  11   2.0000      -1.046075       -28.4651
  12   2.0000      -0.929248       -25.2861
  13   2.0000      -0.840423       -22.8691
  14   2.0000      -0.791358       -21.5340
  15   2.0000      -0.765685       -20.8353
  16   2.0000      -0.738503       -20.0957
  17   2.0000      -0.695526       -18.9262
  18   2.0000      -0.663053       -18.0426
  19   2.0000      -0.652534       -17.7563
  20   2.0000      -0.613623       -16.6975
  21   2.0000      -0.608207       -16.5502
  22   2.0000      -0.579170       -15.7600
  23   2.0000      -0.547435       -14.8965
  24   2.0000      -0.496533       -13.5114
  25   2.0000      -0.476903       -12.9772
  26   2.0000      -0.464467       -12.6388
  27   2.0000      -0.442617       -12.0442
  28   2.0000      -0.428132       -11.6501
  29   2.0000      -0.404096       -10.9960
  30   2.0000      -0.290913        -7.9162
  31   2.0000      -0.287739        -7.8298
  32   0.0000       0.033651         0.9157
  33   0.0000       0.066880         1.8199
  34   0.0000       0.076345         2.0774
  35   0.0000       0.081532         2.2186
  36   0.0000       0.098762         2.6875

MULLIKEN ATOMIC CHARGES
-----------------------
   0 C :   -0.820902
   1 N :   -0.215556
   2 C :   -0.471365
   3 C :   -0.627398
   4 H :    0.360861
   5 H :    0.240068
   6 O :   -0.903284
   7 C :    0.634860
   8 N :   -0.278901
   9 N :   -0.525011
  10 H :    0.229147
  11 H :    0.240487
  12 H :    0.225059
  13 H :    0.238068
  14 H :    0.183861
  15 H :    0.458280
  16 H :    0.353700
  17 H :    0.340358
  18 H :    0.337665
Sum of atomic charges:   -0.0000000

LOEWDIN ATOMIC CHARGES
----------------------
   0 C :   -0.195677
   1 N :    0.076413
   2 C :   -0.204801
   3 C :   -0.472299
   4 H :    0.105240
   5 H :    0.103028
   6 O :   -0.306549
   7 C :   -0.456616
   8 N :    0.213043
   9 N :    0.145085
  10 H :    0.119185
  11 H :    0.118086
  12 H :    0.155294
  13 H :   -0.020288
  14 H :    0.137607
  15 H :    0.130381
  16 H :    0.124242
  17 H :    0.110771
  18 H :    0.117857

  Mayer bond orders larger than 0.100000
B(  0-C ,  1-N ) :   0.8238 B(  0-C ,  2-C ) :   0.7708 B(  0-C ,  6-O ) :   0.1278
B(  0-C ,  7-C ) :  -0.1122 B(  0-C , 15-H ) :   0.8404 B(  0-C , 16-H ) :   0.8961
B(  1-N ,  7-C ) :   1.1447 B(  1-N , 12-H ) :   0.9967 B(  2-C ,  3-C ) :   0.7919
B(  2-C , 17-H ) :   0.9510 B(  2-C , 18-H ) :   0.8983 B(  3-C ,  4-H ) :   0.9679
B(  3-C ,  5-H ) :   1.0208 B(  3-C ,  6-O ) :   1.0272 B(  6-O ,  8-N ) :  -0.1482
B(  6-O , 13-H ) :   0.2549 B(  7-C ,  8-N ) :   1.2420 B(  7-C ,  9-N ) :   0.9256
B(  8-N , 13-H ) :   0.7320 B(  8-N , 14-H ) :   1.0397 B(  9-N , 10-H ) :   0.9659
B(  9-N , 11-H ) :   0.9854

FINAL SINGLE POINT ENERGY      -397.432308089835

DIPOLE MOMENT
-------------
                                X             Y             Z
Electronic contribution:      1.94759       1.86464       3.72381
Nuclear contribution   :      0.51577      -3.31768      -1.36804
                        -----------------------------------------
Total Dipole Moment    :      2.46336      -1.45305       2.35577
                        -----------------------------------------
Magnitude (a.u.)       :      3.70528
Magnitude (Debye)      :      9.41808

Rotational constants in cm-1:     0.111492     0.050787     0.040163
Rotational constants in MHz :  3342.457536  1522.560798  1204.057148

                             ****ORCA TERMINATED NORMALLY****
TOTAL RUN TIME: 0 days 0 hours 2 minutes 0 seconds 175 msec
