                         Program Version 5.0.0 -  RELEASE  -
|  1> !LC-PBE RIJCOSX def2-TZVPD def2/J TightSCF
|  2> *xyz 0 1
|  3> C          3.76678       -2.26611       -6.51175
|  4> C          2.49670       -1.84416       -5.73570
|  5> H          1.62642       -2.21743       -6.30895
|  6> H          2.48182       -2.45607       -4.79341
|  7> F          2.45973       -0.50920       -5.50576
|  8> H          3.82914       -1.70941       -7.42340
|  9> H          3.71764       -3.31144       -6.73483
| 10> H          4.63199       -2.06931       -5.91377
| 11> *
| 12>
| 13> %MaxCore 64000
| 14>
| 15> %pal nprocs 4
| 16> end
| 17>
| 18> %scf
| 19>   MaxIter 150
| 20> end
| 21>
| 22>
| 23>                          ****END OF INPUT****

CARTESIAN COORDINATES (ANGSTROEM)
---------------------------------
  C      3.766780   -2.266110   -6.511750
  C      2.496700   -1.844160   -5.735700
  H      1.626420   -2.217430   -6.308950
  H      2.481820   -2.456070   -4.793410
  F      2.459730   -0.509200   -5.505760
  H      3.829140   -1.709410   -7.423400
  H      3.717640   -3.311440   -6.734830
  H      4.631990   -2.069310   -5.913770

 Total Charge           Charge          ....    0
 Multiplicity           Mult            ....    1
 Number of Electrons    NEL             ....   26
 Basis Dimension        Dim             ....  159

ORBITAL ENERGIES
----------------

  NO   OCC          E(Eh)            E(eV)
   0   2.0000     -24.478722      -666.0999
   1   2.0000     -10.196017      -277.4477
   2   2.0000     -10.107795      -275.0471
   3   2.0000      -1.361762       -37.0554
   4   2.0000      -0.938300       -25.5324
   5   2.0000      -0.795000       -21.6330
   6   2.0000      -0.661332       -17.9958
   7   2.0000      -0.649989       -17.6871
   8   2.0000      -0.609851       -16.5949
   9   2.0000      -0.546562       -14.8727
  10   2.0000      -0.536836       -14.6080
  11   2.0000      -0.467835       -12.7304
  12   2.0000      -0.460385       -12.5277
  13   0.0000       0.069168         1.8822
  14   0.0000       0.090998         2.4762
  15   0.0000       0.114230         3.1084
  16   0.0000       0.116648         3.1742
  17   0.0000       0.145937         3.9711

MULLIKEN ATOMIC CHARGES
-----------------------
   0 C :   -1.090027
   1 C :   -0.215958
   2 H :    0.276461
   3 H :    0.271308
   4 F :   -0.261807
   5 H :    0.331197
   6 H :    0.367978
   7 H :    0.320847
Sum of atomic charges:   -0.0000000

LOEWDIN ATOMIC CHARGES
----------------------
   0 C :   -0.107771
   1 C :   -0.323853
   2 H :    0.117694
   3 H :    0.125754
   4 F :   -0.029206
   5 H :    0.072389
   6 H :    0.073584
   7 H :    0.071408

  Mayer bond orders larger than 0.100000
B(  0-C ,  1-C ) :   0.7709 B(  0-C ,  5-H ) :   0.9225 B(  0-C ,  6-H ) :   0.9046
B(  0-C ,  7-H ) :   0.9316 B(  1-C ,  2-H ) :   0.9629 B(  1-C ,  3-H ) :   0.9610
B(  1-C ,  4-F ) :   0.8079

FINAL SINGLE POINT ENERGY      -178.631978202862

DIPOLE MOMENT
-------------
                                X             Y             Z
Electronic contribution:     -2.07765       4.29564       1.80599
Nuclear contribution   :      2.16248      -5.01128      -1.96962
                        -----------------------------------------
Total Dipole Moment    :      0.08483      -0.71564      -0.16363
                        -----------------------------------------
Magnitude (a.u.)       :      0.73900
Magnitude (Debye)      :      1.87838

Rotational constants in cm-1:     1.244010     0.306580     0.270375
Rotational constants in MHz : 37294.476802  9191.037795  8105.639967

                             ****ORCA TERMINATED NORMALLY****
TOTAL RUN TIME: 0 days 0 hours 0 minutes 14 seconds 586 msec
