                         Program Version 5.0.0 -  RELEASE  -
|  1> !LC-PBE RIJCOSX def2-TZVPD def2/J TightSCF
|  2> *xyz 0 1
|  3> C          4.99986       -1.59613       -5.92488
|  4> C          5.28156       -1.97413       -4.53576
|  5> C          3.76678       -2.26611       -6.51175
|  6> C          4.79250       -1.36132       -3.45730
|  7> N          3.93990       -0.37492       -3.55736
|  8> N          5.25986       -1.75422       -2.23913
|  9> H          5.92282       -2.52145       -2.18672
| 10> H          4.65468       -1.64040       -1.44202
| 11> H          5.70914       -2.87560       -4.38702
| 12> H          3.33010       -0.31764       -4.36125
| 13> H          3.69849        0.11447       -2.70833
| 14> H          4.84333       -0.51793       -5.94302
| 15> H          5.90170       -1.82250       -6.49647
| 16> H          3.63046       -1.94025       -7.52177
| 17> H          2.90710       -2.00116       -5.93240
| 18> H          3.89538       -3.32820       -6.49392
| 19> *
| 20>
| 21> %MaxCore 64000
| 22>
| 23> %pal nprocs 4
| 24> end
| 25>
| 26> %scf
| 27>   MaxIter 150
| 28> end
| 29>
| 30>
| 31>                          ****END OF INPUT****

CARTESIAN COORDINATES (ANGSTROEM)
---------------------------------
  C      4.999860   -1.596130   -5.924880
  C      5.281560   -1.974130   -4.535760
  C      3.766780   -2.266110   -6.511750
  C      4.792500   -1.361320   -3.457300
  N      3.939900   -0.374920   -3.557360
  N      5.259860   -1.754220   -2.239130
  H      5.922820   -2.521450   -2.186720
  H      4.654680   -1.640400   -1.442020
  H      5.709140   -2.875600   -4.387020
  H      3.330100   -0.317640   -4.361250
  H      3.698490    0.114470   -2.708330
  H      4.843330   -0.517930   -5.943020
  H      5.901700   -1.822500   -6.496470
  H      3.630460   -1.940250   -7.521770
  H      2.907100   -2.001160   -5.932400
  H      3.895380   -3.328200   -6.493920

 Total Charge           Charge          ....    0
 Multiplicity           Mult            ....    1
 Number of Electrons    NEL             ....   48
 Basis Dimension        Dim             ....  312

ORBITAL ENERGIES
----------------

  NO   OCC          E(Eh)            E(eV)
   0   2.0000     -14.217328      -386.8731
   1   2.0000     -14.209540      -386.6613
   2   2.0000     -10.162561      -276.5373
   3   2.0000     -10.087273      -274.4887
   4   2.0000     -10.080579      -274.3065
   5   2.0000     -10.038225      -273.1540
   6   2.0000      -1.139935       -31.0192
   7   2.0000      -1.039372       -28.2827
   8   2.0000      -0.952137       -25.9090
   9   2.0000      -0.863566       -23.4988
  10   2.0000      -0.775123       -21.0922
  11   2.0000      -0.731665       -19.9096
  12   2.0000      -0.694945       -18.9104
  13   2.0000      -0.651456       -17.7270
  14   2.0000      -0.616980       -16.7889
  15   2.0000      -0.586492       -15.9593
  16   2.0000      -0.556884       -15.1536
  17   2.0000      -0.541077       -14.7235
  18   2.0000      -0.520915       -14.1748
  19   2.0000      -0.487863       -13.2754
  20   2.0000      -0.455809       -12.4032
  21   2.0000      -0.446410       -12.1474
  22   2.0000      -0.400235       -10.8910
  23   2.0000      -0.278963        -7.5910
  24   0.0000       0.062053         1.6885
  25   0.0000       0.086198         2.3456
  26   0.0000       0.091430         2.4879
  27   0.0000       0.101004         2.7485
  28   0.0000       0.115234         3.1357

MULLIKEN ATOMIC CHARGES
-----------------------
   0 C :   -0.937873
   1 C :   -0.683088
   2 C :   -0.993022
   3 C :    0.742916
   4 N :   -0.432603
   5 N :   -0.570820
   6 H :    0.219336
   7 H :    0.216308
   8 H :    0.281351
   9 H :    0.222505
  10 H :    0.208834
  11 H :    0.400781
  12 H :    0.325508
  13 H :    0.315113
  14 H :    0.338324
  15 H :    0.346431
Sum of atomic charges:   -0.0000000

LOEWDIN ATOMIC CHARGES
----------------------
   0 C :   -0.302989
   1 C :   -0.154317
   2 C :   -0.131808
   3 C :   -0.554322
   4 N :    0.123958
   5 N :    0.086817
   6 H :    0.110570
   7 H :    0.094294
   8 H :    0.071693
   9 H :    0.112609
  10 H :    0.113746
  11 H :    0.107020
  12 H :    0.112435
  13 H :    0.068310
  14 H :    0.066612
  15 H :    0.075374

  Mayer bond orders larger than 0.100000
B(  0-C ,  1-C ) :   0.5690 B(  0-C ,  2-C ) :   0.4859 B(  0-C ,  4-N ) :   0.1016
B(  0-C , 11-H ) :   0.9270 B(  0-C , 12-H ) :   1.0213 B(  1-C ,  2-C ) :  -0.1213
B(  1-C ,  3-C ) :   1.2572 B(  1-C ,  4-N ) :   0.1230 B(  1-C ,  5-N ) :   0.1304
B(  1-C ,  8-H ) :   1.1248 B(  2-C , 13-H ) :   0.9757 B(  2-C , 14-H ) :   0.9252
B(  2-C , 15-H ) :   0.9687 B(  3-C ,  4-N ) :   0.8905 B(  3-C ,  5-N ) :   0.8095
B(  3-C ,  8-H ) :  -0.2055 B(  4-N ,  9-H ) :   0.9624 B(  4-N , 10-H ) :   1.0114
B(  5-N ,  6-H ) :   0.9734 B(  5-N ,  7-H ) :   1.0250

FINAL SINGLE POINT ENERGY      -267.137391871112

DIPOLE MOMENT
-------------
                                X             Y             Z
Electronic contribution:      1.21005       1.37102       4.48960
Nuclear contribution   :     -1.82485      -1.28952      -3.74132
                        -----------------------------------------
Total Dipole Moment    :     -0.61481       0.08150       0.74828
                        -----------------------------------------
Magnitude (a.u.)       :      0.97188
Magnitude (Debye)      :      2.47033

Rotational constants in cm-1:     0.245790     0.071632     0.062004
Rotational constants in MHz :  7368.599517  2147.482078  1858.844841

                             ****ORCA TERMINATED NORMALLY****
TOTAL RUN TIME: 0 days 0 hours 1 minutes 7 seconds 120 msec
