                         Program Version 5.0.0 -  RELEASE  -
|  1> !LC-PBE RIJCOSX def2-TZVPD def2/J TightSCF
|  2> *xyz 0 1
|  3> C          4.99986       -1.59613       -5.92488
|  4> N          5.28156       -1.97413       -4.53576
|  5> C          3.76678       -2.26611       -6.51175
|  6> C          4.79250       -1.36132       -3.45730
|  7> C          3.93990       -0.37492       -3.55736
|  8> N          5.25986       -1.75422       -2.23913
|  9> H          5.92282       -2.52145       -2.18672
| 10> H          4.65468       -1.64040       -1.44202
| 11> H          5.70914       -2.87560       -4.38702
| 12> H          3.33010       -0.31764       -4.36125
| 13> H          3.69849        0.11447       -2.70833
| 14> H          4.84333       -0.51793       -5.94302
| 15> H          5.90170       -1.82250       -6.49647
| 16> H          3.63046       -1.94025       -7.52177
| 17> H          2.90710       -2.00116       -5.93240
| 18> H          3.89538       -3.32820       -6.49392
| 19> *
| 20>
| 21> %MaxCore 64000
| 22>
| 23> %pal nprocs 4
| 24> end
| 25>
| 26> %scf
| 27>   MaxIter 150
| 28> end
| 29>
| 30>
| 31>                          ****END OF INPUT****

CARTESIAN COORDINATES (ANGSTROEM)
---------------------------------
  C      4.999860   -1.596130   -5.924880
  N      5.281560   -1.974130   -4.535760
  C      3.766780   -2.266110   -6.511750
  C      4.792500   -1.361320   -3.457300
  C      3.939900   -0.374920   -3.557360
  N      5.259860   -1.754220   -2.239130
  H      5.922820   -2.521450   -2.186720
  H      4.654680   -1.640400   -1.442020
  H      5.709140   -2.875600   -4.387020
  H      3.330100   -0.317640   -4.361250
  H      3.698490    0.114470   -2.708330
  H      4.843330   -0.517930   -5.943020
  H      5.901700   -1.822500   -6.496470
  H      3.630460   -1.940250   -7.521770
  H      2.907100   -2.001160   -5.932400
  H      3.895380   -3.328200   -6.493920

 Total Charge           Charge          ....    0
 Multiplicity           Mult            ....    1
 Number of Electrons    NEL             ....   48
 Basis Dimension        Dim             ....  312

ORBITAL ENERGIES
----------------

  NO   OCC          E(Eh)            E(eV)
   0   2.0000     -14.216637      -386.8544
   1   2.0000     -14.211005      -386.7011
   2   2.0000     -10.165228      -276.6099
   3   2.0000     -10.145900      -276.0840
   4   2.0000     -10.096756      -274.7467
   5   2.0000     -10.025775      -272.8152
   6   2.0000      -1.140738       -31.0411
   7   2.0000      -1.050892       -28.5962
   8   2.0000      -0.929446       -25.2915
   9   2.0000      -0.887005       -24.1366
  10   2.0000      -0.799978       -21.7685
  11   2.0000      -0.716869       -19.5070
  12   2.0000      -0.693109       -18.8605
  13   2.0000      -0.657840       -17.9007
  14   2.0000      -0.597573       -16.2608
  15   2.0000      -0.589012       -16.0278
  16   2.0000      -0.572829       -15.5875
  17   2.0000      -0.535535       -14.5726
  18   2.0000      -0.519880       -14.1467
  19   2.0000      -0.504101       -13.7173
  20   2.0000      -0.489550       -13.3213
  21   2.0000      -0.477252       -12.9867
  22   2.0000      -0.381258       -10.3745
  23   2.0000      -0.293029        -7.9737
  24   0.0000       0.063282         1.7220
  25   0.0000       0.083178         2.2634
  26   0.0000       0.089231         2.4281
  27   0.0000       0.094220         2.5638
  28   0.0000       0.118144         3.2149

MULLIKEN ATOMIC CHARGES
-----------------------
   0 C :   -0.808062
   1 N :   -0.289680
   2 C :   -1.029531
   3 C :    0.788825
   4 C :   -1.291409
   5 N :   -0.521461
   6 H :    0.219828
   7 H :    0.237458
   8 H :    0.204158
   9 H :    0.326284
  10 H :    0.323858
  11 H :    0.466523
  12 H :    0.345021
  13 H :    0.366817
  14 H :    0.325832
  15 H :    0.335540
Sum of atomic charges:    0.0000000

LOEWDIN ATOMIC CHARGES
----------------------
   0 C :   -0.257572
   1 N :    0.002784
   2 C :   -0.110574
   3 C :   -0.562835
   4 C :   -0.014339
   5 N :    0.094108
   6 H :    0.101766
   7 H :    0.105584
   8 H :    0.139628
   9 H :    0.019940
  10 H :    0.025359
  11 H :    0.118232
  12 H :    0.119531
  13 H :    0.074400
  14 H :    0.071309
  15 H :    0.072679

  Mayer bond orders larger than 0.100000
B(  0-C ,  1-N ) :   0.8053 B(  0-C ,  2-C ) :   0.5629 B(  0-C ,  3-C ) :  -0.1099
B(  0-C ,  4-C ) :   0.2742 B(  0-C , 11-H ) :   0.8733 B(  0-C , 12-H ) :   0.8969
B(  1-N ,  3-C ) :   0.9496 B(  1-N ,  4-C ) :   0.1001 B(  1-N ,  8-H ) :   1.0375
B(  2-C , 13-H ) :   0.9471 B(  2-C , 14-H ) :   0.9380 B(  2-C , 15-H ) :   0.9445
B(  3-C ,  4-C ) :   1.1936 B(  3-C ,  5-N ) :   0.8532 B(  4-C ,  9-H ) :   0.9376
B(  4-C , 10-H ) :   1.0531 B(  5-N ,  6-H ) :   0.9881 B(  5-N ,  7-H ) :   0.9777

FINAL SINGLE POINT ENERGY      -267.129175835954

DIPOLE MOMENT
-------------
                                X             Y             Z
Electronic contribution:      2.39343      -0.10005       3.48200
Nuclear contribution   :     -2.10948      -0.95026      -3.53375
                        -----------------------------------------
Total Dipole Moment    :      0.28395      -1.05031      -0.05175
                        -----------------------------------------
Magnitude (a.u.)       :      1.08925
Magnitude (Debye)      :      2.76865

Rotational constants in cm-1:     0.255209     0.072067     0.062929
Rotational constants in MHz :  7650.964615  2160.525743  1886.569524

                             ****ORCA TERMINATED NORMALLY****
TOTAL RUN TIME: 0 days 0 hours 1 minutes 6 seconds 936 msec
