                         Program Version 5.0.0 -  RELEASE  -
|  1> !LC-PBE RIJCOSX def2-TZVPD def2/J TightSCF
|  2> *xyz 0 1
|  3> C          4.99986       -1.59613       -5.92488
|  4> N          5.28156       -1.97413       -4.53576
|  5> C          3.76678       -2.26611       -6.51175
|  6> C          4.79250       -1.36132       -3.45730
|  7> N          3.93990       -0.37492       -3.55736
|  8> C          5.25986       -1.75422       -2.23913
|  9> H          5.92282       -2.52145       -2.18672
| 10> H          4.65468       -1.64040       -1.44202
| 11> H          5.70914       -2.87560       -4.38702
| 12> H          3.33010       -0.31764       -4.36125
| 13> H          3.69849        0.11447       -2.70833
| 14> H          4.84333       -0.51793       -5.94302
| 15> H          5.90170       -1.82250       -6.49647
| 16> H          3.63046       -1.94025       -7.52177
| 17> H          2.90710       -2.00116       -5.93240
| 18> H          3.89538       -3.32820       -6.49392
| 19> *
| 20>
| 21> %MaxCore 64000
| 22>
| 23> %pal nprocs 4
| 24> end
| 25>
| 26> %scf
| 27>   MaxIter 150
| 28> end
| 29>
| 30>
| 31>                          ****END OF INPUT****

CARTESIAN COORDINATES (ANGSTROEM)
---------------------------------
  C      4.999860   -1.596130   -5.924880
  N      5.281560   -1.974130   -4.535760
  C      3.766780   -2.266110   -6.511750
  C      4.792500   -1.361320   -3.457300
  N      3.939900   -0.374920   -3.557360
  C      5.259860   -1.754220   -2.239130
  H      5.922820   -2.521450   -2.186720
  H      4.654680   -1.640400   -1.442020
  H      5.709140   -2.875600   -4.387020
  H      3.330100   -0.317640   -4.361250
  H      3.698490    0.114470   -2.708330
  H      4.843330   -0.517930   -5.943020
  H      5.901700   -1.822500   -6.496470
  H      3.630460   -1.940250   -7.521770
  H      2.907100   -2.001160   -5.932400
  H      3.895380   -3.328200   -6.493920

 Total Charge           Charge          ....    0
 Multiplicity           Mult            ....    1
 Number of Electrons    NEL             ....   48
 Basis Dimension        Dim             ....  312

ORBITAL ENERGIES
----------------

  NO   OCC          E(Eh)            E(eV)
   0   2.0000     -14.218917      -386.9164
   1   2.0000     -14.217105      -386.8671
   2   2.0000     -10.170687      -276.7585
   3   2.0000     -10.155405      -276.3426
   4   2.0000     -10.108346      -275.0621
   5   2.0000     -10.020493      -272.6715
   6   2.0000      -1.151543       -31.3351
   7   2.0000      -1.061317       -28.8799
   8   2.0000      -0.949154       -25.8278
   9   2.0000      -0.866397       -23.5759
  10   2.0000      -0.791132       -21.5278
  11   2.0000      -0.758558       -20.6414
  12   2.0000      -0.695960       -18.9380
  13   2.0000      -0.646583       -17.5944
  14   2.0000      -0.625583       -17.0230
  15   2.0000      -0.587605       -15.9895
  16   2.0000      -0.576356       -15.6834
  17   2.0000      -0.544204       -14.8085
  18   2.0000      -0.525933       -14.3114
  19   2.0000      -0.500212       -13.6115
  20   2.0000      -0.494747       -13.4627
  21   2.0000      -0.482037       -13.1169
  22   2.0000      -0.388318       -10.5667
  23   2.0000      -0.277555        -7.5526
  24   0.0000       0.059741         1.6256
  25   0.0000       0.085769         2.3339
  26   0.0000       0.087152         2.3715
  27   0.0000       0.092497         2.5170
  28   0.0000       0.118083         3.2132

MULLIKEN ATOMIC CHARGES
-----------------------
   0 C :   -0.789378
   1 N :   -0.268324
   2 C :   -1.018259
   3 C :    0.731635
   4 N :   -0.452916
   5 C :   -1.301890
   6 H :    0.314080
   7 H :    0.329815
   8 H :    0.189635
   9 H :    0.234691
  10 H :    0.213066
  11 H :    0.444461
  12 H :    0.347145
  13 H :    0.365863
  14 H :    0.334694
  15 H :    0.325683
Sum of atomic charges:    0.0000000

LOEWDIN ATOMIC CHARGES
----------------------
   0 C :   -0.259085
   1 N :    0.012809
   2 C :   -0.113064
   3 C :   -0.575411
   4 N :    0.122496
   5 C :   -0.031971
   6 H :    0.008876
   7 H :    0.004053
   8 H :    0.147643
   9 H :    0.105259
  10 H :    0.123452
  11 H :    0.115697
  12 H :    0.120939
  13 H :    0.074374
  14 H :    0.068277
  15 H :    0.075656

  Mayer bond orders larger than 0.100000
B(  0-C ,  1-N ) :   0.7868 B(  0-C ,  2-C ) :   0.5521 B(  0-C ,  3-C ) :  -0.1584
B(  0-C ,  4-N ) :   0.1661 B(  0-C , 11-H ) :   0.8766 B(  0-C , 12-H ) :   0.9302
B(  1-N ,  3-C ) :   0.9937 B(  1-N ,  5-C ) :   0.1272 B(  1-N ,  8-H ) :   1.0266
B(  2-C , 13-H ) :   0.9582 B(  2-C , 14-H ) :   0.9173 B(  2-C , 15-H ) :   0.9668
B(  3-C ,  4-N ) :   0.9812 B(  3-C ,  5-C ) :   1.0382 B(  3-C ,  7-H ) :  -0.1378
B(  4-N ,  5-C ) :   0.1162 B(  4-N ,  9-H ) :   0.9655 B(  4-N , 10-H ) :   0.9927
B(  5-C ,  6-H ) :   0.9917 B(  5-C ,  7-H ) :   1.0523

FINAL SINGLE POINT ENERGY      -267.122356833669

DIPOLE MOMENT
-------------
                                X             Y             Z
Electronic contribution:      1.12225       1.24536       2.09682
Nuclear contribution   :     -1.82946      -1.24287      -3.25410
                        -----------------------------------------
Total Dipole Moment    :     -0.70721       0.00249      -1.15727
                        -----------------------------------------
Magnitude (a.u.)       :      1.35626
Magnitude (Debye)      :      3.44733

Rotational constants in cm-1:     0.244672     0.074506     0.064043
Rotational constants in MHz :  7335.067153  2233.624025  1919.970379

                             ****ORCA TERMINATED NORMALLY****
TOTAL RUN TIME: 0 days 0 hours 1 minutes 7 seconds 428 msec
