                         Program Version 5.0.0 -  RELEASE  -
|  1> !LC-PBE RIJCOSX def2-TZVPD def2/J TightSCF xyzfile
|  2>
|  3> *xyzfile 0 1 D1.xyz
|  4>
|  5> %MaxCore 64000
|  6>
|  7> %pal nprocs 4
|  8> end
|  9>
| 10> %scf
| 11>   MaxIter 150
| 12> end
| 13>
| 14>
| 15>                          ****END OF INPUT****

CARTESIAN COORDINATES (ANGSTROEM)
---------------------------------
  C      4.999862   -1.596133   -5.924876
  C      5.281560   -1.974132   -4.535764
  C      3.766779   -2.266110   -6.511752
  C      2.496702   -1.844161   -5.735704
  H      1.626416   -2.217434   -6.308950
  H      2.481824   -2.456069   -4.793414
  F      2.459729   -0.509204   -5.505757
  C      4.792500   -1.361316   -3.457295
  N      3.939898   -0.374925   -3.557359
  N      5.259860   -1.754224   -2.239133
  H      5.922824   -2.521451   -2.186720
  H      4.654678   -1.640404   -1.442016
  H      5.709139   -2.875599   -4.387021
  H      3.330101   -0.317639   -4.361247
  H      3.698494    0.114468   -2.708333
  H      4.843333   -0.517930   -5.943019
  H      5.901695   -1.822503   -6.496467
  H      3.886191   -3.357076   -6.533604
  H      3.685602   -1.922168   -7.547128

 Total Charge           Charge          ....    0
 Multiplicity           Mult            ....    1
 Number of Electrons    NEL             ....   64
 Basis Dimension        Dim             ....  398

ORBITAL ENERGIES
----------------

  NO   OCC          E(Eh)            E(eV)
   0   2.0000     -24.511442      -666.9902
   1   2.0000     -14.204507      -386.5243
   2   2.0000     -14.188872      -386.0988
   3   2.0000     -10.198943      -277.5274
   4   2.0000     -10.157118      -276.3892
   5   2.0000     -10.111225      -275.1404
   6   2.0000     -10.089660      -274.5536
   7   2.0000     -10.033739      -273.0319
   8   2.0000      -1.402188       -38.1555
   9   2.0000      -1.128751       -30.7149
  10   2.0000      -1.029361       -28.0103
  11   2.0000      -0.975204       -26.5367
  12   2.0000      -0.895623       -24.3711
  13   2.0000      -0.837852       -22.7991
  14   2.0000      -0.759346       -20.6629
  15   2.0000      -0.745239       -20.2790
  16   2.0000      -0.696991       -18.9661
  17   2.0000      -0.677976       -18.4487
  18   2.0000      -0.664590       -18.0844
  19   2.0000      -0.644362       -17.5340
  20   2.0000      -0.637907       -17.3583
  21   2.0000      -0.595326       -16.1996
  22   2.0000      -0.564653       -15.3650
  23   2.0000      -0.550515       -14.9803
  24   2.0000      -0.534292       -14.5388
  25   2.0000      -0.508098       -13.8261
  26   2.0000      -0.488688       -13.2979
  27   2.0000      -0.467059       -12.7093
  28   2.0000      -0.452459       -12.3120
  29   2.0000      -0.443014       -12.0550
  30   2.0000      -0.388139       -10.5618
  31   2.0000      -0.274799        -7.4777
  32   0.0000       0.064434         1.7533
  33   0.0000       0.078796         2.1441
  34   0.0000       0.086767         2.3611
  35   0.0000       0.090612         2.4657
  36   0.0000       0.105763         2.8780

MULLIKEN ATOMIC CHARGES
-----------------------
   0 C :   -0.903495
   1 C :   -0.936303
   2 C :   -0.530030
   3 C :   -0.445159
   4 H :    0.356975
   5 H :    0.329811
   6 F :   -0.337476
   7 C :    0.894390
   8 N :   -0.416154
   9 N :   -0.594945
  10 H :    0.215717
  11 H :    0.211905
  12 H :    0.263846
  13 H :    0.272027
  14 H :    0.168710
  15 H :    0.396731
  16 H :    0.339279
  17 H :    0.381270
  18 H :    0.332900
Sum of atomic charges:    0.0000000

LOEWDIN ATOMIC CHARGES
----------------------
   0 C :   -0.250369
   1 C :   -0.147605
   2 C :   -0.193576
   3 C :   -0.241088
   4 H :    0.128511
   5 H :    0.142192
   6 F :   -0.018426
   7 C :   -0.549567
   8 N :    0.139541
   9 N :    0.090286
  10 H :    0.108884
  11 H :    0.094238
  12 H :    0.071078
  13 H :    0.029595
  14 H :    0.117824
  15 H :    0.118409
  16 H :    0.118392
  17 H :    0.128116
  18 H :    0.113566

  Mayer bond orders larger than 0.100000
B(  0-C ,  1-C ) :   0.5657 B(  0-C ,  2-C ) :   0.6402 B(  0-C , 15-H ) :   0.9244
B(  0-C , 16-H ) :   1.0246 B(  1-C ,  2-C ) :  -0.1168 B(  1-C ,  7-C ) :   1.1797
B(  1-C ,  8-N ) :   0.1491 B(  1-C ,  9-N ) :   0.1092 B(  1-C , 12-H ) :   1.1994
B(  2-C ,  3-C ) :   0.8820 B(  2-C , 17-H ) :   0.9141 B(  2-C , 18-H ) :   0.9013
B(  3-C ,  4-H ) :   0.9178 B(  3-C ,  5-H ) :   0.9549 B(  3-C ,  6-F ) :   0.7706
B(  7-C ,  8-N ) :   0.8492 B(  7-C ,  9-N ) :   0.7675 B(  7-C , 12-H ) :  -0.2374
B(  8-N , 13-H ) :   0.8796 B(  8-N , 14-H ) :   1.0531 B(  9-N , 10-H ) :   0.9808
B(  9-N , 11-H ) :   1.0274

FINAL SINGLE POINT ENERGY      -405.389006006105

DIPOLE MOMENT
-------------
                                X             Y             Z
Electronic contribution:     -3.35026       3.93717       0.76903
Nuclear contribution   :      2.63975      -4.51113      -0.34926
                        -----------------------------------------
Total Dipole Moment    :     -0.71052      -0.57396       0.41977
                        -----------------------------------------
Magnitude (a.u.)       :      1.00522
Magnitude (Debye)      :      2.55507

Rotational constants in cm-1:     0.109429     0.049838     0.039337
Rotational constants in MHz :  3280.611039  1494.113088  1179.280063

                             ****ORCA TERMINATED NORMALLY****
TOTAL RUN TIME: 0 days 0 hours 2 minutes 1 seconds 639 msec
