                         Program Version 5.0.0 -  RELEASE  -
|  1> !LC-PBE RIJCOSX def2-TZVPD def2/J TightSCF xyzfile
|  2>
|  3> *xyzfile 0 1 D2.xyz
|  4>
|  5> %MaxCore 64000
|  6>
|  7> %pal nprocs 4
|  8> end
|  9>
| 10> %scf
| 11>   MaxIter 150
| 12> end
| 13>
| 14>
| 15>                          ****END OF INPUT****

CARTESIAN COORDINATES (ANGSTROEM)
---------------------------------
  C      4.999862   -1.596133   -5.924876
  N      5.281560   -1.974132   -4.535764
  C      3.766779   -2.266110   -6.511752
  C      2.496702   -1.844161   -5.735704
  H      1.626416   -2.217434   -6.308950
  H      2.481824   -2.456069   -4.793414
  F      2.459729   -0.509204   -5.505757
  C      4.792500   -1.361316   -3.457295
  C      3.939898   -0.374925   -3.557359
  N      5.259860   -1.754224   -2.239133
  H      5.922824   -2.521451   -2.186720
  H      4.654678   -1.640404   -1.442016
  H      5.709139   -2.875599   -4.387021
  H      3.330101   -0.317639   -4.361247
  H      3.698494    0.114468   -2.708333
  H      4.843333   -0.517930   -5.943019
  H      5.901695   -1.822503   -6.496467
  H      3.886191   -3.357076   -6.533604
  H      3.685602   -1.922168   -7.547128

 Total Charge           Charge          ....    0
 Multiplicity           Mult            ....    1
 Number of Electrons    NEL             ....   64
 Basis Dimension        Dim             ....  398

ORBITAL ENERGIES
----------------

  NO   OCC          E(Eh)            E(eV)
   0   2.0000     -24.488791      -666.3739
   1   2.0000     -14.213622      -386.7723
   2   2.0000     -14.202772      -386.4771
   3   2.0000     -10.198235      -277.5081
   4   2.0000     -10.152987      -276.2768
   5   2.0000     -10.148639      -276.1585
   6   2.0000     -10.126307      -275.5508
   7   2.0000      -9.999621      -272.1035
   8   2.0000      -1.382379       -37.6165
   9   2.0000      -1.135657       -30.9028
  10   2.0000      -1.047561       -28.5056
  11   2.0000      -0.960110       -26.1259
  12   2.0000      -0.880823       -23.9684
  13   2.0000      -0.861293       -23.4370
  14   2.0000      -0.773267       -21.0417
  15   2.0000      -0.723351       -19.6834
  16   2.0000      -0.702212       -19.1082
  17   2.0000      -0.667127       -18.1535
  18   2.0000      -0.664704       -18.0875
  19   2.0000      -0.644405       -17.5351
  20   2.0000      -0.631227       -17.1766
  21   2.0000      -0.598374       -16.2826
  22   2.0000      -0.571277       -15.5452
  23   2.0000      -0.547739       -14.9047
  24   2.0000      -0.524418       -14.2701
  25   2.0000      -0.515694       -14.0328
  26   2.0000      -0.490354       -13.3432
  27   2.0000      -0.478689       -13.0258
  28   2.0000      -0.465509       -12.6671
  29   2.0000      -0.436070       -11.8661
  30   2.0000      -0.377704       -10.2779
  31   2.0000      -0.280980        -7.6459
  32   0.0000       0.059028         1.6062
  33   0.0000       0.078636         2.1398
  34   0.0000       0.083056         2.2601
  35   0.0000       0.088461         2.4072
  36   0.0000       0.105420         2.8686

MULLIKEN ATOMIC CHARGES
-----------------------
   0 C :   -0.938854
   1 N :   -0.287540
   2 C :   -0.486239
   3 C :   -0.486941
   4 H :    0.353045
   5 H :    0.353598
   6 F :   -0.270145
   7 C :    0.875621
   8 C :   -1.508463
   9 N :   -0.562927
  10 H :    0.212065
  11 H :    0.227471
  12 H :    0.188415
  13 H :    0.446983
  14 H :    0.343598
  15 H :    0.476778
  16 H :    0.362403
  17 H :    0.354230
  18 H :    0.346903
Sum of atomic charges:   -0.0000000

LOEWDIN ATOMIC CHARGES
----------------------
   0 C :   -0.203841
   1 N :    0.014905
   2 C :   -0.177663
   3 C :   -0.245031
   4 H :    0.128194
   5 H :    0.141524
   6 F :   -0.037329
   7 C :   -0.559154
   8 C :    0.005536
   9 N :    0.091299
  10 H :    0.098337
  11 H :    0.103980
  12 H :    0.139409
  13 H :   -0.034531
  14 H :    0.036297
  15 H :    0.130341
  16 H :    0.125491
  17 H :    0.124262
  18 H :    0.117974

  Mayer bond orders larger than 0.100000
B(  0-C ,  1-N ) :   0.8389 B(  0-C ,  2-C ) :   0.7093 B(  0-C ,  8-C ) :   0.1710
B(  0-C , 15-H ) :   0.8387 B(  0-C , 16-H ) :   0.9280 B(  1-N ,  7-C ) :   0.8611
B(  1-N , 12-H ) :   1.0514 B(  2-C ,  3-C ) :   0.8902 B(  2-C , 17-H ) :   0.9233
B(  2-C , 18-H ) :   0.9230 B(  3-C ,  4-H ) :   0.9222 B(  3-C ,  5-H ) :   0.9410
B(  3-C ,  6-F ) :   0.8074 B(  3-C ,  8-C ) :   0.1117 B(  6-F , 13-H ) :  -0.2917
B(  7-C ,  8-C ) :   1.0225 B(  7-C ,  9-N ) :   0.7690 B(  7-C , 13-H ) :  -0.1461
B(  8-C , 13-H ) :   1.0412 B(  8-C , 14-H ) :   1.0916 B(  9-N , 10-H ) :   0.9996
B(  9-N , 11-H ) :   0.9864

FINAL SINGLE POINT ENERGY      -405.356295177361

DIPOLE MOMENT
-------------
                                X             Y             Z
Electronic contribution:     -2.28831       2.65016      -0.17089
Nuclear contribution   :      2.43398      -4.26587      -0.19921
                        -----------------------------------------
Total Dipole Moment    :      0.14568      -1.61572      -0.37010
                        -----------------------------------------
Magnitude (a.u.)       :      1.66395
Magnitude (Debye)      :      4.22943

Rotational constants in cm-1:     0.110089     0.049944     0.039407
Rotational constants in MHz :  3300.378855  1497.273856  1181.385913

                             ****ORCA TERMINATED NORMALLY****
TOTAL RUN TIME: 0 days 0 hours 2 minutes 0 seconds 951 msec
