                         Program Version 5.0.0 -  RELEASE  -
|  1> !LC-PBE RIJCOSX def2-TZVPD def2/J TightSCF xyzfile
|  2>
|  3> *xyzfile 0 1 D3.xyz
|  4>
|  5> %MaxCore 64000
|  6>
|  7> %pal nprocs 4
|  8> end
|  9>
| 10> %scf
| 11>   MaxIter 150
| 12> end
| 13>
| 14>
| 15>                          ****END OF INPUT****

CARTESIAN COORDINATES (ANGSTROEM)
---------------------------------
  C      4.999862   -1.596133   -5.924876
  N      5.281560   -1.974132   -4.535764
  C      3.766779   -2.266110   -6.511752
  C      2.496702   -1.844161   -5.735704
  H      1.626416   -2.217434   -6.308950
  H      2.481824   -2.456069   -4.793414
  F      2.459729   -0.509204   -5.505757
  C      4.792500   -1.361316   -3.457295
  N      3.939898   -0.374925   -3.557359
  C      5.259860   -1.754224   -2.239133
  H      5.922824   -2.521451   -2.186720
  H      4.654678   -1.640404   -1.442016
  H      5.709139   -2.875599   -4.387021
  H      3.330101   -0.317639   -4.361247
  H      3.698494    0.114468   -2.708333
  H      4.843333   -0.517930   -5.943019
  H      5.901695   -1.822503   -6.496467
  H      3.886191   -3.357076   -6.533604
  H      3.685602   -1.922168   -7.547128

 Total Charge           Charge          ....    0
 Multiplicity           Mult            ....    1
 Number of Electrons    NEL             ....   64
 Basis Dimension        Dim             ....  398

ORBITAL ENERGIES
----------------

  NO   OCC          E(Eh)            E(eV)
   0   2.0000     -24.526368      -667.3964
   1   2.0000     -14.215615      -386.8265
   2   2.0000     -14.188432      -386.0869
   3   2.0000     -10.218590      -278.0620
   4   2.0000     -10.161478      -276.5079
   5   2.0000     -10.158087      -276.4156
   6   2.0000     -10.138813      -275.8911
   7   2.0000     -10.011651      -272.4309
   8   2.0000      -1.417581       -38.5743
   9   2.0000      -1.143178       -31.1074
  10   2.0000      -1.053555       -28.6687
  11   2.0000      -0.976757       -26.5789
  12   2.0000      -0.900707       -24.5095
  13   2.0000      -0.838770       -22.8241
  14   2.0000      -0.780852       -21.2481
  15   2.0000      -0.752729       -20.4828
  16   2.0000      -0.733019       -19.9465
  17   2.0000      -0.695920       -18.9369
  18   2.0000      -0.667531       -18.1645
  19   2.0000      -0.653233       -17.7754
  20   2.0000      -0.617986       -16.8163
  21   2.0000      -0.611778       -16.6473
  22   2.0000      -0.582237       -15.8435
  23   2.0000      -0.565481       -15.3875
  24   2.0000      -0.528729       -14.3875
  25   2.0000      -0.514488       -13.9999
  26   2.0000      -0.504116       -13.7177
  27   2.0000      -0.488448       -13.2913
  28   2.0000      -0.476216       -12.9585
  29   2.0000      -0.474508       -12.9120
  30   2.0000      -0.378593       -10.3020
  31   2.0000      -0.269380        -7.3302
  32   0.0000       0.055989         1.5235
  33   0.0000       0.076683         2.0867
  34   0.0000       0.079134         2.1533
  35   0.0000       0.084803         2.3076
  36   0.0000       0.106032         2.8853

MULLIKEN ATOMIC CHARGES
-----------------------
   0 C :   -0.904773
   1 N :   -0.263930
   2 C :   -0.511037
   3 C :   -0.462309
   4 H :    0.353651
   5 H :    0.334647
   6 F :   -0.332222
   7 C :    0.670488
   8 N :   -0.417034
   9 C :   -1.356818
  10 H :    0.336816
  11 H :    0.334121
  12 H :    0.189869
  13 H :    0.306205
  14 H :    0.174221
  15 H :    0.461876
  16 H :    0.370982
  17 H :    0.358846
  18 H :    0.356403
Sum of atomic charges:   -0.0000000

LOEWDIN ATOMIC CHARGES
----------------------
   0 C :   -0.205511
   1 N :    0.025949
   2 C :   -0.177806
   3 C :   -0.237528
   4 H :    0.131793
   5 H :    0.146066
   6 F :   -0.017867
   7 C :   -0.576105
   8 N :    0.138497
   9 C :   -0.036757
  10 H :    0.004870
  11 H :    0.002116
  12 H :    0.148221
  13 H :    0.026169
  14 H :    0.127211
  15 H :    0.126989
  16 H :    0.126986
  17 H :    0.127830
  18 H :    0.118876

  Mayer bond orders larger than 0.100000
B(  0-C ,  1-N ) :   0.7896 B(  0-C ,  2-C ) :   0.6979 B(  0-C ,  7-C ) :  -0.1386
B(  0-C , 15-H ) :   0.8446 B(  0-C , 16-H ) :   0.9328 B(  1-N ,  7-C ) :   0.9396
B(  1-N ,  9-C ) :   0.1475 B(  1-N , 12-H ) :   1.0145 B(  2-C ,  3-C ) :   0.8810
B(  2-C , 17-H ) :   0.9189 B(  2-C , 18-H ) :   0.9294 B(  3-C ,  4-H ) :   0.9207
B(  3-C ,  5-H ) :   0.9421 B(  3-C ,  6-F ) :   0.7840 B(  7-C ,  8-N ) :   0.9497
B(  7-C ,  9-C ) :   1.0577 B(  7-C , 11-H ) :  -0.1159 B(  8-N ,  9-C ) :   0.1162
B(  8-N , 13-H ) :   0.8469 B(  8-N , 14-H ) :   1.0323 B(  9-C , 10-H ) :   0.9779
B(  9-C , 11-H ) :   1.0329

FINAL SINGLE POINT ENERGY      -405.369931627910

DIPOLE MOMENT
-------------
                                X             Y             Z
Electronic contribution:     -3.50633       3.82294      -1.55343
Nuclear contribution   :      2.63642      -4.47741       0.00296
                        -----------------------------------------
Total Dipole Moment    :     -0.86991      -0.65446      -1.55047
                        -----------------------------------------
Magnitude (a.u.)       :      1.89447
Magnitude (Debye)      :      4.81537

Rotational constants in cm-1:     0.108041     0.051979     0.040387
Rotational constants in MHz :  3238.993235  1558.297571  1210.782552

                             ****ORCA TERMINATED NORMALLY****
TOTAL RUN TIME: 0 days 0 hours 2 minutes 0 seconds 909 msec
