                         Program Version 5.0.0 -  RELEASE  -
|  1> !TPSS D3BJ RIJCOSX def2-TZVP def2/J TightSCF
|  2> *xyz -1 1
|  3> C          3.76678       -2.26611       -6.51175
|  4> C          2.49670       -1.84416       -5.73570
|  5> H          1.62642       -2.21743       -6.30895
|  6> H          2.48182       -2.45607       -4.79341
|  7> O          2.45973       -0.50920       -5.50576
|  8> H          3.82914       -1.70941       -7.42340
|  9> H          3.71764       -3.31144       -6.73483
| 10> H          4.63199       -2.06931       -5.91377
| 11> *
| 12>
| 13> %MaxCore 64000
| 14>
| 15> %pal nprocs 4
| 16> end
| 17>
| 18> %scf
| 19>   MaxIter 150
| 20> end
| 21>
| 22>
| 23>                          ****END OF INPUT****

CARTESIAN COORDINATES (ANGSTROEM)
---------------------------------
  C      3.766780   -2.266110   -6.511750
  C      2.496700   -1.844160   -5.735700
  H      1.626420   -2.217430   -6.308950
  H      2.481820   -2.456070   -4.793410
  O      2.459730   -0.509200   -5.505760
  H      3.829140   -1.709410   -7.423400
  H      3.717640   -3.311440   -6.734830
  H      4.631990   -2.069310   -5.913770

 Total Charge           Charge          ....   -1
 Multiplicity           Mult            ....    1
 Number of Electrons    NEL             ....   26
 Basis Dimension        Dim             ....  123

ORBITAL ENERGIES
----------------

  NO   OCC          E(Eh)            E(eV)
   0   2.0000     -18.534787      -504.3572
   1   2.0000      -9.788974      -266.3715
   2   2.0000      -9.766957      -265.7724
   3   2.0000      -0.607581       -16.5331
   4   2.0000      -0.462078       -12.5738
   5   2.0000      -0.316021        -8.5994
   6   2.0000      -0.199827        -5.4376
   7   2.0000      -0.178858        -4.8670
   8   2.0000      -0.124282        -3.3819
   9   2.0000      -0.111217        -3.0264
  10   2.0000      -0.061370        -1.6700
  11   2.0000       0.081514         2.2181
  12   2.0000       0.083282         2.2662
  13   0.0000       0.209604         5.7036
  14   0.0000       0.243271         6.6197
  15   0.0000       0.267188         7.2706
  16   0.0000       0.273693         7.4476
  17   0.0000       0.304813         8.2944

MULLIKEN ATOMIC CHARGES
-----------------------
   0 C :   -0.105965
   1 C :    0.072722
   2 H :   -0.085521
   3 H :   -0.101252
   4 O :   -0.745735
   5 H :    0.010907
   6 H :   -0.058673
   7 H :    0.013517
Sum of atomic charges:   -1.0000000

LOEWDIN ATOMIC CHARGES
----------------------
   0 C :   -0.360031
   1 C :   -0.560907
   2 H :    0.043476
   3 H :    0.041981
   4 O :   -0.388366
   5 H :    0.080210
   6 H :    0.063006
   7 H :    0.080630

  Mayer bond orders larger than 0.100000
B(  0-C ,  1-C ) :   0.8976 B(  0-C ,  4-O ) :  -0.3102 B(  0-C ,  5-H ) :   0.9525
B(  0-C ,  6-H ) :   0.8969 B(  0-C ,  7-H ) :   0.9583 B(  1-C ,  2-H ) :   0.9033
B(  1-C ,  3-H ) :   0.8881 B(  1-C ,  4-O ) :   1.6382 B(  4-O ,  6-H ) :   0.1305

Dispersion correction           -0.004556868
FINAL SINGLE POINT ENERGY      -154.505622952904

DIPOLE MOMENT
-------------
                                X             Y             Z
Electronic contribution:     -1.11491       2.83779       1.02718
Nuclear contribution   :      1.63615      -3.79938      -1.48621
                        -----------------------------------------
Total Dipole Moment    :      0.52124      -0.96160      -0.45903
                        -----------------------------------------
Magnitude (a.u.)       :      1.18620
Magnitude (Debye)      :      3.01508

Rotational constants in cm-1:     1.265582     0.329289     0.289024
Rotational constants in MHz : 37941.194363  9871.829581  8664.719106

                             ****ORCA TERMINATED NORMALLY****
TOTAL RUN TIME: 0 days 0 hours 0 minutes 5 seconds 481 msec
