                         Program Version 5.0.0 -  RELEASE  -
|  1> !TPSS D3BJ RIJCOSX def2-TZVP def2/J TightSCF
|  2> *xyz 1 1
|  3> C          4.99986       -1.59613       -5.92488
|  4> N          5.28156       -1.97413       -4.53576
|  5> C          3.76678       -2.26611       -6.51175
|  6> C          4.79250       -1.36132       -3.45730
|  7> N          3.93990       -0.37492       -3.55736
|  8> N          5.25986       -1.75422       -2.23913
|  9> H          5.92282       -2.52145       -2.18672
| 10> H          4.65468       -1.64040       -1.44202
| 11> H          5.70914       -2.87560       -4.38702
| 12> H          3.33010       -0.31764       -4.36125
| 13> H          3.69849        0.11447       -2.70833
| 14> H          4.84333       -0.51793       -5.94302
| 15> H          5.90170       -1.82250       -6.49647
| 16> H          3.63046       -1.94025       -7.52177
| 17> H          2.90710       -2.00116       -5.93240
| 18> H          3.89538       -3.32820       -6.49392
| 19> *
| 20>
| 21> %MaxCore 64000
| 22>
| 23> %pal nprocs 4
| 24> end
| 25>
| 26> %scf
| 27>   MaxIter 150
| 28> end
| 29>
| 30>
| 31>                          ****END OF INPUT****

CARTESIAN COORDINATES (ANGSTROEM)
---------------------------------
  C      4.999860   -1.596130   -5.924880
  N      5.281560   -1.974130   -4.535760
  C      3.766780   -2.266110   -6.511750
  C      4.792500   -1.361320   -3.457300
  N      3.939900   -0.374920   -3.557360
  N      5.259860   -1.754220   -2.239130
  H      5.922820   -2.521450   -2.186720
  H      4.654680   -1.640400   -1.442020
  H      5.709140   -2.875600   -4.387020
  H      3.330100   -0.317640   -4.361250
  H      3.698490    0.114470   -2.708330
  H      4.843330   -0.517930   -5.943020
  H      5.901700   -1.822500   -6.496470
  H      3.630460   -1.940250   -7.521770
  H      2.907100   -2.001160   -5.932400
  H      3.895380   -3.328200   -6.493920

 Total Charge           Charge          ....    1
 Multiplicity           Mult            ....    1
 Number of Electrons    NEL             ....   48
 Basis Dimension        Dim             ....  246

ORBITAL ENERGIES
----------------

  NO   OCC          E(Eh)            E(eV)
   0   2.0000     -14.327637      -389.8748
   1   2.0000     -14.322665      -389.7395
   2   2.0000     -14.318640      -389.6300
   3   2.0000     -10.307562      -280.4830
   4   2.0000     -10.191309      -277.3196
   5   2.0000     -10.125524      -275.5295
   6   2.0000      -1.146501       -31.1979
   7   2.0000      -1.044201       -28.4142
   8   2.0000      -1.029893       -28.0248
   9   2.0000      -0.876088       -23.8396
  10   2.0000      -0.791482       -21.5373
  11   2.0000      -0.753667       -20.5083
  12   2.0000      -0.739444       -20.1213
  13   2.0000      -0.692568       -18.8457
  14   2.0000      -0.651729       -17.7345
  15   2.0000      -0.647461       -17.6183
  16   2.0000      -0.599456       -16.3120
  17   2.0000      -0.583887       -15.8884
  18   2.0000      -0.567312       -15.4373
  19   2.0000      -0.521019       -14.1776
  20   2.0000      -0.497904       -13.5487
  21   2.0000      -0.480370       -13.0715
  22   2.0000      -0.440458       -11.9855
  23   2.0000      -0.414841       -11.2884
  24   0.0000      -0.199688        -5.4338
  25   0.0000      -0.162702        -4.4273
  26   0.0000      -0.132264        -3.5991
  27   0.0000      -0.119919        -3.2632
  28   0.0000      -0.105785        -2.8786

MULLIKEN ATOMIC CHARGES
-----------------------
   0 C :   -0.198177
   1 N :   -0.242596
   2 C :   -0.283584
   3 C :    0.419378
   4 N :   -0.393576
   5 N :   -0.418459
   6 H :    0.282138
   7 H :    0.282335
   8 H :    0.254393
   9 H :    0.295683
  10 H :    0.282951
  11 H :    0.150357
  12 H :    0.166962
  13 H :    0.163647
  14 H :    0.101743
  15 H :    0.136806
Sum of atomic charges:    1.0000000

LOEWDIN ATOMIC CHARGES
----------------------
   0 C :   -0.275347
   1 N :    0.175029
   2 C :   -0.277587
   3 C :   -0.416829
   4 N :    0.094254
   5 N :    0.046031
   6 H :    0.194025
   7 H :    0.188896
   8 H :    0.204458
   9 H :    0.199944
  10 H :    0.201904
  11 H :    0.141901
  12 H :    0.148409
  13 H :    0.136344
  14 H :    0.113642
  15 H :    0.124926

  Mayer bond orders larger than 0.100000
B(  0-C ,  1-N ) :   0.9080 B(  0-C ,  2-C ) :   1.0294 B(  0-C , 11-H ) :   0.9549
B(  0-C , 12-H ) :   0.9410 B(  1-N ,  3-C ) :   1.3797 B(  1-N ,  8-H ) :   0.8951
B(  2-C , 13-H ) :   0.9580 B(  2-C , 14-H ) :   0.9504 B(  2-C , 15-H ) :   0.9644
B(  3-C ,  4-N ) :   1.3534 B(  3-C ,  5-N ) :   1.2942 B(  4-N ,  9-H ) :   0.8772
B(  4-N , 10-H ) :   0.8904 B(  5-N ,  6-H ) :   0.8952 B(  5-N ,  7-H ) :   0.8877

Dispersion correction           -0.015191775
FINAL SINGLE POINT ENERGY      -284.557732361921

DIPOLE MOMENT
-------------
                                X             Y             Z
Electronic contribution:      1.75691       1.08362       4.73074
Nuclear contribution   :     -1.95709      -1.20097      -3.70214
                        -----------------------------------------
Total Dipole Moment    :     -0.20018      -0.11735       1.02860
                        -----------------------------------------
Magnitude (a.u.)       :      1.05445
Magnitude (Debye)      :      2.68021

Rotational constants in cm-1:     0.241661     0.071598     0.061743
Rotational constants in MHz :  7244.800091  2146.442409  1851.001864

                             ****ORCA TERMINATED NORMALLY****
TOTAL RUN TIME: 0 days 0 hours 0 minutes 14 seconds 890 msec
