                         Program Version 5.0.0 -  RELEASE  -
|  1> !TPSS D3BJ RIJCOSX def2-TZVP def2/J TightSCF xyzfile
|  2>
|  3> *xyzfile 0 1 B.xyz
|  4>
|  5> %MaxCore 64000
|  6>
|  7> %pal nprocs 18
|  8> end
|  9>
| 10> %scf
| 11>   MaxIter 150
| 12> end
| 13>
| 14>
| 15>                          ****END OF INPUT****

CARTESIAN COORDINATES (ANGSTROEM)
---------------------------------
  C      4.999862   -1.596133   -5.924876
  N      5.281560   -1.974132   -4.535764
  C      3.766779   -2.266110   -6.511752
  C      2.496702   -1.844161   -5.735704
  H      1.626416   -2.217434   -6.308950
  H      2.481824   -2.456069   -4.793414
  O      2.459729   -0.509204   -5.505757
  C      4.792500   -1.361316   -3.457295
  N      3.939898   -0.374925   -3.557359
  N      5.259860   -1.754224   -2.239133
  H      5.922824   -2.521451   -2.186720
  H      4.654678   -1.640404   -1.442016
  H      5.709139   -2.875599   -4.387021
  H      3.330101   -0.317639   -4.361247
  H      3.698494    0.114468   -2.708333
  H      4.843333   -0.517930   -5.943019
  H      5.901695   -1.822503   -6.496467
  H      3.886191   -3.357076   -6.533604
  H      3.685602   -1.922168   -7.547128

 Total Charge           Charge          ....    0
 Multiplicity           Mult            ....    1
 Number of Electrons    NEL             ....   64
 Basis Dimension        Dim             ....  314

ORBITAL ENERGIES
----------------

  NO   OCC          E(Eh)            E(eV)
   0   2.0000     -18.737845      -509.8827
   1   2.0000     -14.160612      -385.3299
   2   2.0000     -14.152305      -385.1038
   3   2.0000     -14.111612      -383.9965
   4   2.0000     -10.127924      -275.5948
   5   2.0000     -10.016936      -272.5747
   6   2.0000      -9.966334      -271.1977
   7   2.0000      -9.952343      -270.8170
   8   2.0000      -0.970106       -26.3979
   9   2.0000      -0.871071       -23.7031
  10   2.0000      -0.854514       -23.2525
  11   2.0000      -0.814838       -22.1729
  12   2.0000      -0.698616       -19.0103
  13   2.0000      -0.622456       -16.9379
  14   2.0000      -0.581651       -15.8275
  15   2.0000      -0.559489       -15.2245
  16   2.0000      -0.535795       -14.5797
  17   2.0000      -0.493938       -13.4407
  18   2.0000      -0.473566       -12.8864
  19   2.0000      -0.455690       -12.4000
  20   2.0000      -0.425802       -11.5867
  21   2.0000      -0.411355       -11.1935
  22   2.0000      -0.391869       -10.6633
  23   2.0000      -0.361803        -9.8451
  24   2.0000      -0.322585        -8.7780
  25   2.0000      -0.300723        -8.1831
  26   2.0000      -0.291101        -7.9213
  27   2.0000      -0.266211        -7.2440
  28   2.0000      -0.256956        -6.9921
  29   2.0000      -0.238788        -6.4978
  30   2.0000      -0.126698        -3.4476
  31   2.0000      -0.119527        -3.2525
  32   0.0000      -0.030514        -0.8303
  33   0.0000      -0.015536        -0.4228
  34   0.0000       0.012837         0.3493
  35   0.0000       0.030024         0.8170
  36   0.0000       0.062510         1.7010

MULLIKEN ATOMIC CHARGES
-----------------------
   0 C :   -0.155890
   1 N :   -0.284918
   2 C :   -0.049983
   3 C :   -0.005940
   4 H :    0.040863
   5 H :   -0.008293
   6 O :   -0.644547
   7 C :    0.396395
   8 N :   -0.368747
   9 N :   -0.469392
  10 H :    0.243288
  11 H :    0.257020
  12 H :    0.215204
  13 H :    0.278071
  14 H :    0.214344
  15 H :    0.140896
  16 H :    0.103577
  17 H :    0.033701
  18 H :    0.064351
Sum of atomic charges:   -0.0000000

LOEWDIN ATOMIC CHARGES
----------------------
   0 C :   -0.273529
   1 N :    0.156069
   2 C :   -0.286442
   3 C :   -0.497509
   4 H :    0.100457
   5 H :    0.077418
   6 O :   -0.252695
   7 C :   -0.448862
   8 N :    0.098826
   9 N :   -0.005551
  10 H :    0.171592
  11 H :    0.173299
  12 H :    0.185965
  13 H :    0.108365
  14 H :    0.171783
  15 H :    0.145816
  16 H :    0.126309
  17 H :    0.114736
  18 H :    0.133951

  Mayer bond orders larger than 0.100000
B(  0-C ,  1-N ) :   0.8998 B(  0-C ,  2-C ) :   1.0278 B(  0-C , 15-H ) :   0.9369
B(  0-C , 16-H ) :   0.9490 B(  1-N ,  7-C ) :   1.3250 B(  1-N , 12-H ) :   0.9120
B(  2-C ,  3-C ) :   0.9522 B(  2-C ,  6-O ) :  -0.1450 B(  2-C , 17-H ) :   0.9222
B(  2-C , 18-H ) :   0.9210 B(  3-C ,  4-H ) :   0.9396 B(  3-C ,  5-H ) :   0.9327
B(  3-C ,  6-O ) :   1.3162 B(  6-O , 13-H ) :   0.3560 B(  7-C ,  8-N ) :   1.4944
B(  7-C ,  9-N ) :   1.1968 B(  8-N , 13-H ) :   0.6557 B(  8-N , 14-H ) :   0.9113
B(  9-N , 10-H ) :   0.9076 B(  9-N , 11-H ) :   0.9030

Dispersion correction           -0.021769315
FINAL SINGLE POINT ENERGY      -398.720136197260

DIPOLE MOMENT
-------------
                                X             Y             Z
Electronic contribution:      1.78591       2.07010       3.63758
Nuclear contribution   :      0.51577      -3.31768      -1.36804
                        -----------------------------------------
Total Dipole Moment    :      2.30168      -1.24758       2.26954
                        -----------------------------------------
Magnitude (a.u.)       :      3.46483
Magnitude (Debye)      :      8.80689

Rotational constants in cm-1:     0.111492     0.050787     0.040163
Rotational constants in MHz :  3342.457536  1522.560798  1204.057148

                             ****ORCA TERMINATED NORMALLY****
TOTAL RUN TIME: 0 days 0 hours 0 minutes 11 seconds 568 msec
