                         Program Version 5.0.0 -  RELEASE  -
|  1> !TPSS D3BJ RIJCOSX def2-TZVP def2/J TightSCF
|  2> *xyz 0 1
|  3> C          3.76678       -2.26611       -6.51175
|  4> C          2.49670       -1.84416       -5.73570
|  5> H          1.62642       -2.21743       -6.30895
|  6> H          2.48182       -2.45607       -4.79341
|  7> F          2.45973       -0.50920       -5.50576
|  8> H          3.82914       -1.70941       -7.42340
|  9> H          3.71764       -3.31144       -6.73483
| 10> H          4.63199       -2.06931       -5.91377
| 11> *
| 12>
| 13> %MaxCore 64000
| 14>
| 15> %pal nprocs 4
| 16> end
| 17>
| 18> %scf
| 19>   MaxIter 150
| 20> end
| 21>
| 22>
| 23>                          ****END OF INPUT****

CARTESIAN COORDINATES (ANGSTROEM)
---------------------------------
  C      3.766780   -2.266110   -6.511750
  C      2.496700   -1.844160   -5.735700
  H      1.626420   -2.217430   -6.308950
  H      2.481820   -2.456070   -4.793410
  F      2.459730   -0.509200   -5.505760
  H      3.829140   -1.709410   -7.423400
  H      3.717640   -3.311440   -6.734830
  H      4.631990   -2.069310   -5.913770

 Total Charge           Charge          ....    0
 Multiplicity           Mult            ....    1
 Number of Electrons    NEL             ....   26
 Basis Dimension        Dim             ....  123

ORBITAL ENERGIES
----------------

  NO   OCC          E(Eh)            E(eV)
   0   2.0000     -24.396660      -663.8669
   1   2.0000     -10.061531      -273.7882
   2   2.0000      -9.978930      -271.5405
   3   2.0000      -1.127170       -30.6719
   4   2.0000      -0.705577       -19.1997
   5   2.0000      -0.580856       -15.8059
   6   2.0000      -0.461534       -12.5590
   7   2.0000      -0.445848       -12.1321
   8   2.0000      -0.407917       -11.1000
   9   2.0000      -0.361938        -9.8488
  10   2.0000      -0.360287        -9.8039
  11   2.0000      -0.288043        -7.8380
  12   2.0000      -0.286787        -7.8039
  13   0.0000       0.032441         0.8828
  14   0.0000       0.069682         1.8962
  15   0.0000       0.079934         2.1751
  16   0.0000       0.086450         2.3524
  17   0.0000       0.103044         2.8040

MULLIKEN ATOMIC CHARGES
-----------------------
   0 C :   -0.318379
   1 C :    0.028429
   2 H :    0.086397
   3 H :    0.081131
   4 F :   -0.213868
   5 H :    0.115190
   6 H :    0.106090
   7 H :    0.115010
Sum of atomic charges:   -0.0000000

LOEWDIN ATOMIC CHARGES
----------------------
   0 C :   -0.304329
   1 C :   -0.384883
   2 H :    0.111423
   3 H :    0.114234
   4 F :    0.120763
   5 H :    0.113051
   6 H :    0.117312
   7 H :    0.112429

  Mayer bond orders larger than 0.100000
B(  0-C ,  1-C ) :   1.0229 B(  0-C ,  5-H ) :   0.9657 B(  0-C ,  6-H ) :   0.9531
B(  0-C ,  7-H ) :   0.9674 B(  1-C ,  2-H ) :   0.9610 B(  1-C ,  3-H ) :   0.9592
B(  1-C ,  4-F ) :   1.0256

Dispersion correction           -0.004202250
FINAL SINGLE POINT ENERGY      -179.156019574763

DIPOLE MOMENT
-------------
                                X             Y             Z
Electronic contribution:     -2.08441       4.39383       1.82252
Nuclear contribution   :      2.16248      -5.01128      -1.96962
                        -----------------------------------------
Total Dipole Moment    :      0.07806      -0.61745      -0.14710
                        -----------------------------------------
Magnitude (a.u.)       :      0.63952
Magnitude (Debye)      :      1.62552

Rotational constants in cm-1:     1.244010     0.306580     0.270375
Rotational constants in MHz : 37294.476802  9191.037795  8105.639967

                             ****ORCA TERMINATED NORMALLY****
TOTAL RUN TIME: 0 days 0 hours 0 minutes 4 seconds 787 msec
