                         Program Version 5.0.0 -  RELEASE  -
|  1> !TPSS D3BJ RIJCOSX def2-TZVP def2/J TightSCF
|  2> *xyz 0 1
|  3> C          4.99986       -1.59613       -5.92488
|  4> C          5.28156       -1.97413       -4.53576
|  5> C          3.76678       -2.26611       -6.51175
|  6> C          4.79250       -1.36132       -3.45730
|  7> N          3.93990       -0.37492       -3.55736
|  8> N          5.25986       -1.75422       -2.23913
|  9> H          5.92282       -2.52145       -2.18672
| 10> H          4.65468       -1.64040       -1.44202
| 11> H          5.70914       -2.87560       -4.38702
| 12> H          3.33010       -0.31764       -4.36125
| 13> H          3.69849        0.11447       -2.70833
| 14> H          4.84333       -0.51793       -5.94302
| 15> H          5.90170       -1.82250       -6.49647
| 16> H          3.63046       -1.94025       -7.52177
| 17> H          2.90710       -2.00116       -5.93240
| 18> H          3.89538       -3.32820       -6.49392
| 19> *
| 20>
| 21> %MaxCore 64000
| 22>
| 23> %pal nprocs 4
| 24> end
| 25>
| 26> %scf
| 27>   MaxIter 150
| 28> end
| 29>
| 30>
| 31>                          ****END OF INPUT****

CARTESIAN COORDINATES (ANGSTROEM)
---------------------------------
  C      4.999860   -1.596130   -5.924880
  C      5.281560   -1.974130   -4.535760
  C      3.766780   -2.266110   -6.511750
  C      4.792500   -1.361320   -3.457300
  N      3.939900   -0.374920   -3.557360
  N      5.259860   -1.754220   -2.239130
  H      5.922820   -2.521450   -2.186720
  H      4.654680   -1.640400   -1.442020
  H      5.709140   -2.875600   -4.387020
  H      3.330100   -0.317640   -4.361250
  H      3.698490    0.114470   -2.708330
  H      4.843330   -0.517930   -5.943020
  H      5.901700   -1.822500   -6.496470
  H      3.630460   -1.940250   -7.521770
  H      2.907100   -2.001160   -5.932400
  H      3.895380   -3.328200   -6.493920

 Total Charge           Charge          ....    0
 Multiplicity           Mult            ....    1
 Number of Electrons    NEL             ....   48
 Basis Dimension        Dim             ....  246

ORBITAL ENERGIES
----------------

  NO   OCC          E(Eh)            E(eV)
   0   2.0000     -14.103991      -383.7891
   1   2.0000     -14.095457      -383.5569
   2   2.0000     -10.018219      -272.6096
   3   2.0000      -9.956191      -270.9217
   4   2.0000      -9.951810      -270.8025
   5   2.0000      -9.904943      -269.5272
   6   2.0000      -0.895746       -24.3745
   7   2.0000      -0.810536       -22.0558
   8   2.0000      -0.713381       -19.4121
   9   2.0000      -0.638661       -17.3788
  10   2.0000      -0.564408       -15.3583
  11   2.0000      -0.527761       -14.3611
  12   2.0000      -0.498029       -13.5521
  13   2.0000      -0.458041       -12.4639
  14   2.0000      -0.433219       -11.7885
  15   2.0000      -0.400134       -10.8882
  16   2.0000      -0.372685       -10.1413
  17   2.0000      -0.351103        -9.5540
  18   2.0000      -0.340313        -9.2604
  19   2.0000      -0.310408        -8.4466
  20   2.0000      -0.287983        -7.8364
  21   2.0000      -0.282097        -7.6763
  22   2.0000      -0.223679        -6.0866
  23   2.0000      -0.130738        -3.5576
  24   0.0000       0.006976         0.1898
  25   0.0000       0.036741         0.9998
  26   0.0000       0.051742         1.4080
  27   0.0000       0.061564         1.6753
  28   0.0000       0.075973         2.0673

MULLIKEN ATOMIC CHARGES
-----------------------
   0 C :   -0.197165
   1 C :   -0.324257
   2 C :   -0.264310
   3 C :    0.355335
   4 N :   -0.492100
   5 N :   -0.498509
   6 H :    0.241409
   7 H :    0.206539
   8 H :    0.079911
   9 H :    0.254384
  10 H :    0.217469
  11 H :    0.074548
  12 H :    0.082007
  13 H :    0.095460
  14 H :    0.076028
  15 H :    0.093250
Sum of atomic charges:    0.0000000

LOEWDIN ATOMIC CHARGES
----------------------
   0 C :   -0.305414
   1 C :   -0.269156
   2 C :   -0.300458
   3 C :   -0.466630
   4 N :    0.012628
   5 N :   -0.033910
   6 H :    0.173129
   7 H :    0.147284
   8 H :    0.113881
   9 H :    0.178226
  10 H :    0.165069
  11 H :    0.130196
  12 H :    0.133800
  13 H :    0.106253
  14 H :    0.104270
  15 H :    0.110831

  Mayer bond orders larger than 0.100000
B(  0-C ,  1-C ) :   1.1018 B(  0-C ,  2-C ) :   0.9939 B(  0-C , 11-H ) :   0.9565
B(  0-C , 12-H ) :   0.9541 B(  1-C ,  3-C ) :   1.6621 B(  1-C ,  8-H ) :   0.9694
B(  2-C , 13-H ) :   0.9634 B(  2-C , 14-H ) :   0.9696 B(  2-C , 15-H ) :   0.9739
B(  3-C ,  4-N ) :   1.1203 B(  3-C ,  5-N ) :   1.1239 B(  4-N ,  9-H ) :   0.9076
B(  4-N , 10-H ) :   0.9190 B(  5-N ,  6-H ) :   0.9160 B(  5-N ,  7-H ) :   0.9119

Dispersion correction           -0.015813573
FINAL SINGLE POINT ENERGY      -268.067218334894

DIPOLE MOMENT
-------------
                                X             Y             Z
Electronic contribution:      1.22004       1.41544       4.57996
Nuclear contribution   :     -1.82485      -1.28952      -3.74132
                        -----------------------------------------
Total Dipole Moment    :     -0.60481       0.12592       0.83865
                        -----------------------------------------
Magnitude (a.u.)       :      1.04162
Magnitude (Debye)      :      2.64759

Rotational constants in cm-1:     0.245790     0.071632     0.062004
Rotational constants in MHz :  7368.599517  2147.482078  1858.844841

                             ****ORCA TERMINATED NORMALLY****
TOTAL RUN TIME: 0 days 0 hours 0 minutes 15 seconds 507 msec
