                         Program Version 5.0.0 -  RELEASE  -
|  1> !TPSS D3BJ RIJCOSX def2-TZVP def2/J TightSCF
|  2> *xyz 0 1
|  3> C          4.99986       -1.59613       -5.92488
|  4> N          5.28156       -1.97413       -4.53576
|  5> C          3.76678       -2.26611       -6.51175
|  6> C          4.79250       -1.36132       -3.45730
|  7> C          3.93990       -0.37492       -3.55736
|  8> N          5.25986       -1.75422       -2.23913
|  9> H          5.92282       -2.52145       -2.18672
| 10> H          4.65468       -1.64040       -1.44202
| 11> H          5.70914       -2.87560       -4.38702
| 12> H          3.33010       -0.31764       -4.36125
| 13> H          3.69849        0.11447       -2.70833
| 14> H          4.84333       -0.51793       -5.94302
| 15> H          5.90170       -1.82250       -6.49647
| 16> H          3.63046       -1.94025       -7.52177
| 17> H          2.90710       -2.00116       -5.93240
| 18> H          3.89538       -3.32820       -6.49392
| 19> *
| 20>
| 21> %MaxCore 64000
| 22>
| 23> %pal nprocs 4
| 24> end
| 25>
| 26> %scf
| 27>   MaxIter 150
| 28> end
| 29>
| 30>
| 31>                          ****END OF INPUT****

CARTESIAN COORDINATES (ANGSTROEM)
---------------------------------
  C      4.999860   -1.596130   -5.924880
  N      5.281560   -1.974130   -4.535760
  C      3.766780   -2.266110   -6.511750
  C      4.792500   -1.361320   -3.457300
  C      3.939900   -0.374920   -3.557360
  N      5.259860   -1.754220   -2.239130
  H      5.922820   -2.521450   -2.186720
  H      4.654680   -1.640400   -1.442020
  H      5.709140   -2.875600   -4.387020
  H      3.330100   -0.317640   -4.361250
  H      3.698490    0.114470   -2.708330
  H      4.843330   -0.517930   -5.943020
  H      5.901700   -1.822500   -6.496470
  H      3.630460   -1.940250   -7.521770
  H      2.907100   -2.001160   -5.932400
  H      3.895380   -3.328200   -6.493920

 Total Charge           Charge          ....    0
 Multiplicity           Mult            ....    1
 Number of Electrons    NEL             ....   48
 Basis Dimension        Dim             ....  246

ORBITAL ENERGIES
----------------

  NO   OCC          E(Eh)            E(eV)
   0   2.0000     -14.100199      -383.6859
   1   2.0000     -14.096618      -383.5885
   2   2.0000     -10.019513      -272.6448
   3   2.0000     -10.015017      -272.5225
   4   2.0000      -9.969325      -271.2791
   5   2.0000      -9.895711      -269.2760
   6   2.0000      -0.894791       -24.3485
   7   2.0000      -0.817303       -22.2399
   8   2.0000      -0.700039       -19.0490
   9   2.0000      -0.659319       -17.9410
  10   2.0000      -0.586552       -15.9609
  11   2.0000      -0.516095       -14.0437
  12   2.0000      -0.494208       -13.4481
  13   2.0000      -0.466766       -12.7013
  14   2.0000      -0.413993       -11.2653
  15   2.0000      -0.403824       -10.9886
  16   2.0000      -0.380401       -10.3512
  17   2.0000      -0.355975        -9.6866
  18   2.0000      -0.343792        -9.3550
  19   2.0000      -0.333401        -9.0723
  20   2.0000      -0.316359        -8.6086
  21   2.0000      -0.305879        -8.3234
  22   2.0000      -0.210017        -5.7149
  23   2.0000      -0.140710        -3.8289
  24   0.0000       0.010084         0.2744
  25   0.0000       0.040287         1.0963
  26   0.0000       0.047184         1.2839
  27   0.0000       0.063259         1.7214
  28   0.0000       0.077953         2.1212

MULLIKEN ATOMIC CHARGES
-----------------------
   0 C :   -0.105503
   1 N :   -0.325145
   2 C :   -0.289696
   3 C :    0.410953
   4 C :   -0.569943
   5 N :   -0.506397
   6 H :    0.213539
   7 H :    0.244626
   8 H :    0.185318
   9 H :    0.116817
  10 H :    0.082784
  11 H :    0.123051
  12 H :    0.100220
  13 H :    0.105272
  14 H :    0.124342
  15 H :    0.089762
Sum of atomic charges:   -0.0000000

LOEWDIN ATOMIC CHARGES
----------------------
   0 C :   -0.293237
   1 N :    0.118520
   2 C :   -0.300112
   3 C :   -0.464122
   4 C :   -0.327395
   5 N :   -0.029327
   6 H :    0.155866
   7 H :    0.167926
   8 H :    0.168989
   9 H :    0.100323
  10 H :    0.099161
  11 H :    0.138227
  12 H :    0.124384
  13 H :    0.114829
  14 H :    0.117165
  15 H :    0.108802

  Mayer bond orders larger than 0.100000
B(  0-C ,  1-N ) :   0.9634 B(  0-C ,  2-C ) :   1.0123 B(  0-C , 11-H ) :   0.9479
B(  0-C , 12-H ) :   0.9606 B(  1-N ,  3-C ) :   1.1573 B(  1-N ,  8-H ) :   0.9179
B(  2-C , 13-H ) :   0.9622 B(  2-C , 14-H ) :   0.9681 B(  2-C , 15-H ) :   0.9690
B(  3-C ,  4-C ) :   1.6469 B(  3-C ,  5-N ) :   1.0816 B(  4-C ,  9-H ) :   0.9740
B(  4-C , 10-H ) :   0.9967 B(  5-N ,  6-H ) :   0.9244 B(  5-N ,  7-H ) :   0.9140

Dispersion correction           -0.015758979
FINAL SINGLE POINT ENERGY      -268.062864695548

DIPOLE MOMENT
-------------
                                X             Y             Z
Electronic contribution:      2.44552      -0.12846       3.53238
Nuclear contribution   :     -2.10948      -0.95026      -3.53375
                        -----------------------------------------
Total Dipole Moment    :      0.33604      -1.07872      -0.00137
                        -----------------------------------------
Magnitude (a.u.)       :      1.12985
Magnitude (Debye)      :      2.87186

Rotational constants in cm-1:     0.255209     0.072067     0.062929
Rotational constants in MHz :  7650.964615  2160.525743  1886.569524

                             ****ORCA TERMINATED NORMALLY****
TOTAL RUN TIME: 0 days 0 hours 0 minutes 14 seconds 605 msec
