                         Program Version 5.0.0 -  RELEASE  -
|  1> !TPSS D3BJ RIJCOSX def2-TZVP def2/J TightSCF
|  2> *xyz 0 1
|  3> C          4.99986       -1.59613       -5.92488
|  4> N          5.28156       -1.97413       -4.53576
|  5> C          3.76678       -2.26611       -6.51175
|  6> C          4.79250       -1.36132       -3.45730
|  7> N          3.93990       -0.37492       -3.55736
|  8> C          5.25986       -1.75422       -2.23913
|  9> H          5.92282       -2.52145       -2.18672
| 10> H          4.65468       -1.64040       -1.44202
| 11> H          5.70914       -2.87560       -4.38702
| 12> H          3.33010       -0.31764       -4.36125
| 13> H          3.69849        0.11447       -2.70833
| 14> H          4.84333       -0.51793       -5.94302
| 15> H          5.90170       -1.82250       -6.49647
| 16> H          3.63046       -1.94025       -7.52177
| 17> H          2.90710       -2.00116       -5.93240
| 18> H          3.89538       -3.32820       -6.49392
| 19> *
| 20>
| 21> %MaxCore 64000
| 22>
| 23> %pal nprocs 4
| 24> end
| 25>
| 26> %scf
| 27>   MaxIter 150
| 28> end
| 29>
| 30>
| 31>                          ****END OF INPUT****

CARTESIAN COORDINATES (ANGSTROEM)
---------------------------------
  C      4.999860   -1.596130   -5.924880
  N      5.281560   -1.974130   -4.535760
  C      3.766780   -2.266110   -6.511750
  C      4.792500   -1.361320   -3.457300
  N      3.939900   -0.374920   -3.557360
  C      5.259860   -1.754220   -2.239130
  H      5.922820   -2.521450   -2.186720
  H      4.654680   -1.640400   -1.442020
  H      5.709140   -2.875600   -4.387020
  H      3.330100   -0.317640   -4.361250
  H      3.698490    0.114470   -2.708330
  H      4.843330   -0.517930   -5.943020
  H      5.901700   -1.822500   -6.496470
  H      3.630460   -1.940250   -7.521770
  H      2.907100   -2.001160   -5.932400
  H      3.895380   -3.328200   -6.493920

 Total Charge           Charge          ....    0
 Multiplicity           Mult            ....    1
 Number of Electrons    NEL             ....   48
 Basis Dimension        Dim             ....  246

ORBITAL ENERGIES
----------------

  NO   OCC          E(Eh)            E(eV)
   0   2.0000     -14.104425      -383.8009
   1   2.0000     -14.100950      -383.7063
   2   2.0000     -10.023798      -272.7614
   3   2.0000     -10.023671      -272.7580
   4   2.0000      -9.980184      -271.5746
   5   2.0000      -9.893190      -269.2074
   6   2.0000      -0.905058       -24.6279
   7   2.0000      -0.828261       -22.5381
   8   2.0000      -0.716160       -19.4877
   9   2.0000      -0.641980       -17.4692
  10   2.0000      -0.578853       -15.7514
  11   2.0000      -0.553933       -15.0733
  12   2.0000      -0.498613       -13.5680
  13   2.0000      -0.454272       -12.3614
  14   2.0000      -0.439694       -11.9647
  15   2.0000      -0.405133       -11.0242
  16   2.0000      -0.387586       -10.5467
  17   2.0000      -0.364009        -9.9052
  18   2.0000      -0.345655        -9.4058
  19   2.0000      -0.328683        -8.9439
  20   2.0000      -0.327493        -8.9115
  21   2.0000      -0.307723        -8.3736
  22   2.0000      -0.217118        -5.9081
  23   2.0000      -0.129103        -3.5131
  24   0.0000       0.006850         0.1864
  25   0.0000       0.038840         1.0569
  26   0.0000       0.044606         1.2138
  27   0.0000       0.055844         1.5196
  28   0.0000       0.071063         1.9337

MULLIKEN ATOMIC CHARGES
-----------------------
   0 C :   -0.165397
   1 N :   -0.309526
   2 C :   -0.260195
   3 C :    0.386570
   4 N :   -0.486351
   5 C :   -0.550282
   6 H :    0.077575
   7 H :    0.095155
   8 H :    0.220213
   9 H :    0.224287
  10 H :    0.244554
  11 H :    0.113112
  12 H :    0.110786
  13 H :    0.105622
  14 H :    0.093245
  15 H :    0.100631
Sum of atomic charges:    0.0000000

LOEWDIN ATOMIC CHARGES
----------------------
   0 C :   -0.309427
   1 N :    0.125449
   2 C :   -0.302585
   3 C :   -0.473524
   4 N :    0.016047
   5 C :   -0.360376
   6 H :    0.091154
   7 H :    0.089425
   8 H :    0.188600
   9 H :    0.161248
  10 H :    0.181675
  11 H :    0.130263
  12 H :    0.127195
  13 H :    0.114465
  14 H :    0.108084
  15 H :    0.112308

  Mayer bond orders larger than 0.100000
B(  0-C ,  1-N ) :   0.9806 B(  0-C ,  2-C ) :   1.0067 B(  0-C , 11-H ) :   0.9607
B(  0-C , 12-H ) :   0.9604 B(  1-N ,  3-C ) :   1.1760 B(  1-N ,  8-H ) :   0.9180
B(  2-C , 13-H ) :   0.9602 B(  2-C , 14-H ) :   0.9622 B(  2-C , 15-H ) :   0.9688
B(  3-C ,  4-N ) :   1.1549 B(  3-C ,  5-C ) :   1.5764 B(  4-N ,  9-H ) :   0.9058
B(  4-N , 10-H ) :   0.9128 B(  5-C ,  6-H ) :   1.0119 B(  5-C ,  7-H ) :   0.9689

Dispersion correction           -0.015658555
FINAL SINGLE POINT ENERGY      -268.057763306516

DIPOLE MOMENT
-------------
                                X             Y             Z
Electronic contribution:      1.15946       1.25638       2.15469
Nuclear contribution   :     -1.82946      -1.24287      -3.25410
                        -----------------------------------------
Total Dipole Moment    :     -0.67000       0.01351      -1.09941
                        -----------------------------------------
Magnitude (a.u.)       :      1.28755
Magnitude (Debye)      :      3.27268

Rotational constants in cm-1:     0.244672     0.074506     0.064043
Rotational constants in MHz :  7335.067153  2233.624025  1919.970379

                             ****ORCA TERMINATED NORMALLY****
TOTAL RUN TIME: 0 days 0 hours 0 minutes 14 seconds 854 msec
