                         Program Version 5.0.0 -  RELEASE  -
|  1> !TPSS D3BJ RIJCOSX def2-TZVP def2/J TightSCF xyzfile
|  2>
|  3> *xyzfile 0 1 D1.xyz
|  4>
|  5> %MaxCore 64000
|  6>
|  7> %pal nprocs 18
|  8> end
|  9>
| 10> %scf
| 11>   MaxIter 150
| 12> end
| 13>
| 14>
| 15>                          ****END OF INPUT****

CARTESIAN COORDINATES (ANGSTROEM)
---------------------------------
  C      4.999862   -1.596133   -5.924876
  C      5.281560   -1.974132   -4.535764
  C      3.766779   -2.266110   -6.511752
  C      2.496702   -1.844161   -5.735704
  H      1.626416   -2.217434   -6.308950
  H      2.481824   -2.456069   -4.793414
  F      2.459729   -0.509204   -5.505757
  C      4.792500   -1.361316   -3.457295
  N      3.939898   -0.374925   -3.557359
  N      5.259860   -1.754224   -2.239133
  H      5.922824   -2.521451   -2.186720
  H      4.654678   -1.640404   -1.442016
  H      5.709139   -2.875599   -4.387021
  H      3.330101   -0.317639   -4.361247
  H      3.698494    0.114468   -2.708333
  H      4.843333   -0.517930   -5.943019
  H      5.901695   -1.822503   -6.496467
  H      3.886191   -3.357076   -6.533604
  H      3.685602   -1.922168   -7.547128

 Total Charge           Charge          ....    0
 Multiplicity           Mult            ....    1
 Number of Electrons    NEL             ....   64
 Basis Dimension        Dim             ....  314

ORBITAL ENERGIES
----------------

  NO   OCC          E(Eh)            E(eV)
   0   2.0000     -24.430338      -664.7833
   1   2.0000     -14.089912      -383.4060
   2   2.0000     -14.076145      -383.0314
   3   2.0000     -10.064480      -273.8684
   4   2.0000     -10.012328      -272.4493
   5   2.0000      -9.978070      -271.5171
   6   2.0000      -9.958794      -270.9926
   7   2.0000      -9.901223      -269.4260
   8   2.0000      -1.167735       -31.7757
   9   2.0000      -0.884209       -24.0605
  10   2.0000      -0.800275       -21.7766
  11   2.0000      -0.734492       -19.9865
  12   2.0000      -0.666369       -18.1328
  13   2.0000      -0.616473       -16.7751
  14   2.0000      -0.549004       -14.9392
  15   2.0000      -0.535082       -14.5603
  16   2.0000      -0.494250       -13.4492
  17   2.0000      -0.478426       -13.0186
  18   2.0000      -0.463712       -12.6182
  19   2.0000      -0.451444       -12.2844
  20   2.0000      -0.437167       -11.8959
  21   2.0000      -0.410460       -11.1692
  22   2.0000      -0.378374       -10.2961
  23   2.0000      -0.359179        -9.7738
  24   2.0000      -0.350863        -9.5475
  25   2.0000      -0.327692        -8.9170
  26   2.0000      -0.307593        -8.3700
  27   2.0000      -0.295738        -8.0475
  28   2.0000      -0.287035        -7.8106
  29   2.0000      -0.276483        -7.5235
  30   2.0000      -0.212622        -5.7857
  31   2.0000      -0.127146        -3.4598
  32   0.0000       0.018523         0.5040
  33   0.0000       0.039845         1.0843
  34   0.0000       0.052218         1.4209
  35   0.0000       0.061198         1.6653
  36   0.0000       0.062808         1.7091

MULLIKEN ATOMIC CHARGES
-----------------------
   0 C :   -0.225964
   1 C :   -0.369895
   2 C :   -0.060560
   3 C :   -0.064090
   4 H :    0.107084
   5 H :    0.126713
   6 F :   -0.195847
   7 C :    0.340688
   8 N :   -0.496278
   9 N :   -0.500704
  10 H :    0.237038
  11 H :    0.206421
  12 H :    0.077240
  13 H :    0.269237
  14 H :    0.204052
  15 H :    0.107443
  16 H :    0.088051
  17 H :    0.077358
  18 H :    0.072014
Sum of atomic charges:   -0.0000000

LOEWDIN ATOMIC CHARGES
----------------------
   0 C :   -0.285788
   1 C :   -0.280023
   2 C :   -0.266853
   3 C :   -0.361106
   4 H :    0.120326
   5 H :    0.131159
   6 F :    0.172629
   7 C :   -0.473329
   8 N :    0.016025
   9 N :   -0.034237
  10 H :    0.170557
  11 H :    0.147273
  12 H :    0.112444
  13 H :    0.131056
  14 H :    0.159301
  15 H :    0.139907
  16 H :    0.137564
  17 H :    0.136244
  18 H :    0.126850

  Mayer bond orders larger than 0.100000
B(  0-C ,  1-C ) :   1.0976 B(  0-C ,  2-C ) :   0.9807 B(  0-C , 15-H ) :   0.9614
B(  0-C , 16-H ) :   0.9497 B(  1-C ,  7-C ) :   1.6273 B(  1-C , 12-H ) :   0.9700
B(  2-C ,  3-C ) :   1.0274 B(  2-C , 17-H ) :   0.9278 B(  2-C , 18-H ) :   0.9281
B(  3-C ,  4-H ) :   0.9550 B(  3-C ,  5-H ) :   0.9708 B(  3-C ,  6-F ) :   0.9416
B(  6-F , 13-H ) :   0.1222 B(  7-C ,  8-N ) :   1.1641 B(  7-C ,  9-N ) :   1.1300
B(  8-N , 13-H ) :   0.8401 B(  8-N , 14-H ) :   0.9241 B(  9-N , 10-H ) :   0.9157
B(  9-N , 11-H ) :   0.9128

Dispersion correction           -0.021743583
FINAL SINGLE POINT ENERGY      -406.676039674889

DIPOLE MOMENT
-------------
                                X             Y             Z
Electronic contribution:     -3.34372       4.05468       0.86326
Nuclear contribution   :      2.63975      -4.51113      -0.34926
                        -----------------------------------------
Total Dipole Moment    :     -0.70397      -0.45646       0.51400
                        -----------------------------------------
Magnitude (a.u.)       :      0.98393
Magnitude (Debye)      :      2.50096

Rotational constants in cm-1:     0.109429     0.049838     0.039337
Rotational constants in MHz :  3280.611039  1494.113088  1179.280063

                             ****ORCA TERMINATED NORMALLY****
TOTAL RUN TIME: 0 days 0 hours 0 minutes 8 seconds 611 msec
