                         Program Version 5.0.0 -  RELEASE  -
|  1> !TPSS D3BJ RIJCOSX def2-TZVP def2/J TightSCF xyzfile
|  2>
|  3> *xyzfile 0 1 D3.xyz
|  4>
|  5> %MaxCore 64000
|  6>
|  7> %pal nprocs 18
|  8> end
|  9>
| 10> %scf
| 11>   MaxIter 150
| 12> end
| 13>
| 14>
| 15>                          ****END OF INPUT****

CARTESIAN COORDINATES (ANGSTROEM)
---------------------------------
  C      4.999862   -1.596133   -5.924876
  N      5.281560   -1.974132   -4.535764
  C      3.766779   -2.266110   -6.511752
  C      2.496702   -1.844161   -5.735704
  H      1.626416   -2.217434   -6.308950
  H      2.481824   -2.456069   -4.793414
  F      2.459729   -0.509204   -5.505757
  C      4.792500   -1.361316   -3.457295
  N      3.939898   -0.374925   -3.557359
  C      5.259860   -1.754224   -2.239133
  H      5.922824   -2.521451   -2.186720
  H      4.654678   -1.640404   -1.442016
  H      5.709139   -2.875599   -4.387021
  H      3.330101   -0.317639   -4.361247
  H      3.698494    0.114468   -2.708333
  H      4.843333   -0.517930   -5.943019
  H      5.901695   -1.822503   -6.496467
  H      3.886191   -3.357076   -6.533604
  H      3.685602   -1.922168   -7.547128

 Total Charge           Charge          ....    0
 Multiplicity           Mult            ....    1
 Number of Electrons    NEL             ....   64
 Basis Dimension        Dim             ....  314

ORBITAL ENERGIES
----------------

  NO   OCC          E(Eh)            E(eV)
   0   2.0000     -24.445010      -665.1825
   1   2.0000     -14.098738      -383.6462
   2   2.0000     -14.074738      -382.9931
   3   2.0000     -10.084128      -274.4031
   4   2.0000     -10.026163      -272.8258
   5   2.0000     -10.013984      -272.4944
   6   2.0000     -10.006025      -272.2778
   7   2.0000      -9.883735      -268.9501
   8   2.0000      -1.182743       -32.1841
   9   2.0000      -0.896294       -24.3894
  10   2.0000      -0.819236       -22.2925
  11   2.0000      -0.741764       -20.1844
  12   2.0000      -0.672181       -18.2910
  13   2.0000      -0.617221       -16.7954
  14   2.0000      -0.569804       -15.5052
  15   2.0000      -0.546690       -14.8762
  16   2.0000      -0.522184       -14.2093
  17   2.0000      -0.494832       -13.4651
  18   2.0000      -0.466269       -12.6878
  19   2.0000      -0.454737       -12.3740
  20   2.0000      -0.429312       -11.6822
  21   2.0000      -0.425448       -11.5770
  22   2.0000      -0.390342       -10.6218
  23   2.0000      -0.381445       -10.3796
  24   2.0000      -0.346649        -9.4328
  25   2.0000      -0.338548        -9.2123
  26   2.0000      -0.332756        -9.0548
  27   2.0000      -0.314543        -8.5592
  28   2.0000      -0.304673        -8.2906
  29   2.0000      -0.299265        -8.1434
  30   2.0000      -0.208155        -5.6642
  31   2.0000      -0.120307        -3.2737
  32   0.0000       0.011266         0.3066
  33   0.0000       0.036572         0.9952
  34   0.0000       0.046662         1.2697
  35   0.0000       0.049104         1.3362
  36   0.0000       0.059621         1.6224

MULLIKEN ATOMIC CHARGES
-----------------------
   0 C :   -0.193947
   1 N :   -0.321829
   2 C :   -0.112209
   3 C :   -0.044304
   4 H :    0.115829
   5 H :    0.132710
   6 F :   -0.186890
   7 C :    0.361764
   8 N :   -0.493803
   9 C :   -0.561561
  10 H :    0.070027
  11 H :    0.090559
  12 H :    0.217487
  13 H :    0.251569
  14 H :    0.232053
  15 H :    0.143921
  16 H :    0.118594
  17 H :    0.095513
  18 H :    0.084517
Sum of atomic charges:   -0.0000000

LOEWDIN ATOMIC CHARGES
----------------------
   0 C :   -0.289009
   1 N :    0.124680
   2 C :   -0.273756
   3 C :   -0.359602
   4 H :    0.124300
   5 H :    0.135339
   6 F :    0.175632
   7 C :   -0.485738
   8 N :    0.015927
   9 C :   -0.372726
  10 H :    0.088142
  11 H :    0.088358
  12 H :    0.187319
  13 H :    0.121741
  14 H :    0.176204
  15 H :    0.139404
  16 H :    0.131007
  17 H :    0.138076
  18 H :    0.134704

  Mayer bond orders larger than 0.100000
B(  0-C ,  1-N ) :   0.9778 B(  0-C ,  2-C ) :   0.9968 B(  0-C , 15-H ) :   0.9623
B(  0-C , 16-H ) :   0.9582 B(  1-N ,  7-C ) :   1.1534 B(  1-N , 12-H ) :   0.9188
B(  2-C ,  3-C ) :   1.0306 B(  2-C , 17-H ) :   0.9313 B(  2-C , 18-H ) :   0.9334
B(  3-C ,  4-H ) :   0.9542 B(  3-C ,  5-H ) :   0.9665 B(  3-C ,  6-F ) :   0.9527
B(  6-F , 13-H ) :   0.1130 B(  7-C ,  8-N ) :   1.1946 B(  7-C ,  9-C ) :   1.5909
B(  8-N , 13-H ) :   0.8497 B(  8-N , 14-H ) :   0.9200 B(  9-C , 10-H ) :   1.0058
B(  9-C , 11-H ) :   0.9760

Dispersion correction           -0.021536407
FINAL SINGLE POINT ENERGY      -406.661946357243

DIPOLE MOMENT
-------------
                                X             Y             Z
Electronic contribution:     -3.49328       3.91553      -1.48814
Nuclear contribution   :      2.63642      -4.47741       0.00296
                        -----------------------------------------
Total Dipole Moment    :     -0.85686      -0.56187      -1.48519
                        -----------------------------------------
Magnitude (a.u.)       :      1.80435
Magnitude (Debye)      :      4.58631

Rotational constants in cm-1:     0.108041     0.051979     0.040387
Rotational constants in MHz :  3238.993235  1558.297571  1210.782552

                             ****ORCA TERMINATED NORMALLY****
TOTAL RUN TIME: 0 days 0 hours 0 minutes 10 seconds 278 msec
