                         Program Version 5.0.0 -  RELEASE  -
|  1> !PBE0 D3BJ RIJCOSX def2-SVPD def2/J TightSCF
|  2>
|  3> *xyz -1 1
|  4> C          2.95263        1.86308       -3.57485
|  5> C          4.12921        0.89839       -3.41895
|  6> H          3.73369       -0.10060       -3.23763
|  7> H          4.71910        0.86256       -4.33901
|  8> C          5.01734        1.31521       -2.22130
|  9> O          4.73706        0.85411       -1.12283
| 10> O          5.92815        2.16811       -2.49136
| 11> H          2.35067        1.56005       -4.40594
| 12> H          3.32277        2.85258       -3.74453
| 13> H          2.36134        1.85149       -2.68315
| 14> *
| 15> %MaxCore 64000
| 16>
| 17> %pal nprocs 4
| 18> end
| 19>
| 20> %scf
| 21>   MaxIter 150
| 22> end
| 23>
| 24>
| 25>                          ****END OF INPUT****

CARTESIAN COORDINATES (ANGSTROEM)
---------------------------------
  C      2.952630    1.863080   -3.574850
  C      4.129210    0.898390   -3.418950
  H      3.733690   -0.100600   -3.237630
  H      4.719100    0.862560   -4.339010
  C      5.017340    1.315210   -2.221300
  O      4.737060    0.854110   -1.122830
  O      5.928150    2.168110   -2.491360
  H      2.350670    1.560050   -4.405940
  H      3.322770    2.852580   -3.744530
  H      2.361340    1.851490   -2.683150

 Total Charge           Charge          ....   -1
 Multiplicity           Mult            ....    1
 Number of Electrons    NEL             ....   40
 Basis Dimension        Dim             ....  146

ORBITAL ENERGIES
----------------

  NO   OCC          E(Eh)            E(eV)
   0   2.0000     -18.960083      -515.9301
   1   2.0000     -18.949559      -515.6437
   2   2.0000     -10.115958      -275.2692
   3   2.0000     -10.071383      -274.0563
   4   2.0000     -10.056490      -273.6510
   5   2.0000      -0.845744       -23.0139
   6   2.0000      -0.747049       -20.3282
   7   2.0000      -0.621777       -16.9194
   8   2.0000      -0.483585       -13.1590
   9   2.0000      -0.334902        -9.1132
  10   2.0000      -0.304310        -8.2807
  11   2.0000      -0.273610        -7.4453
  12   2.0000      -0.246117        -6.6972
  13   2.0000      -0.225886        -6.1467
  14   2.0000      -0.225539        -6.1372
  15   2.0000      -0.191096        -5.2000
  16   2.0000      -0.182493        -4.9659
  17   2.0000      -0.064061        -1.7432
  18   2.0000      -0.053831        -1.4648
  19   2.0000      -0.043094        -1.1726
  20   0.0000       0.163090         4.4379
  21   0.0000       0.195741         5.3264
  22   0.0000       0.209740         5.7073
  23   0.0000       0.230577         6.2743
  24   0.0000       0.248112         6.7515

MULLIKEN ATOMIC CHARGES
-----------------------
   0 C :    0.352650
   1 C :   -0.463371
   2 H :    0.048121
   3 H :    0.028847
   4 C :    0.630896
   5 O :   -0.723110
   6 O :   -0.819304
   7 H :   -0.034495
   8 H :   -0.012011
   9 H :   -0.008222
Sum of atomic charges:   -1.0000000

LOEWDIN ATOMIC CHARGES
----------------------
   0 C :    0.095197
   1 C :   -0.047011
   2 H :   -0.001198
   3 H :    0.003395
   4 C :   -0.299485
   5 O :   -0.310986
   6 O :   -0.356005
   7 H :   -0.041495
   8 H :   -0.021453
   9 H :   -0.020958

  Mayer bond orders larger than 0.100000
B(  0-C ,  1-C ) :   1.3285 B(  0-C ,  7-H ) :   0.8825 B(  0-C ,  8-H ) :   0.8780
B(  0-C ,  9-H ) :   0.8689 B(  1-C ,  2-H ) :   0.9495 B(  1-C ,  3-H ) :   0.9686
B(  1-C ,  4-C ) :   1.0140 B(  1-C ,  7-H ) :   0.1252 B(  1-C ,  8-H ) :   0.1623
B(  1-C ,  9-H ) :   0.1654 B(  4-C ,  5-O ) :   1.4223 B(  4-C ,  6-O ) :   1.3441

Dispersion correction           -0.005476915
FINAL SINGLE POINT ENERGY      -267.361369573891

DIPOLE MOMENT
-------------
                                X             Y             Z
Electronic contribution:      4.40301      -0.20961       3.88686
Nuclear contribution   :     -5.85873      -0.10793      -5.24103
                        -----------------------------------------
Total Dipole Moment    :     -1.45572      -0.31754      -1.35417
                        -----------------------------------------
Magnitude (a.u.)       :      2.01339
Magnitude (Debye)      :      5.11763

Rotational constants in cm-1:     0.292505     0.135951     0.110253
Rotational constants in MHz :  8769.065873  4075.717001  3305.311891

                             ****ORCA TERMINATED NORMALLY****
TOTAL RUN TIME: 0 days 0 hours 0 minutes 16 seconds 77 msec
