                         Program Version 5.0.0 -  RELEASE  -
|  1> !PBE0 D3BJ RIJCOSX def2-SVPD def2/J TightSCF
|  2>
|  3> *xyz 1 1
|  4> C          3.34350        3.35457       -3.59200
|  5> C          2.95263        1.86308       -3.57485
|  6> C          4.25587        3.70385       -4.72605
|  7> N          3.73403        4.29378       -5.80077
|  8> N          5.51504        3.40725       -4.63718
|  9> H          6.14919        3.60120       -5.39905
| 10> H          5.81358        2.89950       -3.80879
| 11> H          2.74138        4.51311       -5.82470
| 12> H          4.28755        4.52126       -6.61434
| 13> H          3.86125        3.59725       -2.66298
| 14> H          2.44649        3.97346       -3.65656
| 15> H          2.44395        1.61721       -4.48352
| 16> H          2.30781        1.67290       -2.74242
| 17> H          3.83491        1.26414       -3.48670
| 18> *
| 19> %MaxCore 64000
| 20>
| 21> %pal nprocs 4
| 22> end
| 23>
| 24> %scf
| 25>   MaxIter 150
| 26> end
| 27>
| 28>
| 29>                          ****END OF INPUT****

CARTESIAN COORDINATES (ANGSTROEM)
---------------------------------
  C      3.343500    3.354570   -3.592000
  C      2.952630    1.863080   -3.574850
  C      4.255870    3.703850   -4.726050
  N      3.734030    4.293780   -5.800770
  N      5.515040    3.407250   -4.637180
  H      6.149190    3.601200   -5.399050
  H      5.813580    2.899500   -3.808790
  H      2.741380    4.513110   -5.824700
  H      4.287550    4.521260   -6.614340
  H      3.861250    3.597250   -2.662980
  H      2.446490    3.973460   -3.656560
  H      2.443950    1.617210   -4.483520
  H      2.307810    1.672900   -2.742420
  H      3.834910    1.264140   -3.486700

 Total Charge           Charge          ....    1
 Multiplicity           Mult            ....    1
 Number of Electrons    NEL             ....   40
 Basis Dimension        Dim             ....  172

ORBITAL ENERGIES
----------------

  NO   OCC          E(Eh)            E(eV)
   0   2.0000     -14.645768      -398.5316
   1   2.0000     -14.641423      -398.4134
   2   2.0000     -10.556068      -287.2452
   3   2.0000     -10.433145      -283.9003
   4   2.0000     -10.390005      -282.7264
   5   2.0000      -1.225307       -33.3423
   6   2.0000      -1.128375       -30.7047
   7   2.0000      -0.986614       -26.8471
   8   2.0000      -0.877497       -23.8779
   9   2.0000      -0.833342       -22.6764
  10   2.0000      -0.797240       -21.6940
  11   2.0000      -0.767027       -20.8719
  12   2.0000      -0.719805       -19.5869
  13   2.0000      -0.664820       -18.0907
  14   2.0000      -0.639070       -17.3900
  15   2.0000      -0.628694       -17.1076
  16   2.0000      -0.559388       -15.2217
  17   2.0000      -0.549740       -14.9592
  18   2.0000      -0.541356       -14.7310
  19   2.0000      -0.507240       -13.8027
  20   0.0000      -0.206102        -5.6083
  21   0.0000      -0.152558        -4.1513
  22   0.0000      -0.108621        -2.9557
  23   0.0000      -0.105943        -2.8829
  24   0.0000      -0.076729        -2.0879

MULLIKEN ATOMIC CHARGES
-----------------------
   0 C :   -0.466017
   1 C :    0.487570
   2 C :    0.934124
   3 N :   -0.158930
   4 N :    0.014208
   5 H :   -0.126529
   6 H :    0.089374
   7 H :    0.066309
   8 H :   -0.103173
   9 H :    0.093171
  10 H :    0.060358
  11 H :    0.007469
  12 H :    0.078873
  13 H :    0.023194
Sum of atomic charges:    1.0000000

LOEWDIN ATOMIC CHARGES
----------------------
   0 C :    0.007254
   1 C :    0.170467
   2 C :   -0.042389
   3 N :    0.278072
   4 N :    0.282548
   5 H :    0.054733
   6 H :    0.061495
   7 H :    0.053031
   8 H :    0.044574
   9 H :    0.047183
  10 H :    0.040945
  11 H :   -0.000103
  12 H :    0.009792
  13 H :   -0.007603

  Mayer bond orders larger than 0.100000
B(  0-C ,  1-C ) :   1.2801 B(  0-C ,  2-C ) :   1.1208 B(  0-C ,  9-H ) :   0.9127
B(  0-C , 10-H ) :   0.9187 B(  0-C , 11-H ) :   0.1407 B(  0-C , 12-H ) :   0.1247
B(  0-C , 13-H ) :   0.1650 B(  1-C , 11-H ) :   0.8801 B(  1-C , 12-H ) :   0.8557
B(  1-C , 13-H ) :   0.8264 B(  2-C ,  3-N ) :   0.9073 B(  2-C ,  4-N ) :   1.1304
B(  2-C ,  5-H ) :  -0.1584 B(  2-C ,  8-H ) :  -0.2080 B(  3-N ,  4-N ) :   0.1648
B(  3-N ,  7-H ) :   1.0801 B(  3-N ,  8-H ) :   1.3293 B(  4-N ,  5-H ) :   1.3011
B(  4-N ,  6-H ) :   1.0531 B(  5-H ,  6-H ) :  -0.1566 B(  7-H ,  8-H ) :  -0.1708

Dispersion correction           -0.008500282
FINAL SINGLE POINT ENERGY      -228.619713510354

DIPOLE MOMENT
-------------
                                X             Y             Z
Electronic contribution:      2.37794       2.57615      -2.28496
Nuclear contribution   :     -1.74195      -2.09431       1.58516
                        -----------------------------------------
Total Dipole Moment    :      0.63600       0.48184      -0.69980
                        -----------------------------------------
Magnitude (a.u.)       :      1.06131
Magnitude (Debye)      :      2.69764

Rotational constants in cm-1:     0.258965     0.126500     0.098780
Rotational constants in MHz :  7763.584551  3792.383135  2961.336502

                             ****ORCA TERMINATED NORMALLY****
TOTAL RUN TIME: 0 days 0 hours 0 minutes 20 seconds 899 msec
