                         Program Version 5.0.0 -  RELEASE  -
|  1> !PBE0 D3BJ RIJCOSX def2-SVPD def2/J TightSCF xyzfile
|  2>
|  3> *xyzfile 0 1 B.xyz
|  4>
|  5> %MaxCore 64000
|  6>
|  7> %pal nprocs 4
|  8> end
|  9>
| 10> %scf
| 11>   MaxIter 150
| 12> end
| 13>
| 14>
| 15>                          ****END OF INPUT****

CARTESIAN COORDINATES (ANGSTROEM)
---------------------------------
  C      3.343500    3.354571   -3.591998
  C      2.952633    1.863077   -3.574849
  C      4.129209    0.898394   -3.418950
  H      3.733687   -0.100605   -3.237633
  H      4.719095    0.862556   -4.339005
  C      5.017344    1.315212   -2.221305
  C      4.255868    3.703851   -4.726054
  N      3.734032    4.293783   -5.800770
  N      5.515039    3.407255   -4.637185
  H      6.149187    3.601203   -5.399053
  H      5.813584    2.899504   -3.808785
  H      2.741380    4.513109   -5.824701
  H      4.287548    4.521260   -6.614341
  H      2.278938    1.735250   -2.725496
  H      2.377466    1.625787   -4.475869
  O      4.737055    0.854112   -1.122825
  O      5.928146    2.168108   -2.491365
  H      3.861246    3.597252   -2.662979
  H      2.446493    3.973461   -3.656556

 Total Charge           Charge          ....    0
 Multiplicity           Mult            ....    1
 Number of Electrons    NEL             ....   70
 Basis Dimension        Dim             ....  266

ORBITAL ENERGIES
----------------

  NO   OCC          E(Eh)            E(eV)
   0   2.0000     -19.129727      -520.5463
   1   2.0000     -19.116390      -520.1834
   2   2.0000     -14.496814      -394.4784
   3   2.0000     -14.456402      -393.3787
   4   2.0000     -10.396240      -282.8961
   5   2.0000     -10.282449      -279.7997
   6   2.0000     -10.278739      -279.6987
   7   2.0000     -10.255307      -279.0611
   8   2.0000     -10.213287      -277.9177
   9   2.0000      -1.066081       -29.0095
  10   2.0000      -1.013883       -27.5892
  11   2.0000      -0.968928       -26.3659
  12   2.0000      -0.923068       -25.1180
  13   2.0000      -0.842165       -22.9165
  14   2.0000      -0.755580       -20.5604
  15   2.0000      -0.694833       -18.9074
  16   2.0000      -0.649907       -17.6849
  17   2.0000      -0.638971       -17.3873
  18   2.0000      -0.602993       -16.4083
  19   2.0000      -0.562005       -15.2929
  20   2.0000      -0.517882       -14.0923
  21   2.0000      -0.500241       -13.6123
  22   2.0000      -0.478406       -13.0181
  23   2.0000      -0.462977       -12.5982
  24   2.0000      -0.439759       -11.9664
  25   2.0000      -0.414939       -11.2911
  26   2.0000      -0.394674       -10.7396
  27   2.0000      -0.387623       -10.5477
  28   2.0000      -0.382846       -10.4178
  29   2.0000      -0.354408        -9.6439
  30   2.0000      -0.344904        -9.3853
  31   2.0000      -0.343688        -9.3522
  32   2.0000      -0.235663        -6.4127
  33   2.0000      -0.229526        -6.2457
  34   2.0000      -0.207742        -5.6529
  35   0.0000      -0.050939        -1.3861
  36   0.0000      -0.024810        -0.6751
  37   0.0000       0.013088         0.3561
  38   0.0000       0.034038         0.9262
  39   0.0000       0.044041         1.1984

MULLIKEN ATOMIC CHARGES
-----------------------
   0 C :   -0.059435
   1 C :   -0.106360
   2 C :    0.055976
   3 H :   -0.100713
   4 H :    0.146416
   5 C :    0.654488
   6 C :    0.967998
   7 N :   -0.167568
   8 N :    0.219714
   9 H :   -0.166025
  10 H :   -0.130497
  11 H :   -0.008001
  12 H :   -0.141909
  13 H :    0.112274
  14 H :   -0.096023
  15 O :   -0.661844
  16 O :   -0.733057
  17 H :    0.292199
  18 H :   -0.077634
Sum of atomic charges:    0.0000000

LOEWDIN ATOMIC CHARGES
----------------------
   0 C :    0.048107
   1 C :   -0.002986
   2 C :    0.027115
   3 H :    0.023993
   4 H :    0.009683
   5 C :   -0.217911
   6 C :   -0.035674
   7 N :    0.239698
   8 N :    0.304322
   9 H :    0.040344
  10 H :   -0.131917
  11 H :    0.031008
  12 H :    0.024303
  13 H :    0.038496
  14 H :    0.019890
  15 O :   -0.223459
  16 O :   -0.265933
  17 H :    0.045305
  18 H :    0.025617

  Mayer bond orders larger than 0.100000
B(  0-C ,  1-C ) :   1.2380 B(  0-C ,  6-C ) :   1.0714 B(  0-C , 14-H ) :   0.1277
B(  0-C , 17-H ) :   0.7267 B(  0-C , 18-H ) :   0.9368 B(  1-C ,  2-C ) :   1.2908
B(  1-C ,  3-H ) :   0.1544 B(  1-C ,  4-H ) :   0.1392 B(  1-C , 13-H ) :   0.8573
B(  1-C , 14-H ) :   0.9656 B(  1-C , 17-H ) :   0.1089 B(  1-C , 18-H ) :   0.1566
B(  2-C ,  3-H ) :   0.8715 B(  2-C ,  4-H ) :   0.8320 B(  2-C ,  5-C ) :   1.0038
B(  2-C , 13-H ) :   0.1308 B(  3-H ,  5-C ) :   0.1526 B(  5-C , 15-O ) :   1.4574
B(  5-C , 16-O ) :   1.1457 B(  6-C ,  7-N ) :   0.8435 B(  6-C ,  8-N ) :   1.0828
B(  6-C ,  9-H ) :  -0.2328 B(  6-C , 11-H ) :  -0.1294 B(  6-C , 12-H ) :  -0.1767
B(  7-N ,  8-N ) :   0.1621 B(  7-N , 11-H ) :   1.1776 B(  7-N , 12-H ) :   1.3296
B(  8-N ,  9-H ) :   1.3460 B(  8-N , 10-H ) :   1.0511 B(  9-H , 10-H ) :  -0.2439
B( 10-H , 16-O ) :   0.2335 B( 11-H , 12-H ) :  -0.1752 B( 15-O , 16-O ) :   0.1407

Dispersion correction           -0.016195194
FINAL SINGLE POINT ENERGY      -455.718802335561

DIPOLE MOMENT
-------------
                                X             Y             Z
Electronic contribution:      3.88929       0.02799       2.58115
Nuclear contribution   :     -5.42217       2.65262      -7.07590
                        -----------------------------------------
Total Dipole Moment    :     -1.53288       2.68061      -4.49475
                        -----------------------------------------
Magnitude (a.u.)       :      5.45327
Magnitude (Debye)      :     13.86112

Rotational constants in cm-1:     0.107541     0.035862     0.030371
Rotational constants in MHz :  3223.996852  1075.120464   910.508313

                             ****ORCA TERMINATED NORMALLY****
TOTAL RUN TIME: 0 days 0 hours 0 minutes 47 seconds 233 msec
