                         Program Version 5.0.0 -  RELEASE  -
|  1> !PBE0 D3BJ RIJCOSX def2-SVPD def2/J TightSCF
|  2>
|  3> *xyz 0 1
|  4> C          2.95263        1.86308       -3.57485
|  5> C          4.12921        0.89839       -3.41895
|  6> H          3.73369       -0.10060       -3.23763
|  7> H          4.71910        0.86256       -4.33901
|  8> C          5.01734        1.31521       -2.22130
|  9> F          4.73706        0.85411       -1.12283
| 10> O          5.92815        2.16811       -2.49136
| 11> H          2.35067        1.56005       -4.40594
| 12> H          3.32277        2.85258       -3.74453
| 13> H          2.36134        1.85149       -2.68315
| 14> *
| 15> %MaxCore 64000
| 16>
| 17> %pal nprocs 4
| 18> end
| 19>
| 20> %scf
| 21>   MaxIter 150
| 22> end
| 23>
| 24>
| 25>                          ****END OF INPUT****

CARTESIAN COORDINATES (ANGSTROEM)
---------------------------------
  C      2.952630    1.863080   -3.574850
  C      4.129210    0.898390   -3.418950
  H      3.733690   -0.100600   -3.237630
  H      4.719100    0.862560   -4.339010
  C      5.017340    1.315210   -2.221300
  F      4.737060    0.854110   -1.122830
  O      5.928150    2.168110   -2.491360
  H      2.350670    1.560050   -4.405940
  H      3.322770    2.852580   -3.744530
  H      2.361340    1.851490   -2.683150

 Total Charge           Charge          ....    0
 Multiplicity           Mult            ....    1
 Number of Electrons    NEL             ....   40
 Basis Dimension        Dim             ....  146

ORBITAL ENERGIES
----------------

  NO   OCC          E(Eh)            E(eV)
   0   2.0000     -24.870714      -676.7665
   1   2.0000     -19.223797      -523.1061
   2   2.0000     -10.418599      -283.5045
   3   2.0000     -10.265855      -279.3481
   4   2.0000     -10.242565      -278.7144
   5   2.0000      -1.366746       -37.1910
   6   2.0000      -1.041976       -28.3536
   7   2.0000      -0.820091       -22.3158
   8   2.0000      -0.713648       -19.4193
   9   2.0000      -0.667862       -18.1735
  10   2.0000      -0.586254       -15.9528
  11   2.0000      -0.570957       -15.5365
  12   2.0000      -0.524286       -14.2665
  13   2.0000      -0.480976       -13.0880
  14   2.0000      -0.452159       -12.3039
  15   2.0000      -0.417082       -11.3494
  16   2.0000      -0.394317       -10.7299
  17   2.0000      -0.386202       -10.5091
  18   2.0000      -0.361070        -9.8252
  19   2.0000      -0.302285        -8.2256
  20   0.0000      -0.029217        -0.7950
  21   0.0000       0.020536         0.5588
  22   0.0000       0.053289         1.4501
  23   0.0000       0.063607         1.7308
  24   0.0000       0.082604         2.2478

MULLIKEN ATOMIC CHARGES
-----------------------
   0 C :    0.375352
   1 C :   -0.486873
   2 H :    0.082203
   3 H :    0.062800
   4 C :    0.929452
   5 F :   -0.382708
   6 O :   -0.600998
   7 H :    0.007953
   8 H :    0.009847
   9 H :    0.002971
Sum of atomic charges:   -0.0000000

LOEWDIN ATOMIC CHARGES
----------------------
   0 C :    0.133449
   1 C :    0.000835
   2 H :    0.022586
   3 H :    0.037549
   4 C :   -0.002444
   5 F :   -0.012288
   6 O :   -0.157135
   7 H :   -0.009709
   8 H :   -0.004244
   9 H :   -0.008600

  Mayer bond orders larger than 0.100000
B(  0-C ,  1-C ) :   1.3325 B(  0-C ,  7-H ) :   0.8850 B(  0-C ,  8-H ) :   0.8789
B(  0-C ,  9-H ) :   0.8633 B(  1-C ,  2-H ) :   0.9307 B(  1-C ,  3-H ) :   0.9644
B(  1-C ,  4-C ) :   1.0507 B(  1-C ,  7-H ) :   0.1139 B(  1-C ,  8-H ) :   0.1429
B(  1-C ,  9-H ) :   0.1431 B(  4-C ,  5-F ) :   0.6987 B(  4-C ,  6-O ) :   1.6873
B(  5-F ,  6-O ) :   0.1092

Dispersion correction           -0.005174551
FINAL SINGLE POINT ENERGY      -291.871419916554

DIPOLE MOMENT
-------------
                                X             Y             Z
Electronic contribution:      5.04004      -1.18667       6.51599
Nuclear contribution   :     -6.06116       0.51860      -6.80802
                        -----------------------------------------
Total Dipole Moment    :     -1.02111      -0.66807      -0.29203
                        -----------------------------------------
Magnitude (a.u.)       :      1.25470
Magnitude (Debye)      :      3.18919

Rotational constants in cm-1:     0.276196     0.132056     0.105465
Rotational constants in MHz :  8280.156449  3958.940601  3161.775929

                             ****ORCA TERMINATED NORMALLY****
TOTAL RUN TIME: 0 days 0 hours 0 minutes 15 seconds 523 msec
