                         Program Version 5.0.0 -  RELEASE  -
|  1> !PBE0 D3BJ RIJCOSX def2-SVPD def2/J TightSCF
|  2>
|  3> *xyz 0 1
|  4> C          3.34350        3.35457       -3.59200
|  5> C          2.95263        1.86308       -3.57485
|  6> C          4.25587        3.70385       -4.72605
|  7> C          3.73403        4.29378       -5.80077
|  8> N          5.51504        3.40725       -4.63718
|  9> H          6.14919        3.60120       -5.39905
| 10> H          5.81358        2.89950       -3.80879
| 11> H          2.74138        4.51311       -5.82470
| 12> H          4.28755        4.52126       -6.61434
| 13> H          3.86125        3.59725       -2.66298
| 14> H          2.44649        3.97346       -3.65656
| 15> H          2.44395        1.61721       -4.48352
| 16> H          2.30781        1.67290       -2.74242
| 17> H          3.83491        1.26414       -3.48670
| 18> *
| 19> %MaxCore 64000
| 20>
| 21> %pal nprocs 4
| 22> end
| 23>
| 24> %scf
| 25>   MaxIter 150
| 26> end
| 27>
| 28>
| 29>                          ****END OF INPUT****

CARTESIAN COORDINATES (ANGSTROEM)
---------------------------------
  C      3.343500    3.354570   -3.592000
  C      2.952630    1.863080   -3.574850
  C      4.255870    3.703850   -4.726050
  C      3.734030    4.293780   -5.800770
  N      5.515040    3.407250   -4.637180
  H      6.149190    3.601200   -5.399050
  H      5.813580    2.899500   -3.808790
  H      2.741380    4.513110   -5.824700
  H      4.287550    4.521260   -6.614340
  H      3.861250    3.597250   -2.662980
  H      2.446490    3.973460   -3.656560
  H      2.443950    1.617210   -4.483520
  H      2.307810    1.672900   -2.742420
  H      3.834910    1.264140   -3.486700

 Total Charge           Charge          ....    0
 Multiplicity           Mult            ....    1
 Number of Electrons    NEL             ....   40
 Basis Dimension        Dim             ....  172

ORBITAL ENERGIES
----------------

  NO   OCC          E(Eh)            E(eV)
   0   2.0000     -14.400187      -391.8490
   1   2.0000     -10.252148      -278.9751
   2   2.0000     -10.232848      -278.4499
   3   2.0000     -10.219488      -278.0864
   4   2.0000     -10.164050      -276.5779
   5   2.0000      -0.956360       -26.0239
   6   2.0000      -0.794764       -21.6266
   7   2.0000      -0.729403       -19.8481
   8   2.0000      -0.650561       -17.7027
   9   2.0000      -0.585747       -15.9390
  10   2.0000      -0.548101       -14.9146
  11   2.0000      -0.493861       -13.4386
  12   2.0000      -0.451589       -12.2884
  13   2.0000      -0.434921       -11.8348
  14   2.0000      -0.407169       -11.0796
  15   2.0000      -0.395408       -10.7596
  16   2.0000      -0.365914        -9.9570
  17   2.0000      -0.347023        -9.4430
  18   2.0000      -0.344087        -9.3631
  19   2.0000      -0.198067        -5.3897
  20   0.0000       0.021713         0.5908
  21   0.0000       0.048132         1.3097
  22   0.0000       0.060108         1.6356
  23   0.0000       0.066242         1.8025
  24   0.0000       0.074306         2.0220

MULLIKEN ATOMIC CHARGES
-----------------------
   0 C :   -0.299874
   1 C :    0.489159
   2 C :   -0.028456
   3 C :    0.370811
   4 N :    0.122633
   5 H :   -0.184876
   6 H :   -0.074759
   7 H :   -0.076882
   8 H :   -0.427301
   9 H :   -0.001186
  10 H :    0.102544
  11 H :   -0.022492
  12 H :    0.037703
  13 H :   -0.007024
Sum of atomic charges:    0.0000000

LOEWDIN ATOMIC CHARGES
----------------------
   0 C :   -0.034968
   1 C :    0.131118
   2 C :   -0.273132
   3 C :    0.173600
   4 N :    0.164888
   5 H :    0.015468
   6 H :    0.009364
   7 H :   -0.083108
   8 H :   -0.090193
   9 H :    0.019033
  10 H :    0.024100
  11 H :   -0.013138
  12 H :   -0.018830
  13 H :   -0.024203

  Mayer bond orders larger than 0.100000
B(  0-C ,  1-C ) :   1.2714 B(  0-C ,  2-C ) :   1.1653 B(  0-C ,  3-C ) :   0.1387
B(  0-C ,  9-H ) :   0.8834 B(  0-C , 10-H ) :   0.8769 B(  0-C , 11-H ) :   0.1555
B(  0-C , 12-H ) :   0.1433 B(  0-C , 13-H ) :   0.1876 B(  1-C , 11-H ) :   0.8934
B(  1-C , 12-H ) :   0.8413 B(  1-C , 13-H ) :   0.8312 B(  2-C ,  3-C ) :   1.7281
B(  2-C ,  4-N ) :   1.1874 B(  2-C ,  8-H ) :   0.1624 B(  2-C ,  9-H ) :   0.1417
B(  2-C , 10-H ) :   0.1207 B(  3-C ,  4-N ) :   0.2352 B(  3-C ,  7-H ) :   0.9559
B(  3-C ,  8-H ) :   0.7912 B(  4-N ,  5-H ) :   1.2650 B(  4-N ,  6-H ) :   1.1108
B(  5-H ,  6-H ) :  -0.1295

Dispersion correction           -0.008846317
FINAL SINGLE POINT ENERGY      -212.171206755167

DIPOLE MOMENT
-------------
                                X             Y             Z
Electronic contribution:      2.34113       1.47994      -0.86176
Nuclear contribution   :     -1.79713      -1.86925       1.28073
                        -----------------------------------------
Total Dipole Moment    :      0.54400      -0.38930       0.41897
                        -----------------------------------------
Magnitude (a.u.)       :      0.78933
Magnitude (Debye)      :      2.00631

Rotational constants in cm-1:     0.269040     0.129645     0.102087
Rotational constants in MHz :  8065.609820  3886.645139  3060.489045

                             ****ORCA TERMINATED NORMALLY****
TOTAL RUN TIME: 0 days 0 hours 0 minutes 20 seconds 913 msec
