                         Program Version 5.0.0 -  RELEASE  -
|  1> !PBE0 D3BJ RIJCOSX def2-SVPD def2/J TightSCF
|  2>
|  3> *xyz 0 1
|  4> C          2.95263        1.86308       -3.57485
|  5> C          4.12921        0.89839       -3.41895
|  6> H          3.73369       -0.10060       -3.23763
|  7> H          4.71910        0.86256       -4.33901
|  8> C          5.01734        1.31521       -2.22130
|  9> O          4.73706        0.85411       -1.12283
| 10> F          5.92815        2.16811       -2.49136
| 11> H          2.35067        1.56005       -4.40594
| 12> H          3.32277        2.85258       -3.74453
| 13> H          2.36134        1.85149       -2.68315
| 14> *
| 15> %MaxCore 64000
| 16>
| 17> %pal nprocs 4
| 18> end
| 19>
| 20> %scf
| 21>   MaxIter 150
| 22> end
| 23>
| 24>
| 25>                          ****END OF INPUT****

CARTESIAN COORDINATES (ANGSTROEM)
---------------------------------
  C      2.952630    1.863080   -3.574850
  C      4.129210    0.898390   -3.418950
  H      3.733690   -0.100600   -3.237630
  H      4.719100    0.862560   -4.339010
  C      5.017340    1.315210   -2.221300
  O      4.737060    0.854110   -1.122830
  F      5.928150    2.168110   -2.491360
  H      2.350670    1.560050   -4.405940
  H      3.322770    2.852580   -3.744530
  H      2.361340    1.851490   -2.683150

 Total Charge           Charge          ....    0
 Multiplicity           Mult            ....    1
 Number of Electrons    NEL             ....   40
 Basis Dimension        Dim             ....  146

ORBITAL ENERGIES
----------------

  NO   OCC          E(Eh)            E(eV)
   0   2.0000     -24.849715      -676.1951
   1   2.0000     -19.233091      -523.3590
   2   2.0000     -10.414291      -283.3873
   3   2.0000     -10.265320      -279.3336
   4   2.0000     -10.242784      -278.7203
   5   2.0000      -1.325443       -36.0671
   6   2.0000      -1.076122       -29.2828
   7   2.0000      -0.819686       -22.3048
   8   2.0000      -0.700629       -19.0651
   9   2.0000      -0.655772       -17.8445
  10   2.0000      -0.564697       -15.3662
  11   2.0000      -0.551025       -14.9941
  12   2.0000      -0.524486       -14.2720
  13   2.0000      -0.480317       -13.0701
  14   2.0000      -0.455917       -12.4061
  15   2.0000      -0.421699       -11.4750
  16   2.0000      -0.401739       -10.9319
  17   2.0000      -0.386698       -10.5226
  18   2.0000      -0.376880       -10.2554
  19   2.0000      -0.313280        -8.5248
  20   0.0000      -0.023788        -0.6473
  21   0.0000       0.021392         0.5821
  22   0.0000       0.053665         1.4603
  23   0.0000       0.064431         1.7533
  24   0.0000       0.082813         2.2535

MULLIKEN ATOMIC CHARGES
-----------------------
   0 C :    0.374434
   1 C :   -0.484370
   2 H :    0.080301
   3 H :    0.061624
   4 C :    0.924557
   5 O :   -0.532690
   6 F :   -0.444482
   7 H :    0.007519
   8 H :   -0.003267
   9 H :    0.016372
Sum of atomic charges:   -0.0000000

LOEWDIN ATOMIC CHARGES
----------------------
   0 C :    0.133214
   1 C :    0.002515
   2 H :    0.033076
   3 H :    0.027806
   4 C :   -0.000478
   5 O :   -0.120133
   6 F :   -0.053421
   7 H :   -0.009745
   8 H :   -0.009085
   9 H :   -0.003749

  Mayer bond orders larger than 0.100000
B(  0-C ,  1-C ) :   1.3318 B(  0-C ,  7-H ) :   0.8863 B(  0-C ,  8-H ) :   0.8712
B(  0-C ,  9-H ) :   0.8703 B(  1-C ,  2-H ) :   0.9502 B(  1-C ,  3-H ) :   0.9499
B(  1-C ,  4-C ) :   1.0384 B(  1-C ,  7-H ) :   0.1137 B(  1-C ,  8-H ) :   0.1386
B(  1-C ,  9-H ) :   0.1466 B(  4-C ,  5-O ) :   1.7486 B(  4-C ,  6-F ) :   0.6305
B(  5-O ,  6-F ) :   0.1092

Dispersion correction           -0.005174246
FINAL SINGLE POINT ENERGY      -291.887647145641

DIPOLE MOMENT
-------------
                                X             Y             Z
Electronic contribution:      7.02842       1.00705       4.22485
Nuclear contribution   :     -7.35982      -0.91407      -5.31589
                        -----------------------------------------
Total Dipole Moment    :     -0.33139       0.09298      -1.09105
                        -----------------------------------------
Magnitude (a.u.)       :      1.14405
Magnitude (Debye)      :      2.90794

Rotational constants in cm-1:     0.275433     0.132201     0.105422
Rotational constants in MHz :  8257.268192  3963.279062  3160.465566

                             ****ORCA TERMINATED NORMALLY****
TOTAL RUN TIME: 0 days 0 hours 0 minutes 15 seconds 684 msec
