                         Program Version 5.0.0 -  RELEASE  -
|  1> !PBE0 D3BJ RIJCOSX def2-SVPD def2/J TightSCF
|  2>
|  3> *xyz 0 1
|  4> C          3.34350        3.35457       -3.59200
|  5> C          2.95263        1.86308       -3.57485
|  6> C          4.25587        3.70385       -4.72605
|  7> N          3.73403        4.29378       -5.80077
|  8> C          5.51504        3.40725       -4.63718
|  9> H          6.14919        3.60120       -5.39905
| 10> H          5.81358        2.89950       -3.80879
| 11> H          2.74138        4.51311       -5.82470
| 12> H          4.28755        4.52126       -6.61434
| 13> H          3.86125        3.59725       -2.66298
| 14> H          2.44649        3.97346       -3.65656
| 15> H          2.44395        1.61721       -4.48352
| 16> H          2.30781        1.67290       -2.74242
| 17> H          3.83491        1.26414       -3.48670
| 18> *
| 19> %MaxCore 64000
| 20>
| 21> %pal nprocs 4
| 22> end
| 23>
| 24> %scf
| 25>   MaxIter 150
| 26> end
| 27>
| 28>
| 29>                          ****END OF INPUT****

CARTESIAN COORDINATES (ANGSTROEM)
---------------------------------
  C      3.343500    3.354570   -3.592000
  C      2.952630    1.863080   -3.574850
  C      4.255870    3.703850   -4.726050
  N      3.734030    4.293780   -5.800770
  C      5.515040    3.407250   -4.637180
  H      6.149190    3.601200   -5.399050
  H      5.813580    2.899500   -3.808790
  H      2.741380    4.513110   -5.824700
  H      4.287550    4.521260   -6.614340
  H      3.861250    3.597250   -2.662980
  H      2.446490    3.973460   -3.656560
  H      2.443950    1.617210   -4.483520
  H      2.307810    1.672900   -2.742420
  H      3.834910    1.264140   -3.486700

 Total Charge           Charge          ....    0
 Multiplicity           Mult            ....    1
 Number of Electrons    NEL             ....   40
 Basis Dimension        Dim             ....  172

ORBITAL ENERGIES
----------------

  NO   OCC          E(Eh)            E(eV)
   0   2.0000     -14.396532      -391.7495
   1   2.0000     -10.249762      -278.9102
   2   2.0000     -10.232406      -278.4379
   3   2.0000     -10.217374      -278.0289
   4   2.0000     -10.162594      -276.5383
   5   2.0000      -0.941469       -25.6187
   6   2.0000      -0.797376       -21.6977
   7   2.0000      -0.733311       -19.9544
   8   2.0000      -0.651547       -17.7295
   9   2.0000      -0.579471       -15.7682
  10   2.0000      -0.536058       -14.5869
  11   2.0000      -0.497454       -13.5364
  12   2.0000      -0.453293       -12.3347
  13   2.0000      -0.427841       -11.6422
  14   2.0000      -0.407240       -11.0816
  15   2.0000      -0.396572       -10.7913
  16   2.0000      -0.361350        -9.8328
  17   2.0000      -0.350178        -9.5288
  18   2.0000      -0.341092        -9.2816
  19   2.0000      -0.202703        -5.5158
  20   0.0000       0.024085         0.6554
  21   0.0000       0.048315         1.3147
  22   0.0000       0.059767         1.6263
  23   0.0000       0.066643         1.8134
  24   0.0000       0.076134         2.0717

MULLIKEN ATOMIC CHARGES
-----------------------
   0 C :   -0.286800
   1 C :    0.456714
   2 C :    0.152914
   3 N :   -0.061965
   4 C :    0.329742
   5 H :   -0.383779
   6 H :   -0.050117
   7 H :   -0.072290
   8 H :   -0.166144
   9 H :    0.121422
  10 H :   -0.045426
  11 H :   -0.027848
  12 H :    0.044263
  13 H :   -0.010687
Sum of atomic charges:   -0.0000000

LOEWDIN ATOMIC CHARGES
----------------------
   0 C :   -0.035338
   1 C :    0.132326
   2 C :   -0.263461
   3 N :    0.163613
   4 C :    0.163628
   5 H :   -0.079000
   6 H :   -0.069810
   7 H :   -0.001719
   8 H :    0.003832
   9 H :    0.026386
  10 H :    0.013804
  11 H :   -0.016026
  12 H :   -0.019643
  13 H :   -0.018591

  Mayer bond orders larger than 0.100000
B(  0-C ,  1-C ) :   1.2896 B(  0-C ,  2-C ) :   1.0888 B(  0-C ,  3-N ) :   0.1162
B(  0-C ,  4-C ) :   0.1518 B(  0-C ,  9-H ) :   0.8620 B(  0-C , 10-H ) :   0.8983
B(  0-C , 11-H ) :   0.1696 B(  0-C , 12-H ) :   0.1286 B(  0-C , 13-H ) :   0.1699
B(  1-C , 11-H ) :   0.8770 B(  1-C , 12-H ) :   0.8376 B(  1-C , 13-H ) :   0.8719
B(  2-C ,  3-N ) :   0.9848 B(  2-C ,  4-C ) :   1.8307 B(  2-C ,  5-H ) :   0.2080
B(  2-C ,  6-H ) :   0.1507 B(  2-C ,  8-H ) :  -0.1472 B(  2-C , 10-H ) :   0.1153
B(  3-N ,  4-C ) :   0.2603 B(  3-N ,  7-H ) :   1.1195 B(  3-N ,  8-H ) :   1.3129
B(  4-C ,  5-H ) :   0.7860 B(  4-C ,  6-H ) :   0.8119 B(  7-H ,  8-H ) :  -0.1584

Dispersion correction           -0.008854061
FINAL SINGLE POINT ENERGY      -212.171142938006

DIPOLE MOMENT
-------------
                                X             Y             Z
Electronic contribution:      0.78453       2.27285      -1.87145
Nuclear contribution   :     -1.38463      -2.07457       1.55023
                        -----------------------------------------
Total Dipole Moment    :     -0.60010       0.19827      -0.32122
                        -----------------------------------------
Magnitude (a.u.)       :      0.70895
Magnitude (Debye)      :      1.80202

Rotational constants in cm-1:     0.272312     0.128195     0.101724
Rotational constants in MHz :  8163.717141  3843.180148  3049.598073

                             ****ORCA TERMINATED NORMALLY****
TOTAL RUN TIME: 0 days 0 hours 0 minutes 20 seconds 228 msec
