                         Program Version 5.0.0 -  RELEASE  -
|  1> !BLYP D3BJ RIJCOSX def2-SVPD def2/J TightSCF
|  2> *xyz -1 1
|  3> C          4.26524        2.50052       -0.79589
|  4> C          4.98224        1.65026        0.24742
|  5> O          4.36806        1.38927        1.31371
|  6> O          6.12892        1.23351       -0.04562
|  7> H          4.90412        2.63966       -1.64287
|  8> H          4.02079        3.45265       -0.37328
|  9> H          3.36773        2.00584       -1.10356
| 10> *
| 11> %MaxCore 64000
| 12> %pal nprocs 8
| 13> end
| 14> %scf
| 15>   MaxIter 150
| 16> end
| 17>
| 18>
| 19>                          ****END OF INPUT****

CARTESIAN COORDINATES (ANGSTROEM)
---------------------------------
  C      4.265240    2.500520   -0.795890
  C      4.982240    1.650260    0.247420
  O      4.368060    1.389270    1.313710
  O      6.128920    1.233510   -0.045620
  H      4.904120    2.639660   -1.642870
  H      4.020790    3.452650   -0.373280
  H      3.367730    2.005840   -1.103560

 Total Charge           Charge          ....   -1
 Multiplicity           Mult            ....    1
 Number of Electrons    NEL             ....   32
 Basis Dimension        Dim             ....  110

ORBITAL ENERGIES
----------------

  NO   OCC          E(Eh)            E(eV)
   0   2.0000     -18.528648      -504.1901
   1   2.0000     -18.527747      -504.1656
   2   2.0000      -9.801581      -266.7146
   3   2.0000      -9.735356      -264.9125
   4   2.0000      -0.714470       -19.4417
   5   2.0000      -0.626432       -17.0461
   6   2.0000      -0.463165       -12.6034
   7   2.0000      -0.241278        -6.5655
   8   2.0000      -0.209118        -5.6904
   9   2.0000      -0.193284        -5.2595
  10   2.0000      -0.165697        -4.5088
  11   2.0000      -0.130491        -3.5508
  12   2.0000      -0.117352        -3.1933
  13   2.0000      -0.007037        -0.1915
  14   2.0000       0.004763         0.1296
  15   2.0000       0.024081         0.6553
  16   0.0000       0.155392         4.2284
  17   0.0000       0.198600         5.4042
  18   0.0000       0.200388         5.4528
  19   0.0000       0.223766         6.0890
  20   0.0000       0.243084         6.6147

MULLIKEN ATOMIC CHARGES
-----------------------
   0 C :    0.860880
   1 C :   -0.153826
   2 O :   -0.575643
   3 O :   -0.546585
   4 H :   -0.214575
   5 H :   -0.184622
   6 H :   -0.185629
Sum of atomic charges:   -1.0000000

LOEWDIN ATOMIC CHARGES
----------------------
   0 C :    0.155429
   1 C :   -0.362373
   2 O :   -0.324941
   3 O :   -0.320670
   4 H :   -0.053775
   5 H :   -0.047482
   6 H :   -0.046189

  Mayer bond orders larger than 0.100000
B(  0-C ,  1-C ) :   1.2203 B(  0-C ,  4-H ) :   0.7913 B(  0-C ,  5-H ) :   0.7354
B(  0-C ,  6-H ) :   0.7413 B(  1-C ,  2-O ) :   1.5781 B(  1-C ,  3-O ) :   1.5555
B(  1-C ,  4-H ) :   0.3216 B(  1-C ,  5-H ) :   0.2273 B(  1-C ,  6-H ) :   0.2219

Dispersion correction           -0.007719884
FINAL SINGLE POINT ENERGY      -228.325642820518

DIPOLE MOMENT
-------------
                                X             Y             Z
Electronic contribution:      1.73031      -2.05191       2.48961
Nuclear contribution   :     -2.34880       2.82033      -3.41655
                        -----------------------------------------
Total Dipole Moment    :     -0.61849       0.76842      -0.92694
                        -----------------------------------------
Magnitude (a.u.)       :      1.35359
Magnitude (Debye)      :      3.44056

Rotational constants in cm-1:     0.393413     0.334516     0.186969
Rotational constants in MHz : 11794.232386 10028.538646  5605.197050

                             ****ORCA TERMINATED NORMALLY****
TOTAL RUN TIME: 0 days 0 hours 0 minutes 2 seconds 810 msec
