                         Program Version 5.0.0 -  RELEASE  -
|  1> !BLYP D3BJ RIJCOSX def2-SVPD def2/J TightSCF
|  2> *xyz 1 1
|  3> C          3.91385       -1.65829        3.01513
|  4> N          5.03927       -0.90115        2.49282
|  5> C          6.21038       -1.41726        2.17824
|  6> N          6.53591       -2.67712        2.55608
|  7> N          7.07675       -0.70082        1.47891
|  8> H          7.95464       -1.12155        1.20755
|  9> H          6.75616        0.10664        0.96028
| 10> H          4.84217        0.01761        2.11519
| 11> H          5.99388       -3.12692        3.28278
| 12> H          7.49844       -2.97548        2.46878
| 13> H          3.08844       -0.99893        3.18495
| 14> H          4.19412       -2.12366        3.93697
| 15> H          3.63051       -2.40965        2.30798
| 16> *
| 17> %MaxCore 64000
| 18> %pal nprocs 8
| 19> end
| 20> %scf
| 21>   MaxIter 150
| 22> end
| 23>
| 24>
| 25>                          ****END OF INPUT****

CARTESIAN COORDINATES (ANGSTROEM)
---------------------------------
  C      3.913850   -1.658290    3.015130
  N      5.039270   -0.901150    2.492820
  C      6.210380   -1.417260    2.178240
  N      6.535910   -2.677120    2.556080
  N      7.076750   -0.700820    1.478910
  H      7.954640   -1.121550    1.207550
  H      6.756160    0.106640    0.960280
  H      4.842170    0.017610    2.115190
  H      5.993880   -3.126920    3.282780
  H      7.498440   -2.975480    2.468780
  H      3.088440   -0.998930    3.184950
  H      4.194120   -2.123660    3.936970
  H      3.630510   -2.409650    2.307980

 Total Charge           Charge          ....    1
 Multiplicity           Mult            ....    1
 Number of Electrons    NEL             ....   40
 Basis Dimension        Dim             ....  164

ORBITAL ENERGIES
----------------

  NO   OCC          E(Eh)            E(eV)
   0   2.0000     -14.254523      -387.8853
   1   2.0000     -14.251026      -387.7901
   2   2.0000     -14.250318      -387.7709
   3   2.0000     -10.252780      -278.9923
   4   2.0000     -10.130104      -275.6541
   5   2.0000      -1.120963       -30.5030
   6   2.0000      -1.019195       -27.7337
   7   2.0000      -1.004067       -27.3220
   8   2.0000      -0.834993       -22.7213
   9   2.0000      -0.765009       -20.8170
  10   2.0000      -0.731902       -19.9161
  11   2.0000      -0.700189       -19.0531
  12   2.0000      -0.644856       -17.5474
  13   2.0000      -0.639896       -17.4125
  14   2.0000      -0.601920       -16.3791
  15   2.0000      -0.599018       -16.3001
  16   2.0000      -0.544620       -14.8199
  17   2.0000      -0.533927       -14.5289
  18   2.0000      -0.438612       -11.9352
  19   2.0000      -0.418864       -11.3979
  20   0.0000      -0.206059        -5.6072
  21   0.0000      -0.183209        -4.9854
  22   0.0000      -0.146141        -3.9767
  23   0.0000      -0.141526        -3.8511
  24   0.0000      -0.119538        -3.2528

MULLIKEN ATOMIC CHARGES
-----------------------
   0 C :    1.471302
   1 N :   -0.316347
   2 C :    0.971656
   3 N :    0.204209
   4 N :    0.239122
   5 H :   -0.112827
   6 H :   -0.120879
   7 H :   -0.281386
   8 H :   -0.124912
   9 H :   -0.167943
  10 H :   -0.484388
  11 H :   -0.154182
  12 H :   -0.123427
Sum of atomic charges:    1.0000000

LOEWDIN ATOMIC CHARGES
----------------------
   0 C :    0.262289
   1 N :    0.038265
   2 C :   -0.065527
   3 N :    0.302138
   4 N :    0.282262
   5 H :    0.034765
   6 H :    0.036478
   7 H :    0.054849
   8 H :    0.012766
   9 H :    0.030504
  10 H :    0.009968
  11 H :   -0.004991
  12 H :    0.006233

  Mayer bond orders larger than 0.100000
B(  0-C ,  1-N ) :   1.0246 B(  0-C ,  7-H ) :  -0.1232 B(  0-C , 10-H ) :   0.6708
B(  0-C , 11-H ) :   0.7467 B(  0-C , 12-H ) :   0.7569 B(  1-N ,  2-C ) :   1.1108
B(  1-N ,  3-N ) :   0.2517 B(  1-N ,  4-N ) :   0.2399 B(  1-N ,  7-H ) :   1.2511
B(  1-N , 10-H ) :   0.2148 B(  1-N , 11-H ) :   0.1818 B(  1-N , 12-H ) :   0.1525
B(  2-C ,  3-N ) :   1.0333 B(  2-C ,  4-N ) :   0.9567 B(  2-C ,  5-H ) :  -0.1150
B(  2-C ,  6-H ) :  -0.1545 B(  2-C ,  7-H ) :  -0.2468 B(  2-C ,  8-H ) :  -0.1531
B(  2-C ,  9-H ) :  -0.1181 B(  3-N ,  4-N ) :   0.1570 B(  3-N ,  8-H ) :   1.1081
B(  3-N ,  9-H ) :   1.2003 B(  4-N ,  5-H ) :   1.1660 B(  4-N ,  6-H ) :   1.1834
B(  5-H ,  6-H ) :  -0.1707 B(  8-H ,  9-H ) :  -0.1840

Dispersion correction           -0.018550953
FINAL SINGLE POINT ENERGY      -244.837502910231

DIPOLE MOMENT
-------------
                                X             Y             Z
Electronic contribution:      2.41777       0.84941      -0.95652
Nuclear contribution   :     -2.01473      -0.74897       0.69347
                        -----------------------------------------
Total Dipole Moment    :      0.40304       0.10044      -0.26305
                        -----------------------------------------
Magnitude (a.u.)       :      0.49166
Magnitude (Debye)      :      1.24969

Rotational constants in cm-1:     0.313249     0.134439     0.096258
Rotational constants in MHz :  9390.961986  4030.377472  2885.728233

                             ****ORCA TERMINATED NORMALLY****
TOTAL RUN TIME: 0 days 0 hours 0 minutes 4 seconds 619 msec
