                         Program Version 5.0.0 -  RELEASE  -
|  1> !BLYP D3BJ RIJCOSX def2-SVPD def2/J TightSCF
|  2> *xyz 0 1
|  3> C          4.26524        2.50052       -0.79589
|  4> C          4.98224        1.65026        0.24742
|  5> F          4.36806        1.38927        1.31371
|  6> O          6.12892        1.23351       -0.04562
|  7> H          4.90412        2.63966       -1.64287
|  8> H          4.02079        3.45265       -0.37328
|  9> H          3.36773        2.00584       -1.10356
| 10> *
| 11> %MaxCore 64000
| 12> %pal nprocs 8
| 13> end
| 14> %scf
| 15>   MaxIter 150
| 16> end
| 17>
| 18>
| 19>                          ****END OF INPUT****

CARTESIAN COORDINATES (ANGSTROEM)
---------------------------------
  C      4.265240    2.500520   -0.795890
  C      4.982240    1.650260    0.247420
  F      4.368060    1.389270    1.313710
  O      6.128920    1.233510   -0.045620
  H      4.904120    2.639660   -1.642870
  H      4.020790    3.452650   -0.373280
  H      3.367730    2.005840   -1.103560

 Total Charge           Charge          ....    0
 Multiplicity           Mult            ....    1
 Number of Electrons    NEL             ....   32
 Basis Dimension        Dim             ....  110

ORBITAL ENERGIES
----------------

  NO   OCC          E(Eh)            E(eV)
   0   2.0000     -24.377560      -663.3471
   1   2.0000     -18.800845      -511.5970
   2   2.0000     -10.102041      -274.8905
   3   2.0000      -9.951213      -270.7863
   4   2.0000      -1.198641       -32.6167
   5   2.0000      -0.934605       -25.4319
   6   2.0000      -0.692340       -18.8395
   7   2.0000      -0.590318       -16.0634
   8   2.0000      -0.489474       -13.3193
   9   2.0000      -0.482391       -13.1265
  10   2.0000      -0.442000       -12.0274
  11   2.0000      -0.396738       -10.7958
  12   2.0000      -0.385408       -10.4875
  13   2.0000      -0.351044        -9.5524
  14   2.0000      -0.316066        -8.6006
  15   2.0000      -0.245028        -6.6675
  16   0.0000      -0.067743        -1.8434
  17   0.0000      -0.007482        -0.2036
  18   0.0000       0.040698         1.1075
  19   0.0000       0.063757         1.7349
  20   0.0000       0.071172         1.9367

MULLIKEN ATOMIC CHARGES
-----------------------
   0 C :    0.830186
   1 C :    0.253013
   2 F :   -0.305927
   3 O :   -0.353339
   4 H :   -0.195050
   5 H :   -0.115453
   6 H :   -0.113430
Sum of atomic charges:    0.0000000

LOEWDIN ATOMIC CHARGES
----------------------
   0 C :    0.227579
   1 C :   -0.069904
   2 F :   -0.017706
   3 O :   -0.117291
   4 H :   -0.006579
   5 H :   -0.008772
   6 H :   -0.007326

  Mayer bond orders larger than 0.100000
B(  0-C ,  1-C ) :   1.2284 B(  0-C ,  4-H ) :   0.7999 B(  0-C ,  5-H ) :   0.7310
B(  0-C ,  6-H ) :   0.7352 B(  1-C ,  2-F ) :   0.8401 B(  1-C ,  3-O ) :   1.9049
B(  1-C ,  4-H ) :   0.2816 B(  1-C ,  5-H ) :   0.1791 B(  1-C ,  6-H ) :   0.1752
B(  2-F ,  3-O ) :   0.1138

Dispersion correction           -0.007107325
FINAL SINGLE POINT ENERGY      -252.863232291045

DIPOLE MOMENT
-------------
                                X             Y             Z
Electronic contribution:      0.79861      -2.53718       4.32969
Nuclear contribution   :     -1.76261       3.13449      -4.58927
                        -----------------------------------------
Total Dipole Moment    :     -0.96399       0.59731      -0.25959
                        -----------------------------------------
Magnitude (a.u.)       :      1.16338
Magnitude (Debye)      :      2.95707

Rotational constants in cm-1:     0.370628     0.320375     0.177409
Rotational constants in MHz : 11111.155899  9604.607061  5318.597912

                             ****ORCA TERMINATED NORMALLY****
TOTAL RUN TIME: 0 days 0 hours 0 minutes 2 seconds 783 msec
