                         Program Version 5.0.0 -  RELEASE  -
|  1> !BLYP D3BJ RIJCOSX def2-SVPD def2/J TightSCF
|  2> *xyz 0 1
|  3> C          3.91385       -1.65829        3.01513
|  4> C          5.03927       -0.90115        2.49282
|  5> C          6.21038       -1.41726        2.17824
|  6> N          6.53591       -2.67712        2.55608
|  7> N          7.07675       -0.70082        1.47891
|  8> H          7.95464       -1.12155        1.20755
|  9> H          6.75616        0.10664        0.96028
| 10> H          4.84217        0.01761        2.11519
| 11> H          5.99388       -3.12692        3.28278
| 12> H          7.49844       -2.97548        2.46878
| 13> H          3.08844       -0.99893        3.18495
| 14> H          4.19412       -2.12366        3.93697
| 15> H          3.63051       -2.40965        2.30798
| 16> *
| 17> %MaxCore 64000
| 18> %pal nprocs 8
| 19> end
| 20> %scf
| 21>   MaxIter 150
| 22> end
| 23>
| 24>
| 25>                          ****END OF INPUT****

CARTESIAN COORDINATES (ANGSTROEM)
---------------------------------
  C      3.913850   -1.658290    3.015130
  C      5.039270   -0.901150    2.492820
  C      6.210380   -1.417260    2.178240
  N      6.535910   -2.677120    2.556080
  N      7.076750   -0.700820    1.478910
  H      7.954640   -1.121550    1.207550
  H      6.756160    0.106640    0.960280
  H      4.842170    0.017610    2.115190
  H      5.993880   -3.126920    3.282780
  H      7.498440   -2.975480    2.468780
  H      3.088440   -0.998930    3.184950
  H      4.194120   -2.123660    3.936970
  H      3.630510   -2.409650    2.307980

 Total Charge           Charge          ....    0
 Multiplicity           Mult            ....    1
 Number of Electrons    NEL             ....   40
 Basis Dimension        Dim             ....  164

ORBITAL ENERGIES
----------------

  NO   OCC          E(Eh)            E(eV)
   0   2.0000     -14.025987      -381.6665
   1   2.0000     -14.022078      -381.5601
   2   2.0000      -9.956434      -270.9283
   3   2.0000      -9.887553      -269.0540
   4   2.0000      -9.845366      -267.9060
   5   2.0000      -0.861391       -23.4396
   6   2.0000      -0.778371       -21.1806
   7   2.0000      -0.669026       -18.2051
   8   2.0000      -0.582286       -15.8448
   9   2.0000      -0.521171       -14.1818
  10   2.0000      -0.482575       -13.1315
  11   2.0000      -0.451614       -12.2890
  12   2.0000      -0.421693       -11.4749
  13   2.0000      -0.374256       -10.1840
  14   2.0000      -0.358451        -9.7540
  15   2.0000      -0.324616        -8.8333
  16   2.0000      -0.312182        -8.4949
  17   2.0000      -0.293589        -7.9890
  18   2.0000      -0.219752        -5.9798
  19   2.0000      -0.125111        -3.4044
  20   0.0000      -0.007443        -0.2025
  21   0.0000       0.020896         0.5686
  22   0.0000       0.033493         0.9114
  23   0.0000       0.048301         1.3143
  24   0.0000       0.061085         1.6622

MULLIKEN ATOMIC CHARGES
-----------------------
   0 C :    1.239392
   1 C :   -0.579614
   2 C :    0.669416
   3 N :    0.215100
   4 N :    0.326553
   5 H :   -0.244457
   6 H :   -0.133094
   7 H :   -0.467506
   8 H :   -0.127745
   9 H :   -0.327961
  10 H :   -0.253084
  11 H :   -0.132598
  12 H :   -0.184402
Sum of atomic charges:   -0.0000000

LOEWDIN ATOMIC CHARGES
----------------------
   0 C :    0.096619
   1 C :   -0.059928
   2 C :   -0.244289
   3 N :    0.223682
   4 N :    0.195484
   5 H :   -0.019695
   6 H :   -0.000256
   7 H :   -0.059388
   8 H :   -0.020710
   9 H :   -0.022753
  10 H :   -0.024429
  11 H :   -0.037741
  12 H :   -0.026597

  Mayer bond orders larger than 0.100000
B(  0-C ,  1-C ) :   1.1544 B(  0-C ,  7-H ) :   0.2667 B(  0-C , 10-H ) :   0.6221
B(  0-C , 11-H ) :   0.5786 B(  0-C , 12-H ) :   0.6246 B(  1-C ,  2-C ) :   1.3771
B(  1-C ,  3-N ) :   0.3186 B(  1-C ,  4-N ) :   0.3622 B(  1-C ,  7-H ) :   0.9317
B(  1-C , 10-H ) :   0.3735 B(  1-C , 11-H ) :   0.3891 B(  1-C , 12-H ) :   0.2428
B(  2-C ,  3-N ) :   0.9892 B(  2-C ,  4-N ) :   0.9389 B(  2-C ,  6-H ) :  -0.1032
B(  2-C ,  7-H ) :   0.1577 B(  2-C ,  9-H ) :  -0.1308 B(  3-N ,  8-H ) :   1.0675
B(  3-N ,  9-H ) :   1.2533 B(  4-N ,  5-H ) :   1.1085 B(  4-N ,  6-H ) :   1.1667
B(  5-H ,  6-H ) :  -0.1630 B(  7-H , 10-H ) :  -0.1288 B(  8-H ,  9-H ) :  -0.1718
B( 10-H , 11-H ) :   0.1134

Dispersion correction           -0.019501957
FINAL SINGLE POINT ENERGY      -228.361106037504

DIPOLE MOMENT
-------------
                                X             Y             Z
Electronic contribution:      2.96854       0.37662      -1.01320
Nuclear contribution   :     -2.16157      -0.63191       0.72436
                        -----------------------------------------
Total Dipole Moment    :      0.80698      -0.25529      -0.28884
                        -----------------------------------------
Magnitude (a.u.)       :      0.89432
Magnitude (Debye)      :      2.27318

Rotational constants in cm-1:     0.318470     0.135474     0.097247
Rotational constants in MHz :  9547.495553  4061.405016  2915.385882

                             ****ORCA TERMINATED NORMALLY****
TOTAL RUN TIME: 0 days 0 hours 0 minutes 4 seconds 532 msec
