                         Program Version 5.0.0 -  RELEASE  -
|  1> !BLYP D3BJ RIJCOSX def2-SVPD def2/J TightSCF
|  2> *xyz 0 1
|  3> C          4.26524        2.50052       -0.79589
|  4> C          4.98224        1.65026        0.24742
|  5> O          4.36806        1.38927        1.31371
|  6> F          6.12892        1.23351       -0.04562
|  7> H          4.90412        2.63966       -1.64287
|  8> H          4.02079        3.45265       -0.37328
|  9> H          3.36773        2.00584       -1.10356
| 10> *
| 11> %MaxCore 64000
| 12> %pal nprocs 8
| 13> end
| 14> %scf
| 15>   MaxIter 150
| 16> end
| 17>
| 18>
| 19>                          ****END OF INPUT****

CARTESIAN COORDINATES (ANGSTROEM)
---------------------------------
  C      4.265240    2.500520   -0.795890
  C      4.982240    1.650260    0.247420
  O      4.368060    1.389270    1.313710
  F      6.128920    1.233510   -0.045620
  H      4.904120    2.639660   -1.642870
  H      4.020790    3.452650   -0.373280
  H      3.367730    2.005840   -1.103560

 Total Charge           Charge          ....    0
 Multiplicity           Mult            ....    1
 Number of Electrons    NEL             ....   32
 Basis Dimension        Dim             ....  110

ORBITAL ENERGIES
----------------

  NO   OCC          E(Eh)            E(eV)
   0   2.0000     -24.378064      -663.3609
   1   2.0000     -18.800829      -511.5966
   2   2.0000     -10.102533      -274.9039
   3   2.0000      -9.951469      -270.7932
   4   2.0000      -1.200792       -32.6752
   5   2.0000      -0.932683       -25.3796
   6   2.0000      -0.692809       -18.8523
   7   2.0000      -0.591410       -16.0931
   8   2.0000      -0.490148       -13.3376
   9   2.0000      -0.483531       -13.1576
  10   2.0000      -0.442827       -12.0499
  11   2.0000      -0.397674       -10.8213
  12   2.0000      -0.384640       -10.4666
  13   2.0000      -0.350716        -9.5435
  14   2.0000      -0.312355        -8.4996
  15   2.0000      -0.246831        -6.7166
  16   0.0000      -0.070672        -1.9231
  17   0.0000      -0.007598        -0.2068
  18   0.0000       0.040774         1.1095
  19   0.0000       0.064474         1.7544
  20   0.0000       0.068489         1.8637

MULLIKEN ATOMIC CHARGES
-----------------------
   0 C :    0.814895
   1 C :    0.236617
   2 O :   -0.377247
   3 F :   -0.276605
   4 H :   -0.180864
   5 H :   -0.109519
   6 H :   -0.107277
Sum of atomic charges:    0.0000000

LOEWDIN ATOMIC CHARGES
----------------------
   0 C :    0.228213
   1 C :   -0.068798
   2 O :   -0.118850
   3 F :   -0.017646
   4 H :   -0.020356
   5 H :   -0.001624
   6 H :   -0.000939

  Mayer bond orders larger than 0.100000
B(  0-C ,  1-C ) :   1.2466 B(  0-C ,  4-H ) :   0.8090 B(  0-C ,  5-H ) :   0.7250
B(  0-C ,  6-H ) :   0.7324 B(  1-C ,  2-O ) :   1.8834 B(  1-C ,  3-F ) :   0.8877
B(  1-C ,  4-H ) :   0.2127 B(  1-C ,  5-H ) :   0.2007 B(  1-C ,  6-H ) :   0.1927
B(  2-O ,  3-F ) :   0.1065

Dispersion correction           -0.007107469
FINAL SINGLE POINT ENERGY      -252.862423303995

DIPOLE MOMENT
-------------
                                X             Y             Z
Electronic contribution:      3.63874      -2.78919       2.13957
Nuclear contribution   :     -3.58210       3.29544      -3.18468
                        -----------------------------------------
Total Dipole Moment    :      0.05664       0.50625      -1.04511
                        -----------------------------------------
Magnitude (a.u.)       :      1.16264
Magnitude (Debye)      :      2.95520

Rotational constants in cm-1:     0.368075     0.322590     0.177495
Rotational constants in MHz : 11034.605942  9670.991558  5321.154504

                             ****ORCA TERMINATED NORMALLY****
TOTAL RUN TIME: 0 days 0 hours 0 minutes 2 seconds 835 msec
