                         Program Version 5.0.0 -  RELEASE  -
|  1> !BLYP D3BJ RIJCOSX def2-SVPD def2/J TightSCF
|  2> *xyz 0 1
|  3> C          3.91385       -1.65829        3.01513
|  4> N          5.03927       -0.90115        2.49282
|  5> C          6.21038       -1.41726        2.17824
|  6> C          6.53591       -2.67712        2.55608
|  7> N          7.07675       -0.70082        1.47891
|  8> H          7.95464       -1.12155        1.20755
|  9> H          6.75616        0.10664        0.96028
| 10> H          4.84217        0.01761        2.11519
| 11> H          5.99388       -3.12692        3.28278
| 12> H          7.49844       -2.97548        2.46878
| 13> H          3.08844       -0.99893        3.18495
| 14> H          4.19412       -2.12366        3.93697
| 15> H          3.63051       -2.40965        2.30798
| 16> *
| 17> %MaxCore 64000
| 18> %pal nprocs 8
| 19> end
| 20> %scf
| 21>   MaxIter 150
| 22> end
| 23>
| 24>
| 25>                          ****END OF INPUT****

CARTESIAN COORDINATES (ANGSTROEM)
---------------------------------
  C      3.913850   -1.658290    3.015130
  N      5.039270   -0.901150    2.492820
  C      6.210380   -1.417260    2.178240
  C      6.535910   -2.677120    2.556080
  N      7.076750   -0.700820    1.478910
  H      7.954640   -1.121550    1.207550
  H      6.756160    0.106640    0.960280
  H      4.842170    0.017610    2.115190
  H      5.993880   -3.126920    3.282780
  H      7.498440   -2.975480    2.468780
  H      3.088440   -0.998930    3.184950
  H      4.194120   -2.123660    3.936970
  H      3.630510   -2.409650    2.307980

 Total Charge           Charge          ....    0
 Multiplicity           Mult            ....    1
 Number of Electrons    NEL             ....   40
 Basis Dimension        Dim             ....  164

ORBITAL ENERGIES
----------------

  NO   OCC          E(Eh)            E(eV)
   0   2.0000     -14.029940      -381.7741
   1   2.0000     -14.025870      -381.6633
   2   2.0000      -9.963743      -271.1272
   3   2.0000      -9.947507      -270.6854
   4   2.0000      -9.837742      -267.6986
   5   2.0000      -0.874692       -23.8016
   6   2.0000      -0.795888       -21.6572
   7   2.0000      -0.640431       -17.4270
   8   2.0000      -0.618303       -16.8249
   9   2.0000      -0.508518       -13.8375
  10   2.0000      -0.494340       -13.4517
  11   2.0000      -0.464415       -12.6374
  12   2.0000      -0.401018       -10.9122
  13   2.0000      -0.396249       -10.7825
  14   2.0000      -0.365749        -9.9525
  15   2.0000      -0.336786        -9.1644
  16   2.0000      -0.322691        -8.7809
  17   2.0000      -0.314943        -8.5700
  18   2.0000      -0.207811        -5.6548
  19   2.0000      -0.131549        -3.5796
  20   0.0000      -0.008022        -0.2183
  21   0.0000       0.017164         0.4671
  22   0.0000       0.031530         0.8580
  23   0.0000       0.045437         1.2364
  24   0.0000       0.061010         1.6602

MULLIKEN ATOMIC CHARGES
-----------------------
   0 C :    1.461886
   1 N :   -0.271441
   2 C :    0.440972
   3 C :    0.683819
   4 N :    0.296828
   5 H :   -0.114452
   6 H :   -0.251698
   7 H :   -0.441050
   8 H :   -0.278611
   9 H :   -0.738156
  10 H :   -0.576667
  11 H :   -0.062114
  12 H :   -0.149316
Sum of atomic charges:   -0.0000000

LOEWDIN ATOMIC CHARGES
----------------------
   0 C :    0.213069
   1 N :   -0.028148
   2 C :   -0.257575
   3 C :    0.174679
   4 N :    0.200876
   5 H :    0.001285
   6 H :   -0.016627
   7 H :    0.011138
   8 H :   -0.126562
   9 H :   -0.115261
  10 H :   -0.019350
  11 H :   -0.021371
  12 H :   -0.016151

  Mayer bond orders larger than 0.100000
B(  0-C ,  1-N ) :   1.0060 B(  0-C ,  7-H ) :  -0.1394 B(  0-C , 10-H ) :   0.6762
B(  0-C , 11-H ) :   0.7536 B(  0-C , 12-H ) :   0.7516 B(  1-N ,  2-C ) :   1.1033
B(  1-N ,  3-C ) :   0.4032 B(  1-N ,  4-N ) :   0.1395 B(  1-N ,  7-H ) :   1.3049
B(  1-N , 10-H ) :   0.1983 B(  1-N , 11-H ) :   0.1303 B(  1-N , 12-H ) :   0.1827
B(  2-C ,  3-C ) :   1.5684 B(  2-C ,  4-N ) :   0.9711 B(  2-C ,  7-H ) :  -0.2429
B(  2-C ,  8-H ) :   0.3282 B(  2-C ,  9-H ) :   0.2246 B(  3-C ,  4-N ) :   0.2696
B(  3-C ,  8-H ) :   0.6377 B(  3-C ,  9-H ) :   0.6377 B(  4-N ,  5-H ) :   1.1395
B(  4-N ,  6-H ) :   1.1886 B(  5-H ,  6-H ) :  -0.1641 B(  8-H ,  9-H ) :   0.1060

Dispersion correction           -0.019450005
FINAL SINGLE POINT ENERGY      -228.352135937915

DIPOLE MOMENT
-------------
                                X             Y             Z
Electronic contribution:      1.49513       1.98365      -1.14198
Nuclear contribution   :     -1.85843      -0.99162       0.73717
                        -----------------------------------------
Total Dipole Moment    :     -0.36330       0.99203      -0.40481
                        -----------------------------------------
Magnitude (a.u.)       :      1.13136
Magnitude (Debye)      :      2.87569

Rotational constants in cm-1:     0.336495     0.135025     0.098658
Rotational constants in MHz : 10087.870488  4047.943278  2957.678786

                             ****ORCA TERMINATED NORMALLY****
TOTAL RUN TIME: 0 days 0 hours 0 minutes 4 seconds 749 msec
