                         Program Version 5.0.0 -  RELEASE  -
|  1> !BLYP D3BJ RIJCOSX def2-SVPD def2/J TightSCF
|  2> *xyz 0 1
|  3> C          3.91385       -1.65829        3.01513
|  4> N          5.03927       -0.90115        2.49282
|  5> C          6.21038       -1.41726        2.17824
|  6> N          6.53591       -2.67712        2.55608
|  7> C          7.07675       -0.70082        1.47891
|  8> H          7.95464       -1.12155        1.20755
|  9> H          6.75616        0.10664        0.96028
| 10> H          4.84217        0.01761        2.11519
| 11> H          5.99388       -3.12692        3.28278
| 12> H          7.49844       -2.97548        2.46878
| 13> H          3.08844       -0.99893        3.18495
| 14> H          4.19412       -2.12366        3.93697
| 15> H          3.63051       -2.40965        2.30798
| 16> *
| 17> %MaxCore 64000
| 18> %pal nprocs 8
| 19> end
| 20> %scf
| 21>   MaxIter 150
| 22> end
| 23>
| 24>
| 25>                          ****END OF INPUT****

CARTESIAN COORDINATES (ANGSTROEM)
---------------------------------
  C      3.913850   -1.658290    3.015130
  N      5.039270   -0.901150    2.492820
  C      6.210380   -1.417260    2.178240
  N      6.535910   -2.677120    2.556080
  C      7.076750   -0.700820    1.478910
  H      7.954640   -1.121550    1.207550
  H      6.756160    0.106640    0.960280
  H      4.842170    0.017610    2.115190
  H      5.993880   -3.126920    3.282780
  H      7.498440   -2.975480    2.468780
  H      3.088440   -0.998930    3.184950
  H      4.194120   -2.123660    3.936970
  H      3.630510   -2.409650    2.307980

 Total Charge           Charge          ....    0
 Multiplicity           Mult            ....    1
 Number of Electrons    NEL             ....   40
 Basis Dimension        Dim             ....  164

ORBITAL ENERGIES
----------------

  NO   OCC          E(Eh)            E(eV)
   0   2.0000     -14.025298      -381.6477
   1   2.0000     -14.024675      -381.6308
   2   2.0000      -9.961180      -271.0575
   3   2.0000      -9.955311      -270.8978
   4   2.0000      -9.834044      -267.5980
   5   2.0000      -0.869863       -23.6702
   6   2.0000      -0.789709       -21.4891
   7   2.0000      -0.664015       -18.0688
   8   2.0000      -0.591354       -16.0916
   9   2.0000      -0.538324       -14.6485
  10   2.0000      -0.476567       -12.9681
  11   2.0000      -0.438474       -11.9315
  12   2.0000      -0.424674       -11.5560
  13   2.0000      -0.403476       -10.9791
  14   2.0000      -0.359873        -9.7926
  15   2.0000      -0.342933        -9.3317
  16   2.0000      -0.329999        -8.9797
  17   2.0000      -0.310590        -8.4516
  18   2.0000      -0.212598        -5.7851
  19   2.0000      -0.127317        -3.4645
  20   0.0000      -0.008364        -0.2276
  21   0.0000       0.024562         0.6684
  22   0.0000       0.027341         0.7440
  23   0.0000       0.042995         1.1699
  24   0.0000       0.062256         1.6941

MULLIKEN ATOMIC CHARGES
-----------------------
   0 C :    1.477178
   1 N :   -0.264169
   2 C :    0.642664
   3 N :    0.266157
   4 C :    0.532303
   5 H :   -0.521332
   6 H :   -0.470725
   7 H :   -0.333843
   8 H :   -0.248503
   9 H :   -0.166253
  10 H :   -0.540280
  11 H :   -0.215761
  12 H :   -0.157435
Sum of atomic charges:    0.0000000

LOEWDIN ATOMIC CHARGES
----------------------
   0 C :    0.206748
   1 N :   -0.023074
   2 C :   -0.250777
   3 N :    0.220770
   4 C :    0.148307
   5 H :   -0.110750
   6 H :   -0.108988
   7 H :    0.026607
   8 H :   -0.035312
   9 H :   -0.003228
  10 H :   -0.017631
  11 H :   -0.030269
  12 H :   -0.022403

  Mayer bond orders larger than 0.100000
B(  0-C ,  1-N ) :   1.0096 B(  0-C ,  7-H ) :  -0.1310 B(  0-C , 10-H ) :   0.6415
B(  0-C , 11-H ) :   0.7370 B(  0-C , 12-H ) :   0.7554 B(  1-N ,  2-C ) :   1.1168
B(  1-N ,  3-N ) :   0.1709 B(  1-N ,  4-C ) :   0.2637 B(  1-N ,  7-H ) :   1.2181
B(  1-N , 10-H ) :   0.2122 B(  1-N , 11-H ) :   0.2074 B(  1-N , 12-H ) :   0.1702
B(  2-C ,  3-N ) :   0.9791 B(  2-C ,  4-C ) :   1.2667 B(  2-C ,  5-H ) :   0.1981
B(  2-C ,  6-H ) :   0.1394 B(  2-C ,  7-H ) :  -0.1849 B(  3-N ,  4-C ) :   0.2465
B(  3-N ,  8-H ) :   1.0909 B(  3-N ,  9-H ) :   1.1679 B(  4-C ,  5-H ) :   0.6666
B(  4-C ,  6-H ) :   0.7432 B(  5-H ,  6-H ) :   0.1208 B(  8-H ,  9-H ) :  -0.1819

Dispersion correction           -0.019339062
FINAL SINGLE POINT ENERGY      -228.349904367155

DIPOLE MOMENT
-------------
                                X             Y             Z
Electronic contribution:      0.96636       0.11815       0.01179
Nuclear contribution   :     -1.74889      -0.59133       0.51900
                        -----------------------------------------
Total Dipole Moment    :     -0.78253      -0.47318       0.53079
                        -----------------------------------------
Magnitude (a.u.)       :      1.05735
Magnitude (Debye)      :      2.68757

Rotational constants in cm-1:     0.319878     0.140238     0.099847
Rotational constants in MHz :  9589.703832  4204.215525  2993.343846

                             ****ORCA TERMINATED NORMALLY****
TOTAL RUN TIME: 0 days 0 hours 0 minutes 4 seconds 676 msec
