                         Program Version 5.0.0 -  RELEASE  -
|  1> !BLYP D3BJ RIJCOSX def2-SVPD def2/J TightSCF xyzfile
|  2>
|  3> *xyzfile 0 1 D1.xyz
|  4>
|  5> %MaxCore 64000
|  6>
|  7> %pal nprocs 4
|  8> end
|  9>
| 10> %scf
| 11>   MaxIter 150
| 12> end
| 13>
| 14>
| 15>                          ****END OF INPUT****

CARTESIAN COORDINATES (ANGSTROEM)
---------------------------------
  C      3.913853   -1.658291    3.015134
  C      5.039266   -0.901154    2.492821
  C      4.084215    1.742081   -2.114724
  C      4.265245    2.500518   -0.795890
  H      4.868534    3.392674   -0.981134
  H      3.307640    2.824571   -0.387809
  C      4.982240    1.650257    0.247422
  C      6.210384   -1.417261    2.178244
  N      6.535913   -2.677122    2.556078
  N      7.076754   -0.700820    1.478906
  H      7.954643   -1.121554    1.207554
  H      6.756161    0.106637    0.960278
  H      4.842168    0.017609    2.115191
  H      5.993876   -3.126918    3.282784
  H      7.498441   -2.975482    2.468776
  F      4.368065    1.389270    1.313706
  O      6.128919    1.233512   -0.045620
  C      3.139159   -2.376572    1.910609
  H      3.267235   -0.939401    3.520693
  H      4.247195   -2.355095    3.790065
  C      1.997274    0.430918   -1.399218
  C      3.412746    0.376886   -1.965497
  H      4.047407   -0.246590   -1.326706
  H      3.390774   -0.118719   -2.942839
  H      5.068475    1.598504   -2.565728
  H      3.503356    2.363939   -2.804565
  C      2.399946   -1.389579    1.009490
  H      2.440750   -3.087118    2.362976
  H      3.844475   -2.970462    1.318677
  C      2.070177   -1.936705   -0.372401
  H      1.481611   -1.061542    1.509912
  H      3.008628   -0.490001    0.897451
  C      1.322238   -0.935775   -1.256413
  H      1.472747   -2.850902   -0.283997
  H      3.003539   -2.234041   -0.862535
  H      1.376444    1.058920   -2.047420
  H      2.015341    0.929780   -0.426535
  H      0.316648   -0.787213   -0.848278
  H      1.185611   -1.379252   -2.248613

 Total Charge           Charge          ....    0
 Multiplicity           Mult            ....    1
 Number of Electrons    NEL             ....  126
 Basis Dimension        Dim             ....  510

ORBITAL ENERGIES
----------------

  NO   OCC          E(Eh)            E(eV)
   0   2.0000     -24.387860      -663.6274
   1   2.0000     -18.819600      -512.1073
   2   2.0000     -14.010052      -381.2329
   3   2.0000     -13.985200      -380.5566
   4   2.0000     -10.114292      -275.2239
   5   2.0000      -9.958565      -270.9863
   6   2.0000      -9.940542      -270.4959
   7   2.0000      -9.939718      -270.4735
   8   2.0000      -9.924323      -270.0546
   9   2.0000      -9.919142      -269.9136
  10   2.0000      -9.912989      -269.7461
  11   2.0000      -9.905484      -269.5419
  12   2.0000      -9.898921      -269.3633
  13   2.0000      -9.890772      -269.1416
  14   2.0000      -9.886210      -269.0174
  15   2.0000      -9.822307      -267.2786
  16   2.0000      -1.213070       -33.0093
  17   2.0000      -0.958537       -26.0831
  18   2.0000      -0.840800       -22.8793
  19   2.0000      -0.756900       -20.5963
  20   2.0000      -0.744562       -20.2606
  21   2.0000      -0.716662       -19.5014
  22   2.0000      -0.689763       -18.7694
  23   2.0000      -0.663965       -18.0674
  24   2.0000      -0.629157       -17.1202
  25   2.0000      -0.612640       -16.6708
  26   2.0000      -0.587824       -15.9955
  27   2.0000      -0.563285       -15.3278
  28   2.0000      -0.535491       -14.5714
  29   2.0000      -0.520962       -14.1761
  30   2.0000      -0.505285       -13.7495
  31   2.0000      -0.496076       -13.4989
  32   2.0000      -0.489945       -13.3321
  33   2.0000      -0.487087       -13.2543
  34   2.0000      -0.465212       -12.6591
  35   2.0000      -0.459259       -12.4971
  36   2.0000      -0.432487       -11.7686
  37   2.0000      -0.425935       -11.5903
  38   2.0000      -0.423493       -11.5238
  39   2.0000      -0.406878       -11.0717
  40   2.0000      -0.395141       -10.7523
  41   2.0000      -0.385091       -10.4788
  42   2.0000      -0.376781       -10.2527
  43   2.0000      -0.368351       -10.0233
  44   2.0000      -0.363718        -9.8973
  45   2.0000      -0.359263        -9.7760
  46   2.0000      -0.344381        -9.3711
  47   2.0000      -0.340263        -9.2590
  48   2.0000      -0.324606        -8.8330
  49   2.0000      -0.320458        -8.7201
  50   2.0000      -0.315561        -8.5868
  51   2.0000      -0.312300        -8.4981
  52   2.0000      -0.304180        -8.2772
  53   2.0000      -0.294135        -8.0038
  54   2.0000      -0.292540        -7.9604
  55   2.0000      -0.278140        -7.5686
  56   2.0000      -0.270196        -7.3524
  57   2.0000      -0.263455        -7.1690
  58   2.0000      -0.261138        -7.1059
  59   2.0000      -0.257786        -7.0147
  60   2.0000      -0.250531        -6.8173
  61   2.0000      -0.198637        -5.4052
  62   2.0000      -0.110676        -3.0116
  63   0.0000      -0.086638        -2.3575
  64   0.0000      -0.004680        -0.1274
  65   0.0000       0.007476         0.2034
  66   0.0000       0.012264         0.3337
  67   0.0000       0.015541         0.4229

MULLIKEN ATOMIC CHARGES
-----------------------
   0 C :    0.974060
   1 C :    0.497850
   2 C :    0.724890
   3 C :    0.593032
   4 H :   -0.284431
   5 H :    0.030761
   6 C :    0.328825
   7 C :    0.429431
   8 N :    0.262821
   9 N :    0.693779
  10 H :   -0.265408
  11 H :   -0.522898
  12 H :   -0.949648
  13 H :   -0.103530
  14 H :   -0.376573
  15 F :   -0.463187
  16 O :   -0.332637
  17 C :    0.702375
  18 H :   -0.120568
  19 H :   -0.425885
  20 C :    0.169149
  21 C :    0.186182
  22 H :   -0.175289
  23 H :   -0.302747
  24 H :   -0.126221
  25 H :   -0.272762
  26 C :    0.997755
  27 H :   -0.241639
  28 H :   -0.202452
  29 C :    0.287858
  30 H :   -0.046637
  31 H :   -1.289733
  32 C :    1.007326
  33 H :   -0.611699
  34 H :    0.037561
  35 H :   -0.600737
  36 H :    0.067726
  37 H :   -0.125773
  38 H :   -0.150929
Sum of atomic charges:   -0.0000000

LOEWDIN ATOMIC CHARGES
----------------------
   0 C :   -0.041448
   1 C :   -0.011499
   2 C :   -0.002941
   3 C :    0.066173
   4 H :    0.038324
   5 H :    0.017950
   6 C :    0.026399
   7 C :   -0.209508
   8 N :    0.221826
   9 N :    0.228355
  10 H :   -0.016239
  11 H :   -0.128714
  12 H :   -0.114668
  13 H :   -0.026843
  14 H :   -0.024336
  15 F :   -0.012927
  16 O :   -0.077462
  17 C :   -0.018887
  18 H :    0.012188
  19 H :   -0.007636
  20 C :   -0.026898
  21 C :   -0.017743
  22 H :    0.011102
  23 H :    0.028620
  24 H :    0.024512
  25 H :    0.024779
  26 C :   -0.024802
  27 H :    0.011095
  28 H :    0.014347
  29 C :   -0.029596
  30 H :    0.030126
  31 H :   -0.027766
  32 C :   -0.021792
  33 H :    0.019610
  34 H :    0.013463
  35 H :    0.019991
  36 H :   -0.000354
  37 H :    0.017531
  38 H :    0.015667

  Mayer bond orders larger than 0.100000
B(  0-C ,  1-C ) :   0.7068 B(  0-C ,  7-C ) :   0.1858 B(  0-C , 12-H ) :   0.9644
B(  0-C , 17-C ) :   1.0115 B(  0-C , 18-H ) :   0.5608 B(  0-C , 19-H ) :   0.3153
B(  0-C , 28-H ) :   0.1167 B(  1-C ,  7-C ) :   1.6407 B(  1-C ,  8-N ) :   0.3182
B(  1-C ,  9-N ) :   0.2714 B(  1-C , 12-H ) :  -0.9204 B(  1-C , 13-H ) :  -0.1446
B(  1-C , 15-F ) :  -0.1167 B(  1-C , 17-C ) :   0.1407 B(  1-C , 18-H ) :   0.4062
B(  1-C , 19-H ) :   0.4468 B(  1-C , 31-H ) :  -0.1057 B(  2-C ,  3-C ) :   1.1084
B(  2-C ,  4-H ) :   0.2148 B(  2-C ,  5-H ) :   0.1194 B(  2-C ,  6-C ) :   0.1642
B(  2-C , 21-C ) :   1.1927 B(  2-C , 22-H ) :   0.1566 B(  2-C , 24-H ) :   0.5219
B(  2-C , 25-H ) :   0.6671 B(  3-C ,  4-H ) :   0.4453 B(  3-C ,  5-H ) :   0.6866
B(  3-C ,  6-C ) :   1.2393 B(  3-C , 16-O ) :   0.1188 B(  3-C , 21-C ) :   0.1927
B(  3-C , 24-H ) :   0.1358 B(  3-C , 25-H ) :   0.2061 B(  4-H ,  6-C ) :   0.3589
B(  5-H ,  6-C ) :   0.2733 B(  6-C , 15-F ) :   0.8325 B(  6-C , 16-O ) :   1.7500
B(  7-C ,  8-N ) :   0.9284 B(  7-C ,  9-N ) :   0.8642 B(  7-C , 11-H ) :  -0.3374
B(  7-C , 12-H ) :   0.5143 B(  7-C , 14-H ) :  -0.1661 B(  7-C , 19-H ) :  -0.1379
B(  8-N ,  9-N ) :   0.1135 B(  8-N , 13-H ) :   1.0383 B(  8-N , 14-H ) :   1.2684
B(  9-N , 10-H ) :   1.0919 B(  9-N , 11-H ) :   1.1328 B( 10-H , 11-H ) :  -0.2252
B( 10-H , 12-H ) :  -0.1187 B( 12-H , 15-F ) :   0.2398 B( 12-H , 18-H ) :  -0.1061
B( 12-H , 19-H ) :   0.1273 B( 13-H , 14-H ) :  -0.2068 B( 15-F , 31-H ) :   0.1286
B( 17-C , 19-H ) :   0.1599 B( 17-C , 26-C ) :   1.0688 B( 17-C , 27-H ) :   0.7053
B( 17-C , 28-H ) :   0.7800 B( 17-C , 29-C ) :   0.1254 B( 17-C , 30-H ) :   0.2098
B( 17-C , 31-H ) :   0.1018 B( 18-H , 19-H ) :  -0.1951 B( 20-C , 21-C ) :   1.2170
B( 20-C , 22-H ) :   0.1479 B( 20-C , 23-H ) :   0.1816 B( 20-C , 29-C ) :   0.2199
B( 20-C , 32-C ) :   1.0834 B( 20-C , 35-H ) :   0.8327 B( 20-C , 36-H ) :   0.7739
B( 20-C , 37-H ) :   0.3845 B( 20-C , 38-H ) :   0.1647 B( 21-C , 22-H ) :   0.8329
B( 21-C , 23-H ) :   0.7226 B( 21-C , 24-H ) :   0.3303 B( 21-C , 25-H ) :   0.2086
B( 21-C , 35-H ) :   0.1244 B( 21-C , 36-H ) :   0.1486 B( 22-H , 33-H ) :  -0.1086
B( 22-H , 34-H ) :   0.1059 B( 24-H , 25-H ) :  -0.1902 B( 26-C , 27-H ) :   0.2298
B( 26-C , 28-H ) :   0.1776 B( 26-C , 29-C ) :   1.1984 B( 26-C , 30-H ) :   0.5117
B( 26-C , 31-H ) :  -0.4221 B( 26-C , 32-C ) :   0.1312 B( 26-C , 33-H ) :   0.1200
B( 26-C , 34-H ) :   0.1835 B( 27-H , 28-H ) :  -0.1237 B( 27-H , 31-H ) :   0.1302
B( 28-H , 33-H ) :  -0.1240 B( 29-C , 30-H ) :   0.1230 B( 29-C , 31-H ) :   0.2037
B( 29-C , 32-C ) :   1.0477 B( 29-C , 33-H ) :   0.8219 B( 29-C , 34-H ) :   0.7690
B( 29-C , 37-H ) :   0.1384 B( 29-C , 38-H ) :   0.3334 B( 30-H , 31-H ) :   0.1972
B( 31-H , 36-H ) :   0.1221 B( 32-C , 34-H ) :   0.1100 B( 32-C , 37-H ) :   0.4922
B( 32-C , 38-H ) :   0.5167 B( 33-H , 34-H ) :  -0.1389 B( 37-H , 38-H ) :  -0.1707

Dispersion correction           -0.088544155
FINAL SINGLE POINT ENERGY      -754.889528477359

DIPOLE MOMENT
-------------
                                X             Y             Z
Electronic contribution:     11.33699       8.96209       5.92850
Nuclear contribution   :    -11.48003      -8.36271      -6.78621
                        -----------------------------------------
Total Dipole Moment    :     -0.14304       0.59938      -0.85771
                        -----------------------------------------
Magnitude (a.u.)       :      1.05612
Magnitude (Debye)      :      2.68444

Rotational constants in cm-1:     0.020055     0.013548     0.009477
Rotational constants in MHz :   601.234832   406.162779   284.104317

                             ****ORCA TERMINATED NORMALLY****
TOTAL RUN TIME: 0 days 0 hours 1 minutes 5 seconds 304 msec
