                         Program Version 5.0.0 -  RELEASE  -
|  1> !BLYP D3BJ RIJCOSX def2-SVPD def2/J TightSCF xyzfile
|  2>
|  3> *xyzfile 0 1 D4.xyz
|  4>
|  5> %MaxCore 64000
|  6>
|  7> %pal nprocs 4
|  8> end
|  9>
| 10> %scf
| 11>   MaxIter 150
| 12> end
| 13>
| 14>
| 15>                          ****END OF INPUT****

CARTESIAN COORDINATES (ANGSTROEM)
---------------------------------
  C      3.913853   -1.658291    3.015134
  C      5.039266   -0.901154    2.492821
  C      4.084215    1.742081   -2.114724
  C      4.265245    2.500518   -0.795890
  H      4.868534    3.392674   -0.981134
  H      3.307640    2.824571   -0.387809
  C      4.982240    1.650257    0.247422
  C      6.210384   -1.417261    2.178244
  N      6.535913   -2.677122    2.556078
  N      7.076754   -0.700820    1.478906
  H      7.954643   -1.121554    1.207554
  H      6.756161    0.106637    0.960278
  H      4.842168    0.017609    2.115191
  H      5.993876   -3.126918    3.282784
  H      7.498441   -2.975482    2.468776
  O      4.368065    1.389270    1.313706
  F      6.128919    1.233512   -0.045620
  C      3.139159   -2.376572    1.910609
  H      3.267235   -0.939401    3.520693
  H      4.247195   -2.355095    3.790065
  C      1.997274    0.430918   -1.399218
  C      3.412746    0.376886   -1.965497
  H      4.047407   -0.246590   -1.326706
  H      3.390774   -0.118719   -2.942839
  H      5.068475    1.598504   -2.565728
  H      3.503356    2.363939   -2.804565
  C      2.399946   -1.389579    1.009490
  H      2.440750   -3.087118    2.362976
  H      3.844475   -2.970462    1.318677
  C      2.070177   -1.936705   -0.372401
  H      1.481611   -1.061542    1.509912
  H      3.008628   -0.490001    0.897451
  C      1.322238   -0.935775   -1.256413
  H      1.472747   -2.850902   -0.283997
  H      3.003539   -2.234041   -0.862535
  H      1.376444    1.058920   -2.047420
  H      2.015341    0.929780   -0.426535
  H      0.316648   -0.787213   -0.848278
  H      1.185611   -1.379252   -2.248613

 Total Charge           Charge          ....    0
 Multiplicity           Mult            ....    1
 Number of Electrons    NEL             ....  126
 Basis Dimension        Dim             ....  510

ORBITAL ENERGIES
----------------

  NO   OCC          E(Eh)            E(eV)
   0   2.0000     -24.399957      -663.9566
   1   2.0000     -18.808041      -511.7928
   2   2.0000     -14.010863      -381.2550
   3   2.0000     -14.000948      -380.9852
   4   2.0000     -10.106212      -275.0040
   5   2.0000      -9.955986      -270.9162
   6   2.0000      -9.941224      -270.5145
   7   2.0000      -9.940051      -270.4825
   8   2.0000      -9.925208      -270.0787
   9   2.0000      -9.915108      -269.8038
  10   2.0000      -9.909371      -269.6477
  11   2.0000      -9.901096      -269.4225
  12   2.0000      -9.890259      -269.1276
  13   2.0000      -9.886251      -269.0186
  14   2.0000      -9.880525      -268.8627
  15   2.0000      -9.813927      -267.0505
  16   2.0000      -1.224523       -33.3210
  17   2.0000      -0.946237       -25.7484
  18   2.0000      -0.845880       -23.0176
  19   2.0000      -0.764157       -20.7938
  20   2.0000      -0.744843       -20.2682
  21   2.0000      -0.712861       -19.3979
  22   2.0000      -0.686047       -18.6683
  23   2.0000      -0.659960       -17.9584
  24   2.0000      -0.631539       -17.1850
  25   2.0000      -0.611308       -16.6345
  26   2.0000      -0.592295       -16.1172
  27   2.0000      -0.560425       -15.2499
  28   2.0000      -0.535066       -14.5599
  29   2.0000      -0.523593       -14.2477
  30   2.0000      -0.510542       -13.8925
  31   2.0000      -0.502838       -13.6829
  32   2.0000      -0.488664       -13.2972
  33   2.0000      -0.476629       -12.9697
  34   2.0000      -0.472025       -12.8444
  35   2.0000      -0.454269       -12.3613
  36   2.0000      -0.429544       -11.6885
  37   2.0000      -0.425436       -11.5767
  38   2.0000      -0.423695       -11.5293
  39   2.0000      -0.404766       -11.0142
  40   2.0000      -0.397160       -10.8073
  41   2.0000      -0.385782       -10.4977
  42   2.0000      -0.375876       -10.2281
  43   2.0000      -0.360588        -9.8121
  44   2.0000      -0.358726        -9.7614
  45   2.0000      -0.352646        -9.5960
  46   2.0000      -0.344406        -9.3718
  47   2.0000      -0.337134        -9.1739
  48   2.0000      -0.330062        -8.9814
  49   2.0000      -0.324177        -8.8213
  50   2.0000      -0.315262        -8.5787
  51   2.0000      -0.313471        -8.5300
  52   2.0000      -0.296875        -8.0784
  53   2.0000      -0.290397        -7.9021
  54   2.0000      -0.288744        -7.8571
  55   2.0000      -0.281617        -7.6632
  56   2.0000      -0.266752        -7.2587
  57   2.0000      -0.260307        -7.0833
  58   2.0000      -0.255658        -6.9568
  59   2.0000      -0.252420        -6.8687
  60   2.0000      -0.218954        -5.9581
  61   2.0000      -0.204877        -5.5750
  62   2.0000      -0.109323        -2.9748
  63   0.0000      -0.079566        -2.1651
  64   0.0000      -0.009939        -0.2704
  65   0.0000       0.005119         0.1393
  66   0.0000       0.014432         0.3927
  67   0.0000       0.015902         0.4327

MULLIKEN ATOMIC CHARGES
-----------------------
   0 C :    0.959545
   1 C :    0.360332
   2 C :    0.726741
   3 C :    0.631715
   4 H :   -0.282993
   5 H :   -0.005703
   6 C :    0.395472
   7 C :    0.430675
   8 N :    0.253120
   9 N :    0.751501
  10 H :   -0.266131
  11 H :   -0.479091
  12 H :   -0.876075
  13 H :   -0.106910
  14 H :   -0.378450
  15 O :   -0.478527
  16 F :   -0.377343
  17 C :    0.698368
  18 H :   -0.118670
  19 H :   -0.430653
  20 C :    0.149720
  21 C :    0.189221
  22 H :   -0.161446
  23 H :   -0.311488
  24 H :   -0.167121
  25 H :   -0.272801
  26 C :    1.055965
  27 H :   -0.242848
  28 H :   -0.199353
  29 C :    0.289773
  30 H :   -0.063293
  31 H :   -1.314164
  32 C :    1.029144
  33 H :   -0.628527
  34 H :    0.036750
  35 H :   -0.607318
  36 H :    0.087923
  37 H :   -0.120443
  38 H :   -0.156619
Sum of atomic charges:   -0.0000000

LOEWDIN ATOMIC CHARGES
----------------------
   0 C :   -0.035849
   1 C :   -0.002876
   2 C :   -0.011860
   3 C :    0.068651
   4 H :    0.032123
   5 H :    0.027873
   6 C :    0.016003
   7 C :   -0.210888
   8 N :    0.221022
   9 N :    0.222747
  10 H :   -0.016814
  11 H :   -0.088479
  12 H :   -0.143900
  13 H :   -0.025875
  14 H :   -0.026654
  15 O :   -0.090573
  16 F :   -0.001356
  17 C :   -0.018203
  18 H :    0.015700
  19 H :   -0.008914
  20 C :   -0.022376
  21 C :   -0.019480
  22 H :    0.009984
  23 H :    0.027265
  24 H :    0.018462
  25 H :    0.023804
  26 C :   -0.020319
  27 H :    0.010309
  28 H :    0.012539
  29 C :   -0.031117
  30 H :    0.031418
  31 H :   -0.027092
  32 C :   -0.021973
  33 H :    0.018339
  34 H :    0.011420
  35 H :    0.019899
  36 H :    0.004943
  37 H :    0.017809
  38 H :    0.014291

  Mayer bond orders larger than 0.100000
B(  0-C ,  1-C ) :   0.7357 B(  0-C ,  7-C ) :   0.2021 B(  0-C , 12-H ) :   1.0037
B(  0-C , 17-C ) :   1.0192 B(  0-C , 18-H ) :   0.5559 B(  0-C , 19-H ) :   0.2971
B(  0-C , 26-C ) :   0.1085 B(  0-C , 28-H ) :   0.1137 B(  1-C ,  7-C ) :   1.6742
B(  1-C ,  8-N ) :   0.3160 B(  1-C ,  9-N ) :   0.2880 B(  1-C , 12-H ) :  -0.6722
B(  1-C , 13-H ) :  -0.1406 B(  1-C , 17-C ) :   0.1437 B(  1-C , 18-H ) :   0.4046
B(  1-C , 19-H ) :   0.4505 B(  1-C , 31-H ) :  -0.1065 B(  2-C ,  3-C ) :   1.1210
B(  2-C ,  4-H ) :   0.2158 B(  2-C ,  5-H ) :   0.1078 B(  2-C ,  6-C ) :   0.1663
B(  2-C , 21-C ) :   1.1733 B(  2-C , 22-H ) :   0.1451 B(  2-C , 24-H ) :   0.5097
B(  2-C , 25-H ) :   0.6767 B(  3-C ,  4-H ) :   0.4629 B(  3-C ,  5-H ) :   0.6914
B(  3-C ,  6-C ) :   1.1549 B(  3-C , 21-C ) :   0.1818 B(  3-C , 24-H ) :   0.1358
B(  3-C , 25-H ) :   0.2081 B(  4-H ,  6-C ) :   0.3359 B(  5-H ,  6-C ) :   0.2626
B(  6-C , 15-O ) :   1.8900 B(  6-C , 16-F ) :   0.6030 B(  7-C ,  8-N ) :   0.9044
B(  7-C ,  9-N ) :   0.8574 B(  7-C , 11-H ) :  -0.3242 B(  7-C , 12-H ) :   0.4537
B(  7-C , 14-H ) :  -0.1754 B(  7-C , 19-H ) :  -0.1415 B(  8-N ,  9-N ) :   0.1121
B(  8-N , 13-H ) :   1.0424 B(  8-N , 14-H ) :   1.2773 B(  9-N , 10-H ) :   1.0924
B(  9-N , 11-H ) :   1.1374 B( 10-H , 11-H ) :  -0.1970 B( 10-H , 12-H ) :  -0.1193
B( 12-H , 19-H ) :   0.1467 B( 12-H , 31-H ) :   0.1178 B( 13-H , 14-H ) :  -0.2087
B( 15-O , 16-F ) :   0.1816 B( 15-O , 31-H ) :   0.1136 B( 17-C , 19-H ) :   0.1603
B( 17-C , 26-C ) :   1.0723 B( 17-C , 27-H ) :   0.6999 B( 17-C , 28-H ) :   0.7836
B( 17-C , 29-C ) :   0.1252 B( 17-C , 30-H ) :   0.2121 B( 18-H , 19-H ) :  -0.1901
B( 19-H , 28-H ) :   0.1004 B( 20-C , 21-C ) :   1.2361 B( 20-C , 22-H ) :   0.1618
B( 20-C , 23-H ) :   0.1794 B( 20-C , 29-C ) :   0.2170 B( 20-C , 32-C ) :   1.0751
B( 20-C , 35-H ) :   0.8348 B( 20-C , 36-H ) :   0.7784 B( 20-C , 37-H ) :   0.3821
B( 20-C , 38-H ) :   0.1632 B( 21-C , 22-H ) :   0.8152 B( 21-C , 23-H ) :   0.7339
B( 21-C , 24-H ) :   0.3389 B( 21-C , 25-H ) :   0.1970 B( 21-C , 35-H ) :   0.1250
B( 21-C , 36-H ) :   0.1536 B( 22-H , 33-H ) :  -0.1145 B( 22-H , 34-H ) :   0.1058
B( 24-H , 25-H ) :  -0.1865 B( 26-C , 27-H ) :   0.2324 B( 26-C , 28-H ) :   0.1666
B( 26-C , 29-C ) :   1.1955 B( 26-C , 30-H ) :   0.4788 B( 26-C , 31-H ) :  -0.5307
B( 26-C , 32-C ) :   0.1432 B( 26-C , 33-H ) :   0.1070 B( 26-C , 34-H ) :   0.1845
B( 27-H , 28-H ) :  -0.1232 B( 27-H , 31-H ) :   0.1322 B( 28-H , 33-H ) :  -0.1337
B( 29-C , 30-H ) :   0.1203 B( 29-C , 31-H ) :   0.2080 B( 29-C , 32-C ) :   1.0478
B( 29-C , 33-H ) :   0.8184 B( 29-C , 34-H ) :   0.7683 B( 29-C , 37-H ) :   0.1414
B( 29-C , 38-H ) :   0.3323 B( 30-H , 31-H ) :   0.2400 B( 31-H , 36-H ) :   0.1239
B( 32-C , 34-H ) :   0.1083 B( 32-C , 37-H ) :   0.4975 B( 32-C , 38-H ) :   0.5080
B( 33-H , 34-H ) :  -0.1499 B( 37-H , 38-H ) :  -0.1744

Dispersion correction           -0.088798962
FINAL SINGLE POINT ENERGY      -754.877457888548

DIPOLE MOMENT
-------------
                                X             Y             Z
Electronic contribution:     14.30408       8.71518       3.75612
Nuclear contribution   :    -13.61164      -8.17416      -5.14068
                        -----------------------------------------
Total Dipole Moment    :      0.69244       0.54102      -1.38456
                        -----------------------------------------
Magnitude (a.u.)       :      1.63987
Magnitude (Debye)      :      4.16822

Rotational constants in cm-1:     0.019858     0.013613     0.009401
Rotational constants in MHz :   595.331791   408.100423   281.843625

                             ****ORCA TERMINATED NORMALLY****
TOTAL RUN TIME: 0 days 0 hours 1 minutes 3 seconds 481 msec
