                         Program Version 5.0.0 -  RELEASE  -
|  1> !PBE0 D3BJ RIJCOSX def2-SVPD def2/J TightSCF
|  2> *xyz -1 1
|  3> C         -0.29041        0.95134       -5.15342
|  4> C         -0.05517        1.61942       -3.78858
|  5> H          0.04501        0.86230       -3.00301
|  6> H         -0.92294        2.23033       -3.51703
|  7> C          1.22302        2.46987       -3.75691
|  8> H          1.11470        3.25807       -4.53300
|  9> H          1.23773        3.01124       -2.79216
| 10> O          2.35381        1.71203       -3.93448
| 11> H         -0.38575        1.70447       -5.90748
| 12> H         -1.18723        0.36894       -5.11561
| 13> H          0.53806        0.31571       -5.38692
| 14> *
| 15>
| 16> %MaxCore 64000
| 17>
| 18> %pal nprocs 4
| 19> end
| 20>
| 21> %scf
| 22>   MaxIter 150
| 23> end
| 24>
| 25>
| 26>                          ****END OF INPUT****

CARTESIAN COORDINATES (ANGSTROEM)
---------------------------------
  C     -0.290410    0.951340   -5.153420
  C     -0.055170    1.619420   -3.788580
  H      0.045010    0.862300   -3.003010
  H     -0.922940    2.230330   -3.517030
  C      1.223020    2.469870   -3.756910
  H      1.114700    3.258070   -4.533000
  H      1.237730    3.011240   -2.792160
  O      2.353810    1.712030   -3.934480
  H     -0.385750    1.704470   -5.907480
  H     -1.187230    0.368940   -5.115610
  H      0.538060    0.315710   -5.386920

 Total Charge           Charge          ....   -1
 Multiplicity           Mult            ....    1
 Number of Electrons    NEL             ....   34
 Basis Dimension        Dim             ....  139

ORBITAL ENERGIES
----------------

  NO   OCC          E(Eh)            E(eV)
   0   2.0000     -18.886699      -513.9332
   1   2.0000     -10.050942      -273.5000
   2   2.0000     -10.047032      -273.3936
   3   2.0000     -10.041602      -273.2459
   4   2.0000      -0.700149       -19.0520
   5   2.0000      -0.597719       -16.2648
   6   2.0000      -0.481857       -13.1120
   7   2.0000      -0.378560       -10.3011
   8   2.0000      -0.285919        -7.7803
   9   2.0000      -0.279356        -7.6017
  10   2.0000      -0.233131        -6.3438
  11   2.0000      -0.199469        -5.4278
  12   2.0000      -0.173339        -4.7168
  13   2.0000      -0.164786        -4.4841
  14   2.0000      -0.125346        -3.4108
  15   2.0000       0.015867         0.4318
  16   2.0000       0.018876         0.5136
  17   0.0000       0.172238         4.6868
  18   0.0000       0.197474         5.3735
  19   0.0000       0.213020         5.7966
  20   0.0000       0.242845         6.6081
  21   0.0000       0.258014         7.0209

MULLIKEN ATOMIC CHARGES
-----------------------
   0 C :    0.446099
   1 C :   -0.667008
   2 H :    0.000351
   3 H :   -0.013383
   4 C :    0.402595
   5 H :   -0.059829
   6 H :   -0.116689
   7 O :   -0.951740
   8 H :   -0.024369
   9 H :   -0.033404
  10 H :    0.017377
Sum of atomic charges:   -1.0000000

LOEWDIN ATOMIC CHARGES
----------------------
   0 C :    0.086497
   1 C :   -0.118209
   2 H :    0.004193
   3 H :   -0.013879
   4 C :   -0.217906
   5 H :   -0.026276
   6 H :   -0.032325
   7 O :   -0.568054
   8 H :   -0.034871
   9 H :   -0.048622
  10 H :   -0.030547

  Mayer bond orders larger than 0.100000
B(  0-C ,  1-C ) :   1.2483 B(  0-C ,  8-H ) :   0.8606 B(  0-C ,  9-H ) :   0.8382
B(  0-C , 10-H ) :   0.8695 B(  1-C ,  2-H ) :   1.0075 B(  1-C ,  3-H ) :   1.0260
B(  1-C ,  4-C ) :   1.0514 B(  1-C ,  5-H ) :   0.1128 B(  1-C ,  6-H ) :   0.1279
B(  1-C ,  7-O ) :   0.1451 B(  1-C ,  8-H ) :   0.1708 B(  1-C ,  9-H ) :   0.1628
B(  1-C , 10-H ) :   0.1842 B(  2-H ,  4-C ) :   0.1303 B(  4-C ,  5-H ) :   0.9662
B(  4-C ,  6-H ) :   0.9753 B(  4-C ,  7-O ) :   1.0642

Dispersion correction           -0.005474328
FINAL SINGLE POINT ENERGY      -193.384433361195

DIPOLE MOMENT
-------------
                                X             Y             Z
Electronic contribution:      2.91973      -0.05088       0.70577
Nuclear contribution   :     -4.97104      -0.06484      -1.04325
                        -----------------------------------------
Total Dipole Moment    :     -2.05131      -0.11572      -0.33748
                        -----------------------------------------
Magnitude (a.u.)       :      2.08210
Magnitude (Debye)      :      5.29228

Rotational constants in cm-1:     0.508668     0.174500     0.148765
Rotational constants in MHz : 15249.486055  5231.367342  4459.875680

                             ****ORCA TERMINATED NORMALLY****
TOTAL RUN TIME: 0 days 0 hours 0 minutes 10 seconds 138 msec
