                         Program Version 5.0.0 -  RELEASE  -
|  1> !PBE0 D3BJ RIJCOSX def2-SVPD def2/J TightSCF
|  2> *xyz 1 1
|  3> C          1.63556       -1.67040       -5.29211
|  4> C          0.33848       -1.50091       -4.50540
|  5> N          2.48451       -0.50741       -5.14039
|  6> C         -0.68487       -0.52803       -5.09989
|  7> H          1.39834       -1.82924       -6.35259
|  8> H          2.15586       -2.56540       -4.93209
|  9> C          3.45115       -0.14953       -5.95259
| 10> N          3.92267        1.08956       -5.85071
| 11> N          3.96616       -1.00618       -6.86788
| 12> H          3.52139       -1.90647       -6.99527
| 13> H          4.44482       -0.62347       -7.67035
| 14> H          2.25200        0.24080       -4.49879
| 15> H          3.46428        1.64078       -5.13639
| 16> H          4.83447        1.31375       -6.22465
| 17> H          0.59489       -1.21158       -3.48231
| 18> H         -0.12653       -2.48766       -4.43418
| 19> H         -0.92267       -0.82721       -6.09931
| 20> H         -0.27317        0.45953       -5.11162
| 21> H         -1.57350       -0.53693       -4.50394
| 22> *
| 23>
| 24> %MaxCore 64000
| 25>
| 26> %pal nprocs 4
| 27> end
| 28>
| 29> %scf
| 30>   MaxIter 150
| 31> end
| 32>
| 33>
| 34>                          ****END OF INPUT****

CARTESIAN COORDINATES (ANGSTROEM)
---------------------------------
  C      1.635560   -1.670400   -5.292110
  C      0.338480   -1.500910   -4.505400
  N      2.484510   -0.507410   -5.140390
  C     -0.684870   -0.528030   -5.099890
  H      1.398340   -1.829240   -6.352590
  H      2.155860   -2.565400   -4.932090
  C      3.451150   -0.149530   -5.952590
  N      3.922670    1.089560   -5.850710
  N      3.966160   -1.006180   -6.867880
  H      3.521390   -1.906470   -6.995270
  H      4.444820   -0.623470   -7.670350
  H      2.252000    0.240800   -4.498790
  H      3.464280    1.640780   -5.136390
  H      4.834470    1.313750   -6.224650
  H      0.594890   -1.211580   -3.482310
  H     -0.126530   -2.487660   -4.434180
  H     -0.922670   -0.827210   -6.099310
  H     -0.273170    0.459530   -5.111620
  H     -1.573500   -0.536930   -4.503940

 Total Charge           Charge          ....    1
 Multiplicity           Mult            ....    1
 Number of Electrons    NEL             ....   56
 Basis Dimension        Dim             ....  236

ORBITAL ENERGIES
----------------

  NO   OCC          E(Eh)            E(eV)
   0   2.0000     -14.623094      -397.9146
   1   2.0000     -14.618235      -397.7824
   2   2.0000     -14.616373      -397.7317
   3   2.0000     -10.563418      -287.4452
   4   2.0000     -10.438581      -284.0482
   5   2.0000     -10.379182      -282.4319
   6   2.0000     -10.347445      -281.5683
   7   2.0000      -1.238193       -33.6930
   8   2.0000      -1.123206       -30.5640
   9   2.0000      -1.109265       -30.1846
  10   2.0000      -0.961573       -26.1657
  11   2.0000      -0.876992       -23.8642
  12   2.0000      -0.840676       -22.8760
  13   2.0000      -0.797904       -21.7121
  14   2.0000      -0.782101       -21.2821
  15   2.0000      -0.746513       -20.3137
  16   2.0000      -0.705277       -19.1916
  17   2.0000      -0.698252       -19.0004
  18   2.0000      -0.669990       -18.2314
  19   2.0000      -0.658937       -17.9306
  20   2.0000      -0.609519       -16.5858
  21   2.0000      -0.588853       -16.0235
  22   2.0000      -0.567839       -15.4517
  23   2.0000      -0.515065       -14.0156
  24   2.0000      -0.498588       -13.5673
  25   2.0000      -0.495394       -13.4804
  26   2.0000      -0.489231       -13.3127
  27   2.0000      -0.462729       -12.5915
  28   0.0000      -0.165277        -4.4974
  29   0.0000      -0.146736        -3.9929
  30   0.0000      -0.116615        -3.1733
  31   0.0000      -0.097865        -2.6630
  32   0.0000      -0.080714        -2.1963

MULLIKEN ATOMIC CHARGES
-----------------------
   0 C :    0.445663
   1 C :   -0.407744
   2 N :   -0.575760
   3 C :    0.583831
   4 H :    0.045090
   5 H :   -0.084797
   6 C :    1.500911
   7 N :   -0.143763
   8 N :   -0.174211
   9 H :    0.013041
  10 H :   -0.059250
  11 H :   -0.138522
  12 H :    0.053190
  13 H :   -0.082889
  14 H :    0.004889
  15 H :    0.001683
  16 H :    0.036048
  17 H :   -0.019490
  18 H :    0.002080
Sum of atomic charges:    1.0000000

LOEWDIN ATOMIC CHARGES
----------------------
   0 C :    0.057642
   1 C :   -0.057336
   2 N :    0.037982
   3 C :    0.139935
   4 H :    0.041189
   5 H :    0.044349
   6 C :   -0.028027
   7 N :    0.259346
   8 N :    0.277740
   9 H :    0.016517
  10 H :    0.036521
  11 H :    0.052431
  12 H :    0.034016
  13 H :    0.045151
  14 H :    0.031894
  15 H :    0.038780
  16 H :   -0.006671
  17 H :   -0.021612
  18 H :    0.000153

  Mayer bond orders larger than 0.100000
B(  0-C ,  1-C ) :   1.1990 B(  0-C ,  2-N ) :   0.8803 B(  0-C ,  4-H ) :   0.8354
B(  0-C ,  5-H ) :   0.9295 B(  0-C , 11-H ) :  -0.1206 B(  0-C , 14-H ) :   0.1227
B(  0-C , 15-H ) :   0.1776 B(  1-C ,  2-N ) :   0.1084 B(  1-C ,  3-C ) :   1.2985
B(  1-C , 14-H ) :   0.9002 B(  1-C , 15-H ) :   0.8793 B(  1-C , 16-H ) :   0.1655
B(  1-C , 17-H ) :   0.1964 B(  1-C , 18-H ) :   0.1978 B(  2-N ,  4-H ) :   0.1576
B(  2-N ,  5-H ) :   0.1348 B(  2-N ,  6-C ) :   0.9825 B(  2-N ,  7-N ) :   0.3173
B(  2-N ,  8-N ) :   0.2067 B(  2-N , 11-H ) :   1.2080 B(  3-C , 16-H ) :   0.8328
B(  3-C , 17-H ) :   0.8395 B(  3-C , 18-H ) :   0.8072 B(  6-C ,  7-N ) :   0.8498
B(  6-C ,  8-N ) :   0.8357 B(  6-C ,  9-H ) :  -0.1032 B(  6-C , 10-H ) :  -0.1284
B(  6-C , 11-H ) :  -0.2476 B(  6-C , 13-H ) :  -0.1161 B(  7-N ,  8-N ) :   0.1614
B(  7-N , 12-H ) :   1.0471 B(  7-N , 13-H ) :   1.2366 B(  8-N ,  9-H ) :   1.0278
B(  8-N , 10-H ) :   1.2240 B(  9-H , 10-H ) :  -0.1448 B( 12-H , 13-H ) :  -0.1373

Dispersion correction           -0.012940530
FINAL SINGLE POINT ENERGY      -323.132404022681

DIPOLE MOMENT
-------------
                                X             Y             Z
Electronic contribution:      7.34880       1.74477      -1.59975
Nuclear contribution   :     -5.91327      -1.13589       1.03073
                        -----------------------------------------
Total Dipole Moment    :      1.43553       0.60888      -0.56903
                        -----------------------------------------
Magnitude (a.u.)       :      1.65990
Magnitude (Debye)      :      4.21913

Rotational constants in cm-1:     0.176161     0.043658     0.038822
Rotational constants in MHz :  5281.161077  1308.843263  1163.840625

                             ****ORCA TERMINATED NORMALLY****
TOTAL RUN TIME: 0 days 0 hours 0 minutes 29 seconds 345 msec
