                         Program Version 5.0.0 -  RELEASE  -
|  1> !PBE0 D3BJ RIJCOSX def2-SVPD def2/J TightSCF
|  2> *xyz 0 1
|  3> C         -0.29041        0.95134       -5.15342
|  4> C         -0.05517        1.61942       -3.78858
|  5> H          0.04501        0.86230       -3.00301
|  6> H         -0.92294        2.23033       -3.51703
|  7> C          1.22302        2.46987       -3.75691
|  8> H          1.11470        3.25807       -4.53300
|  9> H          1.23773        3.01124       -2.79216
| 10> F          2.35381        1.71203       -3.93448
| 11> H         -0.38575        1.70447       -5.90748
| 12> H         -1.18723        0.36894       -5.11561
| 13> H          0.53806        0.31571       -5.38692
| 14> *
| 15>
| 16> %MaxCore 64000
| 17>
| 18> %pal nprocs 4
| 19> end
| 20>
| 21> %scf
| 22>   MaxIter 150
| 23> end
| 24>
| 25>
| 26>                          ****END OF INPUT****

CARTESIAN COORDINATES (ANGSTROEM)
---------------------------------
  C     -0.290410    0.951340   -5.153420
  C     -0.055170    1.619420   -3.788580
  H      0.045010    0.862300   -3.003010
  H     -0.922940    2.230330   -3.517030
  C      1.223020    2.469870   -3.756910
  H      1.114700    3.258070   -4.533000
  H      1.237730    3.011240   -2.792160
  F      2.353810    1.712030   -3.934480
  H     -0.385750    1.704470   -5.907480
  H     -1.187230    0.368940   -5.115610
  H      0.538060    0.315710   -5.386920

 Total Charge           Charge          ....    0
 Multiplicity           Mult            ....    1
 Number of Electrons    NEL             ....   34
 Basis Dimension        Dim             ....  139

ORBITAL ENERGIES
----------------

  NO   OCC          E(Eh)            E(eV)
   0   2.0000     -24.772620      -674.0973
   1   2.0000     -10.310782      -280.5706
   2   2.0000     -10.240488      -278.6578
   3   2.0000     -10.220519      -278.1144
   4   2.0000      -1.215054       -33.0633
   5   2.0000      -0.806058       -21.9339
   6   2.0000      -0.705361       -19.1939
   7   2.0000      -0.613195       -16.6859
   8   2.0000      -0.527964       -14.3666
   9   2.0000      -0.510198       -13.8832
  10   2.0000      -0.485784       -13.2189
  11   2.0000      -0.449616       -12.2347
  12   2.0000      -0.416196       -11.3253
  13   2.0000      -0.391399       -10.6505
  14   2.0000      -0.365656        -9.9500
  15   2.0000      -0.341283        -9.2868
  16   2.0000      -0.340066        -9.2537
  17   0.0000       0.029187         0.7942
  18   0.0000       0.055462         1.5092
  19   0.0000       0.063913         1.7392
  20   0.0000       0.075589         2.0569
  21   0.0000       0.099529         2.7083

MULLIKEN ATOMIC CHARGES
-----------------------
   0 C :    0.470364
   1 C :   -0.641856
   2 H :   -0.007002
   3 H :   -0.007236
   4 C :    0.687419
   5 H :    0.016570
   6 H :   -0.028536
   7 F :   -0.484469
   8 H :   -0.008018
   9 H :   -0.008945
  10 H :    0.011711
Sum of atomic charges:    0.0000000

LOEWDIN ATOMIC CHARGES
----------------------
   0 C :    0.121337
   1 C :   -0.069760
   2 H :    0.025258
   3 H :    0.026238
   4 C :    0.098713
   5 H :    0.036055
   6 H :    0.030994
   7 F :   -0.218432
   8 H :   -0.016942
   9 H :   -0.018701
  10 H :   -0.014762

  Mayer bond orders larger than 0.100000
B(  0-C ,  1-C ) :   1.2817 B(  0-C ,  8-H ) :   0.8538 B(  0-C ,  9-H ) :   0.8532
B(  0-C , 10-H ) :   0.8630 B(  1-C ,  2-H ) :   0.9921 B(  1-C ,  3-H ) :   0.9892
B(  1-C ,  4-C ) :   1.1751 B(  1-C ,  8-H ) :   0.1533 B(  1-C ,  9-H ) :   0.1528
B(  1-C , 10-H ) :   0.1642 B(  4-C ,  5-H ) :   0.9273 B(  4-C ,  6-H ) :   0.9304
B(  4-C ,  7-F ) :   0.6621

Dispersion correction           -0.005162115
FINAL SINGLE POINT ENERGY      -217.983961827045

DIPOLE MOMENT
-------------
                                X             Y             Z
Electronic contribution:      6.17255       0.39073       1.40345
Nuclear contribution   :     -6.82889      -0.09322      -1.32039
                        -----------------------------------------
Total Dipole Moment    :     -0.65634       0.29751       0.08306
                        -----------------------------------------
Magnitude (a.u.)       :      0.72539
Magnitude (Debye)      :      1.84380

Rotational constants in cm-1:     0.494282     0.164406     0.140369
Rotational constants in MHz : 14818.207649  4928.760399  4208.156468

                             ****ORCA TERMINATED NORMALLY****
TOTAL RUN TIME: 0 days 0 hours 0 minutes 8 seconds 526 msec
