                         Program Version 5.0.0 -  RELEASE  -
|  1> !PBE0 D3BJ RIJCOSX def2-SVPD def2/J TightSCF
|  2> *xyz 0 1
|  3> C          1.63556       -1.67040       -5.29211
|  4> C          0.33848       -1.50091       -4.50540
|  5> C          2.48451       -0.50741       -5.14039
|  6> C         -0.68487       -0.52803       -5.09989
|  7> H          1.39834       -1.82924       -6.35259
|  8> H          2.15586       -2.56540       -4.93209
|  9> C          3.45115       -0.14953       -5.95259
| 10> N          3.92267        1.08956       -5.85071
| 11> N          3.96616       -1.00618       -6.86788
| 12> H          3.52139       -1.90647       -6.99527
| 13> H          4.44482       -0.62347       -7.67035
| 14> H          2.25200        0.24080       -4.49879
| 15> H          3.46428        1.64078       -5.13639
| 16> H          4.83447        1.31375       -6.22465
| 17> H          0.59489       -1.21158       -3.48231
| 18> H         -0.12653       -2.48766       -4.43418
| 19> H         -0.92267       -0.82721       -6.09931
| 20> H         -0.27317        0.45953       -5.11162
| 21> H         -1.57350       -0.53693       -4.50394
| 22> *
| 23>
| 24> %MaxCore 64000
| 25>
| 26> %pal nprocs 4
| 27> end
| 28>
| 29> %scf
| 30>   MaxIter 150
| 31> end
| 32>
| 33>
| 34>                          ****END OF INPUT****

CARTESIAN COORDINATES (ANGSTROEM)
---------------------------------
  C      1.635560   -1.670400   -5.292110
  C      0.338480   -1.500910   -4.505400
  C      2.484510   -0.507410   -5.140390
  C     -0.684870   -0.528030   -5.099890
  H      1.398340   -1.829240   -6.352590
  H      2.155860   -2.565400   -4.932090
  C      3.451150   -0.149530   -5.952590
  N      3.922670    1.089560   -5.850710
  N      3.966160   -1.006180   -6.867880
  H      3.521390   -1.906470   -6.995270
  H      4.444820   -0.623470   -7.670350
  H      2.252000    0.240800   -4.498790
  H      3.464280    1.640780   -5.136390
  H      4.834470    1.313750   -6.224650
  H      0.594890   -1.211580   -3.482310
  H     -0.126530   -2.487660   -4.434180
  H     -0.922670   -0.827210   -6.099310
  H     -0.273170    0.459530   -5.111620
  H     -1.573500   -0.536930   -4.503940

 Total Charge           Charge          ....    0
 Multiplicity           Mult            ....    1
 Number of Electrons    NEL             ....   56
 Basis Dimension        Dim             ....  236

ORBITAL ENERGIES
----------------

  NO   OCC          E(Eh)            E(eV)
   0   2.0000     -14.397699      -391.7813
   1   2.0000     -14.392555      -391.6413
   2   2.0000     -10.270941      -279.4865
   3   2.0000     -10.213696      -277.9288
   4   2.0000     -10.209884      -277.8251
   5   2.0000     -10.203235      -277.6441
   6   2.0000     -10.156654      -276.3766
   7   2.0000      -0.976966       -26.5846
   8   2.0000      -0.887188       -24.1416
   9   2.0000      -0.805372       -21.9153
  10   2.0000      -0.740601       -20.1528
  11   2.0000      -0.675463       -18.3803
  12   2.0000      -0.607966       -16.5436
  13   2.0000      -0.585700       -15.9377
  14   2.0000      -0.549448       -14.9512
  15   2.0000      -0.528444       -14.3797
  16   2.0000      -0.482858       -13.1392
  17   2.0000      -0.458403       -12.4738
  18   2.0000      -0.449864       -12.2414
  19   2.0000      -0.426512       -11.6060
  20   2.0000      -0.401522       -10.9260
  21   2.0000      -0.388004       -10.5581
  22   2.0000      -0.376700       -10.2505
  23   2.0000      -0.340232        -9.2582
  24   2.0000      -0.329664        -8.9706
  25   2.0000      -0.324273        -8.8239
  26   2.0000      -0.277382        -7.5480
  27   2.0000      -0.173987        -4.7344
  28   0.0000       0.023901         0.6504
  29   0.0000       0.046294         1.2597
  30   0.0000       0.049369         1.3434
  31   0.0000       0.067498         1.8367
  32   0.0000       0.075988         2.0677

MULLIKEN ATOMIC CHARGES
-----------------------
   0 C :    0.097401
   1 C :   -0.280813
   2 C :   -0.169469
   3 C :    0.575541
   4 H :    0.029331
   5 H :   -0.084589
   6 C :    0.764373
   7 N :   -0.119027
   8 N :   -0.223629
   9 H :    0.010132
  10 H :   -0.139820
  11 H :   -0.321261
  12 H :    0.085467
  13 H :   -0.192359
  14 H :    0.026781
  15 H :   -0.038224
  16 H :    0.007907
  17 H :   -0.020211
  18 H :   -0.007532
Sum of atomic charges:   -0.0000000

LOEWDIN ATOMIC CHARGES
----------------------
   0 C :   -0.081216
   1 C :   -0.089842
   2 C :   -0.036234
   3 C :    0.120926
   4 H :    0.020589
   5 H :    0.020450
   6 C :   -0.220972
   7 N :    0.169310
   8 N :    0.198805
   9 H :   -0.013565
  10 H :   -0.011668
  11 H :   -0.048004
  12 H :    0.003077
  13 H :   -0.006213
  14 H :    0.022340
  15 H :    0.014211
  16 H :   -0.018190
  17 H :   -0.023144
  18 H :   -0.020662

  Mayer bond orders larger than 0.100000
B(  0-C ,  1-C ) :   1.2310 B(  0-C ,  2-C ) :   0.8828 B(  0-C ,  4-H ) :   0.8348
B(  0-C ,  5-H ) :   0.8046 B(  0-C , 11-H ) :   0.2448 B(  0-C , 14-H ) :   0.1711
B(  0-C , 15-H ) :   0.2177 B(  1-C ,  2-C ) :   0.1235 B(  1-C ,  3-C ) :   1.2891
B(  1-C , 14-H ) :   0.8799 B(  1-C , 15-H ) :   0.8335 B(  1-C , 16-H ) :   0.1764
B(  1-C , 17-H ) :   0.2070 B(  1-C , 18-H ) :   0.1951 B(  2-C ,  4-H ) :   0.1369
B(  2-C ,  5-H ) :   0.2405 B(  2-C ,  6-C ) :   1.6261 B(  2-C ,  7-N ) :   0.3382
B(  2-C ,  8-N ) :   0.2140 B(  2-C ,  9-H ) :  -0.1142 B(  2-C , 11-H ) :   0.8922
B(  3-C , 16-H ) :   0.8384 B(  3-C , 17-H ) :   0.8476 B(  3-C , 18-H ) :   0.7952
B(  6-C ,  7-N ) :   0.8503 B(  6-C ,  8-N ) :   0.8556 B(  7-N ,  8-N ) :   0.1291
B(  7-N , 12-H ) :   1.0246 B(  7-N , 13-H ) :   1.2596 B(  8-N ,  9-H ) :   1.0301
B(  8-N , 10-H ) :   1.2340 B(  9-H , 10-H ) :  -0.1235 B( 12-H , 13-H ) :  -0.1372

Dispersion correction           -0.013417611
FINAL SINGLE POINT ENERGY      -306.673506553756

DIPOLE MOMENT
-------------
                                X             Y             Z
Electronic contribution:      6.38497       1.43397      -1.65696
Nuclear contribution   :     -5.84539      -1.11717       1.11949
                        -----------------------------------------
Total Dipole Moment    :      0.53958       0.31680      -0.53747
                        -----------------------------------------
Magnitude (a.u.)       :      0.82485
Magnitude (Debye)      :      2.09661

Rotational constants in cm-1:     0.177055     0.043715     0.038831
Rotational constants in MHz :  5307.971484  1310.555422  1164.112547

                             ****ORCA TERMINATED NORMALLY****
TOTAL RUN TIME: 0 days 0 hours 0 minutes 29 seconds 915 msec
