                         Program Version 5.0.0 -  RELEASE  -
|  1> !PBE0 D3BJ RIJCOSX def2-SVPD def2/J TightSCF
|  2> *xyz 0 1
|  3> C          1.63556       -1.67040       -5.29211
|  4> C          0.33848       -1.50091       -4.50540
|  5> N          2.48451       -0.50741       -5.14039
|  6> C         -0.68487       -0.52803       -5.09989
|  7> H          1.39834       -1.82924       -6.35259
|  8> H          2.15586       -2.56540       -4.93209
|  9> C          3.45115       -0.14953       -5.95259
| 10> C          3.92267        1.08956       -5.85071
| 11> N          3.96616       -1.00618       -6.86788
| 12> H          3.52139       -1.90647       -6.99527
| 13> H          4.44482       -0.62347       -7.67035
| 14> H          2.25200        0.24080       -4.49879
| 15> H          3.46428        1.64078       -5.13639
| 16> H          4.83447        1.31375       -6.22465
| 17> H          0.59489       -1.21158       -3.48231
| 18> H         -0.12653       -2.48766       -4.43418
| 19> H         -0.92267       -0.82721       -6.09931
| 20> H         -0.27317        0.45953       -5.11162
| 21> H         -1.57350       -0.53693       -4.50394
| 22> *
| 23>
| 24> %MaxCore 64000
| 25>
| 26> %pal nprocs 4
| 27> end
| 28>
| 29> %scf
| 30>   MaxIter 150
| 31> end
| 32>
| 33>
| 34>                          ****END OF INPUT****

CARTESIAN COORDINATES (ANGSTROEM)
---------------------------------
  C      1.635560   -1.670400   -5.292110
  C      0.338480   -1.500910   -4.505400
  N      2.484510   -0.507410   -5.140390
  C     -0.684870   -0.528030   -5.099890
  H      1.398340   -1.829240   -6.352590
  H      2.155860   -2.565400   -4.932090
  C      3.451150   -0.149530   -5.952590
  C      3.922670    1.089560   -5.850710
  N      3.966160   -1.006180   -6.867880
  H      3.521390   -1.906470   -6.995270
  H      4.444820   -0.623470   -7.670350
  H      2.252000    0.240800   -4.498790
  H      3.464280    1.640780   -5.136390
  H      4.834470    1.313750   -6.224650
  H      0.594890   -1.211580   -3.482310
  H     -0.126530   -2.487660   -4.434180
  H     -0.922670   -0.827210   -6.099310
  H     -0.273170    0.459530   -5.111620
  H     -1.573500   -0.536930   -4.503940

 Total Charge           Charge          ....    0
 Multiplicity           Mult            ....    1
 Number of Electrons    NEL             ....   56
 Basis Dimension        Dim             ....  236

ORBITAL ENERGIES
----------------

  NO   OCC          E(Eh)            E(eV)
   0   2.0000     -14.397403      -391.7733
   1   2.0000     -14.395294      -391.7159
   2   2.0000     -10.274698      -279.5887
   3   2.0000     -10.273371      -279.5526
   4   2.0000     -10.243830      -278.7488
   5   2.0000     -10.225119      -278.2396
   6   2.0000     -10.141753      -275.9711
   7   2.0000      -0.989418       -26.9234
   8   2.0000      -0.900722       -24.5099
   9   2.0000      -0.812760       -22.1163
  10   2.0000      -0.744547       -20.2601
  11   2.0000      -0.686599       -18.6833
  12   2.0000      -0.621334       -16.9074
  13   2.0000      -0.607408       -16.5284
  14   2.0000      -0.551977       -15.0201
  15   2.0000      -0.514863       -14.0101
  16   2.0000      -0.487376       -13.2622
  17   2.0000      -0.482186       -13.1210
  18   2.0000      -0.459469       -12.5028
  19   2.0000      -0.431226       -11.7343
  20   2.0000      -0.407544       -11.0898
  21   2.0000      -0.396697       -10.7947
  22   2.0000      -0.387298       -10.5389
  23   2.0000      -0.368463       -10.0264
  24   2.0000      -0.362521        -9.8647
  25   2.0000      -0.354001        -9.6328
  26   2.0000      -0.270035        -7.3480
  27   2.0000      -0.171510        -4.6670
  28   0.0000       0.020314         0.5528
  29   0.0000       0.037979         1.0335
  30   0.0000       0.045626         1.2415
  31   0.0000       0.058023         1.5789
  32   0.0000       0.070060         1.9064

MULLIKEN ATOMIC CHARGES
-----------------------
   0 C :    0.452266
   1 C :   -0.397350
   2 N :   -0.505994
   3 C :    0.568757
   4 H :   -0.007224
   5 H :   -0.149102
   6 C :    0.695967
   7 C :    0.352082
   8 N :   -0.119727
   9 H :   -0.103192
  10 H :   -0.058068
  11 H :   -0.147910
  12 H :   -0.150164
  13 H :   -0.395510
  14 H :   -0.008645
  15 H :   -0.022345
  16 H :    0.026992
  17 H :   -0.011758
  18 H :   -0.019077
Sum of atomic charges:   -0.0000000

LOEWDIN ATOMIC CHARGES
----------------------
   0 C :    0.028060
   1 C :   -0.075244
   2 N :   -0.025788
   3 C :    0.124964
   4 H :    0.024069
   5 H :    0.022037
   6 C :   -0.229333
   7 C :    0.134541
   8 N :    0.195316
   9 H :   -0.026437
  10 H :    0.005031
  11 H :    0.028993
  12 H :   -0.102913
  13 H :   -0.096940
  14 H :    0.023079
  15 H :    0.021137
  16 H :   -0.015038
  17 H :   -0.019470
  18 H :   -0.016064

  Mayer bond orders larger than 0.100000
B(  0-C ,  1-C ) :   1.1903 B(  0-C ,  2-N ) :   0.8698 B(  0-C ,  4-H ) :   0.8530
B(  0-C ,  5-H ) :   0.9423 B(  0-C , 11-H ) :  -0.1338 B(  0-C , 14-H ) :   0.1406
B(  0-C , 15-H ) :   0.1865 B(  1-C ,  3-C ) :   1.2781 B(  1-C , 14-H ) :   0.8996
B(  1-C , 15-H ) :   0.8864 B(  1-C , 16-H ) :   0.1731 B(  1-C , 17-H ) :   0.2023
B(  1-C , 18-H ) :   0.2024 B(  2-N ,  4-H ) :   0.1598 B(  2-N ,  5-H ) :   0.1639
B(  2-N ,  6-C ) :   1.0375 B(  2-N ,  7-C ) :   0.2958 B(  2-N ,  8-N ) :   0.1271
B(  2-N , 11-H ) :   1.1550 B(  3-C , 16-H ) :   0.8355 B(  3-C , 17-H ) :   0.8424
B(  3-C , 18-H ) :   0.8057 B(  6-C ,  7-C ) :   1.6698 B(  6-C ,  8-N ) :   0.8172
B(  6-C , 10-H ) :  -0.1025 B(  6-C , 11-H ) :  -0.1913 B(  6-C , 12-H ) :   0.2146
B(  6-C , 13-H ) :   0.2494 B(  7-C ,  8-N ) :   0.2330 B(  7-C , 12-H ) :   0.8392
B(  7-C , 13-H ) :   0.7311 B(  8-N ,  9-H ) :   1.0490 B(  8-N , 10-H ) :   1.1800
B(  9-H , 10-H ) :  -0.1337

Dispersion correction           -0.013277936
FINAL SINGLE POINT ENERGY      -306.661351938613

DIPOLE MOMENT
-------------
                                X             Y             Z
Electronic contribution:      4.77434      -0.15080      -1.04758
Nuclear contribution   :     -5.53036      -0.76734       0.96389
                        -----------------------------------------
Total Dipole Moment    :     -0.75602      -0.91814      -0.08369
                        -----------------------------------------
Magnitude (a.u.)       :      1.19229
Magnitude (Debye)      :      3.03056

Rotational constants in cm-1:     0.181901     0.044719     0.039941
Rotational constants in MHz :  5453.254735  1340.639344  1197.391002

                             ****ORCA TERMINATED NORMALLY****
TOTAL RUN TIME: 0 days 0 hours 0 minutes 31 seconds 194 msec
