                         Program Version 5.0.0 -  RELEASE  -
|  1> !PBE0 D3BJ RIJCOSX def2-SVPD def2/J TightSCF
|  2> *xyz 0 1
|  3> C          1.63556       -1.67040       -5.29211
|  4> C          0.33848       -1.50091       -4.50540
|  5> N          2.48451       -0.50741       -5.14039
|  6> C         -0.68487       -0.52803       -5.09989
|  7> H          1.39834       -1.82924       -6.35259
|  8> H          2.15586       -2.56540       -4.93209
|  9> C          3.45115       -0.14953       -5.95259
| 10> N          3.92267        1.08956       -5.85071
| 11> C          3.96616       -1.00618       -6.86788
| 12> H          3.52139       -1.90647       -6.99527
| 13> H          4.44482       -0.62347       -7.67035
| 14> H          2.25200        0.24080       -4.49879
| 15> H          3.46428        1.64078       -5.13639
| 16> H          4.83447        1.31375       -6.22465
| 17> H          0.59489       -1.21158       -3.48231
| 18> H         -0.12653       -2.48766       -4.43418
| 19> H         -0.92267       -0.82721       -6.09931
| 20> H         -0.27317        0.45953       -5.11162
| 21> H         -1.57350       -0.53693       -4.50394
| 22> *
| 23>
| 24> %MaxCore 64000
| 25>
| 26> %pal nprocs 4
| 27> end
| 28>
| 29> %scf
| 30>   MaxIter 150
| 31> end
| 32>
| 33>
| 34>                          ****END OF INPUT****

CARTESIAN COORDINATES (ANGSTROEM)
---------------------------------
  C      1.635560   -1.670400   -5.292110
  C      0.338480   -1.500910   -4.505400
  N      2.484510   -0.507410   -5.140390
  C     -0.684870   -0.528030   -5.099890
  H      1.398340   -1.829240   -6.352590
  H      2.155860   -2.565400   -4.932090
  C      3.451150   -0.149530   -5.952590
  N      3.922670    1.089560   -5.850710
  C      3.966160   -1.006180   -6.867880
  H      3.521390   -1.906470   -6.995270
  H      4.444820   -0.623470   -7.670350
  H      2.252000    0.240800   -4.498790
  H      3.464280    1.640780   -5.136390
  H      4.834470    1.313750   -6.224650
  H      0.594890   -1.211580   -3.482310
  H     -0.126530   -2.487660   -4.434180
  H     -0.922670   -0.827210   -6.099310
  H     -0.273170    0.459530   -5.111620
  H     -1.573500   -0.536930   -4.503940

 Total Charge           Charge          ....    0
 Multiplicity           Mult            ....    1
 Number of Electrons    NEL             ....   56
 Basis Dimension        Dim             ....  236

ORBITAL ENERGIES
----------------

  NO   OCC          E(Eh)            E(eV)
   0   2.0000     -14.403845      -391.9485
   1   2.0000     -14.397634      -391.7795
   2   2.0000     -10.276270      -279.6315
   3   2.0000     -10.266836      -279.3748
   4   2.0000     -10.240384      -278.6550
   5   2.0000     -10.223878      -278.2059
   6   2.0000     -10.143951      -276.0309
   7   2.0000      -0.998124       -27.1603
   8   2.0000      -0.906151       -24.6576
   9   2.0000      -0.804757       -21.8986
  10   2.0000      -0.724506       -19.7148
  11   2.0000      -0.711338       -19.3565
  12   2.0000      -0.624634       -16.9972
  13   2.0000      -0.583590       -15.8803
  14   2.0000      -0.552531       -15.0351
  15   2.0000      -0.539827       -14.6894
  16   2.0000      -0.490325       -13.3424
  17   2.0000      -0.481340       -13.0979
  18   2.0000      -0.449353       -12.2275
  19   2.0000      -0.433561       -11.7978
  20   2.0000      -0.400814       -10.9067
  21   2.0000      -0.399173       -10.8621
  22   2.0000      -0.379546       -10.3280
  23   2.0000      -0.367109        -9.9895
  24   2.0000      -0.358974        -9.7682
  25   2.0000      -0.353857        -9.6289
  26   2.0000      -0.264201        -7.1893
  27   2.0000      -0.175860        -4.7854
  28   0.0000       0.015607         0.4247
  29   0.0000       0.035581         0.9682
  30   0.0000       0.051535         1.4023
  31   0.0000       0.058037         1.5793
  32   0.0000       0.073399         1.9973

MULLIKEN ATOMIC CHARGES
-----------------------
   0 C :    0.460841
   1 C :   -0.389249
   2 N :   -0.518393
   3 C :    0.577576
   4 H :    0.051959
   5 H :   -0.124475
   6 C :    0.596689
   7 N :   -0.058606
   8 C :    0.352359
   9 H :   -0.017884
  10 H :   -0.423232
  11 H :   -0.264621
  12 H :   -0.086180
  13 H :   -0.102533
  14 H :   -0.016256
  15 H :   -0.031828
  16 H :    0.030103
  17 H :   -0.020898
  18 H :   -0.015371
Sum of atomic charges:    0.0000000

LOEWDIN ATOMIC CHARGES
----------------------
   0 C :    0.040680
   1 C :   -0.076212
   2 N :   -0.025785
   3 C :    0.122653
   4 H :    0.031575
   5 H :    0.030123
   6 C :   -0.239816
   7 N :    0.180709
   8 C :    0.156322
   9 H :   -0.120740
  10 H :   -0.105793
  11 H :    0.017668
  12 H :   -0.012438
  13 H :    0.013514
  14 H :    0.019937
  15 H :    0.022020
  16 H :   -0.014002
  17 H :   -0.023521
  18 H :   -0.016893

  Mayer bond orders larger than 0.100000
B(  0-C ,  1-C ) :   1.1785 B(  0-C ,  2-N ) :   0.9147 B(  0-C ,  4-H ) :   0.8386
B(  0-C ,  5-H ) :   0.9411 B(  0-C , 11-H ) :  -0.1222 B(  0-C , 14-H ) :   0.1386
B(  0-C , 15-H ) :   0.1752 B(  1-C ,  3-C ) :   1.2819 B(  1-C , 14-H ) :   0.8929
B(  1-C , 15-H ) :   0.8976 B(  1-C , 16-H ) :   0.1737 B(  1-C , 17-H ) :   0.2045
B(  1-C , 18-H ) :   0.2041 B(  2-N ,  4-H ) :   0.1666 B(  2-N ,  5-H ) :   0.1378
B(  2-N ,  6-C ) :   1.0253 B(  2-N ,  7-N ) :   0.2264 B(  2-N ,  8-C ) :   0.2919
B(  2-N , 11-H ) :   1.2457 B(  3-C , 16-H ) :   0.8369 B(  3-C , 17-H ) :   0.8453
B(  3-C , 18-H ) :   0.7998 B(  6-C ,  7-N ) :   0.8467 B(  6-C ,  8-C ) :   1.7885
B(  6-C ,  9-H ) :   0.2823 B(  6-C , 10-H ) :   0.2070 B(  6-C , 11-H ) :  -0.2652
B(  7-N ,  8-C ) :   0.2412 B(  7-N , 12-H ) :   1.0834 B(  7-N , 13-H ) :   1.2237
B(  8-C ,  9-H ) :   0.6579 B(  8-C , 10-H ) :   0.8196 B(  9-H , 10-H ) :   0.1568
B( 12-H , 13-H ) :  -0.1273

Dispersion correction           -0.013311918
FINAL SINGLE POINT ENERGY      -306.662100413224

DIPOLE MOMENT
-------------
                                X             Y             Z
Electronic contribution:      4.84307       1.90177       0.02726
Nuclear contribution   :     -5.52083      -1.22643       0.74108
                        -----------------------------------------
Total Dipole Moment    :     -0.67776       0.67535       0.76833
                        -----------------------------------------
Magnitude (a.u.)       :      1.22710
Magnitude (Debye)      :      3.11905

Rotational constants in cm-1:     0.181479     0.044588     0.039739
Rotational constants in MHz :  5440.604457  1336.706831  1191.355312

                             ****ORCA TERMINATED NORMALLY****
TOTAL RUN TIME: 0 days 0 hours 0 minutes 29 seconds 273 msec
