                         Program Version 5.0.0 -  RELEASE  -
|  1> !LC-BLYP RIJCOSX def2-SVPD def2/J TightSCF
|  2> *xyz -1 1
|  3> C          0.70466        1.44313       -4.50363
|  4> C          1.72854        1.42432       -5.63944
|  5> H          2.64672        1.95379       -5.38105
|  6> H          1.29992        1.93061       -6.50361
|  7> S          2.25263       -0.18811       -6.27184
|  8> O          3.56261       -0.44446       -5.63155
|  9> O          2.34494       -0.03374       -7.69650
| 10> C          1.05255        0.69566       -3.21491
| 11> H         -0.23248        1.03293       -4.88445
| 12> H          0.51170        2.49579       -4.26797
| 13> O          1.26606       -1.15918       -5.80536
| 14> H          1.24200       -0.33323       -3.43942
| 15> H          0.23391        0.76629       -2.52954
| 16> H          1.92506        1.13113       -2.77446
| 17> *
| 18>
| 19> %MaxCore 64000
| 20>
| 21> %pal nprocs 8
| 22> end
| 23>
| 24> %scf
| 25>   MaxIter 150
| 26> end
| 27>
| 28>
| 29>                          ****END OF INPUT****

CARTESIAN COORDINATES (ANGSTROEM)
---------------------------------
  C      0.704660    1.443130   -4.503630
  C      1.728540    1.424320   -5.639440
  H      2.646720    1.953790   -5.381050
  H      1.299920    1.930610   -6.503610
  S      2.252630   -0.188110   -6.271840
  O      3.562610   -0.444460   -5.631550
  O      2.344940   -0.033740   -7.696500
  C      1.052550    0.695660   -3.214910
  H     -0.232480    1.032930   -4.884450
  H      0.511700    2.495790   -4.267970
  O      1.266060   -1.159180   -5.805360
  H      1.242000   -0.333230   -3.439420
  H      0.233910    0.766290   -2.529540
  H      1.925060    1.131130   -2.774460

 Total Charge           Charge          ....   -1
 Multiplicity           Mult            ....    1
 Number of Electrons    NEL             ....   66
 Basis Dimension        Dim             ....  212

ORBITAL ENERGIES
----------------

  NO   OCC          E(Eh)            E(eV)
   0   2.0000     -88.312566     -2403.1071
   1   2.0000     -18.744675      -510.0686
   2   2.0000     -18.738566      -509.9023
   3   2.0000     -18.729200      -509.6475
   4   2.0000      -9.960380      -271.0357
   5   2.0000      -9.951692      -270.7993
   6   2.0000      -9.940413      -270.4924
   7   2.0000      -7.861257      -213.9157
   8   2.0000      -5.895598      -160.4274
   9   2.0000      -5.895491      -160.4245
  10   2.0000      -5.895027      -160.4118
  11   2.0000      -1.034237       -28.1430
  12   2.0000      -0.888792       -24.1853
  13   2.0000      -0.865359       -23.5476
  14   2.0000      -0.764836       -20.8122
  15   2.0000      -0.676477       -18.4079
  16   2.0000      -0.580162       -15.7870
  17   2.0000      -0.488670       -13.2974
  18   2.0000      -0.442794       -12.0490
  19   2.0000      -0.428296       -11.6545
  20   2.0000      -0.403643       -10.9837
  21   2.0000      -0.388723       -10.5777
  22   2.0000      -0.369773       -10.0620
  23   2.0000      -0.359529        -9.7833
  24   2.0000      -0.325521        -8.8579
  25   2.0000      -0.321644        -8.7524
  26   2.0000      -0.305006        -8.2996
  27   2.0000      -0.258279        -7.0281
  28   2.0000      -0.256107        -6.9690
  29   2.0000      -0.219504        -5.9730
  30   2.0000      -0.210643        -5.7319
  31   2.0000      -0.202194        -5.5020
  32   2.0000      -0.166609        -4.5337
  33   0.0000       0.184612         5.0236
  34   0.0000       0.206001         5.6056
  35   0.0000       0.210474         5.7273
  36   0.0000       0.217520         5.9190
  37   0.0000       0.237260         6.4562

MULLIKEN ATOMIC CHARGES
-----------------------
   0 C :   -0.124776
   1 C :    0.200311
   2 H :   -0.105343
   3 H :   -0.087350
   4 S :    1.082498
   5 O :   -0.741921
   6 O :   -0.714585
   7 C :    1.043189
   8 H :   -0.090169
   9 H :   -0.230564
  10 O :   -0.761114
  11 H :   -0.233523
  12 H :   -0.125688
  13 H :   -0.110965
Sum of atomic charges:   -1.0000000

LOEWDIN ATOMIC CHARGES
----------------------
   0 C :   -0.107545
   1 C :   -0.092787
   2 H :    0.009706
   3 H :    0.001139
   4 S :    0.812489
   5 O :   -0.583450
   6 O :   -0.554764
   7 C :    0.112787
   8 H :    0.021272
   9 H :    0.011925
  10 O :   -0.559456
  11 H :   -0.027450
  12 H :   -0.026944
  13 H :   -0.016920

  Mayer bond orders larger than 0.100000
B(  0-C ,  1-C ) :   1.2695 B(  0-C ,  2-H ) :   0.1433 B(  0-C ,  3-H ) :   0.1684
B(  0-C ,  7-C ) :   1.2647 B(  0-C ,  8-H ) :   0.8522 B(  0-C ,  9-H ) :   0.8239
B(  0-C , 11-H ) :   0.2488 B(  0-C , 12-H ) :   0.2657 B(  0-C , 13-H ) :   0.2507
B(  1-C ,  2-H ) :   0.8850 B(  1-C ,  3-H ) :   0.8512 B(  1-C ,  4-S ) :   0.8794
B(  1-C ,  8-H ) :   0.1594 B(  1-C ,  9-H ) :   0.1811 B(  4-S ,  5-O ) :   1.3109
B(  4-S ,  6-O ) :   1.4264 B(  4-S , 10-O ) :   1.3255 B(  7-C , 11-H ) :   0.7432
B(  7-C , 12-H ) :   0.6587 B(  7-C , 13-H ) :   0.7013

FINAL SINGLE POINT ENERGY      -741.110262131293

DIPOLE MOMENT
-------------
                                X             Y             Z
Electronic contribution:      4.36650      -5.57770      -8.00342
Nuclear contribution   :     -5.44810       7.35485       9.25157
                        -----------------------------------------
Total Dipole Moment    :     -1.08160       1.77715       1.24815
                        -----------------------------------------
Magnitude (a.u.)       :      2.42611
Magnitude (Debye)      :      6.16668

Rotational constants in cm-1:     0.135801     0.054229     0.051056
Rotational constants in MHz :  4071.225075  1625.746654  1530.611411

                             ****ORCA TERMINATED NORMALLY****
TOTAL RUN TIME: 0 days 0 hours 0 minutes 17 seconds 570 msec
