                         Program Version 5.0.0 -  RELEASE  -
|  1> !LC-BLYP RIJCOSX def2-SVPD def2/J TightSCF
|  2> *xyz 1 1
|  3> C          2.91632       -1.24259       -1.54313
|  4> C          3.46659       -1.59097       -2.88908
|  5> N          4.65227       -1.14316       -3.25969
|  6> N          2.75226       -2.29204       -3.72803
|  7> H          1.77836       -2.48960       -3.51274
|  8> H          2.94861       -2.20854       -4.71681
|  9> H          5.14672       -0.51251       -2.63385
| 10> H          4.78303       -1.00720       -4.25350
| 11> C          2.80408        0.29070       -1.35924
| 12> C          2.38838        1.09367       -2.59711
| 13> H          3.76342        0.67472       -0.99989
| 14> H          2.09479        0.46122       -0.54576
| 15> H          1.94047       -1.71653       -1.44116
| 16> H          3.55857       -1.66343       -0.76637
| 17> H          3.08894        0.91965       -3.38694
| 18> H          2.37301        2.13633       -2.35728
| 19> H          1.41303        0.78551       -2.91115
| 20> *
| 21>
| 22> %MaxCore 64000
| 23>
| 24> %pal nprocs 8
| 25> end
| 26>
| 27> %scf
| 28>   MaxIter 150
| 29> end
| 30>
| 31>
| 32>                          ****END OF INPUT****

CARTESIAN COORDINATES (ANGSTROEM)
---------------------------------
  C      2.916320   -1.242590   -1.543130
  C      3.466590   -1.590970   -2.889080
  N      4.652270   -1.143160   -3.259690
  N      2.752260   -2.292040   -3.728030
  H      1.778360   -2.489600   -3.512740
  H      2.948610   -2.208540   -4.716810
  H      5.146720   -0.512510   -2.633850
  H      4.783030   -1.007200   -4.253500
  C      2.804080    0.290700   -1.359240
  C      2.388380    1.093670   -2.597110
  H      3.763420    0.674720   -0.999890
  H      2.094790    0.461220   -0.545760
  H      1.940470   -1.716530   -1.441160
  H      3.558570   -1.663430   -0.766370
  H      3.088940    0.919650   -3.386940
  H      2.373010    2.136330   -2.357280
  H      1.413030    0.785510   -2.911150

 Total Charge           Charge          ....    1
 Multiplicity           Mult            ....    1
 Number of Electrons    NEL             ....   48
 Basis Dimension        Dim             ....  208

ORBITAL ENERGIES
----------------

  NO   OCC          E(Eh)            E(eV)
   0   2.0000     -14.436113      -392.8266
   1   2.0000     -14.430269      -392.6676
   2   2.0000     -10.410481      -283.2836
   3   2.0000     -10.282053      -279.7889
   4   2.0000     -10.252350      -278.9806
   5   2.0000     -10.221193      -278.1328
   6   2.0000      -1.303916       -35.4814
   7   2.0000      -1.202926       -32.7333
   8   2.0000      -1.080717       -29.4078
   9   2.0000      -0.996313       -27.1110
  10   2.0000      -0.939980       -25.5782
  11   2.0000      -0.891206       -24.2509
  12   2.0000      -0.873624       -23.7725
  13   2.0000      -0.836610       -22.7653
  14   2.0000      -0.798032       -21.7155
  15   2.0000      -0.776157       -21.1203
  16   2.0000      -0.736851       -20.0507
  17   2.0000      -0.697855       -18.9896
  18   2.0000      -0.680838       -18.5265
  19   2.0000      -0.667400       -18.1609
  20   2.0000      -0.612117       -16.6566
  21   2.0000      -0.606903       -16.5147
  22   2.0000      -0.598438       -16.2843
  23   2.0000      -0.588829       -16.0229
  24   0.0000      -0.141055        -3.8383
  25   0.0000      -0.097777        -2.6606
  26   0.0000      -0.059729        -1.6253
  27   0.0000      -0.057393        -1.5617
  28   0.0000      -0.031535        -0.8581

MULLIKEN ATOMIC CHARGES
-----------------------
   0 C :    0.498264
   1 C :   -0.009695
   2 N :    0.326237
   3 N :    0.292075
   4 H :    0.035577
   5 H :   -0.112103
   6 H :    0.035335
   7 H :   -0.061851
   8 C :   -0.208983
   9 C :    1.059085
  10 H :   -0.081056
  11 H :   -0.261108
  12 H :    0.007622
  13 H :   -0.078706
  14 H :   -0.174971
  15 H :   -0.167893
  16 H :   -0.097828
Sum of atomic charges:    1.0000000

LOEWDIN ATOMIC CHARGES
----------------------
   0 C :    0.044847
   1 C :   -0.087747
   2 N :    0.297984
   3 N :    0.301094
   4 H :    0.057399
   5 H :    0.051378
   6 H :    0.054957
   7 H :    0.048890
   8 C :   -0.046637
   9 C :    0.132563
  10 H :    0.030522
  11 H :    0.043554
  12 H :    0.041004
  13 H :    0.058947
  14 H :   -0.034131
  15 H :    0.007374
  16 H :   -0.002001

  Mayer bond orders larger than 0.100000
B(  0-C ,  1-C ) :   1.2503 B(  0-C ,  8-C ) :   1.1795 B(  0-C , 10-H ) :   0.1014
B(  0-C , 11-H ) :   0.1394 B(  0-C , 12-H ) :   0.7105 B(  0-C , 13-H ) :   0.6898
B(  1-C ,  2-N ) :   1.2660 B(  1-C ,  3-N ) :   1.2092 B(  1-C , 12-H ) :   0.2015
B(  1-C , 13-H ) :   0.2323 B(  2-N ,  3-N ) :   0.1654 B(  2-N ,  6-H ) :   0.9814
B(  2-N ,  7-H ) :   1.0995 B(  3-N ,  4-H ) :   1.0338 B(  3-N ,  5-H ) :   1.1455
B(  4-H ,  5-H ) :  -0.1438 B(  6-H ,  7-H ) :  -0.1285 B(  8-C ,  9-C ) :   1.3205
B(  8-C , 10-H ) :   0.8608 B(  8-C , 11-H ) :   0.9252 B(  8-C , 12-H ) :   0.1751
B(  8-C , 13-H ) :   0.1079 B(  8-C , 14-H ) :   0.2674 B(  8-C , 15-H ) :   0.2659
B(  8-C , 16-H ) :   0.2218 B(  9-C , 14-H ) :   0.7352 B(  9-C , 15-H ) :   0.6685
B(  9-C , 16-H ) :   0.7068 B( 14-H , 16-H ) :   0.1097

FINAL SINGLE POINT ENERGY      -267.425173521722

DIPOLE MOMENT
-------------
                                X             Y             Z
Electronic contribution:      2.03278      -4.55925      -1.88762
Nuclear contribution   :     -1.81078       3.96608       0.97433
                        -----------------------------------------
Total Dipole Moment    :      0.22201      -0.59318      -0.91329
                        -----------------------------------------
Magnitude (a.u.)       :      1.11142
Magnitude (Debye)      :      2.82500

Rotational constants in cm-1:     0.170042     0.080945     0.078209
Rotational constants in MHz :  5097.737821  2426.678005  2344.636232

                             ****ORCA TERMINATED NORMALLY****
TOTAL RUN TIME: 0 days 0 hours 0 minutes 15 seconds 166 msec
