                         Program Version 5.0.0 -  RELEASE  -
|  1> !LC-BLYP RIJCOSX def2-SVPD def2/J TightSCF
|  2> *xyz 0 1
|  3> C          0.70466        1.44313       -4.50363
|  4> C          1.72854        1.42432       -5.63944
|  5> H          2.64672        1.95379       -5.38105
|  6> H          1.29992        1.93061       -6.50361
|  7> S          2.25263       -0.18811       -6.27184
|  8> F          3.56261       -0.44446       -5.63155
|  9> O          2.34494       -0.03374       -7.69650
| 10> C          1.05255        0.69566       -3.21491
| 11> H         -0.23248        1.03293       -4.88445
| 12> H          0.51170        2.49579       -4.26797
| 13> O          1.26606       -1.15918       -5.80536
| 14> H          1.24200       -0.33323       -3.43942
| 15> H          0.23391        0.76629       -2.52954
| 16> H          1.92506        1.13113       -2.77446
| 17> *
| 18>
| 19> %MaxCore 64000
| 20>
| 21> %pal nprocs 8
| 22> end
| 23>
| 24> %scf
| 25>   MaxIter 150
| 26> end
| 27>
| 28>
| 29>                          ****END OF INPUT****

CARTESIAN COORDINATES (ANGSTROEM)
---------------------------------
  C      0.704660    1.443130   -4.503630
  C      1.728540    1.424320   -5.639440
  H      2.646720    1.953790   -5.381050
  H      1.299920    1.930610   -6.503610
  S      2.252630   -0.188110   -6.271840
  F      3.562610   -0.444460   -5.631550
  O      2.344940   -0.033740   -7.696500
  C      1.052550    0.695660   -3.214910
  H     -0.232480    1.032930   -4.884450
  H      0.511700    2.495790   -4.267970
  O      1.266060   -1.159180   -5.805360
  H      1.242000   -0.333230   -3.439420
  H      0.233910    0.766290   -2.529540
  H      1.925060    1.131130   -2.774460

 Total Charge           Charge          ....    0
 Multiplicity           Mult            ....    1
 Number of Electrons    NEL             ....   66
 Basis Dimension        Dim             ....  212

ORBITAL ENERGIES
----------------

  NO   OCC          E(Eh)            E(eV)
   0   2.0000     -88.565756     -2409.9967
   1   2.0000     -24.576232      -668.7533
   2   2.0000     -18.975578      -516.3517
   3   2.0000     -18.968121      -516.1488
   4   2.0000     -10.149597      -276.1846
   5   2.0000     -10.115992      -275.2701
   6   2.0000     -10.084633      -274.4168
   7   2.0000      -8.115273      -220.8278
   8   2.0000      -6.154003      -167.4589
   9   2.0000      -6.147383      -167.2788
  10   2.0000      -6.145988      -167.2408
  11   2.0000      -1.429794       -38.9067
  12   2.0000      -1.213688       -33.0261
  13   2.0000      -1.114545       -30.3283
  14   2.0000      -0.939602       -25.5679
  15   2.0000      -0.859772       -23.3956
  16   2.0000      -0.806603       -21.9488
  17   2.0000      -0.743536       -20.2326
  18   2.0000      -0.677827       -18.4446
  19   2.0000      -0.671093       -18.2614
  20   2.0000      -0.657718       -17.8974
  21   2.0000      -0.606925       -16.5153
  22   2.0000      -0.589643       -16.0450
  23   2.0000      -0.560782       -15.2597
  24   2.0000      -0.553031       -15.0487
  25   2.0000      -0.542061       -14.7502
  26   2.0000      -0.501622       -13.6498
  27   2.0000      -0.484852       -13.1935
  28   2.0000      -0.475420       -12.9368
  29   2.0000      -0.460730       -12.5371
  30   2.0000      -0.438411       -11.9298
  31   2.0000      -0.428579       -11.6622
  32   2.0000      -0.418440       -11.3863
  33   0.0000       0.049473         1.3462
  34   0.0000       0.071084         1.9343
  35   0.0000       0.079211         2.1554
  36   0.0000       0.079706         2.1689
  37   0.0000       0.105229         2.8634

MULLIKEN ATOMIC CHARGES
-----------------------
   0 C :   -0.070237
   1 C :    0.169678
   2 H :   -0.062909
   3 H :   -0.051560
   4 S :    1.239050
   5 F :   -0.345938
   6 O :   -0.569334
   7 C :    1.060405
   8 H :   -0.074275
   9 H :   -0.203498
  10 O :   -0.626871
  11 H :   -0.260925
  12 H :   -0.103214
  13 H :   -0.100373
Sum of atomic charges:    0.0000000

LOEWDIN ATOMIC CHARGES
----------------------
   0 C :   -0.084693
   1 C :   -0.052410
   2 H :    0.026705
   3 H :    0.029747
   4 S :    1.072338
   5 F :   -0.257743
   6 O :   -0.441474
   7 C :    0.128665
   8 H :    0.035669
   9 H :    0.036386
  10 O :   -0.451140
  11 H :   -0.027800
  12 H :   -0.005455
  13 H :   -0.008796

  Mayer bond orders larger than 0.100000
B(  0-C ,  1-C ) :   1.3026 B(  0-C ,  2-H ) :   0.1426 B(  0-C ,  3-H ) :   0.1535
B(  0-C ,  7-C ) :   1.2820 B(  0-C ,  8-H ) :   0.8505 B(  0-C ,  9-H ) :   0.8101
B(  0-C , 11-H ) :   0.2354 B(  0-C , 12-H ) :   0.2576 B(  0-C , 13-H ) :   0.2425
B(  1-C ,  2-H ) :   0.8711 B(  1-C ,  3-H ) :   0.8582 B(  1-C ,  4-S ) :   0.9353
B(  1-C ,  8-H ) :   0.1613 B(  1-C ,  9-H ) :   0.1851 B(  4-S ,  5-F ) :   0.6973
B(  4-S ,  6-O ) :   1.6389 B(  4-S , 10-O ) :   1.5458 B(  7-C , 11-H ) :   0.7356
B(  7-C , 12-H ) :   0.6685 B(  7-C , 13-H ) :   0.7039

FINAL SINGLE POINT ENERGY      -765.596113070165

DIPOLE MOMENT
-------------
                                X             Y             Z
Electronic contribution:      7.35595      -6.65562      -8.19573
Nuclear contribution   :     -7.21372       8.00417       9.21533
                        -----------------------------------------
Total Dipole Moment    :      0.14223       1.34855       1.01960
                        -----------------------------------------
Magnitude (a.u.)       :      1.69658
Magnitude (Debye)      :      4.31237

Rotational constants in cm-1:     0.129205     0.053290     0.050128
Rotational constants in MHz :  3873.458819  1597.595736  1502.810344

                             ****ORCA TERMINATED NORMALLY****
TOTAL RUN TIME: 0 days 0 hours 0 minutes 16 seconds 585 msec
