                         Program Version 5.0.0 -  RELEASE  -
|  1> !LC-BLYP RIJCOSX def2-SVPD def2/J TightSCF
|  2> *xyz 0 1
|  3> C          2.91632       -1.24259       -1.54313
|  4> C          3.46659       -1.59097       -2.88908
|  5> C          4.65227       -1.14316       -3.25969
|  6> N          2.75226       -2.29204       -3.72803
|  7> H          1.77836       -2.48960       -3.51274
|  8> H          2.94861       -2.20854       -4.71681
|  9> H          5.14672       -0.51251       -2.63385
| 10> H          4.78303       -1.00720       -4.25350
| 11> C          2.80408        0.29070       -1.35924
| 12> C          2.38838        1.09367       -2.59711
| 13> H          3.76342        0.67472       -0.99989
| 14> H          2.09479        0.46122       -0.54576
| 15> H          1.94047       -1.71653       -1.44116
| 16> H          3.55857       -1.66343       -0.76637
| 17> H          3.08894        0.91965       -3.38694
| 18> H          2.37301        2.13633       -2.35728
| 19> H          1.41303        0.78551       -2.91115
| 20> *
| 21>
| 22> %MaxCore 64000
| 23>
| 24> %pal nprocs 8
| 25> end
| 26>
| 27> %scf
| 28>   MaxIter 150
| 29> end
| 30>
| 31>
| 32>                          ****END OF INPUT****

CARTESIAN COORDINATES (ANGSTROEM)
---------------------------------
  C      2.916320   -1.242590   -1.543130
  C      3.466590   -1.590970   -2.889080
  C      4.652270   -1.143160   -3.259690
  N      2.752260   -2.292040   -3.728030
  H      1.778360   -2.489600   -3.512740
  H      2.948610   -2.208540   -4.716810
  H      5.146720   -0.512510   -2.633850
  H      4.783030   -1.007200   -4.253500
  C      2.804080    0.290700   -1.359240
  C      2.388380    1.093670   -2.597110
  H      3.763420    0.674720   -0.999890
  H      2.094790    0.461220   -0.545760
  H      1.940470   -1.716530   -1.441160
  H      3.558570   -1.663430   -0.766370
  H      3.088940    0.919650   -3.386940
  H      2.373010    2.136330   -2.357280
  H      1.413030    0.785510   -2.911150

 Total Charge           Charge          ....    0
 Multiplicity           Mult            ....    1
 Number of Electrons    NEL             ....   48
 Basis Dimension        Dim             ....  208

ORBITAL ENERGIES
----------------

  NO   OCC          E(Eh)            E(eV)
   0   2.0000     -14.193337      -386.2203
   1   2.0000     -10.109124      -275.0832
   2   2.0000     -10.086702      -274.4731
   3   2.0000     -10.083589      -274.3884
   4   2.0000     -10.063822      -273.8505
   5   2.0000     -10.015737      -272.5421
   6   2.0000      -1.033409       -28.1205
   7   2.0000      -0.899624       -24.4800
   8   2.0000      -0.830592       -22.6016
   9   2.0000      -0.793450       -21.5909
  10   2.0000      -0.712553       -19.3895
  11   2.0000      -0.664206       -18.0740
  12   2.0000      -0.623760       -16.9734
  13   2.0000      -0.589623       -16.0444
  14   2.0000      -0.564315       -15.3558
  15   2.0000      -0.540968       -14.7205
  16   2.0000      -0.504264       -13.7217
  17   2.0000      -0.490057       -13.3351
  18   2.0000      -0.469237       -12.7686
  19   2.0000      -0.465592       -12.6694
  20   2.0000      -0.436328       -11.8731
  21   2.0000      -0.424584       -11.5535
  22   2.0000      -0.422796       -11.5049
  23   2.0000      -0.286801        -7.8043
  24   0.0000       0.070169         1.9094
  25   0.0000       0.087851         2.3906
  26   0.0000       0.098609         2.6833
  27   0.0000       0.108565         2.9542
  28   0.0000       0.121603         3.3090

MULLIKEN ATOMIC CHARGES
-----------------------
   0 C :    0.677148
   1 C :   -0.582817
   2 C :    0.700932
   3 N :    0.333074
   4 H :   -0.078862
   5 H :   -0.113857
   6 H :   -0.211066
   7 H :   -0.450172
   8 C :   -0.251372
   9 C :    1.081719
  10 H :   -0.089630
  11 H :   -0.293767
  12 H :   -0.085960
  13 H :   -0.126313
  14 H :   -0.181344
  15 H :   -0.220950
  16 H :   -0.106766
Sum of atomic charges:   -0.0000000

LOEWDIN ATOMIC CHARGES
----------------------
   0 C :    0.006261
   1 C :   -0.285177
   2 C :    0.155987
   3 N :    0.188849
   4 H :    0.001467
   5 H :    0.009401
   6 H :   -0.072576
   7 H :   -0.079324
   8 C :   -0.068537
   9 C :    0.116993
  10 H :    0.020597
  11 H :    0.018346
  12 H :    0.014763
  13 H :    0.034336
  14 H :   -0.031717
  15 H :   -0.015192
  16 H :   -0.014476

  Mayer bond orders larger than 0.100000
B(  0-C ,  1-C ) :   1.2414 B(  0-C ,  8-C ) :   1.1678 B(  0-C , 11-H ) :   0.2048
B(  0-C , 12-H ) :   0.5441 B(  0-C , 13-H ) :   0.7074 B(  1-C ,  2-C ) :   2.1313
B(  1-C ,  3-N ) :   1.1493 B(  1-C ,  6-H ) :   0.1993 B(  1-C ,  7-H ) :   0.3138
B(  1-C ,  8-C ) :   0.1127 B(  1-C , 12-H ) :   0.3212 B(  1-C , 13-H ) :   0.2005
B(  2-C ,  3-N ) :   0.2395 B(  2-C ,  6-H ) :   0.5992 B(  2-C ,  7-H ) :   0.5899
B(  3-N ,  4-H ) :   1.0249 B(  3-N ,  5-H ) :   1.0329 B(  4-H ,  5-H ) :  -0.1334
B(  8-C ,  9-C ) :   1.2781 B(  8-C , 10-H ) :   0.8587 B(  8-C , 11-H ) :   0.8823
B(  8-C , 12-H ) :   0.1827 B(  8-C , 13-H ) :   0.1298 B(  8-C , 14-H ) :   0.3063
B(  8-C , 15-H ) :   0.2805 B(  8-C , 16-H ) :   0.2419 B(  9-C , 14-H ) :   0.7308
B(  9-C , 15-H ) :   0.6502 B(  9-C , 16-H ) :   0.6920 B( 14-H , 16-H ) :   0.1136

FINAL SINGLE POINT ENERGY      -250.968308293422

DIPOLE MOMENT
-------------
                                X             Y             Z
Electronic contribution:      0.58623      -3.81308      -0.93364
Nuclear contribution   :     -1.45921       3.88617       0.81775
                        -----------------------------------------
Total Dipole Moment    :     -0.87299       0.07309      -0.11590
                        -----------------------------------------
Magnitude (a.u.)       :      0.88367
Magnitude (Debye)      :      2.24612

Rotational constants in cm-1:     0.176264     0.082132     0.079980
Rotational constants in MHz :  5284.261828  2462.256672  2397.741351

                             ****ORCA TERMINATED NORMALLY****
TOTAL RUN TIME: 0 days 0 hours 0 minutes 16 seconds 845 msec
