                         Program Version 5.0.0 -  RELEASE  -
|  1> !LC-BLYP RIJCOSX def2-SVPD def2/J TightSCF
|  2> *xyz 0 1
|  3> C          0.70466        1.44313       -4.50363
|  4> C          1.72854        1.42432       -5.63944
|  5> H          2.64672        1.95379       -5.38105
|  6> H          1.29992        1.93061       -6.50361
|  7> S          2.25263       -0.18811       -6.27184
|  8> O          3.56261       -0.44446       -5.63155
|  9> F          2.34494       -0.03374       -7.69650
| 10> C          1.05255        0.69566       -3.21491
| 11> H         -0.23248        1.03293       -4.88445
| 12> H          0.51170        2.49579       -4.26797
| 13> O          1.26606       -1.15918       -5.80536
| 14> H          1.24200       -0.33323       -3.43942
| 15> H          0.23391        0.76629       -2.52954
| 16> H          1.92506        1.13113       -2.77446
| 17> *
| 18>
| 19> %MaxCore 64000
| 20>
| 21> %pal nprocs 8
| 22> end
| 23>
| 24> %scf
| 25>   MaxIter 150
| 26> end
| 27>
| 28>
| 29>                          ****END OF INPUT****

CARTESIAN COORDINATES (ANGSTROEM)
---------------------------------
  C      0.704660    1.443130   -4.503630
  C      1.728540    1.424320   -5.639440
  H      2.646720    1.953790   -5.381050
  H      1.299920    1.930610   -6.503610
  S      2.252630   -0.188110   -6.271840
  O      3.562610   -0.444460   -5.631550
  F      2.344940   -0.033740   -7.696500
  C      1.052550    0.695660   -3.214910
  H     -0.232480    1.032930   -4.884450
  H      0.511700    2.495790   -4.267970
  O      1.266060   -1.159180   -5.805360
  H      1.242000   -0.333230   -3.439420
  H      0.233910    0.766290   -2.529540
  H      1.925060    1.131130   -2.774460

 Total Charge           Charge          ....    0
 Multiplicity           Mult            ....    1
 Number of Electrons    NEL             ....   66
 Basis Dimension        Dim             ....  212

ORBITAL ENERGIES
----------------

  NO   OCC          E(Eh)            E(eV)
   0   2.0000     -88.567782     -2410.0519
   1   2.0000     -24.599006      -669.3730
   2   2.0000     -18.968988      -516.1724
   3   2.0000     -18.960255      -515.9348
   4   2.0000     -10.150593      -276.2117
   5   2.0000     -10.116272      -275.2778
   6   2.0000     -10.078017      -274.2368
   7   2.0000      -8.117460      -220.8873
   8   2.0000      -6.156311      -167.5217
   9   2.0000      -6.149410      -167.3339
  10   2.0000      -6.147962      -167.2945
  11   2.0000      -1.467266       -39.9263
  12   2.0000      -1.201319       -32.6896
  13   2.0000      -1.094690       -29.7880
  14   2.0000      -0.939031       -25.5523
  15   2.0000      -0.865687       -23.5566
  16   2.0000      -0.816929       -22.2298
  17   2.0000      -0.747481       -20.3400
  18   2.0000      -0.699378       -19.0311
  19   2.0000      -0.689522       -18.7629
  20   2.0000      -0.659093       -17.9348
  21   2.0000      -0.601258       -16.3611
  22   2.0000      -0.592406       -16.1202
  23   2.0000      -0.564743       -15.3674
  24   2.0000      -0.550095       -14.9688
  25   2.0000      -0.527039       -14.3415
  26   2.0000      -0.494788       -13.4639
  27   2.0000      -0.478778       -13.0282
  28   2.0000      -0.472288       -12.8516
  29   2.0000      -0.455860       -12.4046
  30   2.0000      -0.430673       -11.7192
  31   2.0000      -0.420508       -11.4426
  32   2.0000      -0.404656       -11.0113
  33   0.0000       0.045369         1.2346
  34   0.0000       0.069159         1.8819
  35   0.0000       0.077160         2.0996
  36   0.0000       0.082649         2.2490
  37   0.0000       0.102154         2.7797

MULLIKEN ATOMIC CHARGES
-----------------------
   0 C :   -0.104946
   1 C :    0.178535
   2 H :   -0.064387
   3 H :   -0.050069
   4 S :    1.280667
   5 O :   -0.594036
   6 F :   -0.361443
   7 C :    1.067897
   8 H :   -0.072843
   9 H :   -0.204090
  10 O :   -0.620666
  11 H :   -0.252889
  12 H :   -0.104425
  13 H :   -0.097306
Sum of atomic charges:    0.0000000

LOEWDIN ATOMIC CHARGES
----------------------
   0 C :   -0.080638
   1 C :   -0.057783
   2 H :    0.031120
   3 H :    0.018081
   4 S :    1.076977
   5 O :   -0.467633
   6 F :   -0.237767
   7 C :    0.134030
   8 H :    0.033361
   9 H :    0.037224
  10 O :   -0.453537
  11 H :   -0.022123
  12 H :   -0.006397
  13 H :   -0.004915

  Mayer bond orders larger than 0.100000
B(  0-C ,  1-C ) :   1.3074 B(  0-C ,  2-H ) :   0.1340 B(  0-C ,  3-H ) :   0.1743
B(  0-C ,  7-C ) :   1.2841 B(  0-C ,  8-H ) :   0.8493 B(  0-C ,  9-H ) :   0.8164
B(  0-C , 11-H ) :   0.2377 B(  0-C , 12-H ) :   0.2601 B(  0-C , 13-H ) :   0.2461
B(  1-C ,  2-H ) :   0.9021 B(  1-C ,  3-H ) :   0.8143 B(  1-C ,  4-S ) :   0.9199
B(  1-C ,  8-H ) :   0.1557 B(  1-C ,  9-H ) :   0.1810 B(  4-S ,  5-O ) :   1.5201
B(  4-S ,  6-F ) :   0.7776 B(  4-S , 10-O ) :   1.5192 B(  7-C , 11-H ) :   0.7403
B(  7-C , 12-H ) :   0.6605 B(  7-C , 13-H ) :   0.7010

FINAL SINGLE POINT ENERGY      -765.576387122923

DIPOLE MOMENT
-------------
                                X             Y             Z
Electronic contribution:      5.24250      -5.95347     -11.78614
Nuclear contribution   :     -5.90419       7.56246      11.43606
                        -----------------------------------------
Total Dipole Moment    :     -0.66169       1.60899      -0.35008
                        -----------------------------------------
Magnitude (a.u.)       :      1.77461
Magnitude (Debye)      :      4.51069

Rotational constants in cm-1:     0.133686     0.052402     0.049175
Rotational constants in MHz :  4007.807944  1570.986792  1474.216272

                             ****ORCA TERMINATED NORMALLY****
TOTAL RUN TIME: 0 days 0 hours 0 minutes 16 seconds 441 msec
