                         Program Version 5.0.0 -  RELEASE  -
|  1> !LC-BLYP RIJCOSX def2-SVPD def2/J TightSCF
|  2> *xyz 0 1
|  3> C          2.91632       -1.24259       -1.54313
|  4> C          3.46659       -1.59097       -2.88908
|  5> N          4.65227       -1.14316       -3.25969
|  6> C          2.75226       -2.29204       -3.72803
|  7> H          1.77836       -2.48960       -3.51274
|  8> H          2.94861       -2.20854       -4.71681
|  9> H          5.14672       -0.51251       -2.63385
| 10> H          4.78303       -1.00720       -4.25350
| 11> C          2.80408        0.29070       -1.35924
| 12> C          2.38838        1.09367       -2.59711
| 13> H          3.76342        0.67472       -0.99989
| 14> H          2.09479        0.46122       -0.54576
| 15> H          1.94047       -1.71653       -1.44116
| 16> H          3.55857       -1.66343       -0.76637
| 17> H          3.08894        0.91965       -3.38694
| 18> H          2.37301        2.13633       -2.35728
| 19> H          1.41303        0.78551       -2.91115
| 20> *
| 21>
| 22> %MaxCore 64000
| 23>
| 24> %pal nprocs 8
| 25> end
| 26>
| 27> %scf
| 28>   MaxIter 150
| 29> end
| 30>
| 31>
| 32>                          ****END OF INPUT****

CARTESIAN COORDINATES (ANGSTROEM)
---------------------------------
  C      2.916320   -1.242590   -1.543130
  C      3.466590   -1.590970   -2.889080
  N      4.652270   -1.143160   -3.259690
  C      2.752260   -2.292040   -3.728030
  H      1.778360   -2.489600   -3.512740
  H      2.948610   -2.208540   -4.716810
  H      5.146720   -0.512510   -2.633850
  H      4.783030   -1.007200   -4.253500
  C      2.804080    0.290700   -1.359240
  C      2.388380    1.093670   -2.597110
  H      3.763420    0.674720   -0.999890
  H      2.094790    0.461220   -0.545760
  H      1.940470   -1.716530   -1.441160
  H      3.558570   -1.663430   -0.766370
  H      3.088940    0.919650   -3.386940
  H      2.373010    2.136330   -2.357280
  H      1.413030    0.785510   -2.911150

 Total Charge           Charge          ....    0
 Multiplicity           Mult            ....    1
 Number of Electrons    NEL             ....   48
 Basis Dimension        Dim             ....  208

ORBITAL ENERGIES
----------------

  NO   OCC          E(Eh)            E(eV)
   0   2.0000     -14.189439      -386.1143
   1   2.0000     -10.107511      -275.0394
   2   2.0000     -10.087785      -274.5026
   3   2.0000     -10.084614      -274.4163
   4   2.0000     -10.068427      -273.9758
   5   2.0000     -10.020064      -272.6598
   6   2.0000      -1.029096       -28.0031
   7   2.0000      -0.897157       -24.4129
   8   2.0000      -0.840945       -22.8833
   9   2.0000      -0.791364       -21.5341
  10   2.0000      -0.706284       -19.2190
  11   2.0000      -0.666755       -18.1433
  12   2.0000      -0.630705       -17.1623
  13   2.0000      -0.574512       -15.6333
  14   2.0000      -0.566378       -15.4119
  15   2.0000      -0.558713       -15.2034
  16   2.0000      -0.497375       -13.5343
  17   2.0000      -0.492759       -13.4086
  18   2.0000      -0.476538       -12.9673
  19   2.0000      -0.467478       -12.7207
  20   2.0000      -0.434094       -11.8123
  21   2.0000      -0.429014       -11.6741
  22   2.0000      -0.417205       -11.3527
  23   2.0000      -0.294620        -8.0170
  24   0.0000       0.066713         1.8153
  25   0.0000       0.087962         2.3936
  26   0.0000       0.104403         2.8410
  27   0.0000       0.105442         2.8692
  28   0.0000       0.121817         3.3148

MULLIKEN ATOMIC CHARGES
-----------------------
   0 C :    0.514774
   1 C :   -0.596914
   2 N :    0.409162
   3 C :    0.476434
   4 H :   -0.121225
   5 H :   -0.498177
   6 H :   -0.046337
   7 H :   -0.072407
   8 C :   -0.220540
   9 C :    1.076038
  10 H :   -0.091663
  11 H :   -0.280862
  12 H :    0.096508
  13 H :   -0.143729
  14 H :   -0.208417
  15 H :   -0.140798
  16 H :   -0.151849
Sum of atomic charges:   -0.0000000

LOEWDIN ATOMIC CHARGES
----------------------
   0 C :    0.003806
   1 C :   -0.294203
   2 N :    0.188325
   3 C :    0.168882
   4 H :   -0.074928
   5 H :   -0.078086
   6 H :    0.003622
   7 H :    0.008725
   8 C :   -0.072024
   9 C :    0.115637
  10 H :    0.013663
  11 H :    0.020140
  12 H :    0.026117
  13 H :    0.028586
  14 H :   -0.033682
  15 H :   -0.014919
  16 H :   -0.009660

  Mayer bond orders larger than 0.100000
B(  0-C ,  1-C ) :   1.4091 B(  0-C ,  3-C ) :   0.1068 B(  0-C ,  8-C ) :   1.1459
B(  0-C , 10-H ) :   0.1375 B(  0-C , 11-H ) :   0.1868 B(  0-C , 12-H ) :   0.7454
B(  0-C , 13-H ) :   0.6409 B(  1-C ,  2-N ) :   1.1329 B(  1-C ,  3-C ) :   2.0495
B(  1-C ,  5-H ) :   0.3843 B(  1-C ,  6-H ) :   0.1084 B(  1-C ,  8-C ) :   0.1712
B(  1-C , 12-H ) :   0.1298 B(  1-C , 13-H ) :   0.2969 B(  2-N ,  3-C ) :   0.3371
B(  2-N ,  6-H ) :   0.9423 B(  2-N ,  7-H ) :   0.9432 B(  3-C ,  4-H ) :   0.8229
B(  3-C ,  5-H ) :   0.5369 B(  4-H ,  5-H ) :   0.1138 B(  6-H ,  7-H ) :  -0.1238
B(  8-C ,  9-C ) :   1.2933 B(  8-C , 10-H ) :   0.8400 B(  8-C , 11-H ) :   0.9032
B(  8-C , 12-H ) :   0.1895 B(  8-C , 13-H ) :   0.1032 B(  8-C , 14-H ) :   0.2763
B(  8-C , 15-H ) :   0.2671 B(  8-C , 16-H ) :   0.2275 B(  9-C , 14-H ) :   0.7401
B(  9-C , 15-H ) :   0.6356 B(  9-C , 16-H ) :   0.7071 B( 14-H , 16-H ) :   0.1314

FINAL SINGLE POINT ENERGY      -250.972454942625

DIPOLE MOMENT
-------------
                                X             Y             Z
Electronic contribution:      2.18444      -2.82983      -0.53901
Nuclear contribution   :     -1.90863       3.61442       0.70697
                        -----------------------------------------
Total Dipole Moment    :      0.27581       0.78458       0.16795
                        -----------------------------------------
Magnitude (a.u.)       :      0.84844
Magnitude (Debye)      :      2.15657

Rotational constants in cm-1:     0.173428     0.083686     0.080523
Rotational constants in MHz :  5199.232598  2508.829970  2414.016775

                             ****ORCA TERMINATED NORMALLY****
TOTAL RUN TIME: 0 days 0 hours 0 minutes 16 seconds 897 msec
