                         Program Version 5.0.0 -  RELEASE  -
|  1> !LC-BLYP RIJCOSX def2-SVPD def2/J TightSCF
|  2> *xyz 0 1
|  3> C          0.70466        1.44313       -4.50363
|  4> C          1.72854        1.42432       -5.63944
|  5> H          2.64672        1.95379       -5.38105
|  6> H          1.29992        1.93061       -6.50361
|  7> S          2.25263       -0.18811       -6.27184
|  8> O          3.56261       -0.44446       -5.63155
|  9> O          2.34494       -0.03374       -7.69650
| 10> C          1.05255        0.69566       -3.21491
| 11> H         -0.23248        1.03293       -4.88445
| 12> H          0.51170        2.49579       -4.26797
| 13> F          1.26606       -1.15918       -5.80536
| 14> H          1.24200       -0.33323       -3.43942
| 15> H          0.23391        0.76629       -2.52954
| 16> H          1.92506        1.13113       -2.77446
| 17> *
| 18>
| 19> %MaxCore 64000
| 20>
| 21> %pal nprocs 8
| 22> end
| 23>
| 24> %scf
| 25>   MaxIter 150
| 26> end
| 27>
| 28>
| 29>                          ****END OF INPUT****

CARTESIAN COORDINATES (ANGSTROEM)
---------------------------------
  C      0.704660    1.443130   -4.503630
  C      1.728540    1.424320   -5.639440
  H      2.646720    1.953790   -5.381050
  H      1.299920    1.930610   -6.503610
  S      2.252630   -0.188110   -6.271840
  O      3.562610   -0.444460   -5.631550
  O      2.344940   -0.033740   -7.696500
  C      1.052550    0.695660   -3.214910
  H     -0.232480    1.032930   -4.884450
  H      0.511700    2.495790   -4.267970
  F      1.266060   -1.159180   -5.805360
  H      1.242000   -0.333230   -3.439420
  H      0.233910    0.766290   -2.529540
  H      1.925060    1.131130   -2.774460

 Total Charge           Charge          ....    0
 Multiplicity           Mult            ....    1
 Number of Electrons    NEL             ....   66
 Basis Dimension        Dim             ....  212

ORBITAL ENERGIES
----------------

  NO   OCC          E(Eh)            E(eV)
   0   2.0000     -88.565748     -2409.9965
   1   2.0000     -24.586959      -669.0452
   2   2.0000     -18.975164      -516.3405
   3   2.0000     -18.958784      -515.8947
   4   2.0000     -10.149118      -276.1716
   5   2.0000     -10.123394      -275.4716
   6   2.0000     -10.092860      -274.6407
   7   2.0000      -8.115347      -220.8298
   8   2.0000      -6.154258      -167.4659
   9   2.0000      -6.147354      -167.2780
  10   2.0000      -6.145883      -167.2380
  11   2.0000      -1.446199       -39.3531
  12   2.0000      -1.209476       -32.9115
  13   2.0000      -1.101959       -29.9858
  14   2.0000      -0.944502       -25.7012
  15   2.0000      -0.862395       -23.4670
  16   2.0000      -0.814669       -22.1683
  17   2.0000      -0.750972       -20.4350
  18   2.0000      -0.696123       -18.9425
  19   2.0000      -0.684452       -18.6249
  20   2.0000      -0.646979       -17.6052
  21   2.0000      -0.604098       -16.4383
  22   2.0000      -0.587455       -15.9855
  23   2.0000      -0.574593       -15.6355
  24   2.0000      -0.553495       -15.0614
  25   2.0000      -0.539064       -14.6687
  26   2.0000      -0.500963       -13.6319
  27   2.0000      -0.489948       -13.3322
  28   2.0000      -0.483592       -13.1592
  29   2.0000      -0.466499       -12.6941
  30   2.0000      -0.433794       -11.8041
  31   2.0000      -0.421183       -11.4610
  32   2.0000      -0.409800       -11.1512
  33   0.0000       0.044880         1.2213
  34   0.0000       0.072618         1.9760
  35   0.0000       0.078373         2.1326
  36   0.0000       0.079223         2.1558
  37   0.0000       0.101329         2.7573

MULLIKEN ATOMIC CHARGES
-----------------------
   0 C :   -0.088405
   1 C :    0.203640
   2 H :   -0.070383
   3 H :   -0.048334
   4 S :    1.216220
   5 O :   -0.597569
   6 O :   -0.564046
   7 C :    1.075494
   8 H :   -0.103144
   9 H :   -0.192633
  10 F :   -0.369740
  11 H :   -0.267656
  12 H :   -0.098298
  13 H :   -0.095147
Sum of atomic charges:   -0.0000000

LOEWDIN ATOMIC CHARGES
----------------------
   0 C :   -0.091962
   1 C :   -0.047432
   2 H :    0.038892
   3 H :    0.024785
   4 S :    1.068041
   5 O :   -0.469279
   6 O :   -0.441301
   7 C :    0.130100
   8 H :    0.030055
   9 H :    0.037140
  10 F :   -0.247924
  11 H :   -0.024363
  12 H :   -0.005401
  13 H :   -0.001351

  Mayer bond orders larger than 0.100000
B(  0-C ,  1-C ) :   1.2662 B(  0-C ,  2-H ) :   0.1395 B(  0-C ,  3-H ) :   0.1639
B(  0-C ,  7-C ) :   1.2869 B(  0-C ,  8-H ) :   0.8568 B(  0-C ,  9-H ) :   0.8136
B(  0-C , 11-H ) :   0.2370 B(  0-C , 12-H ) :   0.2594 B(  0-C , 13-H ) :   0.2487
B(  1-C ,  2-H ) :   0.8847 B(  1-C ,  3-H ) :   0.8586 B(  1-C ,  4-S ) :   0.9478
B(  1-C ,  8-H ) :   0.1486 B(  1-C ,  9-H ) :   0.1800 B(  4-S ,  5-O ) :   1.5333
B(  4-S ,  6-O ) :   1.6314 B(  4-S , 10-F ) :   0.7233 B(  7-C , 11-H ) :   0.7267
B(  7-C , 12-H ) :   0.6610 B(  7-C , 13-H ) :   0.7033 B( 11-H , 13-H ) :   0.1037

FINAL SINGLE POINT ENERGY      -765.585840383396

DIPOLE MOMENT
-------------
                                X             Y             Z
Electronic contribution:      3.37003      -7.82804      -8.46096
Nuclear contribution   :     -4.74391       8.77281       9.40225
                        -----------------------------------------
Total Dipole Moment    :     -1.37389       0.94476       0.94129
                        -----------------------------------------
Magnitude (a.u.)       :      1.91473
Magnitude (Debye)      :      4.86685

Rotational constants in cm-1:     0.129476     0.053470     0.050698
Rotational constants in MHz :  3881.594668  1602.990831  1519.898630

                             ****ORCA TERMINATED NORMALLY****
TOTAL RUN TIME: 0 days 0 hours 0 minutes 16 seconds 465 msec
