                         Program Version 5.0.0 -  RELEASE  -
|  1> !PBE D3BJ RIJCOSX def2-TZVP def2/J TightSCF
|  2> *xyz -1 1
|  3> C         -0.77455        2.78833       -0.54394
|  4> C          0.69721        3.22791       -0.52513
|  5> O          1.48929        2.37470        0.19919
|  6> H          0.71600        4.26403       -0.13077
|  7> H          1.03615        3.33092       -1.58367
|  8> H         -1.34746        3.48478       -1.11982
|  9> H         -1.15078        2.75876        0.45729
| 10> H         -0.85058        1.81526       -0.98241
| 11> *
| 12>
| 13> %MaxCore 64000
| 14> %pal nprocs 4
| 15> end
| 16>
| 17> %scf
| 18>   MaxIter 150
| 19> end
| 20>
| 21>
| 22>                          ****END OF INPUT****

CARTESIAN COORDINATES (ANGSTROEM)
---------------------------------
  C     -0.774550    2.788330   -0.543940
  C      0.697210    3.227910   -0.525130
  O      1.489290    2.374700    0.199190
  H      0.716000    4.264030   -0.130770
  H      1.036150    3.330920   -1.583670
  H     -1.347460    3.484780   -1.119820
  H     -1.150780    2.758760    0.457290
  H     -0.850580    1.815260   -0.982410

 Total Charge           Charge          ....   -1
 Multiplicity           Mult            ....    1
 Number of Electrons    NEL             ....   26
 Basis Dimension        Dim             ....  123

ORBITAL ENERGIES
----------------

  NO   OCC          E(Eh)            E(eV)
   0   2.0000     -18.404201      -500.8038
   1   2.0000      -9.683957      -263.5139
   2   2.0000      -9.662761      -262.9371
   3   2.0000      -0.586415       -15.9572
   4   2.0000      -0.448590       -12.2068
   5   2.0000      -0.304804        -8.2941
   6   2.0000      -0.193980        -5.2785
   7   2.0000      -0.173298        -4.7157
   8   2.0000      -0.122226        -3.3259
   9   2.0000      -0.103544        -2.8176
  10   2.0000      -0.058486        -1.5915
  11   2.0000       0.082651         2.2491
  12   2.0000       0.086086         2.3425
  13   0.0000       0.199501         5.4287
  14   0.0000       0.234019         6.3680
  15   0.0000       0.257933         7.0187
  16   0.0000       0.260984         7.1017
  17   0.0000       0.293823         7.9953

MULLIKEN ATOMIC CHARGES
-----------------------
   0 C :   -0.086611
   1 C :   -0.006839
   2 O :   -0.708156
   3 H :   -0.074908
   4 H :   -0.077648
   5 H :   -0.064118
   6 H :    0.009836
   7 H :    0.008444
Sum of atomic charges:   -1.0000000

LOEWDIN ATOMIC CHARGES
----------------------
   0 C :   -0.373544
   1 C :   -0.567561
   2 O :   -0.388869
   3 H :    0.049242
   4 H :    0.048252
   5 H :    0.065847
   6 H :    0.083585
   7 H :    0.083048

  Mayer bond orders larger than 0.100000
B(  0-C ,  1-C ) :   0.8801 B(  0-C ,  2-O ) :  -0.3542 B(  0-C ,  5-H ) :   0.8817
B(  0-C ,  6-H ) :   0.9492 B(  0-C ,  7-H ) :   0.9480 B(  1-C ,  2-O ) :   1.6931
B(  1-C ,  3-H ) :   0.8984 B(  1-C ,  4-H ) :   0.8978 B(  2-O ,  5-H ) :   0.1517

Dispersion correction           -0.003763028
FINAL SINGLE POINT ENERGY      -154.290205630532

DIPOLE MOMENT
-------------
                                X             Y             Z
Electronic contribution:      2.67052      -1.23033       1.36356
Nuclear contribution   :     -3.69910       1.55962      -1.78699
                        -----------------------------------------
Total Dipole Moment    :     -1.02858       0.32930      -0.42343
                        -----------------------------------------
Magnitude (a.u.)       :      1.16004
Magnitude (Debye)      :      2.94860

Rotational constants in cm-1:     1.268893     0.327436     0.287754
Rotational constants in MHz : 38040.440181  9816.269339  8626.646564

                             ****ORCA TERMINATED NORMALLY****
TOTAL RUN TIME: 0 days 0 hours 0 minutes 7 seconds 838 msec
