                         Program Version 5.0.0 -  RELEASE  -
|  1> !PBE D3BJ RIJCOSX def2-TZVP def2/J TightSCF
|  2> *xyz 1 1
|  3> C          3.95643        0.50147       -0.37910
|  4> H          3.16840        0.02920        0.20738
|  5> N          3.80389        1.96157       -0.15675
|  6> C          3.84232        0.14849       -1.85406
|  7> H          4.92323        0.17798        0.00937
|  8> H          4.20643        2.24441        0.74536
|  9> H          2.80827        2.21132       -0.09610
| 10> H          4.28076        2.50155       -0.89104
| 11> H          4.62951        0.62800       -2.39748
| 12> H          2.89665        0.48102       -2.22825
| 13> H          3.92053       -0.91187       -1.97413
| 14> *
| 15>
| 16> %MaxCore 64000
| 17> %pal nprocs 4
| 18> end
| 19>
| 20> %scf
| 21>   MaxIter 150
| 22> end
| 23>
| 24>
| 25>                          ****END OF INPUT****

CARTESIAN COORDINATES (ANGSTROEM)
---------------------------------
  C      3.956430    0.501470   -0.379100
  H      3.168400    0.029200    0.207380
  N      3.803890    1.961570   -0.156750
  C      3.842320    0.148490   -1.854060
  H      4.923230    0.177980    0.009370
  H      4.206430    2.244410    0.745360
  H      2.808270    2.211320   -0.096100
  H      4.280760    2.501550   -0.891040
  H      4.629510    0.628000   -2.397480
  H      2.896650    0.481020   -2.228250
  H      3.920530   -0.911870   -1.974130

 Total Charge           Charge          ....    1
 Multiplicity           Mult            ....    1
 Number of Electrons    NEL             ....   26
 Basis Dimension        Dim             ....  141

ORBITAL ENERGIES
----------------

  NO   OCC          E(Eh)            E(eV)
   0   2.0000     -14.318347      -389.6220
   1   2.0000     -10.134010      -275.7604
   2   2.0000     -10.055424      -273.6220
   3   2.0000      -1.138533       -30.9810
   4   2.0000      -0.898233       -24.4422
   5   2.0000      -0.785537       -21.3755
   6   2.0000      -0.752289       -20.4708
   7   2.0000      -0.734752       -19.9936
   8   2.0000      -0.650919       -17.7124
   9   2.0000      -0.596148       -16.2220
  10   2.0000      -0.540306       -14.7025
  11   2.0000      -0.526274       -14.3206
  12   2.0000      -0.508304       -13.8316
  13   0.0000      -0.219425        -5.9709
  14   0.0000      -0.163635        -4.4527
  15   0.0000      -0.156900        -4.2695
  16   0.0000      -0.136666        -3.7189
  17   0.0000      -0.097272        -2.6469

MULLIKEN ATOMIC CHARGES
-----------------------
   0 C :   -0.208538
   1 H :    0.187483
   2 N :   -0.257719
   3 C :   -0.360515
   4 H :    0.189790
   5 H :    0.323682
   6 H :    0.323687
   7 H :    0.317740
   8 H :    0.153923
   9 H :    0.149042
  10 H :    0.181424
Sum of atomic charges:    1.0000000

LOEWDIN ATOMIC CHARGES
----------------------
   0 C :   -0.287044
   1 H :    0.154000
   2 N :    0.176831
   3 C :   -0.280412
   4 H :    0.155067
   5 H :    0.221725
   6 H :    0.223476
   7 H :    0.220763
   8 H :    0.132777
   9 H :    0.132371
  10 H :    0.150446

  Mayer bond orders larger than 0.100000
B(  0-C ,  1-H ) :   0.9444 B(  0-C ,  2-N ) :   0.8855 B(  0-C ,  3-C ) :   1.0228
B(  0-C ,  4-H ) :   0.9425 B(  2-N ,  5-H ) :   0.8795 B(  2-N ,  6-H ) :   0.8795
B(  2-N ,  7-H ) :   0.8732 B(  3-C ,  8-H ) :   0.9531 B(  3-C ,  9-H ) :   0.9545
B(  3-C , 10-H ) :   0.9500

Dispersion correction           -0.006160709
FINAL SINGLE POINT ENERGY      -135.399193380965

DIPOLE MOMENT
-------------
                                X             Y             Z
Electronic contribution:     -0.01259       1.33062       1.24388
Nuclear contribution   :     -0.06214      -0.04120      -0.39947
                        -----------------------------------------
Total Dipole Moment    :     -0.07473       1.28942       0.84441
                        -----------------------------------------
Magnitude (a.u.)       :      1.54312
Magnitude (Debye)      :      3.92230

Rotational constants in cm-1:     1.011771     0.281435     0.249812
Rotational constants in MHz : 30332.138762  8437.210602  7489.166323

                             ****ORCA TERMINATED NORMALLY****
TOTAL RUN TIME: 0 days 0 hours 0 minutes 8 seconds 99 msec
