                         Program Version 5.0.0 -  RELEASE  -
|  1> !PBE D3BJ RIJCOSX def2-TZVP def2/J TightSCF xyzfile
|  2>
|  3> *xyzfile 0 1 B.xyz
|  4>
|  5> %MaxCore 64000
|  6>
|  7> %pal nprocs 18
|  8> end
|  9>
| 10> %scf
| 11>   MaxIter 150
| 12> end
| 13>
| 14>
| 15>                          ****END OF INPUT****

CARTESIAN COORDINATES (ANGSTROEM)
---------------------------------
  C      3.956426    0.501466   -0.379100
  H      3.168398    0.029201    0.207383
  N      3.803893    1.961572   -0.156747
  C      3.842322    0.148490   -1.854058
  H      4.923231    0.177982    0.009371
  H      4.620021    0.694502   -2.402150
  H      4.096015   -0.910930   -1.955103
  C      2.475619    0.412708   -2.485377
  H      2.174689    1.445076   -2.287971
  C      1.383931   -0.532740   -1.995203
  H      2.575613    0.318574   -3.571460
  H      1.264698   -0.412309   -0.915491
  H      1.705223   -1.566885   -2.164984
  C      0.031398   -0.317260   -2.677791
  C     -0.587292    1.060853   -2.436460
  H     -0.662815   -1.089530   -2.329985
  H      0.149465   -0.478040   -3.755648
  H      0.104376    1.828590   -2.793130
  C     -0.951213    1.334978   -0.972500
  H     -1.478832    1.161355   -3.062484
  H     -0.317007    0.741648   -0.311389
  H     -1.980916    1.012842   -0.788958
  C     -0.774550    2.788332   -0.543943
  H     -1.352609    3.459372   -1.192585
  H     -1.171014    2.902331    0.469968
  C      0.697208    3.227911   -0.525126
  O      1.489294    2.374703    0.199189
  H      0.715998    4.264030   -0.130774
  H      1.036148    3.330920   -1.583669
  H      4.206425    2.244406    0.745359
  H      2.808269    2.211323   -0.096097
  H      4.280757    2.501552   -0.891037

 Total Charge           Charge          ....    0
 Multiplicity           Mult            ....    1
 Number of Electrons    NEL             ....   90
 Basis Dimension        Dim             ....  467

ORBITAL ENERGIES
----------------

  NO   OCC          E(Eh)            E(eV)
   0   2.0000     -18.622385      -506.7409
   1   2.0000     -14.064180      -382.7058
   2   2.0000      -9.947002      -270.6717
   3   2.0000      -9.904769      -269.5225
   4   2.0000      -9.878845      -268.8171
   5   2.0000      -9.866734      -268.4875
   6   2.0000      -9.861423      -268.3430
   7   2.0000      -9.861026      -268.3321
   8   2.0000      -9.848373      -267.9878
   9   2.0000      -9.835722      -267.6436
  10   2.0000      -9.828408      -267.4446
  11   2.0000      -0.910109       -24.7653
  12   2.0000      -0.807010       -21.9599
  13   2.0000      -0.744370       -20.2553
  14   2.0000      -0.706474       -19.2241
  15   2.0000      -0.670337       -18.2408
  16   2.0000      -0.631538       -17.1850
  17   2.0000      -0.595853       -16.2140
  18   2.0000      -0.560527       -15.2527
  19   2.0000      -0.533662       -14.5217
  20   2.0000      -0.519935       -14.1482
  21   2.0000      -0.512499       -13.9458
  22   2.0000      -0.489425       -13.3179
  23   2.0000      -0.454772       -12.3750
  24   2.0000      -0.444210       -12.0876
  25   2.0000      -0.418138       -11.3781
  26   2.0000      -0.417810       -11.3692
  27   2.0000      -0.388580       -10.5738
  28   2.0000      -0.376703       -10.2506
  29   2.0000      -0.371002       -10.0955
  30   2.0000      -0.355531        -9.6745
  31   2.0000      -0.345395        -9.3987
  32   2.0000      -0.337161        -9.1746
  33   2.0000      -0.320775        -8.7287
  34   2.0000      -0.311864        -8.4862
  35   2.0000      -0.300813        -8.1855
  36   2.0000      -0.291885        -7.9426
  37   2.0000      -0.283246        -7.7075
  38   2.0000      -0.274206        -7.4615
  39   2.0000      -0.268118        -7.2959
  40   2.0000      -0.248358        -6.7582
  41   2.0000      -0.243652        -6.6301
  42   2.0000      -0.239869        -6.5272
  43   2.0000      -0.140190        -3.8148
  44   2.0000      -0.130311        -3.5459
  45   0.0000      -0.030401        -0.8272
  46   0.0000       0.010354         0.2817
  47   0.0000       0.017407         0.4737
  48   0.0000       0.032373         0.8809
  49   0.0000       0.042249         1.1497

MULLIKEN ATOMIC CHARGES
-----------------------
   0 C :   -0.172781
   1 H :    0.154739
   2 N :   -0.236307
   3 C :   -0.191458
   4 H :    0.129102
   5 H :    0.110624
   6 H :    0.103404
   7 C :   -0.194234
   8 H :    0.100231
   9 C :   -0.200204
  10 H :    0.086732
  11 H :    0.103732
  12 H :    0.077225
  13 C :   -0.117861
  14 C :   -0.217091
  15 H :    0.081451
  16 H :    0.076394
  17 H :    0.091286
  18 C :   -0.124672
  19 H :    0.080687
  20 H :    0.075067
  21 H :    0.072840
  22 C :   -0.077102
  23 H :    0.046042
  24 H :    0.059647
  25 C :   -0.044442
  26 O :   -0.652519
  27 H :    0.031454
  28 H :    0.003982
  29 H :    0.254833
  30 H :    0.246438
  31 H :    0.242759
Sum of atomic charges:    0.0000000

LOEWDIN ATOMIC CHARGES
----------------------
   0 C :   -0.286142
   1 H :    0.147416
   2 N :    0.145219
   3 C :   -0.278186
   4 H :    0.130483
   5 H :    0.137135
   6 H :    0.148529
   7 C :   -0.271023
   8 H :    0.142885
   9 C :   -0.274296
  10 H :    0.139149
  11 H :    0.137398
  12 H :    0.133424
  13 C :   -0.272674
  14 C :   -0.269456
  15 H :    0.137472
  16 H :    0.133231
  17 H :    0.132443
  18 C :   -0.277587
  19 H :    0.132629
  20 H :    0.137581
  21 H :    0.128640
  22 C :   -0.288041
  23 H :    0.126032
  24 H :    0.130867
  25 C :   -0.486849
  26 O :   -0.244525
  27 H :    0.095849
  28 H :    0.080525
  29 H :    0.190180
  30 H :    0.077447
  31 H :    0.184247

  Mayer bond orders larger than 0.100000
B(  0-C ,  1-H ) :   0.9592 B(  0-C ,  2-N ) :   0.9078 B(  0-C ,  3-C ) :   1.0232
B(  0-C ,  4-H ) :   0.9486 B(  2-N , 29-H ) :   0.9086 B(  2-N , 30-H ) :   0.6506
B(  2-N , 31-H ) :   0.9016 B(  3-C ,  5-H ) :   0.9592 B(  3-C ,  6-H ) :   0.9426
B(  3-C ,  7-C ) :   0.9877 B(  7-C ,  8-H ) :   0.9629 B(  7-C ,  9-C ) :   0.9992
B(  7-C , 10-H ) :   0.9410 B(  9-C , 11-H ) :   0.9558 B(  9-C , 12-H ) :   0.9370
B(  9-C , 13-C ) :   1.0321 B( 13-C , 14-C ) :   0.9941 B( 13-C , 15-H ) :   0.9422
B( 13-C , 16-H ) :   0.9478 B( 14-C , 17-H ) :   0.9744 B( 14-C , 18-C ) :   0.9925
B( 14-C , 19-H ) :   0.9412 B( 18-C , 20-H ) :   0.9448 B( 18-C , 21-H ) :   0.9441
B( 18-C , 22-C ) :   1.0234 B( 22-C , 23-H ) :   0.9327 B( 22-C , 24-H ) :   0.9323
B( 22-C , 25-C ) :   0.9897 B( 22-C , 26-O ) :  -0.1085 B( 25-C , 26-O ) :   1.2528
B( 25-C , 27-H ) :   0.9328 B( 25-C , 28-H ) :   0.9299 B( 26-O , 30-H ) :   0.4201

Dispersion correction           -0.033215252
FINAL SINGLE POINT ENERGY      -485.091279739189

DIPOLE MOMENT
-------------
                                X             Y             Z
Electronic contribution:      2.10902       0.90248       2.64907
Nuclear contribution   :      0.61785      -1.47632      -2.91844
                        -----------------------------------------
Total Dipole Moment    :      2.72687      -0.57384      -0.26937
                        -----------------------------------------
Magnitude (a.u.)       :      2.79958
Magnitude (Debye)      :      7.11597

Rotational constants in cm-1:     0.040993     0.027400     0.018162
Rotational constants in MHz :  1228.944366   821.418004   544.476857

                             ****ORCA TERMINATED NORMALLY****
TOTAL RUN TIME: 0 days 0 hours 0 minutes 13 seconds 305 msec
