                         Program Version 5.0.0 -  RELEASE  -
|  1> !PBE D3BJ RIJCOSX def2-TZVP def2/J TightSCF
|  2> *xyz 0 1
|  3> C          3.95643        0.50147       -0.37910
|  4> H          3.16840        0.02920        0.20738
|  5> C          3.80389        1.96157       -0.15675
|  6> C          3.84232        0.14849       -1.85406
|  7> H          4.92323        0.17798        0.00937
|  8> H          4.20643        2.24441        0.74536
|  9> H          2.80827        2.21132       -0.09610
| 10> H          4.28076        2.50155       -0.89104
| 11> H          4.62951        0.62800       -2.39748
| 12> H          2.89665        0.48102       -2.22825
| 13> H          3.92053       -0.91187       -1.97413
| 14> *
| 15>
| 16> %MaxCore 64000
| 17> %pal nprocs 4
| 18> end
| 19>
| 20> %scf
| 21>   MaxIter 150
| 22> end
| 23>
| 24>
| 25>                          ****END OF INPUT****

CARTESIAN COORDINATES (ANGSTROEM)
---------------------------------
  C      3.956430    0.501470   -0.379100
  H      3.168400    0.029200    0.207380
  C      3.803890    1.961570   -0.156750
  C      3.842320    0.148490   -1.854060
  H      4.923230    0.177980    0.009370
  H      4.206430    2.244410    0.745360
  H      2.808270    2.211320   -0.096100
  H      4.280760    2.501550   -0.891040
  H      4.629510    0.628000   -2.397480
  H      2.896650    0.481020   -2.228250
  H      3.920530   -0.911870   -1.974130

 Total Charge           Charge          ....    0
 Multiplicity           Mult            ....    1
 Number of Electrons    NEL             ....   26
 Basis Dimension        Dim             ....  141

ORBITAL ENERGIES
----------------

  NO   OCC          E(Eh)            E(eV)
   0   2.0000      -9.866967      -268.4938
   1   2.0000      -9.857038      -268.2236
   2   2.0000      -9.839164      -267.7373
   3   2.0000      -0.719039       -19.5661
   4   2.0000      -0.622980       -16.9521
   5   2.0000      -0.524971       -14.2852
   6   2.0000      -0.419526       -11.4159
   7   2.0000      -0.397569       -10.8184
   8   2.0000      -0.356465        -9.6999
   9   2.0000      -0.344898        -9.3852
  10   2.0000      -0.295427        -8.0390
  11   2.0000      -0.293083        -7.9752
  12   2.0000      -0.283154        -7.7050
  13   0.0000       0.022371         0.6087
  14   0.0000       0.064145         1.7455
  15   0.0000       0.070369         1.9148
  16   0.0000       0.073588         2.0024
  17   0.0000       0.093776         2.5518

MULLIKEN ATOMIC CHARGES
-----------------------
   0 C :   -0.151546
   1 H :    0.086236
   2 C :   -0.336737
   3 C :   -0.336156
   4 H :    0.087455
   5 H :    0.113508
   6 H :    0.110231
   7 H :    0.102919
   8 H :    0.107308
   9 H :    0.105163
  10 H :    0.111619
Sum of atomic charges:    0.0000000

LOEWDIN ATOMIC CHARGES
----------------------
   0 C :   -0.326856
   1 H :    0.134090
   2 C :   -0.310204
   3 C :   -0.311455
   4 H :    0.131797
   5 H :    0.111201
   6 H :    0.111466
   7 H :    0.110498
   8 H :    0.116399
   9 H :    0.117145
  10 H :    0.115918

  Mayer bond orders larger than 0.100000
B(  0-C ,  1-H ) :   0.9618 B(  0-C ,  2-C ) :   0.9994 B(  0-C ,  3-C ) :   1.0075
B(  0-C ,  4-H ) :   0.9601 B(  2-C ,  5-H ) :   0.9732 B(  2-C ,  6-H ) :   0.9747
B(  2-C ,  7-H ) :   0.9736 B(  3-C ,  8-H ) :   0.9711 B(  3-C ,  9-H ) :   0.9716
B(  3-C , 10-H ) :   0.9709

Dispersion correction           -0.006158132
FINAL SINGLE POINT ENERGY      -118.990329909196

DIPOLE MOMENT
-------------
                                X             Y             Z
Electronic contribution:      0.08130      -0.29620       0.23720
Nuclear contribution   :     -0.08172       0.30475      -0.19303
                        -----------------------------------------
Total Dipole Moment    :     -0.00042       0.00855       0.04417
                        -----------------------------------------
Magnitude (a.u.)       :      0.04499
Magnitude (Debye)      :      0.11436

Rotational constants in cm-1:     1.020248     0.295755     0.261591
Rotational constants in MHz : 30586.266829  8866.511639  7842.297953

                             ****ORCA TERMINATED NORMALLY****
TOTAL RUN TIME: 0 days 0 hours 0 minutes 7 seconds 60 msec
