                         Program Version 5.0.0 -  RELEASE  -
|  1> !TPSS D3BJ RIJCOSX def2-SVPD def2/J TightSCF
|  2> *xyz -1 1
|  3> C         -0.05517        1.61942       -3.78858
|  4> C          1.22302        2.46987       -3.75691
|  5> H          1.11470        3.25807       -4.53300
|  6> H          1.23773        3.01124       -2.79216
|  7> O          2.35381        1.71203       -3.93448
|  8> H         -0.10198        1.08015       -4.71156
|  9> H         -0.91014        2.25726       -3.70441
| 10> H         -0.04403        0.92826       -2.97183
| 11> *
| 12>
| 13> %MaxCore 64000
| 14>
| 15> %pal nprocs 4
| 16> end
| 17>
| 18> %scf
| 19>   MaxIter 150
| 20> end
| 21>
| 22>
| 23>                          ****END OF INPUT****

CARTESIAN COORDINATES (ANGSTROEM)
---------------------------------
  C     -0.055170    1.619420   -3.788580
  C      1.223020    2.469870   -3.756910
  H      1.114700    3.258070   -4.533000
  H      1.237730    3.011240   -2.792160
  O      2.353810    1.712030   -3.934480
  H     -0.101980    1.080150   -4.711560
  H     -0.910140    2.257260   -3.704410
  H     -0.044030    0.928260   -2.971830

 Total Charge           Charge          ....   -1
 Multiplicity           Mult            ....    1
 Number of Electrons    NEL             ....   26
 Basis Dimension        Dim             ....  103

ORBITAL ENERGIES
----------------

  NO   OCC          E(Eh)            E(eV)
   0   2.0000     -18.572781      -505.3911
   1   2.0000      -9.815591      -267.0958
   2   2.0000      -9.793711      -266.5004
   3   2.0000      -0.605112       -16.4659
   4   2.0000      -0.464710       -12.6454
   5   2.0000      -0.320481        -8.7207
   6   2.0000      -0.210012        -5.7147
   7   2.0000      -0.187441        -5.1005
   8   2.0000      -0.135316        -3.6821
   9   2.0000      -0.121365        -3.3025
  10   2.0000      -0.070355        -1.9145
  11   2.0000       0.068290         1.8583
  12   2.0000       0.070461         1.9173
  13   0.0000       0.171189         4.6583
  14   0.0000       0.201072         5.4715
  15   0.0000       0.232641         6.3305
  16   0.0000       0.246009         6.6942
  17   0.0000       0.263038         7.1576

MULLIKEN ATOMIC CHARGES
-----------------------
   0 C :    0.161155
   1 C :    0.170828
   2 H :   -0.147877
   3 H :   -0.163389
   4 O :   -0.908657
   5 H :   -0.048837
   6 H :   -0.018303
   7 H :   -0.044920
Sum of atomic charges:   -1.0000000

LOEWDIN ATOMIC CHARGES
----------------------
   0 C :    0.065795
   1 C :   -0.250322
   2 H :   -0.041388
   3 H :   -0.042717
   4 O :   -0.566991
   5 H :   -0.046987
   6 H :   -0.069301
   7 H :   -0.048089

  Mayer bond orders larger than 0.100000
B(  0-C ,  1-C ) :   1.1755 B(  0-C ,  2-H ) :   0.1389 B(  0-C ,  3-H ) :   0.1380
B(  0-C ,  4-O ) :   0.2872 B(  0-C ,  5-H ) :   0.9296 B(  0-C ,  6-H ) :   0.9407
B(  0-C ,  7-H ) :   0.9292 B(  1-C ,  2-H ) :   0.9835 B(  1-C ,  3-H ) :   0.9923
B(  1-C ,  4-O ) :   1.0824 B(  1-C ,  5-H ) :   0.1757 B(  1-C ,  6-H ) :   0.1249
B(  1-C ,  7-H ) :   0.1652

Dispersion correction           -0.004557862
FINAL SINGLE POINT ENERGY      -154.348039487149

DIPOLE MOMENT
-------------
                                X             Y             Z
Electronic contribution:      2.85279      -0.53868      -0.25772
Nuclear contribution   :     -4.28298       0.81046       0.39340
                        -----------------------------------------
Total Dipole Moment    :     -1.43019       0.27178       0.13569
                        -----------------------------------------
Magnitude (a.u.)       :      1.46209
Magnitude (Debye)      :      3.71635

Rotational constants in cm-1:     1.266793     0.328147     0.288309
Rotational constants in MHz : 37977.512300  9837.594308  8643.275638

                             ****ORCA TERMINATED NORMALLY****
TOTAL RUN TIME: 0 days 0 hours 0 minutes 8 seconds 787 msec
