                         Program Version 5.0.0 -  RELEASE  -
|  1> !TPSS D3BJ RIJCOSX def2-SVPD def2/J TightSCF
|  2> *xyz 1 1
|  3> C          1.63556       -1.67040       -5.29211
|  4> C          0.33848       -1.50091       -4.50540
|  5> N          2.48451       -0.50741       -5.14039
|  6> H          1.39834       -1.82924       -6.35259
|  7> H          2.15586       -2.56540       -4.93209
|  8> C          3.45115       -0.14953       -5.95259
|  9> N          3.92267        1.08956       -5.85071
| 10> N          3.96616       -1.00618       -6.86788
| 11> H          3.52139       -1.90647       -6.99527
| 12> H          4.44482       -0.62347       -7.67035
| 13> H          2.25200        0.24080       -4.49879
| 14> H          3.46428        1.64078       -5.13639
| 15> H          4.83447        1.31375       -6.22465
| 16> H         -0.17658       -0.62881       -4.85045
| 17> H          0.56384       -1.39374       -3.46490
| 18> H         -0.28102       -2.36136       -4.64938
| 19> *
| 20>
| 21> %MaxCore 64000
| 22>
| 23> %pal nprocs 4
| 24> end
| 25>
| 26> %scf
| 27>   MaxIter 150
| 28> end
| 29>
| 30>
| 31>                          ****END OF INPUT****

CARTESIAN COORDINATES (ANGSTROEM)
---------------------------------
  C      1.635560   -1.670400   -5.292110
  C      0.338480   -1.500910   -4.505400
  N      2.484510   -0.507410   -5.140390
  H      1.398340   -1.829240   -6.352590
  H      2.155860   -2.565400   -4.932090
  C      3.451150   -0.149530   -5.952590
  N      3.922670    1.089560   -5.850710
  N      3.966160   -1.006180   -6.867880
  H      3.521390   -1.906470   -6.995270
  H      4.444820   -0.623470   -7.670350
  H      2.252000    0.240800   -4.498790
  H      3.464280    1.640780   -5.136390
  H      4.834470    1.313750   -6.224650
  H     -0.176580   -0.628810   -4.850450
  H      0.563840   -1.393740   -3.464900
  H     -0.281020   -2.361360   -4.649380

 Total Charge           Charge          ....    1
 Multiplicity           Mult            ....    1
 Number of Electrons    NEL             ....   48
 Basis Dimension        Dim             ....  200

ORBITAL ENERGIES
----------------

  NO   OCC          E(Eh)            E(eV)
   0   2.0000     -14.343716      -390.3124
   1   2.0000     -14.341218      -390.2444
   2   2.0000     -14.339449      -390.1963
   3   2.0000     -10.322109      -280.8789
   4   2.0000     -10.211876      -277.8793
   5   2.0000     -10.143492      -276.0184
   6   2.0000      -1.143333       -31.1117
   7   2.0000      -1.036983       -28.2178
   8   2.0000      -1.024619       -27.8813
   9   2.0000      -0.875464       -23.8226
  10   2.0000      -0.778731       -21.1904
  11   2.0000      -0.762893       -20.7594
  12   2.0000      -0.729693       -19.8560
  13   2.0000      -0.699157       -19.0250
  14   2.0000      -0.647558       -17.6209
  15   2.0000      -0.642715       -17.4892
  16   2.0000      -0.618010       -16.8169
  17   2.0000      -0.601842       -16.3770
  18   2.0000      -0.561266       -15.2728
  19   2.0000      -0.510163       -13.8822
  20   2.0000      -0.495392       -13.4803
  21   2.0000      -0.485967       -13.2238
  22   2.0000      -0.439506       -11.9596
  23   2.0000      -0.419378       -11.4119
  24   0.0000      -0.198527        -5.4022
  25   0.0000      -0.169700        -4.6178
  26   0.0000      -0.138577        -3.7709
  27   0.0000      -0.121182        -3.2975
  28   0.0000      -0.105224        -2.8633

MULLIKEN ATOMIC CHARGES
-----------------------
   0 C :    0.042028
   1 C :    0.726740
   2 N :   -0.484672
   3 H :   -0.051305
   4 H :   -0.066587
   5 C :    1.302810
   6 N :   -0.041144
   7 N :   -0.093902
   8 H :   -0.008637
   9 H :   -0.070876
  10 H :   -0.121545
  11 H :    0.042112
  12 H :   -0.090309
  13 H :   -0.016570
  14 H :   -0.003808
  15 H :   -0.064334
Sum of atomic charges:    1.0000000

LOEWDIN ATOMIC CHARGES
----------------------
   0 C :    0.033169
   1 C :    0.171429
   2 N :    0.038427
   3 H :    0.034771
   4 H :    0.039606
   5 C :   -0.038606
   6 N :    0.266503
   7 N :    0.285037
   8 H :    0.015049
   9 H :    0.034579
  10 H :    0.052847
  11 H :    0.032267
  12 H :    0.043364
  13 H :   -0.006114
  14 H :   -0.004753
  15 H :    0.002425

  Mayer bond orders larger than 0.100000
B(  0-C ,  1-C ) :   1.3237 B(  0-C ,  2-N ) :   0.9434 B(  0-C ,  3-H ) :   0.8739
B(  0-C ,  4-H ) :   0.8965 B(  0-C , 10-H ) :  -0.1177 B(  0-C , 13-H ) :   0.2037
B(  0-C , 14-H ) :   0.2268 B(  0-C , 15-H ) :   0.2786 B(  1-C , 13-H ) :   0.7998
B(  1-C , 14-H ) :   0.7419 B(  1-C , 15-H ) :   0.7543 B(  2-N ,  3-H ) :   0.1677
B(  2-N ,  4-H ) :   0.1759 B(  2-N ,  5-C ) :   1.0329 B(  2-N ,  6-N ) :   0.2986
B(  2-N ,  7-N ) :   0.2122 B(  2-N , 10-H ) :   1.2053 B(  5-C ,  6-N ) :   0.9091
B(  5-C ,  7-N ) :   0.8982 B(  5-C ,  8-H ) :  -0.1109 B(  5-C ,  9-H ) :  -0.1302
B(  5-C , 10-H ) :  -0.2282 B(  5-C , 12-H ) :  -0.1216 B(  6-N ,  7-N ) :   0.1762
B(  6-N , 11-H ) :   1.0494 B(  6-N , 12-H ) :   1.2331 B(  7-N ,  8-H ) :   1.0380
B(  7-N ,  9-H ) :   1.2261 B(  8-H ,  9-H ) :  -0.1469 B( 11-H , 12-H ) :  -0.1385

Dispersion correction           -0.014773120
FINAL SINGLE POINT ENERGY      -284.264470466492

DIPOLE MOMENT
-------------
                                X             Y             Z
Electronic contribution:      4.70283       2.46990      -1.69965
Nuclear contribution   :     -3.96322      -1.85512       1.24891
                        -----------------------------------------
Total Dipole Moment    :      0.73961       0.61478      -0.45074
                        -----------------------------------------
Magnitude (a.u.)       :      1.06214
Magnitude (Debye)      :      2.69974

Rotational constants in cm-1:     0.261404     0.067000     0.054949
Rotational constants in MHz :  7836.702504  2008.609425  1647.329138

                             ****ORCA TERMINATED NORMALLY****
TOTAL RUN TIME: 0 days 0 hours 0 minutes 15 seconds 425 msec
