                         Program Version 5.0.0 -  RELEASE  -
|  1> !TPSS D3BJ RIJCOSX def2-SVPD def2/J TightSCF
|  2> *xyz 0 1
|  3> C         -0.05517        1.61942       -3.78858
|  4> C          1.22302        2.46987       -3.75691
|  5> H          1.11470        3.25807       -4.53300
|  6> H          1.23773        3.01124       -2.79216
|  7> F          2.35381        1.71203       -3.93448
|  8> H         -0.10198        1.08015       -4.71156
|  9> H         -0.91014        2.25726       -3.70441
| 10> H         -0.04403        0.92826       -2.97183
| 11> *
| 12>
| 13> %MaxCore 64000
| 14>
| 15> %pal nprocs 4
| 16> end
| 17>
| 18> %scf
| 19>   MaxIter 150
| 20> end
| 21>
| 22>
| 23>                          ****END OF INPUT****

CARTESIAN COORDINATES (ANGSTROEM)
---------------------------------
  C     -0.055170    1.619420   -3.788580
  C      1.223020    2.469870   -3.756910
  H      1.114700    3.258070   -4.533000
  H      1.237730    3.011240   -2.792160
  F      2.353810    1.712030   -3.934480
  H     -0.101980    1.080150   -4.711560
  H     -0.910140    2.257260   -3.704410
  H     -0.044030    0.928260   -2.971830

 Total Charge           Charge          ....    0
 Multiplicity           Mult            ....    1
 Number of Electrons    NEL             ....   26
 Basis Dimension        Dim             ....  103

ORBITAL ENERGIES
----------------

  NO   OCC          E(Eh)            E(eV)
   0   2.0000     -24.415564      -664.3813
   1   2.0000     -10.080419      -274.3022
   2   2.0000      -9.999543      -272.1014
   3   2.0000      -1.105605       -30.0850
   4   2.0000      -0.703581       -19.1454
   5   2.0000      -0.576902       -15.6983
   6   2.0000      -0.461488       -12.5577
   7   2.0000      -0.448965       -12.2170
   8   2.0000      -0.408774       -11.1233
   9   2.0000      -0.363813        -9.8999
  10   2.0000      -0.361688        -9.8420
  11   2.0000      -0.293449        -7.9851
  12   2.0000      -0.291971        -7.9449
  13   0.0000       0.012721         0.3461
  14   0.0000       0.044184         1.2023
  15   0.0000       0.059143         1.6094
  16   0.0000       0.069011         1.8779
  17   0.0000       0.093039         2.5317

MULLIKEN ATOMIC CHARGES
-----------------------
   0 C :    0.255796
   1 C :    0.407143
   2 H :   -0.043454
   3 H :   -0.061043
   4 F :   -0.456650
   5 H :   -0.043842
   6 H :   -0.018323
   7 H :   -0.039626
Sum of atomic charges:    0.0000000

LOEWDIN ATOMIC CHARGES
----------------------
   0 C :    0.144131
   1 C :    0.069742
   2 H :    0.026821
   3 H :    0.024442
   4 F :   -0.211772
   5 H :   -0.017803
   6 H :   -0.016949
   7 H :   -0.018611

  Mayer bond orders larger than 0.100000
B(  0-C ,  1-C ) :   1.3335 B(  0-C ,  5-H ) :   0.9034 B(  0-C ,  6-H ) :   0.8716
B(  0-C ,  7-H ) :   0.9041 B(  1-C ,  2-H ) :   0.9447 B(  1-C ,  3-H ) :   0.9519
B(  1-C ,  4-F ) :   0.7246 B(  1-C ,  5-H ) :   0.1377 B(  1-C ,  6-H ) :   0.1117
B(  1-C ,  7-H ) :   0.1305

Dispersion correction           -0.004203502
FINAL SINGLE POINT ENERGY      -178.961946628426

DIPOLE MOMENT
-------------
                                X             Y             Z
Electronic contribution:      5.03386      -0.74639      -0.43414
Nuclear contribution   :     -5.66833       1.07099       0.52006
                        -----------------------------------------
Total Dipole Moment    :     -0.63447       0.32460       0.08592
                        -----------------------------------------
Magnitude (a.u.)       :      0.71784
Magnitude (Debye)      :      1.82461

Rotational constants in cm-1:     1.245689     0.305293     0.269541
Rotational constants in MHz : 37344.801915  9152.442838  8080.640229

                             ****ORCA TERMINATED NORMALLY****
TOTAL RUN TIME: 0 days 0 hours 0 minutes 6 seconds 876 msec
