                         Program Version 5.0.0 -  RELEASE  -
|  1> !TPSS D3BJ RIJCOSX def2-SVPD def2/J TightSCF
|  2> *xyz 0 1
|  3> C          1.63556       -1.67040       -5.29211
|  4> C          0.33848       -1.50091       -4.50540
|  5> C          2.48451       -0.50741       -5.14039
|  6> H          1.39834       -1.82924       -6.35259
|  7> H          2.15586       -2.56540       -4.93209
|  8> C          3.45115       -0.14953       -5.95259
|  9> N          3.92267        1.08956       -5.85071
| 10> N          3.96616       -1.00618       -6.86788
| 11> H          3.52139       -1.90647       -6.99527
| 12> H          4.44482       -0.62347       -7.67035
| 13> H          2.25200        0.24080       -4.49879
| 14> H          3.46428        1.64078       -5.13639
| 15> H          4.83447        1.31375       -6.22465
| 16> H         -0.17658       -0.62881       -4.85045
| 17> H          0.56384       -1.39374       -3.46490
| 18> H         -0.28102       -2.36136       -4.64938
| 19> *
| 20>
| 21> %MaxCore 64000
| 22>
| 23> %pal nprocs 4
| 24> end
| 25>
| 26> %scf
| 27>   MaxIter 150
| 28> end
| 29>
| 30>
| 31>                          ****END OF INPUT****

CARTESIAN COORDINATES (ANGSTROEM)
---------------------------------
  C      1.635560   -1.670400   -5.292110
  C      0.338480   -1.500910   -4.505400
  C      2.484510   -0.507410   -5.140390
  H      1.398340   -1.829240   -6.352590
  H      2.155860   -2.565400   -4.932090
  C      3.451150   -0.149530   -5.952590
  N      3.922670    1.089560   -5.850710
  N      3.966160   -1.006180   -6.867880
  H      3.521390   -1.906470   -6.995270
  H      4.444820   -0.623470   -7.670350
  H      2.252000    0.240800   -4.498790
  H      3.464280    1.640780   -5.136390
  H      4.834470    1.313750   -6.224650
  H     -0.176580   -0.628810   -4.850450
  H      0.563840   -1.393740   -3.464900
  H     -0.281020   -2.361360   -4.649380

 Total Charge           Charge          ....    0
 Multiplicity           Mult            ....    1
 Number of Electrons    NEL             ....   48
 Basis Dimension        Dim             ....  200

ORBITAL ENERGIES
----------------

  NO   OCC          E(Eh)            E(eV)
   0   2.0000     -14.119720      -384.2171
   1   2.0000     -14.115109      -384.0916
   2   2.0000     -10.031892      -272.9816
   3   2.0000      -9.979113      -271.5455
   4   2.0000      -9.971577      -271.3404
   5   2.0000      -9.922249      -269.9981
   6   2.0000      -0.883786       -24.0490
   7   2.0000      -0.802045       -21.8247
   8   2.0000      -0.711611       -19.3639
   9   2.0000      -0.637331       -17.3426
  10   2.0000      -0.557577       -15.1724
  11   2.0000      -0.531009       -14.4495
  12   2.0000      -0.488419       -13.2905
  13   2.0000      -0.466981       -12.7072
  14   2.0000      -0.425247       -11.5716
  15   2.0000      -0.398855       -10.8534
  16   2.0000      -0.386062       -10.5053
  17   2.0000      -0.353993        -9.6326
  18   2.0000      -0.337321        -9.1790
  19   2.0000      -0.304481        -8.2854
  20   2.0000      -0.294788        -8.0216
  21   2.0000      -0.293314        -7.9815
  22   2.0000      -0.223951        -6.0940
  23   2.0000      -0.133917        -3.6441
  24   0.0000       0.005012         0.1364
  25   0.0000       0.029234         0.7955
  26   0.0000       0.035567         0.9678
  27   0.0000       0.048392         1.3168
  28   0.0000       0.057011         1.5514

MULLIKEN ATOMIC CHARGES
-----------------------
   0 C :   -0.217344
   1 C :    0.868159
   2 C :   -0.217687
   3 H :   -0.133872
   4 H :   -0.072765
   5 C :    0.589936
   6 N :    0.003533
   7 N :   -0.109196
   8 H :   -0.010312
   9 H :   -0.161087
  10 H :   -0.287990
  11 H :    0.070363
  12 H :   -0.201921
  13 H :   -0.003121
  14 H :    0.003228
  15 H :   -0.119923
Sum of atomic charges:   -0.0000000

LOEWDIN ATOMIC CHARGES
----------------------
   0 C :   -0.108099
   1 C :    0.120282
   2 C :   -0.035327
   3 H :    0.011774
   4 H :    0.013591
   5 C :   -0.224530
   6 N :    0.176783
   7 N :    0.205540
   8 H :   -0.016050
   9 H :   -0.015874
  10 H :   -0.052168
  11 H :    0.000373
  12 H :   -0.010161
  13 H :   -0.019099
  14 H :   -0.018903
  15 H :   -0.028132

  Mayer bond orders larger than 0.100000
B(  0-C ,  1-C ) :   1.2399 B(  0-C ,  2-C ) :   0.9502 B(  0-C ,  3-H ) :   0.8825
B(  0-C ,  4-H ) :   0.7657 B(  0-C , 10-H ) :   0.1894 B(  0-C , 13-H ) :   0.2225
B(  0-C , 14-H ) :   0.2339 B(  0-C , 15-H ) :   0.3132 B(  1-C , 13-H ) :   0.7804
B(  1-C , 14-H ) :   0.7397 B(  1-C , 15-H ) :   0.7037 B(  2-C ,  3-H ) :   0.1413
B(  2-C ,  4-H ) :   0.2632 B(  2-C ,  5-C ) :   1.6062 B(  2-C ,  6-N ) :   0.3456
B(  2-C ,  7-N ) :   0.2188 B(  2-C ,  8-H ) :  -0.1324 B(  2-C , 10-H ) :   0.9357
B(  3-H , 10-H ) :   0.1034 B(  5-C ,  6-N ) :   0.9134 B(  5-C ,  7-N ) :   0.9398
B(  6-N ,  7-N ) :   0.1336 B(  6-N , 11-H ) :   1.0316 B(  6-N , 12-H ) :   1.2359
B(  7-N ,  8-H ) :   1.0338 B(  7-N ,  9-H ) :   1.2396 B(  8-H ,  9-H ) :  -0.1230
B( 11-H , 12-H ) :  -0.1353

Dispersion correction           -0.015386113
FINAL SINGLE POINT ENERGY      -267.790473815244

DIPOLE MOMENT
-------------
                                X             Y             Z
Electronic contribution:      4.52867       2.16836      -1.89328
Nuclear contribution   :     -3.99655      -1.83277       1.34879
                        -----------------------------------------
Total Dipole Moment    :      0.53212       0.33559      -0.54449
                        -----------------------------------------
Magnitude (a.u.)       :      0.83201
Magnitude (Debye)      :      2.11481

Rotational constants in cm-1:     0.262971     0.067064     0.055026
Rotational constants in MHz :  7883.664566  2010.513309  1649.636654

                             ****ORCA TERMINATED NORMALLY****
TOTAL RUN TIME: 0 days 0 hours 0 minutes 16 seconds 962 msec
