                         Program Version 5.0.0 -  RELEASE  -
|  1> !TPSS D3BJ RIJCOSX def2-SVPD def2/J TightSCF
|  2> *xyz 0 1
|  3> C          1.63556       -1.67040       -5.29211
|  4> C          0.33848       -1.50091       -4.50540
|  5> N          2.48451       -0.50741       -5.14039
|  6> H          1.39834       -1.82924       -6.35259
|  7> H          2.15586       -2.56540       -4.93209
|  8> C          3.45115       -0.14953       -5.95259
|  9> C          3.92267        1.08956       -5.85071
| 10> N          3.96616       -1.00618       -6.86788
| 11> H          3.52139       -1.90647       -6.99527
| 12> H          4.44482       -0.62347       -7.67035
| 13> H          2.25200        0.24080       -4.49879
| 14> H          3.46428        1.64078       -5.13639
| 15> H          4.83447        1.31375       -6.22465
| 16> H         -0.17658       -0.62881       -4.85045
| 17> H          0.56384       -1.39374       -3.46490
| 18> H         -0.28102       -2.36136       -4.64938
| 19> *
| 20>
| 21> %MaxCore 64000
| 22>
| 23> %pal nprocs 4
| 24> end
| 25>
| 26> %scf
| 27>   MaxIter 150
| 28> end
| 29>
| 30>
| 31>                          ****END OF INPUT****

CARTESIAN COORDINATES (ANGSTROEM)
---------------------------------
  C      1.635560   -1.670400   -5.292110
  C      0.338480   -1.500910   -4.505400
  N      2.484510   -0.507410   -5.140390
  H      1.398340   -1.829240   -6.352590
  H      2.155860   -2.565400   -4.932090
  C      3.451150   -0.149530   -5.952590
  C      3.922670    1.089560   -5.850710
  N      3.966160   -1.006180   -6.867880
  H      3.521390   -1.906470   -6.995270
  H      4.444820   -0.623470   -7.670350
  H      2.252000    0.240800   -4.498790
  H      3.464280    1.640780   -5.136390
  H      4.834470    1.313750   -6.224650
  H     -0.176580   -0.628810   -4.850450
  H      0.563840   -1.393740   -3.464900
  H     -0.281020   -2.361360   -4.649380

 Total Charge           Charge          ....    0
 Multiplicity           Mult            ....    1
 Number of Electrons    NEL             ....   48
 Basis Dimension        Dim             ....  200

ORBITAL ENERGIES
----------------

  NO   OCC          E(Eh)            E(eV)
   0   2.0000     -14.117377      -384.1534
   1   2.0000     -14.117207      -384.1487
   2   2.0000     -10.043572      -273.2995
   3   2.0000     -10.034694      -273.0579
   4   2.0000     -10.003679      -272.2140
   5   2.0000      -9.910516      -269.6789
   6   2.0000      -0.895130       -24.3577
   7   2.0000      -0.813758       -22.1435
   8   2.0000      -0.715856       -19.4794
   9   2.0000      -0.642083       -17.4720
  10   2.0000      -0.575298       -15.6546
  11   2.0000      -0.545697       -14.8492
  12   2.0000      -0.488407       -13.2902
  13   2.0000      -0.453627       -12.3438
  14   2.0000      -0.438042       -11.9197
  15   2.0000      -0.422082       -11.4854
  16   2.0000      -0.379070       -10.3150
  17   2.0000      -0.356596        -9.7035
  18   2.0000      -0.341231        -9.2854
  19   2.0000      -0.339232        -9.2310
  20   2.0000      -0.336797        -9.1647
  21   2.0000      -0.310751        -8.4560
  22   2.0000      -0.219097        -5.9619
  23   2.0000      -0.130382        -3.5479
  24   0.0000       0.003121         0.0849
  25   0.0000       0.022075         0.6007
  26   0.0000       0.029753         0.8096
  27   0.0000       0.046281         1.2594
  28   0.0000       0.062170         1.6917

MULLIKEN ATOMIC CHARGES
-----------------------
   0 C :    0.045673
   1 C :    0.740498
   2 N :   -0.391010
   3 H :   -0.105241
   4 H :   -0.135470
   5 C :    0.609342
   6 C :    0.357288
   7 N :   -0.028497
   8 H :   -0.133849
   9 H :   -0.067662
  10 H :   -0.136732
  11 H :   -0.179212
  12 H :   -0.414744
  13 H :   -0.042139
  14 H :   -0.026032
  15 H :   -0.092214
Sum of atomic charges:    0.0000000

LOEWDIN ATOMIC CHARGES
----------------------
   0 C :    0.000791
   1 C :    0.140381
   2 N :   -0.023065
   3 H :    0.015743
   4 H :    0.015655
   5 C :   -0.233009
   6 C :    0.141931
   7 N :    0.202094
   8 H :   -0.029632
   9 H :    0.001945
  10 H :    0.028355
  11 H :   -0.106471
  12 H :   -0.100809
  13 H :   -0.016627
  14 H :   -0.017910
  15 H :   -0.019374

  Mayer bond orders larger than 0.100000
B(  0-C ,  1-C ) :   1.2792 B(  0-C ,  2-N ) :   0.9310 B(  0-C ,  3-H ) :   0.8952
B(  0-C ,  4-H ) :   0.9098 B(  0-C , 10-H ) :  -0.1241 B(  0-C , 13-H ) :   0.2247
B(  0-C , 14-H ) :   0.2370 B(  0-C , 15-H ) :   0.2855 B(  1-C , 13-H ) :   0.7951
B(  1-C , 14-H ) :   0.7427 B(  1-C , 15-H ) :   0.7539 B(  2-N ,  3-H ) :   0.1672
B(  2-N ,  4-H ) :   0.2122 B(  2-N ,  5-C ) :   1.0924 B(  2-N ,  6-C ) :   0.2874
B(  2-N ,  7-N ) :   0.1330 B(  2-N , 10-H ) :   1.1568 B(  5-C ,  6-C ) :   1.5808
B(  5-C ,  7-N ) :   0.8819 B(  5-C ,  9-H ) :  -0.1022 B(  5-C , 10-H ) :  -0.1669
B(  5-C , 11-H ) :   0.2266 B(  5-C , 12-H ) :   0.2525 B(  6-C ,  7-N ) :   0.2429
B(  6-C , 11-H ) :   0.8205 B(  6-C , 12-H ) :   0.7310 B(  7-N ,  8-H ) :   1.0548
B(  7-N ,  9-H ) :   1.1837 B(  8-H ,  9-H ) :  -0.1350

Dispersion correction           -0.015236663
FINAL SINGLE POINT ENERGY      -267.781540336373

DIPOLE MOMENT
-------------
                                X             Y             Z
Electronic contribution:      2.98404       0.57914      -1.28230
Nuclear contribution   :     -3.69145      -1.49398       1.19810
                        -----------------------------------------
Total Dipole Moment    :     -0.70741      -0.91484      -0.08420
                        -----------------------------------------
Magnitude (a.u.)       :      1.15950
Magnitude (Debye)      :      2.94722

Rotational constants in cm-1:     0.270790     0.068966     0.056679
Rotational constants in MHz :  8118.084803  2067.559423  1699.196934

                             ****ORCA TERMINATED NORMALLY****
TOTAL RUN TIME: 0 days 0 hours 0 minutes 18 seconds 9 msec
