                         Program Version 5.0.0 -  RELEASE  -
|  1> !TPSS D3BJ RIJCOSX def2-SVPD def2/J TightSCF
|  2> *xyz 0 1
|  3> C          1.63556       -1.67040       -5.29211
|  4> C          0.33848       -1.50091       -4.50540
|  5> N          2.48451       -0.50741       -5.14039
|  6> H          1.39834       -1.82924       -6.35259
|  7> H          2.15586       -2.56540       -4.93209
|  8> C          3.45115       -0.14953       -5.95259
|  9> N          3.92267        1.08956       -5.85071
| 10> C          3.96616       -1.00618       -6.86788
| 11> H          3.52139       -1.90647       -6.99527
| 12> H          4.44482       -0.62347       -7.67035
| 13> H          2.25200        0.24080       -4.49879
| 14> H          3.46428        1.64078       -5.13639
| 15> H          4.83447        1.31375       -6.22465
| 16> H         -0.17658       -0.62881       -4.85045
| 17> H          0.56384       -1.39374       -3.46490
| 18> H         -0.28102       -2.36136       -4.64938
| 19> *
| 20>
| 21> %MaxCore 64000
| 22>
| 23> %pal nprocs 4
| 24> end
| 25>
| 26> %scf
| 27>   MaxIter 150
| 28> end
| 29>
| 30>
| 31>                          ****END OF INPUT****

CARTESIAN COORDINATES (ANGSTROEM)
---------------------------------
  C      1.635560   -1.670400   -5.292110
  C      0.338480   -1.500910   -4.505400
  N      2.484510   -0.507410   -5.140390
  H      1.398340   -1.829240   -6.352590
  H      2.155860   -2.565400   -4.932090
  C      3.451150   -0.149530   -5.952590
  N      3.922670    1.089560   -5.850710
  C      3.966160   -1.006180   -6.867880
  H      3.521390   -1.906470   -6.995270
  H      4.444820   -0.623470   -7.670350
  H      2.252000    0.240800   -4.498790
  H      3.464280    1.640780   -5.136390
  H      4.834470    1.313750   -6.224650
  H     -0.176580   -0.628810   -4.850450
  H      0.563840   -1.393740   -3.464900
  H     -0.281020   -2.361360   -4.649380

 Total Charge           Charge          ....    0
 Multiplicity           Mult            ....    1
 Number of Electrons    NEL             ....   48
 Basis Dimension        Dim             ....  200

ORBITAL ENERGIES
----------------

  NO   OCC          E(Eh)            E(eV)
   0   2.0000     -14.123350      -384.3159
   1   2.0000     -14.119753      -384.2180
   2   2.0000     -10.037173      -273.1254
   3   2.0000     -10.036267      -273.1007
   4   2.0000     -10.000003      -272.1139
   5   2.0000      -9.912695      -269.7381
   6   2.0000      -0.903478       -24.5849
   7   2.0000      -0.818609       -22.2755
   8   2.0000      -0.703200       -19.1351
   9   2.0000      -0.642152       -17.4738
  10   2.0000      -0.591613       -16.0986
  11   2.0000      -0.519237       -14.1292
  12   2.0000      -0.489591       -13.3224
  13   2.0000      -0.479783       -13.0556
  14   2.0000      -0.432388       -11.7659
  15   2.0000      -0.426302       -11.6003
  16   2.0000      -0.361573        -9.8389
  17   2.0000      -0.357106        -9.7173
  18   2.0000      -0.351637        -9.5685
  19   2.0000      -0.332635        -9.0515
  20   2.0000      -0.325066        -8.8455
  21   2.0000      -0.312719        -8.5095
  22   2.0000      -0.214244        -5.8299
  23   2.0000      -0.135036        -3.6745
  24   0.0000      -0.000162        -0.0044
  25   0.0000       0.018005         0.4899
  26   0.0000       0.035673         0.9707
  27   0.0000       0.048095         1.3087
  28   0.0000       0.058753         1.5987

MULLIKEN ATOMIC CHARGES
-----------------------
   0 C :    0.060841
   1 C :    0.751297
   2 N :   -0.418961
   3 H :   -0.053844
   4 H :   -0.092246
   5 C :    0.508380
   6 N :    0.041846
   7 C :    0.326908
   8 H :   -0.078528
   9 H :   -0.410472
  10 H :   -0.252942
  11 H :   -0.111169
  12 H :   -0.103725
  13 H :   -0.041123
  14 H :   -0.033376
  15 H :   -0.092887
Sum of atomic charges:   -0.0000000

LOEWDIN ATOMIC CHARGES
----------------------
   0 C :    0.014085
   1 C :    0.137861
   2 N :   -0.023751
   3 H :    0.023707
   4 H :    0.024140
   5 C :   -0.243206
   6 N :    0.187419
   7 C :    0.163623
   8 H :   -0.124606
   9 H :   -0.109880
  10 H :    0.015510
  11 H :   -0.016042
  12 H :    0.010586
  13 H :   -0.019744
  14 H :   -0.021109
  15 H :   -0.018594

  Mayer bond orders larger than 0.100000
B(  0-C ,  1-C ) :   1.2695 B(  0-C ,  2-N ) :   0.9670 B(  0-C ,  3-H ) :   0.8778
B(  0-C ,  4-H ) :   0.8976 B(  0-C , 10-H ) :  -0.1183 B(  0-C , 13-H ) :   0.2086
B(  0-C , 14-H ) :   0.2398 B(  0-C , 15-H ) :   0.2811 B(  1-C , 13-H ) :   0.8027
B(  1-C , 14-H ) :   0.7315 B(  1-C , 15-H ) :   0.7513 B(  2-N ,  3-H ) :   0.1854
B(  2-N ,  4-H ) :   0.1811 B(  2-N ,  5-C ) :   1.0966 B(  2-N ,  6-N ) :   0.2099
B(  2-N ,  7-C ) :   0.3189 B(  2-N , 10-H ) :   1.2368 B(  5-C ,  6-N ) :   0.9039
B(  5-C ,  7-C ) :   1.7140 B(  5-C ,  8-H ) :   0.2831 B(  5-C ,  9-H ) :   0.2033
B(  5-C , 10-H ) :  -0.2276 B(  6-N ,  7-C ) :   0.2712 B(  6-N , 11-H ) :   1.0880
B(  6-N , 12-H ) :   1.2166 B(  7-C ,  8-H ) :   0.6671 B(  7-C ,  9-H ) :   0.8275
B(  8-H ,  9-H ) :   0.2013 B( 11-H , 12-H ) :  -0.1243

Dispersion correction           -0.015294532
FINAL SINGLE POINT ENERGY      -267.782121269733

DIPOLE MOMENT
-------------
                                X             Y             Z
Electronic contribution:      3.04764       2.60607      -0.22731
Nuclear contribution   :     -3.68222      -1.93858       0.98231
                        -----------------------------------------
Total Dipole Moment    :     -0.63459       0.66749       0.75500
                        -----------------------------------------
Magnitude (a.u.)       :      1.19091
Magnitude (Debye)      :      3.02704

Rotational constants in cm-1:     0.275407     0.068040     0.056255
Rotational constants in MHz :  8256.498401  2039.796466  1686.484500

                             ****ORCA TERMINATED NORMALLY****
TOTAL RUN TIME: 0 days 0 hours 0 minutes 17 seconds 150 msec
