                         Program Version 5.0.0 -  RELEASE  -
|  1> !TPSS D3BJ RIJCOSX def2-SVPD def2/J TightSCF xyzfile
|  2>
|  3> *xyzfile 0 1 D2.xyz
|  4>
|  5> %MaxCore 64000
|  6>
|  7> %pal nprocs 4
|  8> end
|  9>
| 10> %scf
| 11>   MaxIter 150
| 12> end
| 13>
| 14>
| 15>                          ****END OF INPUT****

CARTESIAN COORDINATES (ANGSTROEM)
---------------------------------
  C      1.635557   -1.670396   -5.292109
  C      0.338484   -1.500907   -4.505398
  N      2.484511   -0.507410   -5.140392
  C     -0.684873   -0.528026   -5.099889
  C     -0.290406    0.951335   -5.153423
  H      0.607991    1.070692   -5.764412
  C     -0.055168    1.619420   -3.788577
  H     -1.080912    1.483775   -5.689436
  H      0.045006    0.862302   -3.003015
  H     -0.922936    2.230329   -3.517028
  C      1.223022    2.469865   -3.756911
  H      1.114701    3.258074   -4.532999
  H      1.237732    3.011242   -2.792157
  F      2.353815    1.712032   -3.934477
  H      1.398337   -1.829239   -6.352591
  H      2.155864   -2.565398   -4.932091
  C      3.451149   -0.149530   -5.952589
  C      3.922667    1.089559   -5.850711
  N      3.966162   -1.006183   -6.867880
  H      3.521391   -1.906467   -6.995270
  H      4.444824   -0.623472   -7.670348
  H      2.251995    0.240804   -4.498792
  H      3.464277    1.640782   -5.136392
  H      4.834470    1.313745   -6.224653
  H     -0.937999   -0.869056   -6.110838
  H     -1.604638   -0.622496   -4.513132
  H      0.594887   -1.211578   -3.482312
  H     -0.126530   -2.487656   -4.434176

 Total Charge           Charge          ....    0
 Multiplicity           Mult            ....    1
 Number of Electrons    NEL             ....   88
 Basis Dimension        Dim             ....  359

ORBITAL ENERGIES
----------------

  NO   OCC          E(Eh)            E(eV)
   0   2.0000     -24.444707      -665.1743
   1   2.0000     -14.103087      -383.7645
   2   2.0000     -14.089893      -383.4055
   3   2.0000     -10.090807      -274.5848
   4   2.0000     -10.029643      -272.9205
   5   2.0000     -10.016987      -272.5761
   6   2.0000     -10.016283      -272.5569
   7   2.0000     -10.005216      -272.2558
   8   2.0000     -10.004852      -272.2459
   9   2.0000     -10.003163      -272.1999
  10   2.0000      -9.885841      -269.0074
  11   2.0000      -1.142237       -31.0818
  12   2.0000      -0.877725       -23.8841
  13   2.0000      -0.799501       -21.7555
  14   2.0000      -0.753828       -20.5127
  15   2.0000      -0.713918       -19.4267
  16   2.0000      -0.675813       -18.3898
  17   2.0000      -0.625231       -17.0134
  18   2.0000      -0.594974       -16.1901
  19   2.0000      -0.568140       -15.4599
  20   2.0000      -0.533841       -14.5265
  21   2.0000      -0.518346       -14.1049
  22   2.0000      -0.495251       -13.4765
  23   2.0000      -0.469441       -12.7741
  24   2.0000      -0.461482       -12.5576
  25   2.0000      -0.454385       -12.3644
  26   2.0000      -0.442745       -12.0477
  27   2.0000      -0.427988       -11.6462
  28   2.0000      -0.410159       -11.1610
  29   2.0000      -0.399376       -10.8676
  30   2.0000      -0.382592       -10.4109
  31   2.0000      -0.367818       -10.0088
  32   2.0000      -0.360012        -9.7964
  33   2.0000      -0.339469        -9.2374
  34   2.0000      -0.333707        -9.0806
  35   2.0000      -0.325772        -8.8647
  36   2.0000      -0.313886        -8.5413
  37   2.0000      -0.309310        -8.4168
  38   2.0000      -0.296852        -8.0778
  39   2.0000      -0.288972        -7.8633
  40   2.0000      -0.284959        -7.7541
  41   2.0000      -0.282117        -7.6768
  42   2.0000      -0.201796        -5.4912
  43   2.0000      -0.113503        -3.0886
  44   0.0000       0.003600         0.0980
  45   0.0000       0.013842         0.3767
  46   0.0000       0.023582         0.6417
  47   0.0000       0.027098         0.7374
  48   0.0000       0.040747         1.1088

MULLIKEN ATOMIC CHARGES
-----------------------
   0 C :    0.624661
   1 C :    0.096445
   2 N :   -0.163092
   3 C :    0.158644
   4 C :    0.040258
   5 H :    0.108477
   6 C :   -0.069343
   7 H :   -0.268613
   8 H :   -0.019519
   9 H :   -0.133897
  10 C :    0.950173
  11 H :   -0.043504
  12 H :   -0.066150
  13 F :   -0.832743
  14 H :   -0.011113
  15 H :   -0.217242
  16 C :    0.756102
  17 C :    0.511648
  18 N :   -0.059685
  19 H :   -0.076474
  20 H :   -0.086623
  21 H :   -0.366214
  22 H :   -0.144707
  23 H :   -0.555503
  24 H :    0.117178
  25 H :   -0.092184
  26 H :    0.007033
  27 H :   -0.164014
Sum of atomic charges:    0.0000000

LOEWDIN ATOMIC CHARGES
----------------------
   0 C :    0.051066
   1 C :   -0.016294
   2 N :    0.002679
   3 C :   -0.018110
   4 C :   -0.012949
   5 H :    0.007746
   6 C :    0.005757
   7 H :    0.015203
   8 H :    0.010710
   9 H :    0.025590
  10 C :    0.163350
  11 H :    0.044211
  12 H :    0.032089
  13 F :   -0.207355
  14 H :    0.015284
  15 H :    0.012868
  16 C :   -0.212145
  17 C :    0.165069
  18 N :    0.199454
  19 H :   -0.032553
  20 H :   -0.001468
  21 H :   -0.057655
  22 H :   -0.154768
  23 H :   -0.102063
  24 H :    0.020050
  25 H :    0.017347
  26 H :    0.009855
  27 H :    0.017034

  Mayer bond orders larger than 0.100000
B(  0-C ,  1-C ) :   1.2028 B(  0-C ,  2-N ) :   0.9645 B(  0-C , 14-H ) :   0.7712
B(  0-C , 15-H ) :   0.8612 B(  0-C , 21-H ) :  -0.1833 B(  0-C , 26-H ) :   0.1355
B(  0-C , 27-H ) :   0.2037 B(  1-C ,  2-N ) :   0.1019 B(  1-C ,  3-C ) :   1.2236
B(  1-C , 24-H ) :   0.1595 B(  1-C , 25-H ) :   0.1927 B(  1-C , 26-H ) :   0.7765
B(  1-C , 27-H ) :   0.8054 B(  2-N , 14-H ) :   0.3267 B(  2-N , 15-H ) :   0.2372
B(  2-N , 16-C ) :   0.9506 B(  2-N , 17-C ) :   0.3878 B(  2-N , 18-N ) :   0.1572
B(  2-N , 21-H ) :   0.9942 B(  3-C ,  4-C ) :   1.2980 B(  3-C ,  5-H ) :   0.1453
B(  3-C ,  7-H ) :   0.1418 B(  3-C , 24-H ) :   0.6777 B(  3-C , 25-H ) :   0.8530
B(  3-C , 26-H ) :   0.1487 B(  3-C , 27-H ) :   0.1386 B(  4-C ,  5-H ) :   0.8445
B(  4-C ,  6-C ) :   1.1996 B(  4-C ,  7-H ) :   0.8480 B(  4-C ,  8-H ) :   0.1185
B(  4-C ,  9-H ) :   0.1674 B(  4-C , 24-H ) :   0.2056 B(  4-C , 25-H ) :   0.1313
B(  6-C ,  8-H ) :   0.8916 B(  6-C ,  9-H ) :   0.9228 B(  6-C , 10-C ) :   1.1551
B(  6-C , 12-H ) :   0.1651 B(  6-C , 13-F ) :   0.1541 B( 10-C , 11-H ) :   0.8539
B( 10-C , 12-H ) :   0.8001 B( 10-C , 13-F ) :   0.6665 B( 11-H , 13-F ) :   0.2018
B( 13-F , 22-H ) :   0.1869 B( 16-C , 17-C ) :   1.4709 B( 16-C , 18-N ) :   0.7482
B( 16-C , 20-H ) :  -0.1449 B( 16-C , 21-H ) :  -0.3677 B( 16-C , 22-H ) :   0.2873
B( 16-C , 23-H ) :   0.3821 B( 17-C , 18-N ) :   0.3306 B( 17-C , 22-H ) :   0.5473
B( 17-C , 23-H ) :   0.5631 B( 18-N , 19-H ) :   1.0042 B( 18-N , 20-H ) :   1.2275
B( 19-H , 20-H ) :  -0.1448 B( 21-H , 22-H ) :  -0.1153

Dispersion correction           -0.035766880
FINAL SINGLE POINT ENERGY      -524.117931327281

DIPOLE MOMENT
-------------
                                X             Y             Z
Electronic contribution:      6.39451       2.46338       1.71382
Nuclear contribution   :     -7.85451      -2.70006      -1.48294
                        -----------------------------------------
Total Dipole Moment    :     -1.46000      -0.23668       0.23088
                        -----------------------------------------
Magnitude (a.u.)       :      1.49697
Magnitude (Debye)      :      3.80500

Rotational constants in cm-1:     0.044065     0.029250     0.019826
Rotational constants in MHz :  1321.026981   876.903192   594.367265

                             ****ORCA TERMINATED NORMALLY****
TOTAL RUN TIME: 0 days 0 hours 0 minutes 48 seconds 782 msec
