                         Program Version 5.0.0 -  RELEASE  -
|  1> !BLYP D3BJ RIJCOSX def2-SVPD def2/J TightSCF
|  2> *xyz -1 1
|  3> C         -1.10433        0.25137       -2.86006
|  4> C         -0.71189        0.84252       -4.21834
|  5> H          0.15463        1.49980       -4.13091
|  6> H         -1.53813        1.45922       -4.58267
|  7> C         -0.39762       -0.20587       -5.28802
|  8> O          0.61717       -0.00535       -5.99827
|  9> O         -1.13317       -1.22138       -5.34147
| 10> H         -1.95489       -0.38644       -2.98099
| 11> H         -1.34603        1.04362       -2.18269
| 12> H         -0.28606       -0.31581       -2.46809
| 13> *
| 14>
| 15> %MaxCore 64000
| 16>
| 17> %pal nprocs 4
| 18> end
| 19>
| 20> %scf
| 21>   MaxIter 150
| 22> end
| 23>
| 24>
| 25>                          ****END OF INPUT****

CARTESIAN COORDINATES (ANGSTROEM)
---------------------------------
  C     -1.104330    0.251370   -2.860060
  C     -0.711890    0.842520   -4.218340
  H      0.154630    1.499800   -4.130910
  H     -1.538130    1.459220   -4.582670
  C     -0.397620   -0.205870   -5.288020
  O      0.617170   -0.005350   -5.998270
  O     -1.133170   -1.221380   -5.341470
  H     -1.954890   -0.386440   -2.980990
  H     -1.346030    1.043620   -2.182690
  H     -0.286060   -0.315810   -2.468090

 Total Charge           Charge          ....   -1
 Multiplicity           Mult            ....    1
 Number of Electrons    NEL             ....   40
 Basis Dimension        Dim             ....  146

ORBITAL ENERGIES
----------------

  NO   OCC          E(Eh)            E(eV)
   0   2.0000     -18.532632      -504.2986
   1   2.0000     -18.531477      -504.2671
   2   2.0000      -9.802617      -266.7428
   3   2.0000      -9.759151      -265.5600
   4   2.0000      -9.748103      -265.2594
   5   2.0000      -0.718870       -19.5614
   6   2.0000      -0.631210       -17.1761
   7   2.0000      -0.520041       -14.1510
   8   2.0000      -0.399916       -10.8823
   9   2.0000      -0.259474        -7.0606
  10   2.0000      -0.239937        -6.5290
  11   2.0000      -0.203023        -5.5245
  12   2.0000      -0.178498        -4.8572
  13   2.0000      -0.165840        -4.5127
  14   2.0000      -0.155069        -4.2197
  15   2.0000      -0.129696        -3.5292
  16   2.0000      -0.116295        -3.1646
  17   2.0000      -0.010963        -0.2983
  18   2.0000       0.002428         0.0661
  19   2.0000       0.019260         0.5241
  20   0.0000       0.138003         3.7553
  21   0.0000       0.172360         4.6902
  22   0.0000       0.188282         5.1234
  23   0.0000       0.195081         5.3084
  24   0.0000       0.217500         5.9185

MULLIKEN ATOMIC CHARGES
-----------------------
   0 C :    0.971397
   1 C :   -0.035914
   2 H :   -0.207313
   3 H :   -0.146360
   4 C :    0.229104
   5 O :   -0.591033
   6 O :   -0.622821
   7 H :   -0.158898
   8 H :   -0.234608
   9 H :   -0.203555
Sum of atomic charges:   -1.0000000

LOEWDIN ATOMIC CHARGES
----------------------
   0 C :    0.108417
   1 C :   -0.030757
   2 H :   -0.010363
   3 H :    0.000590
   4 C :   -0.331578
   5 O :   -0.313072
   6 O :   -0.300661
   7 H :   -0.037919
   8 H :   -0.053374
   9 H :   -0.031283

  Mayer bond orders larger than 0.100000
B(  0-C ,  1-C ) :   1.2707 B(  0-C ,  2-H ) :   0.1128 B(  0-C ,  3-H ) :   0.1177
B(  0-C ,  7-H ) :   0.7383 B(  0-C ,  8-H ) :   0.7268 B(  0-C ,  9-H ) :   0.7459
B(  1-C ,  2-H ) :   0.8919 B(  1-C ,  3-H ) :   0.8095 B(  1-C ,  4-C ) :   1.0553
B(  1-C ,  7-H ) :   0.2605 B(  1-C ,  8-H ) :   0.2576 B(  1-C ,  9-H ) :   0.2230
B(  2-H ,  4-C ) :   0.2403 B(  4-C ,  5-O ) :   1.5325 B(  4-C ,  6-O ) :   1.5594

Dispersion correction           -0.013520014
FINAL SINGLE POINT ENERGY      -267.591476640797

DIPOLE MOMENT
-------------
                                X             Y             Z
Electronic contribution:      1.55946      -2.40562      -5.26967
Nuclear contribution   :     -2.09607       3.44215       6.87744
                        -----------------------------------------
Total Dipole Moment    :     -0.53661       1.03652       1.60776
                        -----------------------------------------
Magnitude (a.u.)       :      1.98677
Magnitude (Debye)      :      5.04996

Rotational constants in cm-1:     0.324698     0.133739     0.103466
Rotational constants in MHz :  9734.203431  4009.406827  3101.846422

                             ****ORCA TERMINATED NORMALLY****
TOTAL RUN TIME: 0 days 0 hours 0 minutes 9 seconds 77 msec
