                         Program Version 5.0.0 -  RELEASE  -
|  1> !BLYP D3BJ RIJCOSX def2-SVPD def2/J TightSCF
|  2> *xyz 1 1
|  3> C          2.23447       -2.98975       -2.39762
|  4> N          2.75680       -2.94555       -3.76503
|  5> C          1.98721       -2.59045       -4.81898
|  6> N          0.74322       -3.01749       -4.91352
|  7> N          2.49964       -1.84860       -5.80324
|  8> H          3.30978       -1.29282       -5.55895
|  9> H          1.80103       -1.30430       -6.28913
| 10> H          3.71612       -2.62880       -3.82953
| 11> H          0.39583       -3.62775       -4.18502
| 12> H          0.03920       -2.45438       -5.37137
| 13> C          2.19120       -1.61950       -1.71549
| 14> H          2.87278       -3.66637       -1.82801
| 15> H          1.24619       -3.44744       -2.40784
| 16> H          1.56387       -0.96046       -2.27853
| 17> H          3.18033       -1.21449       -1.66568
| 18> H          1.79916       -1.72608       -0.72562
| 19> *
| 20>
| 21> %MaxCore 64000
| 22>
| 23> %pal nprocs 4
| 24> end
| 25>
| 26> %scf
| 27>   MaxIter 150
| 28> end
| 29>
| 30>
| 31>                          ****END OF INPUT****

CARTESIAN COORDINATES (ANGSTROEM)
---------------------------------
  C      2.234470   -2.989750   -2.397620
  N      2.756800   -2.945550   -3.765030
  C      1.987210   -2.590450   -4.818980
  N      0.743220   -3.017490   -4.913520
  N      2.499640   -1.848600   -5.803240
  H      3.309780   -1.292820   -5.558950
  H      1.801030   -1.304300   -6.289130
  H      3.716120   -2.628800   -3.829530
  H      0.395830   -3.627750   -4.185020
  H      0.039200   -2.454380   -5.371370
  C      2.191200   -1.619500   -1.715490
  H      2.872780   -3.666370   -1.828010
  H      1.246190   -3.447440   -2.407840
  H      1.563870   -0.960460   -2.278530
  H      3.180330   -1.214490   -1.665680
  H      1.799160   -1.726080   -0.725620

 Total Charge           Charge          ....    1
 Multiplicity           Mult            ....    1
 Number of Electrons    NEL             ....   48
 Basis Dimension        Dim             ....  200

ORBITAL ENERGIES
----------------

  NO   OCC          E(Eh)            E(eV)
   0   2.0000     -14.254035      -387.8720
   1   2.0000     -14.250205      -387.7678
   2   2.0000     -14.247020      -387.6811
   3   2.0000     -10.252719      -278.9907
   4   2.0000     -10.132028      -275.7065
   5   2.0000     -10.066807      -273.9318
   6   2.0000      -1.121238       -30.5104
   7   2.0000      -1.015357       -27.6293
   8   2.0000      -1.011522       -27.5249
   9   2.0000      -0.849541       -23.1172
  10   2.0000      -0.775634       -21.1061
  11   2.0000      -0.739337       -20.1184
  12   2.0000      -0.727780       -19.8039
  13   2.0000      -0.684031       -18.6134
  14   2.0000      -0.649618       -17.6770
  15   2.0000      -0.635085       -17.2815
  16   2.0000      -0.600085       -16.3291
  17   2.0000      -0.570727       -15.5303
  18   2.0000      -0.553460       -15.0604
  19   2.0000      -0.522172       -14.2090
  20   2.0000      -0.490973       -13.3601
  21   2.0000      -0.473389       -12.8816
  22   2.0000      -0.445175       -12.1138
  23   2.0000      -0.412130       -11.2146
  24   0.0000      -0.226138        -6.1535
  25   0.0000      -0.180594        -4.9142
  26   0.0000      -0.149835        -4.0772
  27   0.0000      -0.136372        -3.7109
  28   0.0000      -0.119329        -3.2471

MULLIKEN ATOMIC CHARGES
-----------------------
   0 C :    0.620599
   1 N :   -0.219737
   2 C :    0.678901
   3 N :    0.329193
   4 N :    0.236416
   5 H :   -0.064002
   6 H :   -0.028712
   7 H :   -0.242395
   8 H :   -0.089328
   9 H :   -0.101332
  10 C :    1.098497
  11 H :   -0.402064
  12 H :   -0.282865
  13 H :   -0.244716
  14 H :   -0.154392
  15 H :   -0.134064
Sum of atomic charges:    1.0000000

LOEWDIN ATOMIC CHARGES
----------------------
   0 C :    0.042342
   1 N :    0.072816
   2 C :   -0.073576
   3 N :    0.302564
   4 N :    0.291927
   5 H :    0.029753
   6 H :    0.029580
   7 H :    0.045777
   8 H :    0.020402
   9 H :    0.042324
  10 C :    0.179310
  11 H :    0.035880
  12 H :    0.011234
  13 H :   -0.019682
  14 H :   -0.011081
  15 H :    0.000432

  Mayer bond orders larger than 0.100000
B(  0-C ,  1-N ) :   0.9522 B(  0-C ,  7-H ) :  -0.1095 B(  0-C , 10-C ) :   1.2612
B(  0-C , 11-H ) :   0.7199 B(  0-C , 12-H ) :   0.7620 B(  0-C , 13-H ) :   0.2789
B(  0-C , 14-H ) :   0.2525 B(  0-C , 15-H ) :   0.2409 B(  1-N ,  2-C ) :   1.1199
B(  1-N ,  3-N ) :   0.1192 B(  1-N ,  4-N ) :   0.1745 B(  1-N ,  7-H ) :   1.1841
B(  1-N , 11-H ) :   0.2387 B(  1-N , 12-H ) :   0.1507 B(  2-C ,  3-N ) :   1.1062
B(  2-C ,  4-N ) :   1.0799 B(  2-C ,  7-H ) :  -0.2115 B(  2-C ,  9-H ) :  -0.1099
B(  3-N ,  4-N ) :   0.1622 B(  3-N ,  8-H ) :   0.9969 B(  3-N ,  9-H ) :   1.2090
B(  4-N ,  5-H ) :   1.0158 B(  4-N ,  6-H ) :   1.0025 B(  8-H ,  9-H ) :  -0.1724
B( 10-C , 13-H ) :   0.7185 B( 10-C , 14-H ) :   0.7151 B( 10-C , 15-H ) :   0.7064

Dispersion correction           -0.025052832
FINAL SINGLE POINT ENERGY      -284.095424204926

DIPOLE MOMENT
-------------
                                X             Y             Z
Electronic contribution:      0.19951      -1.70584      -5.18148
Nuclear contribution   :     -0.59121       2.30298       4.63196
                        -----------------------------------------
Total Dipole Moment    :     -0.39169       0.59715      -0.54952
                        -----------------------------------------
Magnitude (a.u.)       :      0.90110
Magnitude (Debye)      :      2.29041

Rotational constants in cm-1:     0.205874     0.074757     0.066901
Rotational constants in MHz :  6171.937773  2241.151057  2005.629823

                             ****ORCA TERMINATED NORMALLY****
TOTAL RUN TIME: 0 days 0 hours 0 minutes 16 seconds 226 msec
