                         Program Version 5.0.0 -  RELEASE  -
|  1> !BLYP D3BJ RIJCOSX def2-SVPD def2/J TightSCF xyzfile
|  2>
|  3> *xyzfile 0 1 B.xyz
|  4>
|  5> %MaxCore 64000
|  6>
|  7> %pal nprocs 4
|  8> end
|  9>
| 10> %scf
| 11>   MaxIter 150
| 12> end
| 13>
| 14>
| 15>                          ****END OF INPUT****

CARTESIAN COORDINATES (ANGSTROEM)
---------------------------------
  C      2.234473   -2.989754   -2.397622
  N      2.756799   -2.945553   -3.765029
  C     -1.104325    0.251374   -2.860056
  C     -0.711893    0.842517   -4.218344
  H      0.154626    1.499800   -4.130909
  H     -1.538134    1.459222   -4.582671
  C     -0.397624   -0.205875   -5.288018
  C      1.987208   -2.590451   -4.818975
  N      0.743221   -3.017493   -4.913524
  N      2.499636   -1.848598   -5.803241
  H      3.309780   -1.292818   -5.558947
  H      1.801025   -1.304298   -6.289129
  H      3.716116   -2.628797   -3.829533
  H      0.395828   -3.627747   -4.185024
  H      0.039201   -2.454383   -5.371367
  O      0.617165   -0.005348   -5.998273
  O     -1.133173   -1.221380   -5.341465
  C      2.191199   -1.619503   -1.715492
  H      2.872783   -3.666368   -1.828014
  H      1.246188   -3.447444   -2.407842
  C      1.298729   -0.554314   -2.359773
  H      1.872917   -1.787955   -0.681310
  H      3.216809   -1.238432   -1.654428
  C     -0.196255   -0.863365   -2.325763
  H      1.612531   -0.371346   -3.393065
  H      1.480944    0.388638   -1.834444
  H     -0.404105   -1.761825   -2.909448
  H     -0.490439   -1.087880   -1.294131
  H     -1.143842    1.066711   -2.129680
  H     -2.114401   -0.156834   -2.930323

 Total Charge           Charge          ....    0
 Multiplicity           Mult            ....    1
 Number of Electrons    NEL             ....  102
 Basis Dimension        Dim             ....  402

ORBITAL ENERGIES
----------------

  NO   OCC          E(Eh)            E(eV)
   0   2.0000     -18.712994      -509.2064
   1   2.0000     -18.711714      -509.1716
   2   2.0000     -14.090640      -383.4258
   3   2.0000     -14.061388      -382.6298
   4   2.0000     -14.060950      -382.6179
   5   2.0000     -10.077776      -274.2302
   6   2.0000      -9.995790      -271.9993
   7   2.0000      -9.977755      -271.5085
   8   2.0000      -9.946661      -270.6624
   9   2.0000      -9.927011      -270.1277
  10   2.0000      -9.913454      -269.7588
  11   2.0000      -9.903761      -269.4950
  12   2.0000      -9.890709      -269.1399
  13   2.0000      -0.949027       -25.8243
  14   2.0000      -0.904200       -24.6045
  15   2.0000      -0.851334       -23.1660
  16   2.0000      -0.831932       -22.6380
  17   2.0000      -0.812642       -22.1131
  18   2.0000      -0.733854       -19.9692
  19   2.0000      -0.693750       -18.8779
  20   2.0000      -0.647539       -17.6204
  21   2.0000      -0.607446       -16.5295
  22   2.0000      -0.587652       -15.9908
  23   2.0000      -0.559244       -15.2178
  24   2.0000      -0.548810       -14.9339
  25   2.0000      -0.517225       -14.0744
  26   2.0000      -0.495718       -13.4892
  27   2.0000      -0.477897       -13.0042
  28   2.0000      -0.458259       -12.4699
  29   2.0000      -0.449480       -12.2310
  30   2.0000      -0.431923       -11.7532
  31   2.0000      -0.420468       -11.4415
  32   2.0000      -0.405530       -11.0350
  33   2.0000      -0.393815       -10.7162
  34   2.0000      -0.384432       -10.4609
  35   2.0000      -0.377404       -10.2697
  36   2.0000      -0.365315        -9.9407
  37   2.0000      -0.352152        -9.5825
  38   2.0000      -0.339150        -9.2287
  39   2.0000      -0.332742        -9.0544
  40   2.0000      -0.320814        -8.7298
  41   2.0000      -0.313010        -8.5174
  42   2.0000      -0.300460        -8.1759
  43   2.0000      -0.284314        -7.7366
  44   2.0000      -0.273770        -7.4497
  45   2.0000      -0.266952        -7.2641
  46   2.0000      -0.261867        -7.1258
  47   2.0000      -0.253565        -6.8999
  48   2.0000      -0.191899        -5.2218
  49   2.0000      -0.177092        -4.8189
  50   2.0000      -0.164822        -4.4850
  51   0.0000      -0.052302        -1.4232
  52   0.0000      -0.034946        -0.9509
  53   0.0000      -0.013967        -0.3801
  54   0.0000       0.001261         0.0343
  55   0.0000       0.013539         0.3684

MULLIKEN ATOMIC CHARGES
-----------------------
   0 C :    1.135285
   1 N :   -0.302233
   2 C :    0.877088
   3 C :    0.592551
   4 H :    0.032897
   5 H :   -0.467538
   6 C :    0.089334
   7 C :    0.651155
   8 N :    0.561288
   9 N :    0.329761
  10 H :   -0.005022
  11 H :   -0.269323
  12 H :   -0.206346
  13 H :   -0.026699
  14 H :   -0.439385
  15 O :   -0.522253
  16 O :   -0.658064
  17 C :    0.686490
  18 H :   -0.554593
  19 H :   -0.121298
  20 C :    0.247565
  21 H :   -0.101514
  22 H :   -0.250001
  23 C :    0.240567
  24 H :   -0.290384
  25 H :   -0.308223
  26 H :   -0.305372
  27 H :   -0.287309
  28 H :   -0.277298
  29 H :   -0.051126
Sum of atomic charges:    0.0000000

LOEWDIN ATOMIC CHARGES
----------------------
   0 C :    0.066914
   1 N :    0.057349
   2 C :   -0.012218
   3 C :    0.040547
   4 H :    0.008244
   5 H :    0.023463
   6 C :   -0.239003
   7 C :   -0.080184
   8 N :    0.325209
   9 N :    0.292424
  10 H :    0.015480
  11 H :   -0.077197
  12 H :    0.028132
  13 H :    0.010436
  14 H :   -0.086263
  15 O :   -0.234577
  16 O :   -0.224138
  17 C :   -0.004780
  18 H :    0.019718
  19 H :    0.004254
  20 C :   -0.013639
  21 H :    0.023003
  22 H :    0.015428
  23 C :   -0.019848
  24 H :    0.001149
  25 H :    0.026522
  26 H :   -0.016156
  27 H :    0.018397
  28 H :    0.012313
  29 H :    0.019019

  Mayer bond orders larger than 0.100000
B(  0-C ,  1-N ) :   0.9592 B(  0-C , 17-C ) :   1.0639 B(  0-C , 18-H ) :   0.5438
B(  0-C , 19-H ) :   0.6966 B(  0-C , 20-C ) :   0.1340 B(  0-C , 21-H ) :   0.1889
B(  0-C , 22-H ) :   0.1621 B(  1-N ,  7-C ) :   0.9829 B(  1-N ,  8-N ) :   0.1322
B(  1-N ,  9-N ) :   0.2124 B(  1-N , 12-H ) :   1.1540 B(  1-N , 18-H ) :   0.2746
B(  1-N , 19-H ) :   0.1364 B(  2-C ,  3-C ) :   1.1163 B(  2-C ,  4-H ) :   0.1392
B(  2-C ,  5-H ) :   0.2041 B(  2-C , 23-C ) :   1.1928 B(  2-C , 26-H ) :   0.1235
B(  2-C , 28-H ) :   0.6197 B(  2-C , 29-H ) :   0.4745 B(  3-C ,  4-H ) :   0.7098
B(  3-C ,  5-H ) :   0.5853 B(  3-C ,  6-C ) :   1.0980 B(  3-C , 23-C ) :   0.2005
B(  3-C , 28-H ) :   0.2176 B(  3-C , 29-H ) :   0.1455 B(  4-H ,  5-H ) :  -0.1468
B(  4-H ,  6-C ) :   0.3691 B(  5-H ,  6-C ) :   0.1966 B(  5-H , 24-H ) :  -0.1086
B(  6-C , 15-O ) :   1.4590 B(  6-C , 16-O ) :   1.4635 B(  6-C , 24-H ) :   0.1105
B(  7-C ,  8-N ) :   1.0080 B(  7-C ,  9-N ) :   0.9133 B(  7-C , 12-H ) :  -0.2078
B(  7-C , 14-H ) :  -0.1492 B(  8-N ,  9-N ) :   0.1739 B(  8-N , 13-H ) :   0.8659
B(  8-N , 14-H ) :   1.1681 B(  9-N , 10-H ) :   0.9280 B(  9-N , 11-H ) :   0.9861
B( 11-H , 15-O ) :   0.1385 B( 13-H , 14-H ) :  -0.2595 B( 14-H , 16-O ) :   0.2327
B( 15-O , 16-O ) :   0.1237 B( 17-C , 18-H ) :   0.1507 B( 17-C , 19-H ) :   0.1546
B( 17-C , 20-C ) :   1.1740 B( 17-C , 21-H ) :   0.6908 B( 17-C , 22-H ) :   0.5377
B( 17-C , 24-H ) :   0.1313 B( 18-H , 19-H ) :  -0.2022 B( 20-C , 21-H ) :   0.2177
B( 20-C , 22-H ) :   0.3357 B( 20-C , 23-C ) :   1.2601 B( 20-C , 24-H ) :   0.7949
B( 20-C , 25-H ) :   0.6750 B( 20-C , 26-H ) :   0.2084 B( 20-C , 27-H ) :   0.2930
B( 21-H , 22-H ) :  -0.1608 B( 23-C , 24-H ) :   0.2087 B( 23-C , 25-H ) :   0.2318
B( 23-C , 26-H ) :   0.7696 B( 23-C , 27-H ) :   0.5749 B( 23-C , 28-H ) :   0.2212
B( 23-C , 29-H ) :   0.3479 B( 28-H , 29-H ) :  -0.1833

Dispersion correction           -0.070204545
FINAL SINGLE POINT ENERGY      -629.221809344540

DIPOLE MOMENT
-------------
                                X             Y             Z
Electronic contribution:      0.54457      -2.84062     -10.29170
Nuclear contribution   :      1.76912       1.50070      12.36652
                        -----------------------------------------
Total Dipole Moment    :      2.31369      -1.33992       2.07482
                        -----------------------------------------
Magnitude (a.u.)       :      3.38429
Magnitude (Debye)      :      8.60219

Rotational constants in cm-1:     0.033272     0.023886     0.017112
Rotational constants in MHz :   997.469575   716.074432   513.001395

                             ****ORCA TERMINATED NORMALLY****
TOTAL RUN TIME: 0 days 0 hours 0 minutes 41 seconds 231 msec
