                         Program Version 5.0.0 -  RELEASE  -
|  1> !BLYP D3BJ RIJCOSX def2-SVPD def2/J TightSCF
|  2> *xyz 0 1
|  3> C         -1.10433        0.25137       -2.86006
|  4> C         -0.71189        0.84252       -4.21834
|  5> H          0.15463        1.49980       -4.13091
|  6> H         -1.53813        1.45922       -4.58267
|  7> C         -0.39762       -0.20587       -5.28802
|  8> F          0.61717       -0.00535       -5.99827
|  9> O         -1.13317       -1.22138       -5.34147
| 10> H         -1.95489       -0.38644       -2.98099
| 11> H         -1.34603        1.04362       -2.18269
| 12> H         -0.28606       -0.31581       -2.46809
| 13> *
| 14>
| 15> %MaxCore 64000
| 16>
| 17> %pal nprocs 4
| 18> end
| 19>
| 20> %scf
| 21>   MaxIter 150
| 22> end
| 23>
| 24>
| 25>                          ****END OF INPUT****

CARTESIAN COORDINATES (ANGSTROEM)
---------------------------------
  C     -1.104330    0.251370   -2.860060
  C     -0.711890    0.842520   -4.218340
  H      0.154630    1.499800   -4.130910
  H     -1.538130    1.459220   -4.582670
  C     -0.397620   -0.205870   -5.288020
  F      0.617170   -0.005350   -5.998270
  O     -1.133170   -1.221380   -5.341470
  H     -1.954890   -0.386440   -2.980990
  H     -1.346030    1.043620   -2.182690
  H     -0.286060   -0.315810   -2.468090

 Total Charge           Charge          ....    0
 Multiplicity           Mult            ....    1
 Number of Electrons    NEL             ....   40
 Basis Dimension        Dim             ....  146

ORBITAL ENERGIES
----------------

  NO   OCC          E(Eh)            E(eV)
   0   2.0000     -24.375900      -663.3019
   1   2.0000     -18.799610      -511.5634
   2   2.0000     -10.097060      -274.7550
   3   2.0000      -9.955651      -270.9070
   4   2.0000      -9.927451      -270.1397
   5   2.0000      -1.198181       -32.6042
   6   2.0000      -0.932967       -25.3873
   7   2.0000      -0.715288       -19.4640
   8   2.0000      -0.616158       -16.7665
   9   2.0000      -0.569618       -15.5001
  10   2.0000      -0.489040       -13.3075
  11   2.0000      -0.473355       -12.8806
  12   2.0000      -0.445195       -12.1144
  13   2.0000      -0.413767       -11.2592
  14   2.0000      -0.381561       -10.3828
  15   2.0000      -0.350592        -9.5401
  16   2.0000      -0.330863        -9.0032
  17   2.0000      -0.329299        -8.9607
  18   2.0000      -0.307875        -8.3777
  19   2.0000      -0.245448        -6.6790
  20   0.0000      -0.068463        -1.8630
  21   0.0000      -0.005282        -0.1437
  22   0.0000       0.025659         0.6982
  23   0.0000       0.039643         1.0787
  24   0.0000       0.051639         1.4052

MULLIKEN ATOMIC CHARGES
-----------------------
   0 C :    1.002547
   1 C :   -0.072658
   2 H :   -0.178409
   3 H :   -0.073738
   4 C :    0.544835
   5 F :   -0.297035
   6 O :   -0.397626
   7 H :   -0.147383
   8 H :   -0.202944
   9 H :   -0.177588
Sum of atomic charges:   -0.0000000

LOEWDIN ATOMIC CHARGES
----------------------
   0 C :    0.154421
   1 C :    0.011701
   2 H :    0.015880
   3 H :    0.034767
   4 C :   -0.042578
   5 F :   -0.014863
   6 O :   -0.110684
   7 H :   -0.016115
   8 H :   -0.018782
   9 H :   -0.013747

  Mayer bond orders larger than 0.100000
B(  0-C ,  1-C ) :   1.3319 B(  0-C ,  2-H ) :   0.1119 B(  0-C ,  3-H ) :   0.1112
B(  0-C ,  7-H ) :   0.7352 B(  0-C ,  8-H ) :   0.7201 B(  0-C ,  9-H ) :   0.7479
B(  1-C ,  2-H ) :   0.8880 B(  1-C ,  3-H ) :   0.7965 B(  1-C ,  4-C ) :   1.0898
B(  1-C ,  7-H ) :   0.2385 B(  1-C ,  8-H ) :   0.2462 B(  1-C ,  9-H ) :   0.2145
B(  2-H ,  4-C ) :   0.1410 B(  4-C ,  5-F ) :   0.8349 B(  4-C ,  6-O ) :   1.8888
B(  5-F ,  6-O ) :   0.1235

Dispersion correction           -0.012837990
FINAL SINGLE POINT ENERGY      -292.127822291075

DIPOLE MOMENT
-------------
                                X             Y             Z
Electronic contribution:      3.59649      -2.38357      -7.72210
Nuclear contribution   :     -3.36368       3.36392       8.24820
                        -----------------------------------------
Total Dipole Moment    :      0.23281       0.98035       0.52609
                        -----------------------------------------
Magnitude (a.u.)       :      1.13669
Magnitude (Debye)      :      2.88922

Rotational constants in cm-1:     0.315013     0.126712     0.098430
Rotational constants in MHz :  9443.861322  3798.734540  2950.846388

                             ****ORCA TERMINATED NORMALLY****
TOTAL RUN TIME: 0 days 0 hours 0 minutes 8 seconds 670 msec
