                         Program Version 5.0.0 -  RELEASE  -
|  1> !BLYP D3BJ RIJCOSX def2-SVPD def2/J TightSCF
|  2> *xyz 0 1
|  3> C          2.23447       -2.98975       -2.39762
|  4> C          2.75680       -2.94555       -3.76503
|  5> C          1.98721       -2.59045       -4.81898
|  6> N          0.74322       -3.01749       -4.91352
|  7> N          2.49964       -1.84860       -5.80324
|  8> H          3.30978       -1.29282       -5.55895
|  9> H          1.80103       -1.30430       -6.28913
| 10> H          3.71612       -2.62880       -3.82953
| 11> H          0.39583       -3.62775       -4.18502
| 12> H          0.03920       -2.45438       -5.37137
| 13> C          2.19120       -1.61950       -1.71549
| 14> H          2.87278       -3.66637       -1.82801
| 15> H          1.24619       -3.44744       -2.40784
| 16> H          1.56387       -0.96046       -2.27853
| 17> H          3.18033       -1.21449       -1.66568
| 18> H          1.79916       -1.72608       -0.72562
| 19> *
| 20>
| 21> %MaxCore 64000
| 22>
| 23> %pal nprocs 4
| 24> end
| 25>
| 26> %scf
| 27>   MaxIter 150
| 28> end
| 29>
| 30>
| 31>                          ****END OF INPUT****

CARTESIAN COORDINATES (ANGSTROEM)
---------------------------------
  C      2.234470   -2.989750   -2.397620
  C      2.756800   -2.945550   -3.765030
  C      1.987210   -2.590450   -4.818980
  N      0.743220   -3.017490   -4.913520
  N      2.499640   -1.848600   -5.803240
  H      3.309780   -1.292820   -5.558950
  H      1.801030   -1.304300   -6.289130
  H      3.716120   -2.628800   -3.829530
  H      0.395830   -3.627750   -4.185020
  H      0.039200   -2.454380   -5.371370
  C      2.191200   -1.619500   -1.715490
  H      2.872780   -3.666370   -1.828010
  H      1.246190   -3.447440   -2.407840
  H      1.563870   -0.960460   -2.278530
  H      3.180330   -1.214490   -1.665680
  H      1.799160   -1.726080   -0.725620

 Total Charge           Charge          ....    0
 Multiplicity           Mult            ....    1
 Number of Electrons    NEL             ....   48
 Basis Dimension        Dim             ....  200

ORBITAL ENERGIES
----------------

  NO   OCC          E(Eh)            E(eV)
   0   2.0000     -14.032144      -381.8340
   1   2.0000     -14.027826      -381.7165
   2   2.0000      -9.966081      -271.1909
   3   2.0000      -9.900738      -269.4128
   4   2.0000      -9.893499      -269.2158
   5   2.0000      -9.850663      -268.0502
   6   2.0000      -0.874786       -23.8041
   7   2.0000      -0.790060       -21.4986
   8   2.0000      -0.689023       -18.7493
   9   2.0000      -0.614864       -16.7313
  10   2.0000      -0.551413       -15.0047
  11   2.0000      -0.517591       -14.0844
  12   2.0000      -0.488177       -13.2840
  13   2.0000      -0.452006       -12.2997
  14   2.0000      -0.421121       -11.4593
  15   2.0000      -0.398528       -10.8445
  16   2.0000      -0.364293        -9.9129
  17   2.0000      -0.343932        -9.3589
  18   2.0000      -0.325353        -8.8533
  19   2.0000      -0.314501        -8.5580
  20   2.0000      -0.284620        -7.7449
  21   2.0000      -0.278426        -7.5763
  22   2.0000      -0.230602        -6.2750
  23   2.0000      -0.129222        -3.5163
  24   0.0000      -0.014387        -0.3915
  25   0.0000       0.014584         0.3968
  26   0.0000       0.025464         0.6929
  27   0.0000       0.026804         0.7294
  28   0.0000       0.046326         1.2606

MULLIKEN ATOMIC CHARGES
-----------------------
   0 C :    0.071517
   1 C :   -0.039416
   2 C :    0.120883
   3 N :    0.270730
   4 N :    0.228552
   5 H :   -0.018684
   6 H :   -0.090735
   7 H :   -0.285777
   8 H :   -0.080157
   9 H :   -0.196345
  10 C :    1.139685
  11 H :   -0.191872
  12 H :   -0.343892
  13 H :   -0.239198
  14 H :   -0.167436
  15 H :   -0.177854
Sum of atomic charges:   -0.0000000

LOEWDIN ATOMIC CHARGES
----------------------
   0 C :   -0.096935
   1 C :   -0.011526
   2 C :   -0.251620
   3 N :    0.217299
   4 N :    0.210633
   5 H :   -0.003963
   6 H :   -0.019852
   7 H :   -0.062591
   8 H :   -0.010191
   9 H :   -0.011121
  10 C :    0.136680
  11 H :    0.004167
  12 H :   -0.013662
  13 H :   -0.030002
  14 H :   -0.025791
  15 H :   -0.031527

  Mayer bond orders larger than 0.100000
B(  0-C ,  1-C ) :   1.2627 B(  0-C ,  2-C ) :   0.1869 B(  0-C ,  7-H ) :   0.3940
B(  0-C , 10-C ) :   1.2335 B(  0-C , 11-H ) :   0.6996 B(  0-C , 12-H ) :   0.7312
B(  0-C , 13-H ) :   0.2920 B(  0-C , 14-H ) :   0.2975 B(  0-C , 15-H ) :   0.2853
B(  1-C ,  2-C ) :   1.5751 B(  1-C ,  3-N ) :   0.1738 B(  1-C ,  4-N ) :   0.2423
B(  1-C ,  7-H ) :   0.5109 B(  1-C , 11-H ) :   0.2561 B(  1-C , 12-H ) :   0.2835
B(  2-C ,  3-N ) :   1.1996 B(  2-C ,  4-N ) :   1.1005 B(  2-C ,  7-H ) :   0.3388
B(  3-N ,  4-N ) :   0.1364 B(  3-N ,  8-H ) :   1.0068 B(  3-N ,  9-H ) :   1.2077
B(  4-N ,  5-H ) :   0.9586 B(  4-N ,  6-H ) :   0.9135 B(  8-H ,  9-H ) :  -0.1540
B( 10-C , 13-H ) :   0.7207 B( 10-C , 14-H ) :   0.6852 B( 10-C , 15-H ) :   0.6866

Dispersion correction           -0.026197423
FINAL SINGLE POINT ENERGY      -267.618550269056

DIPOLE MOMENT
-------------
                                X             Y             Z
Electronic contribution:     -0.29508      -1.41559      -5.00375
Nuclear contribution   :     -0.44240       2.20379       4.66256
                        -----------------------------------------
Total Dipole Moment    :     -0.73748       0.78820      -0.34118
                        -----------------------------------------
Magnitude (a.u.)       :      1.13206
Magnitude (Debye)      :      2.87746

Rotational constants in cm-1:     0.209447     0.075194     0.066975
Rotational constants in MHz :  6279.068019  2254.272519  2007.845458

                             ****ORCA TERMINATED NORMALLY****
TOTAL RUN TIME: 0 days 0 hours 0 minutes 16 seconds 841 msec
