                         Program Version 5.0.0 -  RELEASE  -
|  1> !BLYP D3BJ RIJCOSX def2-SVPD def2/J TightSCF
|  2> *xyz 0 1
|  3> C         -1.10433        0.25137       -2.86006
|  4> C         -0.71189        0.84252       -4.21834
|  5> H          0.15463        1.49980       -4.13091
|  6> H         -1.53813        1.45922       -4.58267
|  7> C         -0.39762       -0.20587       -5.28802
|  8> O          0.61717       -0.00535       -5.99827
|  9> F         -1.13317       -1.22138       -5.34147
| 10> H         -1.95489       -0.38644       -2.98099
| 11> H         -1.34603        1.04362       -2.18269
| 12> H         -0.28606       -0.31581       -2.46809
| 13> *
| 14>
| 15> %MaxCore 64000
| 16>
| 17> %pal nprocs 4
| 18> end
| 19>
| 20> %scf
| 21>   MaxIter 150
| 22> end
| 23>
| 24>
| 25>                          ****END OF INPUT****

CARTESIAN COORDINATES (ANGSTROEM)
---------------------------------
  C     -1.104330    0.251370   -2.860060
  C     -0.711890    0.842520   -4.218340
  H      0.154630    1.499800   -4.130910
  H     -1.538130    1.459220   -4.582670
  C     -0.397620   -0.205870   -5.288020
  O      0.617170   -0.005350   -5.998270
  F     -1.133170   -1.221380   -5.341470
  H     -1.954890   -0.386440   -2.980990
  H     -1.346030    1.043620   -2.182690
  H     -0.286060   -0.315810   -2.468090

 Total Charge           Charge          ....    0
 Multiplicity           Mult            ....    1
 Number of Electrons    NEL             ....   40
 Basis Dimension        Dim             ....  146

ORBITAL ENERGIES
----------------

  NO   OCC          E(Eh)            E(eV)
   0   2.0000     -24.376826      -663.3272
   1   2.0000     -18.798356      -511.5293
   2   2.0000     -10.096516      -274.7402
   3   2.0000      -9.954943      -270.8878
   4   2.0000      -9.933131      -270.2942
   5   2.0000      -1.198835       -32.6220
   6   2.0000      -0.931878       -25.3577
   7   2.0000      -0.719291       -19.5729
   8   2.0000      -0.611729       -16.6460
   9   2.0000      -0.576226       -15.6799
  10   2.0000      -0.490661       -13.3516
  11   2.0000      -0.480084       -13.0637
  12   2.0000      -0.437440       -11.9033
  13   2.0000      -0.414532       -11.2800
  14   2.0000      -0.382762       -10.4155
  15   2.0000      -0.354628        -9.6499
  16   2.0000      -0.338479        -9.2105
  17   2.0000      -0.333194        -9.0667
  18   2.0000      -0.308529        -8.3955
  19   2.0000      -0.240934        -6.5561
  20   0.0000      -0.066760        -1.8166
  21   0.0000      -0.008736        -0.2377
  22   0.0000       0.028286         0.7697
  23   0.0000       0.037191         1.0120
  24   0.0000       0.052911         1.4398

MULLIKEN ATOMIC CHARGES
-----------------------
   0 C :    1.004154
   1 C :   -0.053150
   2 H :   -0.188840
   3 H :   -0.086008
   4 C :    0.555195
   5 O :   -0.367971
   6 F :   -0.323494
   7 H :   -0.159690
   8 H :   -0.199684
   9 H :   -0.180511
Sum of atomic charges:   -0.0000000

LOEWDIN ATOMIC CHARGES
----------------------
   0 C :    0.146602
   1 C :    0.018373
   2 H :    0.027980
   3 H :    0.032764
   4 C :   -0.045415
   5 O :   -0.115150
   6 F :   -0.010703
   7 H :   -0.021211
   8 H :   -0.018646
   9 H :   -0.014594

  Mayer bond orders larger than 0.100000
B(  0-C ,  1-C ) :   1.3056 B(  0-C ,  3-H ) :   0.1076 B(  0-C ,  7-H ) :   0.7297
B(  0-C ,  8-H ) :   0.7291 B(  0-C ,  9-H ) :   0.7539 B(  1-C ,  2-H ) :   0.9073
B(  1-C ,  3-H ) :   0.7960 B(  1-C ,  4-C ) :   1.0546 B(  1-C ,  7-H ) :   0.2284
B(  1-C ,  8-H ) :   0.2458 B(  1-C ,  9-H ) :   0.2079 B(  2-H ,  4-C ) :   0.1787
B(  4-C ,  5-O ) :   1.8794 B(  4-C ,  6-F ) :   0.8099 B(  5-O ,  6-F ) :   0.1321

Dispersion correction           -0.012728483
FINAL SINGLE POINT ENERGY      -292.126832419132

DIPOLE MOMENT
-------------
                                X             Y             Z
Electronic contribution:      0.69429      -4.37718      -6.60881
Nuclear contribution   :     -1.45527       4.68977       7.53208
                        -----------------------------------------
Total Dipole Moment    :     -0.76097       0.31259       0.92326
                        -----------------------------------------
Magnitude (a.u.)       :      1.23661
Magnitude (Debye)      :      3.14321

Rotational constants in cm-1:     0.298240     0.132464     0.099915
Rotational constants in MHz :  8940.998095  3971.171647  2995.369122

                             ****ORCA TERMINATED NORMALLY****
TOTAL RUN TIME: 0 days 0 hours 0 minutes 8 seconds 713 msec
