                         Program Version 5.0.0 -  RELEASE  -
|  1> !BLYP D3BJ RIJCOSX def2-SVPD def2/J TightSCF
|  2> *xyz 0 1
|  3> C          2.23447       -2.98975       -2.39762
|  4> N          2.75680       -2.94555       -3.76503
|  5> C          1.98721       -2.59045       -4.81898
|  6> C          0.74322       -3.01749       -4.91352
|  7> N          2.49964       -1.84860       -5.80324
|  8> H          3.30978       -1.29282       -5.55895
|  9> H          1.80103       -1.30430       -6.28913
| 10> H          3.71612       -2.62880       -3.82953
| 11> H          0.39583       -3.62775       -4.18502
| 12> H          0.03920       -2.45438       -5.37137
| 13> C          2.19120       -1.61950       -1.71549
| 14> H          2.87278       -3.66637       -1.82801
| 15> H          1.24619       -3.44744       -2.40784
| 16> H          1.56387       -0.96046       -2.27853
| 17> H          3.18033       -1.21449       -1.66568
| 18> H          1.79916       -1.72608       -0.72562
| 19> *
| 20>
| 21> %MaxCore 64000
| 22>
| 23> %pal nprocs 4
| 24> end
| 25>
| 26> %scf
| 27>   MaxIter 150
| 28> end
| 29>
| 30>
| 31>                          ****END OF INPUT****

CARTESIAN COORDINATES (ANGSTROEM)
---------------------------------
  C      2.234470   -2.989750   -2.397620
  N      2.756800   -2.945550   -3.765030
  C      1.987210   -2.590450   -4.818980
  C      0.743220   -3.017490   -4.913520
  N      2.499640   -1.848600   -5.803240
  H      3.309780   -1.292820   -5.558950
  H      1.801030   -1.304300   -6.289130
  H      3.716120   -2.628800   -3.829530
  H      0.395830   -3.627750   -4.185020
  H      0.039200   -2.454380   -5.371370
  C      2.191200   -1.619500   -1.715490
  H      2.872780   -3.666370   -1.828010
  H      1.246190   -3.447440   -2.407840
  H      1.563870   -0.960460   -2.278530
  H      3.180330   -1.214490   -1.665680
  H      1.799160   -1.726080   -0.725620

 Total Charge           Charge          ....    0
 Multiplicity           Mult            ....    1
 Number of Electrons    NEL             ....   48
 Basis Dimension        Dim             ....  200

ORBITAL ENERGIES
----------------

  NO   OCC          E(Eh)            E(eV)
   0   2.0000     -14.026595      -381.6831
   1   2.0000     -14.025707      -381.6589
   2   2.0000      -9.963395      -271.1178
   3   2.0000      -9.954779      -270.8833
   4   2.0000      -9.913782      -269.7677
   5   2.0000      -9.843572      -267.8572
   6   2.0000      -0.871343       -23.7104
   7   2.0000      -0.797656       -21.7053
   8   2.0000      -0.674380       -18.3508
   9   2.0000      -0.635137       -17.2830
  10   2.0000      -0.570481       -15.5236
  11   2.0000      -0.500585       -13.6216
  12   2.0000      -0.488106       -13.2820
  13   2.0000      -0.457297       -12.4437
  14   2.0000      -0.411138       -11.1876
  15   2.0000      -0.395986       -10.7753
  16   2.0000      -0.367176        -9.9914
  17   2.0000      -0.350508        -9.5378
  18   2.0000      -0.345698        -9.4069
  19   2.0000      -0.325384        -8.8541
  20   2.0000      -0.311290        -8.4706
  21   2.0000      -0.303723        -8.2647
  22   2.0000      -0.209841        -5.7101
  23   2.0000      -0.142705        -3.8832
  24   0.0000      -0.009947        -0.2707
  25   0.0000       0.017433         0.4744
  26   0.0000       0.020157         0.5485
  27   0.0000       0.031534         0.8581
  28   0.0000       0.041604         1.1321

MULLIKEN ATOMIC CHARGES
-----------------------
   0 C :    0.542321
   1 N :   -0.102193
   2 C :    0.299336
   3 C :    0.570438
   4 N :    0.268542
   5 H :   -0.159229
   6 H :   -0.030789
   7 H :   -0.369617
   8 H :   -0.258931
   9 H :   -0.551840
  10 C :    1.088233
  11 H :   -0.435381
  12 H :   -0.252437
  13 H :   -0.233946
  14 H :   -0.192021
  15 H :   -0.182486
Sum of atomic charges:    0.0000000

LOEWDIN ATOMIC CHARGES
----------------------
   0 C :    0.018108
   1 N :    0.012346
   2 C :   -0.258779
   3 C :    0.172462
   4 N :    0.208296
   5 H :   -0.024132
   6 H :   -0.006543
   7 H :    0.004330
   8 H :   -0.109294
   9 H :   -0.099559
  10 C :    0.150093
  11 H :    0.010723
  12 H :    0.002237
  13 H :   -0.026383
  14 H :   -0.029349
  15 H :   -0.024557

  Mayer bond orders larger than 0.100000
B(  0-C ,  1-N ) :   0.9375 B(  0-C ,  3-C ) :   0.1096 B(  0-C , 10-C ) :   1.2286
B(  0-C , 11-H ) :   0.7270 B(  0-C , 12-H ) :   0.7769 B(  0-C , 13-H ) :   0.2997
B(  0-C , 14-H ) :   0.2645 B(  0-C , 15-H ) :   0.2577 B(  1-N ,  2-C ) :   1.0979
B(  1-N ,  3-C ) :   0.2877 B(  1-N ,  4-N ) :   0.1403 B(  1-N ,  7-H ) :   1.0815
B(  1-N , 11-H ) :   0.2236 B(  1-N , 12-H ) :   0.1375 B(  2-C ,  3-C ) :   1.5813
B(  2-C ,  4-N ) :   1.0109 B(  2-C ,  7-H ) :  -0.1470 B(  2-C ,  8-H ) :   0.3329
B(  2-C ,  9-H ) :   0.1567 B(  3-C ,  4-N ) :   0.2655 B(  3-C ,  8-H ) :   0.4073
B(  3-C ,  9-H ) :   0.7587 B(  4-N ,  5-H ) :   0.9487 B(  4-N ,  6-H ) :   0.9668
B(  8-H ,  9-H ) :   0.2219 B( 10-C , 12-H ) :   0.1005 B( 10-C , 13-H ) :   0.7134
B( 10-C , 14-H ) :   0.7177 B( 10-C , 15-H ) :   0.7109

Dispersion correction           -0.026016214
FINAL SINGLE POINT ENERGY      -267.612718006033

DIPOLE MOMENT
-------------
                                X             Y             Z
Electronic contribution:      1.48734      -1.29517      -3.85736
Nuclear contribution   :     -0.86957       2.18853       4.41892
                        -----------------------------------------
Total Dipole Moment    :      0.61778       0.89336       0.56156
                        -----------------------------------------
Magnitude (a.u.)       :      1.22273
Magnitude (Debye)      :      3.10794

Rotational constants in cm-1:     0.214718     0.075736     0.068547
Rotational constants in MHz :  6437.075121  2270.519635  2054.974198

                             ****ORCA TERMINATED NORMALLY****
TOTAL RUN TIME: 0 days 0 hours 0 minutes 16 seconds 877 msec
