                         Program Version 5.0.0 -  RELEASE  -
|  1> !BLYP D3BJ RIJCOSX def2-SVPD def2/J TightSCF
|  2> *xyz 0 1
|  3> C          2.23447       -2.98975       -2.39762
|  4> N          2.75680       -2.94555       -3.76503
|  5> C          1.98721       -2.59045       -4.81898
|  6> N          0.74322       -3.01749       -4.91352
|  7> C          2.49964       -1.84860       -5.80324
|  8> H          3.30978       -1.29282       -5.55895
|  9> H          1.80103       -1.30430       -6.28913
| 10> H          3.71612       -2.62880       -3.82953
| 11> H          0.39583       -3.62775       -4.18502
| 12> H          0.03920       -2.45438       -5.37137
| 13> C          2.19120       -1.61950       -1.71549
| 14> H          2.87278       -3.66637       -1.82801
| 15> H          1.24619       -3.44744       -2.40784
| 16> H          1.56387       -0.96046       -2.27853
| 17> H          3.18033       -1.21449       -1.66568
| 18> H          1.79916       -1.72608       -0.72562
| 19> *
| 20>
| 21> %MaxCore 64000
| 22>
| 23> %pal nprocs 4
| 24> end
| 25>
| 26> %scf
| 27>   MaxIter 150
| 28> end
| 29>
| 30>
| 31>                          ****END OF INPUT****

CARTESIAN COORDINATES (ANGSTROEM)
---------------------------------
  C      2.234470   -2.989750   -2.397620
  N      2.756800   -2.945550   -3.765030
  C      1.987210   -2.590450   -4.818980
  N      0.743220   -3.017490   -4.913520
  C      2.499640   -1.848600   -5.803240
  H      3.309780   -1.292820   -5.558950
  H      1.801030   -1.304300   -6.289130
  H      3.716120   -2.628800   -3.829530
  H      0.395830   -3.627750   -4.185020
  H      0.039200   -2.454380   -5.371370
  C      2.191200   -1.619500   -1.715490
  H      2.872780   -3.666370   -1.828010
  H      1.246190   -3.447440   -2.407840
  H      1.563870   -0.960460   -2.278530
  H      3.180330   -1.214490   -1.665680
  H      1.799160   -1.726080   -0.725620

 Total Charge           Charge          ....    0
 Multiplicity           Mult            ....    1
 Number of Electrons    NEL             ....   48
 Basis Dimension        Dim             ....  200

ORBITAL ENERGIES
----------------

  NO   OCC          E(Eh)            E(eV)
   0   2.0000     -14.028855      -381.7446
   1   2.0000     -14.025060      -381.6413
   2   2.0000      -9.965881      -271.1854
   3   2.0000      -9.962625      -271.0968
   4   2.0000      -9.917432      -269.8671
   5   2.0000      -9.838582      -267.7214
   6   2.0000      -0.872812       -23.7504
   7   2.0000      -0.797479       -21.7005
   8   2.0000      -0.685657       -18.6577
   9   2.0000      -0.628529       -17.1031
  10   2.0000      -0.559816       -15.2334
  11   2.0000      -0.539257       -14.6739
  12   2.0000      -0.483238       -13.1496
  13   2.0000      -0.439722       -11.9654
  14   2.0000      -0.436271       -11.8715
  15   2.0000      -0.389699       -10.6043
  16   2.0000      -0.377140       -10.2625
  17   2.0000      -0.353294        -9.6136
  18   2.0000      -0.331767        -9.0278
  19   2.0000      -0.320953        -8.7336
  20   2.0000      -0.317547        -8.6409
  21   2.0000      -0.308924        -8.4063
  22   2.0000      -0.211904        -5.7662
  23   2.0000      -0.137941        -3.7536
  24   0.0000      -0.010508        -0.2859
  25   0.0000       0.015327         0.4171
  26   0.0000       0.016170         0.4400
  27   0.0000       0.028268         0.7692
  28   0.0000       0.040196         1.0938

MULLIKEN ATOMIC CHARGES
-----------------------
   0 C :    0.602566
   1 N :   -0.253808
   2 C :    0.212833
   3 N :    0.466603
   4 C :    0.715159
   5 H :   -0.291601
   6 H :   -0.584764
   7 H :   -0.236110
   8 H :   -0.204564
   9 H :   -0.166076
  10 C :    1.062283
  11 H :   -0.444512
  12 H :   -0.298920
  13 H :   -0.246520
  14 H :   -0.189141
  15 H :   -0.143429
Sum of atomic charges:    0.0000000

LOEWDIN ATOMIC CHARGES
----------------------
   0 C :    0.010745
   1 N :    0.015101
   2 C :   -0.255512
   3 N :    0.218428
   4 C :    0.155590
   5 H :   -0.111839
   6 H :   -0.112620
   7 H :    0.019075
   8 H :   -0.026446
   9 H :    0.005906
  10 C :    0.151122
  11 H :    0.009477
  12 H :   -0.004990
  13 H :   -0.024830
  14 H :   -0.024251
  15 H :   -0.024956

  Mayer bond orders larger than 0.100000
B(  0-C ,  1-N ) :   0.9547 B(  0-C ,  7-H ) :  -0.1073 B(  0-C , 10-C ) :   1.2401
B(  0-C , 11-H ) :   0.7146 B(  0-C , 12-H ) :   0.7578 B(  0-C , 13-H ) :   0.2779
B(  0-C , 14-H ) :   0.2685 B(  0-C , 15-H ) :   0.2458 B(  1-N ,  2-C ) :   1.0784
B(  1-N ,  4-C ) :   0.2329 B(  1-N ,  7-H ) :   1.1303 B(  1-N , 11-H ) :   0.2499
B(  1-N , 12-H ) :   0.1544 B(  2-C ,  3-N ) :   1.1375 B(  2-C ,  4-C ) :   1.7656
B(  2-C ,  5-H ) :   0.2777 B(  2-C ,  6-H ) :   0.3002 B(  2-C ,  7-H ) :  -0.1417
B(  3-N ,  4-C ) :   0.2517 B(  3-N ,  8-H ) :   0.9706 B(  3-N ,  9-H ) :   1.1320
B(  4-C ,  5-H ) :   0.6258 B(  4-C ,  6-H ) :   0.5538 B(  5-H ,  6-H ) :   0.3089
B(  8-H ,  9-H ) :  -0.1688 B( 10-C , 12-H ) :   0.1053 B( 10-C , 13-H ) :   0.7276
B( 10-C , 14-H ) :   0.7019 B( 10-C , 15-H ) :   0.7087

Dispersion correction           -0.025912518
FINAL SINGLE POINT ENERGY      -267.608140030833

DIPOLE MOMENT
-------------
                                X             Y             Z
Electronic contribution:     -0.10383      -2.41091      -2.99387
Nuclear contribution   :     -0.49695       2.43650       4.23017
                        -----------------------------------------
Total Dipole Moment    :     -0.60078       0.02559       1.23630
                        -----------------------------------------
Magnitude (a.u.)       :      1.37478
Magnitude (Debye)      :      3.49442

Rotational constants in cm-1:     0.211102     0.077011     0.069221
Rotational constants in MHz :  6328.667765  2308.731604  2075.192956

                             ****ORCA TERMINATED NORMALLY****
TOTAL RUN TIME: 0 days 0 hours 0 minutes 13 seconds 623 msec
