                         Program Version 5.0.0 -  RELEASE  -
|  1> !PBE D3BJ RIJCOSX def2-SVPD def2/J TightSCF
|  2> *xyz -1 1
|  3> C          4.08422        1.74208       -2.11472
|  4> C          4.26524        2.50052       -0.79589
|  5> H          4.86853        3.39267       -0.98113
|  6> H          3.30764        2.82457       -0.38781
|  7> C          4.98224        1.65026        0.24742
|  8> O          4.36806        1.38927        1.31371
|  9> O          6.12892        1.23351       -0.04562
| 10> H          3.57911        2.36849       -2.81997
| 11> H          3.50424        0.85965       -1.94198
| 12> H          5.04288        1.46841       -2.50327
| 13> *
| 14> %MaxCore 64000
| 15> %pal nprocs 8
| 16> end
| 17> %scf
| 18>   MaxIter 150
| 19> end
| 20>
| 21>
| 22>                          ****END OF INPUT****

CARTESIAN COORDINATES (ANGSTROEM)
---------------------------------
  C      4.084220    1.742080   -2.114720
  C      4.265240    2.500520   -0.795890
  H      4.868530    3.392670   -0.981130
  H      3.307640    2.824570   -0.387810
  C      4.982240    1.650260    0.247420
  O      4.368060    1.389270    1.313710
  O      6.128920    1.233510   -0.045620
  H      3.579110    2.368490   -2.819970
  H      3.504240    0.859650   -1.941980
  H      5.042880    1.468410   -2.503270

 Total Charge           Charge          ....   -1
 Multiplicity           Mult            ....    1
 Number of Electrons    NEL             ....   40
 Basis Dimension        Dim             ....  146

ORBITAL ENERGIES
----------------

  NO   OCC          E(Eh)            E(eV)
   0   2.0000     -18.505302      -503.5549
   1   2.0000     -18.504851      -503.5426
   2   2.0000      -9.771345      -265.8918
   3   2.0000      -9.733849      -264.8715
   4   2.0000      -9.721349      -264.5314
   5   2.0000      -0.725209       -19.7339
   6   2.0000      -0.635874       -17.3030
   7   2.0000      -0.528560       -14.3829
   8   2.0000      -0.405399       -11.0315
   9   2.0000      -0.266405        -7.2492
  10   2.0000      -0.243389        -6.6230
  11   2.0000      -0.207408        -5.6439
  12   2.0000      -0.184665        -5.0250
  13   2.0000      -0.167076        -4.5464
  14   2.0000      -0.159976        -4.3532
  15   2.0000      -0.131719        -3.5843
  16   2.0000      -0.120971        -3.2918
  17   2.0000      -0.013936        -0.3792
  18   2.0000       0.000431         0.0117
  19   2.0000       0.017814         0.4847
  20   0.0000       0.139173         3.7871
  21   0.0000       0.172593         4.6965
  22   0.0000       0.187267         5.0958
  23   0.0000       0.198721         5.4075
  24   0.0000       0.214693         5.8421

MULLIKEN ATOMIC CHARGES
-----------------------
   0 C :    0.539403
   1 C :   -0.320919
   2 H :    0.000952
   3 H :   -0.052812
   4 C :    0.382119
   5 O :   -0.658438
   6 O :   -0.683407
   7 H :   -0.087859
   8 H :   -0.083835
   9 H :   -0.035204
Sum of atomic charges:   -1.0000000

LOEWDIN ATOMIC CHARGES
----------------------
   0 C :    0.098168
   1 C :   -0.046497
   2 H :    0.006299
   3 H :   -0.003693
   4 C :   -0.330808
   5 O :   -0.316585
   6 O :   -0.307606
   7 H :   -0.046130
   8 H :   -0.023603
   9 H :   -0.029546

  Mayer bond orders larger than 0.100000
B(  0-C ,  1-C ) :   1.3250 B(  0-C ,  7-H ) :   0.8477 B(  0-C ,  8-H ) :   0.8506
B(  0-C ,  9-H ) :   0.8257 B(  1-C ,  2-H ) :   0.8844 B(  1-C ,  3-H ) :   0.9717
B(  1-C ,  4-C ) :   1.0759 B(  1-C ,  7-H ) :   0.1683 B(  1-C ,  8-H ) :   0.1798
B(  1-C ,  9-H ) :   0.2021 B(  3-H ,  4-C ) :   0.1803 B(  4-C ,  5-O ) :   1.4426
B(  4-C ,  6-O ) :   1.4824

Dispersion correction           -0.006551424
FINAL SINGLE POINT ENERGY      -267.357013467812

DIPOLE MOMENT
-------------
                                X             Y             Z
Electronic contribution:      2.46593      -1.49785       5.15588
Nuclear contribution   :     -3.31311       2.28398      -6.76358
                        -----------------------------------------
Total Dipole Moment    :     -0.84718       0.78613      -1.60770
                        -----------------------------------------
Magnitude (a.u.)       :      1.98001
Magnitude (Debye)      :      5.03278

Rotational constants in cm-1:     0.309287     0.135287     0.107346
Rotational constants in MHz :  9272.201029  4055.789113  3218.155789

                             ****ORCA TERMINATED NORMALLY****
TOTAL RUN TIME: 0 days 0 hours 0 minutes 9 seconds 113 msec
