                         Program Version 5.0.0 -  RELEASE  -
|  1> !PBE D3BJ RIJCOSX def2-SVPD def2/J TightSCF
|  2> *xyz 1 1
|  3> C          3.91385       -1.65829        3.01513
|  4> N          5.03927       -0.90115        2.49282
|  5> C          6.21038       -1.41726        2.17824
|  6> N          6.53591       -2.67712        2.55608
|  7> N          7.07675       -0.70082        1.47891
|  8> H          7.95464       -1.12155        1.20755
|  9> H          6.75616        0.10664        0.96028
| 10> H          4.84217        0.01761        2.11519
| 11> H          5.99388       -3.12692        3.28278
| 12> C          3.13916       -2.37657        1.91061
| 13> H          3.26723       -0.93940        3.52069
| 14> H          4.24720       -2.35509        3.79006
| 15> H          7.49844       -2.97548        2.46878
| 16> H          2.82969       -1.66654        1.17238
| 17> H          2.27790       -2.85264        2.33072
| 18> H          3.76754       -3.11338        1.45548
| 19> *
| 20> %MaxCore 64000
| 21> %pal nprocs 8
| 22> end
| 23> %scf
| 24>   MaxIter 150
| 25> end
| 26>
| 27>
| 28>                          ****END OF INPUT****

CARTESIAN COORDINATES (ANGSTROEM)
---------------------------------
  C      3.913850   -1.658290    3.015130
  N      5.039270   -0.901150    2.492820
  C      6.210380   -1.417260    2.178240
  N      6.535910   -2.677120    2.556080
  N      7.076750   -0.700820    1.478910
  H      7.954640   -1.121550    1.207550
  H      6.756160    0.106640    0.960280
  H      4.842170    0.017610    2.115190
  H      5.993880   -3.126920    3.282780
  C      3.139160   -2.376570    1.910610
  H      3.267230   -0.939400    3.520690
  H      4.247200   -2.355090    3.790060
  H      7.498440   -2.975480    2.468780
  H      2.829690   -1.666540    1.172380
  H      2.277900   -2.852640    2.330720
  H      3.767540   -3.113380    1.455480

 Total Charge           Charge          ....    1
 Multiplicity           Mult            ....    1
 Number of Electrons    NEL             ....   48
 Basis Dimension        Dim             ....  200

ORBITAL ENERGIES
----------------

  NO   OCC          E(Eh)            E(eV)
   0   2.0000     -14.226744      -387.1294
   1   2.0000     -14.223507      -387.0413
   2   2.0000     -14.221197      -386.9784
   3   2.0000     -10.219353      -278.0827
   4   2.0000     -10.105194      -274.9763
   5   2.0000     -10.033441      -273.0238
   6   2.0000      -1.125426       -30.6244
   7   2.0000      -1.023396       -27.8480
   8   2.0000      -1.007132       -27.4054
   9   2.0000      -0.859094       -23.3771
  10   2.0000      -0.779070       -21.1996
  11   2.0000      -0.743184       -20.2231
  12   2.0000      -0.734136       -19.9769
  13   2.0000      -0.690534       -18.7904
  14   2.0000      -0.645164       -17.5558
  15   2.0000      -0.639394       -17.3988
  16   2.0000      -0.608819       -16.5668
  17   2.0000      -0.583451       -15.8765
  18   2.0000      -0.556246       -15.1362
  19   2.0000      -0.520065       -14.1517
  20   2.0000      -0.489599       -13.3227
  21   2.0000      -0.471003       -12.8166
  22   2.0000      -0.438127       -11.9220
  23   2.0000      -0.414647       -11.2831
  24   0.0000      -0.204818        -5.5734
  25   0.0000      -0.177239        -4.8229
  26   0.0000      -0.146315        -3.9814
  27   0.0000      -0.137229        -3.7342
  28   0.0000      -0.116704        -3.1757

MULLIKEN ATOMIC CHARGES
-----------------------
   0 C :    0.325240
   1 N :   -0.353983
   2 C :    1.398626
   3 N :    0.041351
   4 N :   -0.026660
   5 H :   -0.032976
   6 H :   -0.069429
   7 H :   -0.266110
   8 H :   -0.055262
   9 C :    0.707981
  10 H :   -0.316673
  11 H :   -0.076965
  12 H :   -0.182350
  13 H :   -0.043872
  14 H :    0.013933
  15 H :   -0.062851
Sum of atomic charges:    1.0000000

LOEWDIN ATOMIC CHARGES
----------------------
   0 C :    0.036225
   1 N :    0.051967
   2 C :   -0.056555
   3 N :    0.293527
   4 N :    0.273615
   5 H :    0.037729
   6 H :    0.039374
   7 H :    0.061800
   8 H :    0.011378
   9 C :    0.164413
  10 H :    0.043472
  11 H :    0.026076
  12 H :    0.032928
  13 H :   -0.005149
  14 H :    0.004014
  15 H :   -0.014815

  Mayer bond orders larger than 0.100000
B(  0-C ,  1-N ) :   0.9680 B(  0-C ,  7-H ) :  -0.1692 B(  0-C ,  9-C ) :   1.2882
B(  0-C , 10-H ) :   0.8495 B(  0-C , 11-H ) :   0.8731 B(  0-C , 13-H ) :   0.2408
B(  0-C , 14-H ) :   0.1720 B(  0-C , 15-H ) :   0.1975 B(  1-N ,  2-C ) :   1.0049
B(  1-N ,  3-N ) :   0.2440 B(  1-N ,  4-N ) :   0.2994 B(  1-N ,  7-H ) :   1.3040
B(  1-N , 10-H ) :   0.2071 B(  1-N , 11-H ) :   0.1332 B(  2-C ,  3-N ) :   0.8965
B(  2-C ,  4-N ) :   0.7984 B(  2-C ,  6-H ) :  -0.1777 B(  2-C ,  7-H ) :  -0.2732
B(  2-C ,  8-H ) :  -0.1221 B(  2-C , 12-H ) :  -0.1612 B(  3-N ,  4-N ) :   0.1769
B(  3-N ,  8-H ) :   1.0631 B(  3-N , 12-H ) :   1.2606 B(  4-N ,  5-H ) :   1.1398
B(  4-N ,  6-H ) :   1.1957 B(  5-H ,  6-H ) :  -0.1657 B(  8-H , 12-H ) :  -0.1993
B(  9-C , 13-H ) :   0.7875 B(  9-C , 14-H ) :   0.7846 B(  9-C , 15-H ) :   0.8326

Dispersion correction           -0.012423308
FINAL SINGLE POINT ENERGY      -283.866141561671

DIPOLE MOMENT
-------------
                                X             Y             Z
Electronic contribution:      4.68041       1.90271       0.07872
Nuclear contribution   :     -3.67981      -1.62355      -0.28562
                        -----------------------------------------
Total Dipole Moment    :      1.00060       0.27917      -0.20690
                        -----------------------------------------
Magnitude (a.u.)       :      1.05922
Magnitude (Debye)      :      2.69231

Rotational constants in cm-1:     0.222027     0.074735     0.065694
Rotational constants in MHz :  6656.200457  2240.503315  1969.451902

                             ****ORCA TERMINATED NORMALLY****
TOTAL RUN TIME: 0 days 0 hours 0 minutes 12 seconds 126 msec
