                         Program Version 5.0.0 -  RELEASE  -
|  1> !PBE D3BJ RIJCOSX def2-SVPD def2/J TightSCF
|  2> *xyz 0 1
|  3> C          4.08422        1.74208       -2.11472
|  4> C          4.26524        2.50052       -0.79589
|  5> H          4.86853        3.39267       -0.98113
|  6> H          3.30764        2.82457       -0.38781
|  7> C          4.98224        1.65026        0.24742
|  8> F          4.36806        1.38927        1.31371
|  9> O          6.12892        1.23351       -0.04562
| 10> H          3.57911        2.36849       -2.81997
| 11> H          3.50424        0.85965       -1.94198
| 12> H          5.04288        1.46841       -2.50327
| 13> *
| 14> %MaxCore 64000
| 15> %pal nprocs 8
| 16> end
| 17> %scf
| 18>   MaxIter 150
| 19> end
| 20>
| 21>
| 22>                          ****END OF INPUT****

CARTESIAN COORDINATES (ANGSTROEM)
---------------------------------
  C      4.084220    1.742080   -2.114720
  C      4.265240    2.500520   -0.795890
  H      4.868530    3.392670   -0.981130
  H      3.307640    2.824570   -0.387810
  C      4.982240    1.650260    0.247420
  F      4.368060    1.389270    1.313710
  O      6.128920    1.233510   -0.045620
  H      3.579110    2.368490   -2.819970
  H      3.504240    0.859650   -1.941980
  H      5.042880    1.468410   -2.503270

 Total Charge           Charge          ....    0
 Multiplicity           Mult            ....    1
 Number of Electrons    NEL             ....   40
 Basis Dimension        Dim             ....  146

ORBITAL ENERGIES
----------------

  NO   OCC          E(Eh)            E(eV)
   0   2.0000     -24.344759      -662.4546
   1   2.0000     -18.772726      -510.8318
   2   2.0000     -10.066623      -273.9267
   3   2.0000      -9.928888      -270.1788
   4   2.0000      -9.903236      -269.4808
   5   2.0000      -1.203335       -32.7444
   6   2.0000      -0.940038       -25.5797
   7   2.0000      -0.724781       -19.7223
   8   2.0000      -0.620515       -16.8851
   9   2.0000      -0.575891       -15.6708
  10   2.0000      -0.492516       -13.4021
  11   2.0000      -0.476384       -12.9631
  12   2.0000      -0.450997       -12.2723
  13   2.0000      -0.417341       -11.3564
  14   2.0000      -0.386272       -10.5110
  15   2.0000      -0.358278        -9.7492
  16   2.0000      -0.335664        -9.1339
  17   2.0000      -0.331361        -9.0168
  18   2.0000      -0.310465        -8.4482
  19   2.0000      -0.247815        -6.7434
  20   0.0000      -0.072390        -1.9698
  21   0.0000      -0.003431        -0.0934
  22   0.0000       0.028322         0.7707
  23   0.0000       0.039959         1.0873
  24   0.0000       0.053542         1.4570

MULLIKEN ATOMIC CHARGES
-----------------------
   0 C :    0.584474
   1 C :   -0.350910
   2 H :    0.056185
   3 H :   -0.031903
   4 C :    0.686447
   5 F :   -0.327071
   6 O :   -0.474224
   7 H :   -0.054664
   8 H :   -0.063410
   9 H :   -0.024924
Sum of atomic charges:    0.0000000

LOEWDIN ATOMIC CHARGES
----------------------
   0 C :    0.141982
   1 C :   -0.001661
   2 H :    0.040722
   3 H :    0.021218
   4 C :   -0.040004
   5 F :   -0.016750
   6 O :   -0.116053
   7 H :   -0.012462
   8 H :   -0.008590
   9 H :   -0.008403

  Mayer bond orders larger than 0.100000
B(  0-C ,  1-C ) :   1.3585 B(  0-C ,  7-H ) :   0.8399 B(  0-C ,  8-H ) :   0.8442
B(  0-C ,  9-H ) :   0.8221 B(  1-C ,  2-H ) :   0.8621 B(  1-C ,  3-H ) :   0.9594
B(  1-C ,  4-C ) :   1.1005 B(  1-C ,  7-H ) :   0.1578 B(  1-C ,  8-H ) :   0.1655
B(  1-C ,  9-H ) :   0.1822 B(  4-C ,  5-F ) :   0.7728 B(  4-C ,  6-O ) :   1.7946
B(  5-F ,  6-O ) :   0.1065

Dispersion correction           -0.006226004
FINAL SINGLE POINT ENERGY      -291.874780814762

DIPOLE MOMENT
-------------
                                X             Y             Z
Electronic contribution:      1.94549      -2.05927       8.14593
Nuclear contribution   :     -2.87511       2.61564      -8.50037
                        -----------------------------------------
Total Dipole Moment    :     -0.92962       0.55637      -0.35443
                        -----------------------------------------
Magnitude (a.u.)       :      1.13989
Magnitude (Debye)      :      2.89738

Rotational constants in cm-1:     0.297822     0.128965     0.102219
Rotational constants in MHz :  8928.481997  3866.271686  3064.463504

                             ****ORCA TERMINATED NORMALLY****
TOTAL RUN TIME: 0 days 0 hours 0 minutes 8 seconds 701 msec
