                         Program Version 5.0.0 -  RELEASE  -
|  1> !PBE D3BJ RIJCOSX def2-SVPD def2/J TightSCF
|  2> *xyz 0 1
|  3> C          3.91385       -1.65829        3.01513
|  4> C          5.03927       -0.90115        2.49282
|  5> C          6.21038       -1.41726        2.17824
|  6> N          6.53591       -2.67712        2.55608
|  7> N          7.07675       -0.70082        1.47891
|  8> H          7.95464       -1.12155        1.20755
|  9> H          6.75616        0.10664        0.96028
| 10> H          4.84217        0.01761        2.11519
| 11> H          5.99388       -3.12692        3.28278
| 12> C          3.13916       -2.37657        1.91061
| 13> H          3.26723       -0.93940        3.52069
| 14> H          4.24720       -2.35509        3.79006
| 15> H          7.49844       -2.97548        2.46878
| 16> H          2.82969       -1.66654        1.17238
| 17> H          2.27790       -2.85264        2.33072
| 18> H          3.76754       -3.11338        1.45548
| 19> *
| 20> %MaxCore 64000
| 21> %pal nprocs 8
| 22> end
| 23> %scf
| 24>   MaxIter 150
| 25> end
| 26>
| 27>
| 28>                          ****END OF INPUT****

CARTESIAN COORDINATES (ANGSTROEM)
---------------------------------
  C      3.913850   -1.658290    3.015130
  C      5.039270   -0.901150    2.492820
  C      6.210380   -1.417260    2.178240
  N      6.535910   -2.677120    2.556080
  N      7.076750   -0.700820    1.478910
  H      7.954640   -1.121550    1.207550
  H      6.756160    0.106640    0.960280
  H      4.842170    0.017610    2.115190
  H      5.993880   -3.126920    3.282780
  C      3.139160   -2.376570    1.910610
  H      3.267230   -0.939400    3.520690
  H      4.247200   -2.355090    3.790060
  H      7.498440   -2.975480    2.468780
  H      2.829690   -1.666540    1.172380
  H      2.277900   -2.852640    2.330720
  H      3.767540   -3.113380    1.455480

 Total Charge           Charge          ....    0
 Multiplicity           Mult            ....    1
 Number of Electrons    NEL             ....   48
 Basis Dimension        Dim             ....  200

ORBITAL ENERGIES
----------------

  NO   OCC          E(Eh)            E(eV)
   0   2.0000     -14.001974      -381.0131
   1   2.0000     -14.000316      -380.9680
   2   2.0000      -9.931699      -270.2553
   3   2.0000      -9.872685      -268.6494
   4   2.0000      -9.860574      -268.3199
   5   2.0000      -9.820075      -267.2178
   6   2.0000      -0.871213       -23.7069
   7   2.0000      -0.786779       -21.4093
   8   2.0000      -0.696003       -18.9392
   9   2.0000      -0.621482       -16.9114
  10   2.0000      -0.552947       -15.0465
  11   2.0000      -0.520366       -14.1599
  12   2.0000      -0.489668       -13.3245
  13   2.0000      -0.457335       -12.4447
  14   2.0000      -0.426955       -11.6180
  15   2.0000      -0.390892       -10.6367
  16   2.0000      -0.371492       -10.1088
  17   2.0000      -0.341519        -9.2932
  18   2.0000      -0.336922        -9.1681
  19   2.0000      -0.313016        -8.5176
  20   2.0000      -0.286601        -7.7988
  21   2.0000      -0.277509        -7.5514
  22   2.0000      -0.224587        -6.1113
  23   2.0000      -0.131753        -3.5852
  24   0.0000      -0.007130        -0.1940
  25   0.0000       0.020807         0.5662
  26   0.0000       0.025248         0.6870
  27   0.0000       0.039879         1.0852
  28   0.0000       0.053326         1.4511

MULLIKEN ATOMIC CHARGES
-----------------------
   0 C :   -0.194810
   1 C :   -0.435868
   2 C :    0.961680
   3 N :   -0.021679
   4 N :    0.002951
   5 H :   -0.156278
   6 H :   -0.062139
   7 H :   -0.161884
   8 H :   -0.037695
   9 C :    0.691087
  10 H :   -0.092406
  11 H :   -0.073615
  12 H :   -0.294434
  13 H :   -0.044484
  14 H :   -0.014983
  15 H :   -0.065441
Sum of atomic charges:    0.0000000

LOEWDIN ATOMIC CHARGES
----------------------
   0 C :   -0.104892
   1 C :   -0.040293
   2 C :   -0.234173
   3 N :    0.214756
   4 N :    0.188608
   5 H :   -0.013533
   6 H :    0.005344
   7 H :   -0.044124
   8 H :   -0.019134
   9 C :    0.121320
  10 H :    0.014561
  11 H :    0.001563
  12 H :   -0.017949
  13 H :   -0.018821
  14 H :   -0.027976
  15 H :   -0.025257

  Mayer bond orders larger than 0.100000
B(  0-C ,  1-C ) :   1.3224 B(  0-C ,  7-H ) :   0.3436 B(  0-C ,  9-C ) :   1.2564
B(  0-C , 10-H ) :   0.7833 B(  0-C , 11-H ) :   0.8653 B(  0-C , 13-H ) :   0.2462
B(  0-C , 14-H ) :   0.1834 B(  0-C , 15-H ) :   0.2116 B(  1-C ,  2-C ) :   1.5913
B(  1-C ,  3-N ) :   0.2410 B(  1-C ,  4-N ) :   0.3873 B(  1-C ,  7-H ) :   0.8192
B(  1-C , 10-H ) :   0.2923 B(  1-C , 11-H ) :   0.2312 B(  2-C ,  3-N ) :   0.8593
B(  2-C ,  4-N ) :   0.7491 B(  2-C ,  6-H ) :  -0.1171 B(  2-C ,  7-H ) :   0.2205
B(  2-C , 12-H ) :  -0.1811 B(  3-N ,  4-N ) :   0.1364 B(  3-N ,  8-H ) :   1.0130
B(  3-N , 12-H ) :   1.3264 B(  4-N ,  5-H ) :   1.1488 B(  4-N ,  6-H ) :   1.1639
B(  5-H ,  6-H ) :  -0.1587 B(  8-H , 12-H ) :  -0.1906 B(  9-C , 13-H ) :   0.8116
B(  9-C , 14-H ) :   0.7886 B(  9-C , 15-H ) :   0.8297

Dispersion correction           -0.012882584
FINAL SINGLE POINT ENERGY      -267.401420245699

DIPOLE MOMENT
-------------
                                X             Y             Z
Electronic contribution:      4.62177       1.24473      -0.03544
Nuclear contribution   :     -3.74303      -1.46908      -0.23637
                        -----------------------------------------
Total Dipole Moment    :      0.87874      -0.22435      -0.27181
                        -----------------------------------------
Magnitude (a.u.)       :      0.94679
Magnitude (Debye)      :      2.40654

Rotational constants in cm-1:     0.225937     0.074877     0.065953
Rotational constants in MHz :  6773.424301  2244.750632  1977.214101

                             ****ORCA TERMINATED NORMALLY****
TOTAL RUN TIME: 0 days 0 hours 0 minutes 12 seconds 500 msec
