                         Program Version 5.0.0 -  RELEASE  -
|  1> !PBE D3BJ RIJCOSX def2-SVPD def2/J TightSCF
|  2> *xyz 0 1
|  3> C          4.08422        1.74208       -2.11472
|  4> C          4.26524        2.50052       -0.79589
|  5> H          4.86853        3.39267       -0.98113
|  6> H          3.30764        2.82457       -0.38781
|  7> C          4.98224        1.65026        0.24742
|  8> O          4.36806        1.38927        1.31371
|  9> F          6.12892        1.23351       -0.04562
| 10> H          3.57911        2.36849       -2.81997
| 11> H          3.50424        0.85965       -1.94198
| 12> H          5.04288        1.46841       -2.50327
| 13> *
| 14> %MaxCore 64000
| 15> %pal nprocs 8
| 16> end
| 17> %scf
| 18>   MaxIter 150
| 19> end
| 20>
| 21>
| 22>                          ****END OF INPUT****

CARTESIAN COORDINATES (ANGSTROEM)
---------------------------------
  C      4.084220    1.742080   -2.114720
  C      4.265240    2.500520   -0.795890
  H      4.868530    3.392670   -0.981130
  H      3.307640    2.824570   -0.387810
  C      4.982240    1.650260    0.247420
  O      4.368060    1.389270    1.313710
  F      6.128920    1.233510   -0.045620
  H      3.579110    2.368490   -2.819970
  H      3.504240    0.859650   -1.941980
  H      5.042880    1.468410   -2.503270

 Total Charge           Charge          ....    0
 Multiplicity           Mult            ....    1
 Number of Electrons    NEL             ....   40
 Basis Dimension        Dim             ....  146

ORBITAL ENERGIES
----------------

  NO   OCC          E(Eh)            E(eV)
   0   2.0000     -24.345977      -662.4877
   1   2.0000     -18.771813      -510.8070
   2   2.0000     -10.066259      -273.9168
   3   2.0000      -9.928615      -270.1713
   4   2.0000      -9.907762      -269.6039
   5   2.0000      -1.205921       -32.8148
   6   2.0000      -0.936944       -25.4955
   7   2.0000      -0.728672       -19.8282
   8   2.0000      -0.618284       -16.8244
   9   2.0000      -0.580824       -15.8050
  10   2.0000      -0.495080       -13.4718
  11   2.0000      -0.481421       -13.1001
  12   2.0000      -0.446224       -12.1424
  13   2.0000      -0.417026       -11.3479
  14   2.0000      -0.387948       -10.5566
  15   2.0000      -0.360819        -9.8184
  16   2.0000      -0.338744        -9.2177
  17   2.0000      -0.334307        -9.0970
  18   2.0000      -0.314518        -8.5585
  19   2.0000      -0.242909        -6.6099
  20   0.0000      -0.069888        -1.9018
  21   0.0000      -0.005669        -0.1543
  22   0.0000       0.029226         0.7953
  23   0.0000       0.039070         1.0632
  24   0.0000       0.054083         1.4717

MULLIKEN ATOMIC CHARGES
-----------------------
   0 C :    0.573258
   1 C :   -0.324290
   2 H :    0.043505
   3 H :   -0.043420
   4 C :    0.704425
   5 O :   -0.457003
   6 F :   -0.346914
   7 H :   -0.052990
   8 H :   -0.060789
   9 H :   -0.035783
Sum of atomic charges:   -0.0000000

LOEWDIN ATOMIC CHARGES
----------------------
   0 C :    0.136965
   1 C :    0.002806
   2 H :    0.035372
   3 H :    0.033735
   4 C :   -0.044428
   5 O :   -0.118952
   6 F :   -0.012893
   7 H :   -0.012131
   8 H :   -0.006856
   9 H :   -0.013619

  Mayer bond orders larger than 0.100000
B(  0-C ,  1-C ) :   1.3362 B(  0-C ,  7-H ) :   0.8468 B(  0-C ,  8-H ) :   0.8561
B(  0-C ,  9-H ) :   0.8165 B(  1-C ,  2-H ) :   0.8617 B(  1-C ,  3-H ) :   0.9783
B(  1-C ,  4-C ) :   1.0752 B(  1-C ,  7-H ) :   0.1578 B(  1-C ,  8-H ) :   0.1601
B(  1-C ,  9-H ) :   0.1753 B(  3-H ,  4-C ) :   0.1295 B(  4-C ,  5-O ) :   1.7832
B(  4-C ,  6-F ) :   0.7518 B(  5-O ,  6-F ) :   0.1162

Dispersion correction           -0.006190232
FINAL SINGLE POINT ENERGY      -291.874000689646

DIPOLE MOMENT
-------------
                                X             Y             Z
Electronic contribution:      4.84498      -2.30542       5.87523
Nuclear contribution   :     -4.79499       2.78546      -7.01827
                        -----------------------------------------
Total Dipole Moment    :      0.04999       0.48005      -1.14304
                        -----------------------------------------
Magnitude (a.u.)       :      1.24076
Magnitude (Debye)      :      3.15377

Rotational constants in cm-1:     0.286098     0.133492     0.103343
Rotational constants in MHz :  8577.003657  4001.981591  3098.148068

                             ****ORCA TERMINATED NORMALLY****
TOTAL RUN TIME: 0 days 0 hours 0 minutes 8 seconds 392 msec
