                         Program Version 5.0.0 -  RELEASE  -
|  1> !PBE D3BJ RIJCOSX def2-SVPD def2/J TightSCF
|  2> *xyz 0 1
|  3> C          3.91385       -1.65829        3.01513
|  4> N          5.03927       -0.90115        2.49282
|  5> C          6.21038       -1.41726        2.17824
|  6> C          6.53591       -2.67712        2.55608
|  7> N          7.07675       -0.70082        1.47891
|  8> H          7.95464       -1.12155        1.20755
|  9> H          6.75616        0.10664        0.96028
| 10> H          4.84217        0.01761        2.11519
| 11> H          5.99388       -3.12692        3.28278
| 12> C          3.13916       -2.37657        1.91061
| 13> H          3.26723       -0.93940        3.52069
| 14> H          4.24720       -2.35509        3.79006
| 15> H          7.49844       -2.97548        2.46878
| 16> H          2.82969       -1.66654        1.17238
| 17> H          2.27790       -2.85264        2.33072
| 18> H          3.76754       -3.11338        1.45548
| 19> *
| 20> %MaxCore 64000
| 21> %pal nprocs 8
| 22> end
| 23> %scf
| 24>   MaxIter 150
| 25> end
| 26>
| 27>
| 28>                          ****END OF INPUT****

CARTESIAN COORDINATES (ANGSTROEM)
---------------------------------
  C      3.913850   -1.658290    3.015130
  N      5.039270   -0.901150    2.492820
  C      6.210380   -1.417260    2.178240
  C      6.535910   -2.677120    2.556080
  N      7.076750   -0.700820    1.478910
  H      7.954640   -1.121550    1.207550
  H      6.756160    0.106640    0.960280
  H      4.842170    0.017610    2.115190
  H      5.993880   -3.126920    3.282780
  C      3.139160   -2.376570    1.910610
  H      3.267230   -0.939400    3.520690
  H      4.247200   -2.355090    3.790060
  H      7.498440   -2.975480    2.468780
  H      2.829690   -1.666540    1.172380
  H      2.277900   -2.852640    2.330720
  H      3.767540   -3.113380    1.455480

 Total Charge           Charge          ....    0
 Multiplicity           Mult            ....    1
 Number of Electrons    NEL             ....   48
 Basis Dimension        Dim             ....  200

ORBITAL ENERGIES
----------------

  NO   OCC          E(Eh)            E(eV)
   0   2.0000     -14.006968      -381.1490
   1   2.0000     -14.002862      -381.0372
   2   2.0000      -9.936773      -270.3933
   3   2.0000      -9.928809      -270.1766
   4   2.0000      -9.878105      -268.7969
   5   2.0000      -9.809747      -266.9368
   6   2.0000      -0.884190       -24.0600
   7   2.0000      -0.805740       -21.9253
   8   2.0000      -0.679432       -18.4883
   9   2.0000      -0.632741       -17.2178
  10   2.0000      -0.577240       -15.7075
  11   2.0000      -0.507409       -13.8073
  12   2.0000      -0.500340       -13.6149
  13   2.0000      -0.469070       -12.7640
  14   2.0000      -0.420690       -11.4475
  15   2.0000      -0.392359       -10.6766
  16   2.0000      -0.372889       -10.1468
  17   2.0000      -0.352504        -9.5921
  18   2.0000      -0.334686        -9.1073
  19   2.0000      -0.321915        -8.7597
  20   2.0000      -0.319533        -8.6949
  21   2.0000      -0.303068        -8.2469
  22   2.0000      -0.212306        -5.7771
  23   2.0000      -0.134621        -3.6632
  24   0.0000      -0.007862        -0.2139
  25   0.0000       0.018157         0.4941
  26   0.0000       0.026650         0.7252
  27   0.0000       0.033093         0.9005
  28   0.0000       0.054804         1.4913

MULLIKEN ATOMIC CHARGES
-----------------------
   0 C :    0.311156
   1 N :   -0.362743
   2 C :    0.748126
   3 C :    0.429201
   4 N :    0.003574
   5 H :   -0.034705
   6 H :   -0.187035
   7 H :   -0.379592
   8 H :   -0.169594
   9 C :    0.694402
  10 H :   -0.363068
  11 H :    0.028815
  12 H :   -0.519589
  13 H :   -0.081691
  14 H :   -0.026201
  15 H :   -0.091056
Sum of atomic charges:   -0.0000000

LOEWDIN ATOMIC CHARGES
----------------------
   0 C :    0.011744
   1 N :   -0.012556
   2 C :   -0.250629
   3 C :    0.162051
   4 N :    0.193523
   5 H :    0.006085
   6 H :   -0.011569
   7 H :    0.020871
   8 H :   -0.119607
   9 C :    0.137815
  10 H :    0.018864
  11 H :    0.015491
  12 H :   -0.106312
  13 H :   -0.022246
  14 H :   -0.020216
  15 H :   -0.023308

  Mayer bond orders larger than 0.100000
B(  0-C ,  1-N ) :   0.9201 B(  0-C ,  3-C ) :   0.1142 B(  0-C ,  7-H ) :  -0.1675
B(  0-C ,  9-C ) :   1.2411 B(  0-C , 10-H ) :   0.9027 B(  0-C , 11-H ) :   0.8442
B(  0-C , 13-H ) :   0.2300 B(  0-C , 14-H ) :   0.1840 B(  0-C , 15-H ) :   0.2032
B(  1-N ,  2-C ) :   0.9172 B(  1-N ,  3-C ) :   0.4013 B(  1-N ,  4-N ) :   0.1979
B(  1-N ,  7-H ) :   1.3763 B(  1-N , 10-H ) :   0.1826 B(  1-N , 11-H ) :   0.1132
B(  2-C ,  3-C ) :   1.6245 B(  2-C ,  4-N ) :   0.8164 B(  2-C ,  6-H ) :  -0.1106
B(  2-C ,  7-H ) :  -0.3000 B(  2-C ,  8-H ) :   0.3079 B(  2-C , 12-H ) :   0.1870
B(  3-C ,  4-N ) :   0.2623 B(  3-C ,  8-H ) :   0.6285 B(  3-C , 12-H ) :   0.8239
B(  4-N ,  5-H ) :   1.1186 B(  4-N ,  6-H ) :   1.2249 B(  5-H ,  6-H ) :  -0.1610
B(  8-H , 12-H ) :   0.1201 B(  9-C , 13-H ) :   0.8042 B(  9-C , 14-H ) :   0.8048
B(  9-C , 15-H ) :   0.8447

Dispersion correction           -0.012845253
FINAL SINGLE POINT ENERGY      -267.391442093891

DIPOLE MOMENT
-------------
                                X             Y             Z
Electronic contribution:      3.08266       2.79724      -0.19473
Nuclear contribution   :     -3.42552      -1.84584      -0.22295
                        -----------------------------------------
Total Dipole Moment    :     -0.34287       0.95140      -0.41768
                        -----------------------------------------
Magnitude (a.u.)       :      1.09415
Magnitude (Debye)      :      2.78111

Rotational constants in cm-1:     0.233526     0.075277     0.067092
Rotational constants in MHz :  7000.931279  2256.752901  2011.361214

                             ****ORCA TERMINATED NORMALLY****
TOTAL RUN TIME: 0 days 0 hours 0 minutes 11 seconds 660 msec
