                         Program Version 5.0.0 -  RELEASE  -
|  1> !PBE D3BJ RIJCOSX def2-SVPD def2/J TightSCF
|  2> *xyz 0 1
|  3> C          3.91385       -1.65829        3.01513
|  4> N          5.03927       -0.90115        2.49282
|  5> C          6.21038       -1.41726        2.17824
|  6> N          6.53591       -2.67712        2.55608
|  7> C          7.07675       -0.70082        1.47891
|  8> H          7.95464       -1.12155        1.20755
|  9> H          6.75616        0.10664        0.96028
| 10> H          4.84217        0.01761        2.11519
| 11> H          5.99388       -3.12692        3.28278
| 12> C          3.13916       -2.37657        1.91061
| 13> H          3.26723       -0.93940        3.52069
| 14> H          4.24720       -2.35509        3.79006
| 15> H          7.49844       -2.97548        2.46878
| 16> H          2.82969       -1.66654        1.17238
| 17> H          2.27790       -2.85264        2.33072
| 18> H          3.76754       -3.11338        1.45548
| 19> *
| 20> %MaxCore 64000
| 21> %pal nprocs 8
| 22> end
| 23> %scf
| 24>   MaxIter 150
| 25> end
| 26>
| 27>
| 28>                          ****END OF INPUT****

CARTESIAN COORDINATES (ANGSTROEM)
---------------------------------
  C      3.913850   -1.658290    3.015130
  N      5.039270   -0.901150    2.492820
  C      6.210380   -1.417260    2.178240
  N      6.535910   -2.677120    2.556080
  C      7.076750   -0.700820    1.478910
  H      7.954640   -1.121550    1.207550
  H      6.756160    0.106640    0.960280
  H      4.842170    0.017610    2.115190
  H      5.993880   -3.126920    3.282780
  C      3.139160   -2.376570    1.910610
  H      3.267230   -0.939400    3.520690
  H      4.247200   -2.355090    3.790060
  H      7.498440   -2.975480    2.468780
  H      2.829690   -1.666540    1.172380
  H      2.277900   -2.852640    2.330720
  H      3.767540   -3.113380    1.455480

 Total Charge           Charge          ....    0
 Multiplicity           Mult            ....    1
 Number of Electrons    NEL             ....   48
 Basis Dimension        Dim             ....  200

ORBITAL ENERGIES
----------------

  NO   OCC          E(Eh)            E(eV)
   0   2.0000     -14.003318      -381.0497
   1   2.0000     -14.000725      -380.9791
   2   2.0000      -9.936928      -270.3976
   3   2.0000      -9.933998      -270.3178
   4   2.0000      -9.885455      -268.9969
   5   2.0000      -9.807515      -266.8760
   6   2.0000      -0.879566       -23.9342
   7   2.0000      -0.798720       -21.7343
   8   2.0000      -0.695802       -18.9337
   9   2.0000      -0.628686       -17.1074
  10   2.0000      -0.564635       -15.3645
  11   2.0000      -0.543506       -14.7896
  12   2.0000      -0.484092       -13.1728
  13   2.0000      -0.447932       -12.1889
  14   2.0000      -0.431486       -11.7413
  15   2.0000      -0.393877       -10.7179
  16   2.0000      -0.384090       -10.4516
  17   2.0000      -0.358686        -9.7603
  18   2.0000      -0.336037        -9.1440
  19   2.0000      -0.328298        -8.9334
  20   2.0000      -0.316813        -8.6209
  21   2.0000      -0.313237        -8.5236
  22   2.0000      -0.215073        -5.8524
  23   2.0000      -0.132997        -3.6190
  24   0.0000      -0.008081        -0.2199
  25   0.0000       0.018071         0.4917
  26   0.0000       0.023864         0.6494
  27   0.0000       0.032602         0.8872
  28   0.0000       0.050046         1.3618

MULLIKEN ATOMIC CHARGES
-----------------------
   0 C :    0.318795
   1 N :   -0.273869
   2 C :    0.766891
   3 N :    0.110824
   4 C :    0.335087
   5 H :   -0.349976
   6 H :   -0.277222
   7 H :   -0.321890
   8 H :   -0.165747
   9 C :    0.686100
  10 H :   -0.355658
  11 H :   -0.110658
  12 H :   -0.188251
  13 H :   -0.072078
  14 H :   -0.041306
  15 H :   -0.061040
Sum of atomic charges:   -0.0000000

LOEWDIN ATOMIC CHARGES
----------------------
   0 C :    0.004037
   1 N :   -0.007646
   2 C :   -0.250302
   3 N :    0.213911
   4 C :    0.140013
   5 H :   -0.101812
   6 H :   -0.099659
   7 H :    0.035973
   8 H :   -0.034831
   9 C :    0.134767
  10 H :    0.019049
  11 H :    0.007750
  12 H :    0.000867
  13 H :   -0.017811
  14 H :   -0.021795
  15 H :   -0.022513

  Mayer bond orders larger than 0.100000
B(  0-C ,  1-N ) :   0.9491 B(  0-C ,  7-H ) :  -0.1809 B(  0-C ,  9-C ) :   1.2594
B(  0-C , 10-H ) :   0.8511 B(  0-C , 11-H ) :   0.8762 B(  0-C , 13-H ) :   0.2577
B(  0-C , 14-H ) :   0.1864 B(  0-C , 15-H ) :   0.1989 B(  1-N ,  2-C ) :   1.0367
B(  1-N ,  3-N ) :   0.1751 B(  1-N ,  4-C ) :   0.2971 B(  1-N ,  7-H ) :   1.2530
B(  1-N , 10-H ) :   0.2118 B(  1-N , 11-H ) :   0.1453 B(  2-C ,  3-N ) :   0.8698
B(  2-C ,  4-C ) :   1.3604 B(  2-C ,  5-H ) :   0.1818 B(  2-C ,  6-H ) :   0.1051
B(  2-C ,  7-H ) :  -0.2198 B(  3-N ,  4-C ) :   0.2280 B(  3-N ,  8-H ) :   1.0459
B(  3-N , 12-H ) :   1.2220 B(  4-C ,  5-H ) :   0.7726 B(  4-C ,  6-H ) :   0.8618
B(  5-H ,  6-H ) :   0.1478 B(  8-H , 12-H ) :  -0.1920 B(  9-C , 13-H ) :   0.7844
B(  9-C , 14-H ) :   0.8137 B(  9-C , 15-H ) :   0.8297

Dispersion correction           -0.012776489
FINAL SINGLE POINT ENERGY      -267.390967885021

DIPOLE MOMENT
-------------
                                X             Y             Z
Electronic contribution:      2.54322       0.93435       0.95484
Nuclear contribution   :     -3.31079      -1.42658      -0.45147
                        -----------------------------------------
Total Dipole Moment    :     -0.76757      -0.49223       0.50337
                        -----------------------------------------
Magnitude (a.u.)       :      1.04156
Magnitude (Debye)      :      2.64744

Rotational constants in cm-1:     0.225507     0.077571     0.068070
Rotational constants in MHz :  6760.542142  2325.533779  2040.680522

                             ****ORCA TERMINATED NORMALLY****
TOTAL RUN TIME: 0 days 0 hours 0 minutes 11 seconds 970 msec
