                         Program Version 5.0.0 -  RELEASE  -
|  1> !PBE D3BJ RIJCOSX def2-SVPD def2/J TightSCF xyzfile
|  2>
|  3> *xyzfile 0 1 D6.xyz
|  4>
|  5> %MaxCore 64000
|  6>
|  7> %pal nprocs 4
|  8> end
|  9>
| 10> %scf
| 11>   MaxIter 150
| 12> end
| 13>
| 14>
| 15>                          ****END OF INPUT****

CARTESIAN COORDINATES (ANGSTROEM)
---------------------------------
  C      3.913853   -1.658291    3.015134
  N      5.039266   -0.901154    2.492821
  C      4.084215    1.742081   -2.114724
  C      4.265245    2.500518   -0.795890
  H      4.868534    3.392674   -0.981134
  H      3.307640    2.824571   -0.387809
  C      4.982240    1.650257    0.247422
  C      6.210384   -1.417261    2.178244
  N      6.535913   -2.677122    2.556078
  C      7.076754   -0.700820    1.478906
  H      7.954643   -1.121554    1.207554
  H      6.756161    0.106637    0.960278
  H      4.842168    0.017609    2.115191
  H      5.993876   -3.126918    3.282784
  H      7.498441   -2.975482    2.468776
  O      4.368065    1.389270    1.313706
  F      6.128919    1.233512   -0.045620
  C      3.139159   -2.376572    1.910609
  H      3.267235   -0.939401    3.520693
  H      4.247195   -2.355095    3.790065
  C      1.997274    0.430918   -1.399218
  C      3.412746    0.376886   -1.965497
  H      4.047407   -0.246590   -1.326706
  H      3.390774   -0.118719   -2.942839
  H      5.068475    1.598504   -2.565728
  H      3.503356    2.363939   -2.804565
  C      2.399946   -1.389579    1.009490
  H      2.440750   -3.087118    2.362976
  H      3.844475   -2.970462    1.318677
  C      2.070177   -1.936705   -0.372401
  H      1.481611   -1.061542    1.509912
  H      3.008628   -0.490001    0.897451
  C      1.322238   -0.935775   -1.256413
  H      1.472747   -2.850902   -0.283997
  H      3.003539   -2.234041   -0.862535
  H      1.376444    1.058920   -2.047420
  H      2.015341    0.929780   -0.426535
  H      0.316648   -0.787213   -0.848278
  H      1.185611   -1.379252   -2.248613

 Total Charge           Charge          ....    0
 Multiplicity           Mult            ....    1
 Number of Electrons    NEL             ....  126
 Basis Dimension        Dim             ....  510

ORBITAL ENERGIES
----------------

  NO   OCC          E(Eh)            E(eV)
   0   2.0000     -24.358157      -662.8191
   1   2.0000     -18.794596      -511.4270
   2   2.0000     -13.983997      -380.5239
   3   2.0000     -13.966678      -380.0526
   4   2.0000     -10.085879      -274.4507
   5   2.0000      -9.933617      -270.3075
   6   2.0000      -9.919492      -269.9231
   7   2.0000      -9.914744      -269.7939
   8   2.0000      -9.914061      -269.7753
   9   2.0000      -9.904031      -269.5024
  10   2.0000      -9.896325      -269.2927
  11   2.0000      -9.892298      -269.1831
  12   2.0000      -9.887011      -269.0392
  13   2.0000      -9.882252      -268.9098
  14   2.0000      -9.881280      -268.8833
  15   2.0000      -9.783445      -266.2211
  16   2.0000      -1.221518       -33.2392
  17   2.0000      -0.963824       -26.2270
  18   2.0000      -0.856443       -23.3050
  19   2.0000      -0.778786       -21.1918
  20   2.0000      -0.756951       -20.5977
  21   2.0000      -0.727381       -19.7930
  22   2.0000      -0.698719       -19.0131
  23   2.0000      -0.665222       -18.1016
  24   2.0000      -0.641628       -17.4596
  25   2.0000      -0.610669       -16.6172
  26   2.0000      -0.603558       -16.4236
  27   2.0000      -0.572417       -15.5763
  28   2.0000      -0.547343       -14.8940
  29   2.0000      -0.534371       -14.5410
  30   2.0000      -0.515281       -14.0215
  31   2.0000      -0.508824       -13.8458
  32   2.0000      -0.504486       -13.7278
  33   2.0000      -0.490739       -13.3537
  34   2.0000      -0.468883       -12.7589
  35   2.0000      -0.456663       -12.4264
  36   2.0000      -0.437387       -11.9019
  37   2.0000      -0.434775       -11.8308
  38   2.0000      -0.425565       -11.5802
  39   2.0000      -0.414493       -11.2789
  40   2.0000      -0.408080       -11.1044
  41   2.0000      -0.389827       -10.6077
  42   2.0000      -0.385311       -10.4848
  43   2.0000      -0.378220       -10.2919
  44   2.0000      -0.371167       -10.1000
  45   2.0000      -0.365356        -9.9418
  46   2.0000      -0.351493        -9.5646
  47   2.0000      -0.342866        -9.3298
  48   2.0000      -0.339584        -9.2405
  49   2.0000      -0.331523        -9.0212
  50   2.0000      -0.324048        -8.8178
  51   2.0000      -0.313493        -8.5306
  52   2.0000      -0.311628        -8.4798
  53   2.0000      -0.302482        -8.2310
  54   2.0000      -0.298994        -8.1360
  55   2.0000      -0.291329        -7.9275
  56   2.0000      -0.285611        -7.7719
  57   2.0000      -0.276097        -7.5130
  58   2.0000      -0.273797        -7.4504
  59   2.0000      -0.270054        -7.3485
  60   2.0000      -0.256371        -6.9762
  61   2.0000      -0.194450        -5.2913
  62   2.0000      -0.114313        -3.1106
  63   0.0000      -0.088811        -2.4167
  64   0.0000      -0.007748        -0.2108
  65   0.0000       0.007338         0.1997
  66   0.0000       0.010849         0.2952
  67   0.0000       0.011673         0.3176

MULLIKEN ATOMIC CHARGES
-----------------------
   0 C :    1.238824
   1 N :    0.220047
   2 C :    0.420235
   3 C :    0.266013
   4 H :   -0.113055
   5 H :    0.144360
   6 C :    0.602728
   7 C :    0.819298
   8 N :    0.151753
   9 C :    1.015414
  10 H :   -0.296972
  11 H :   -0.953133
  12 H :   -0.999359
  13 H :   -0.127390
  14 H :   -0.220221
  15 O :   -0.571682
  16 F :   -0.487357
  17 C :    0.285548
  18 H :   -0.348600
  19 H :   -0.265233
  20 C :   -0.135669
  21 C :   -0.136409
  22 H :    0.017311
  23 H :   -0.170380
  24 H :   -0.006648
  25 H :   -0.121677
  26 C :    0.569769
  27 H :   -0.183759
  28 H :   -0.007553
  29 C :    0.017644
  30 H :   -0.021009
  31 H :   -0.849982
  32 C :    0.722954
  33 H :   -0.428402
  34 H :    0.145270
  35 H :   -0.422958
  36 H :    0.225243
  37 H :    0.020012
  38 H :   -0.014976
Sum of atomic charges:    0.0000000

LOEWDIN ATOMIC CHARGES
----------------------
   0 C :    0.053690
   1 N :    0.024359
   2 C :   -0.019482
   3 C :    0.058918
   4 H :    0.040512
   5 H :    0.032387
   6 C :    0.028354
   7 C :   -0.227670
   8 N :    0.212318
   9 C :    0.166914
  10 H :   -0.099649
  11 H :   -0.169339
  12 H :   -0.089785
  13 H :   -0.037364
  14 H :   -0.003373
  15 O :   -0.092066
  16 F :   -0.006638
  17 C :   -0.020803
  18 H :    0.025950
  19 H :    0.002858
  20 C :   -0.033912
  21 C :   -0.029206
  22 H :    0.017097
  23 H :    0.033714
  24 H :    0.027108
  25 H :    0.030390
  26 C :   -0.034970
  27 H :    0.020377
  28 H :    0.020022
  29 C :   -0.040151
  30 H :    0.037151
  31 H :   -0.022931
  32 C :   -0.031958
  33 H :    0.025341
  34 H :    0.020035
  35 H :    0.026386
  36 H :    0.009312
  37 H :    0.024104
  38 H :    0.021999

  Mayer bond orders larger than 0.100000
B(  0-C ,  1-N ) :   0.9194 B(  0-C , 12-H ) :  -0.4771 B(  0-C , 17-C ) :   1.0352
B(  0-C , 18-H ) :   0.5691 B(  0-C , 19-H ) :   0.7493 B(  0-C , 26-C ) :   0.1648
B(  0-C , 28-H ) :   0.1033 B(  1-N ,  7-C ) :   1.0976 B(  1-N ,  8-N ) :   0.2232
B(  1-N ,  9-C ) :   0.1399 B(  1-N , 12-H ) :   0.9485 B(  1-N , 18-H ) :   0.2304
B(  1-N , 19-H ) :   0.1137 B(  2-C ,  3-C ) :   1.1855 B(  2-C ,  4-H ) :   0.1805
B(  2-C ,  6-C ) :   0.1061 B(  2-C , 21-C ) :   1.2608 B(  2-C , 22-H ) :   0.1074
B(  2-C , 24-H ) :   0.6487 B(  2-C , 25-H ) :   0.8011 B(  3-C ,  4-H ) :   0.6391
B(  3-C ,  5-H ) :   0.7333 B(  3-C ,  6-C ) :   1.2164 B(  3-C , 21-C ) :   0.1158
B(  3-C , 24-H ) :   0.1178 B(  3-C , 25-H ) :   0.1579 B(  4-H ,  6-C ) :   0.2790
B(  5-H ,  6-C ) :   0.1989 B(  6-C , 15-O ) :   1.6642 B(  6-C , 16-F ) :   0.5915
B(  7-C ,  8-N ) :   0.7946 B(  7-C ,  9-C ) :   1.4347 B(  7-C , 10-H ) :   0.2990
B(  7-C , 12-H ) :  -0.6784 B(  7-C , 17-C ) :   0.1006 B(  7-C , 19-H ) :  -0.1165
B(  8-N ,  9-C ) :   0.2990 B(  8-N , 13-H ) :   0.9973 B(  8-N , 14-H ) :   1.2372
B(  8-N , 19-H ) :   0.1143 B(  9-C , 10-H ) :   0.4824 B(  9-C , 11-H ) :   0.1727
B( 10-H , 11-H ) :   0.2892 B( 11-H , 16-F ) :   0.2865 B( 12-H , 15-O ) :   0.1557
B( 12-H , 18-H ) :   0.1722 B( 13-H , 14-H ) :  -0.1940 B( 13-H , 19-H ) :   0.1016
B( 15-O , 16-F ) :   0.1290 B( 17-C , 19-H ) :   0.1814 B( 17-C , 26-C ) :   1.1220
B( 17-C , 27-H ) :   0.9109 B( 17-C , 28-H ) :   0.8648 B( 17-C , 29-C ) :   0.1001
B( 17-C , 30-H ) :   0.1456 B( 18-H , 19-H ) :  -0.2348 B( 20-C , 21-C ) :   1.2508
B( 20-C , 22-H ) :   0.1162 B( 20-C , 23-H ) :   0.1568 B( 20-C , 29-C ) :   0.1467
B( 20-C , 32-C ) :   1.1578 B( 20-C , 35-H ) :   1.0138 B( 20-C , 36-H ) :   0.7862
B( 20-C , 37-H ) :   0.2843 B( 20-C , 38-H ) :   0.1499 B( 21-C , 22-H ) :   0.8814
B( 21-C , 23-H ) :   0.8608 B( 21-C , 24-H ) :   0.2505 B( 21-C , 25-H ) :   0.1793
B( 21-C , 35-H ) :   0.1297 B( 21-C , 36-H ) :   0.1138 B( 24-H , 25-H ) :  -0.1253
B( 26-C , 27-H ) :   0.1824 B( 26-C , 29-C ) :   1.2678 B( 26-C , 30-H ) :   0.6163
B( 26-C , 31-H ) :   0.3358 B( 26-C , 33-H ) :   0.1059 B( 26-C , 34-H ) :   0.1651
B( 27-H , 31-H ) :   0.1010 B( 28-H , 33-H ) :  -0.1013 B( 29-C , 30-H ) :   0.1001
B( 29-C , 31-H ) :   0.1386 B( 29-C , 32-C ) :   1.1148 B( 29-C , 33-H ) :   1.0228
B( 29-C , 34-H ) :   0.7937 B( 29-C , 37-H ) :   0.1218 B( 29-C , 38-H ) :   0.2373
B( 30-H , 31-H ) :   0.2456 B( 31-H , 36-H ) :   0.1053 B( 32-C , 37-H ) :   0.6313
B( 32-C , 38-H ) :   0.6599 B( 37-H , 38-H ) :  -0.1187

Dispersion correction           -0.044635095
FINAL SINGLE POINT ENERGY      -754.241021301833

DIPOLE MOMENT
-------------
                                X             Y             Z
Electronic contribution:     12.42020       8.52374       4.41609
Nuclear contribution   :    -13.25777      -8.13937      -5.31678
                        -----------------------------------------
Total Dipole Moment    :     -0.83756       0.38437      -0.90068
                        -----------------------------------------
Magnitude (a.u.)       :      1.28860
Magnitude (Debye)      :      3.27535

Rotational constants in cm-1:     0.020021     0.013636     0.009443
Rotational constants in MHz :   600.208195   408.782966   283.102361

                             ****ORCA TERMINATED NORMALLY****
TOTAL RUN TIME: 0 days 0 hours 1 minutes 3 seconds 493 msec
