                         Program Version 5.0.0 -  RELEASE  -
|  1> !B3LYP D3BJ RIJCOSX def2-TZVP def2/J TightSCF
|  2> *xyz -1 1
|  3> C         -0.77455        2.78833       -0.54394
|  4> C          0.69721        3.22791       -0.52513
|  5> O          1.48929        2.37470        0.19919
|  6> H          0.71600        4.26403       -0.13077
|  7> H          1.03615        3.33092       -1.58367
|  8> H         -1.34746        3.48478       -1.11982
|  9> H         -1.15078        2.75876        0.45729
| 10> H         -0.85058        1.81526       -0.98241
| 11> *
| 12>
| 13> %MaxCore 64000
| 14> %pal nprocs 4
| 15> end
| 16>
| 17> %scf
| 18>   MaxIter 150
| 19> end
| 20>
| 21>
| 22>                          ****END OF INPUT****

CARTESIAN COORDINATES (ANGSTROEM)
---------------------------------
  C     -0.774550    2.788330   -0.543940
  C      0.697210    3.227910   -0.525130
  O      1.489290    2.374700    0.199190
  H      0.716000    4.264030   -0.130770
  H      1.036150    3.330920   -1.583670
  H     -1.347460    3.484780   -1.119820
  H     -1.150780    2.758760    0.457290
  H     -0.850580    1.815260   -0.982410

 Total Charge           Charge          ....   -1
 Multiplicity           Mult            ....    1
 Number of Electrons    NEL             ....   26
 Basis Dimension        Dim             ....  123

ORBITAL ENERGIES
----------------

  NO   OCC          E(Eh)            E(eV)
   0   2.0000     -18.771380      -510.7952
   1   2.0000      -9.972433      -271.3637
   2   2.0000      -9.951080      -270.7826
   3   2.0000      -0.664368       -18.0784
   4   2.0000      -0.517477       -14.0813
   5   2.0000      -0.363694        -9.8966
   6   2.0000      -0.241925        -6.5831
   7   2.0000      -0.220326        -5.9954
   8   2.0000      -0.164882        -4.4867
   9   2.0000      -0.147967        -4.0264
  10   2.0000      -0.099289        -2.7018
  11   2.0000       0.044429         1.2090
  12   2.0000       0.046480         1.2648
  13   0.0000       0.216519         5.8918
  14   0.0000       0.251790         6.8516
  15   0.0000       0.277662         7.5556
  16   0.0000       0.279973         7.6184
  17   0.0000       0.313912         8.5420

MULLIKEN ATOMIC CHARGES
-----------------------
   0 C :   -0.101475
   1 C :    0.071574
   2 O :   -0.772127
   3 H :   -0.081220
   4 H :   -0.083506
   5 H :   -0.052812
   6 H :    0.010356
   7 H :    0.009211
Sum of atomic charges:   -1.0000000

LOEWDIN ATOMIC CHARGES
----------------------
   0 C :   -0.359099
   1 C :   -0.545635
   2 O :   -0.425685
   3 H :    0.048757
   4 H :    0.047833
   5 H :    0.067610
   6 H :    0.083347
   7 H :    0.082872

  Mayer bond orders larger than 0.100000
B(  0-C ,  1-C ) :   0.8712 B(  0-C ,  2-O ) :  -0.2881 B(  0-C ,  5-H ) :   0.9131
B(  0-C ,  6-H ) :   0.9645 B(  0-C ,  7-H ) :   0.9636 B(  1-C ,  2-O ) :   1.6212
B(  1-C ,  3-H ) :   0.9132 B(  1-C ,  4-H ) :   0.9132 B(  2-O ,  5-H ) :   0.1125

Dispersion correction           -0.006237633
FINAL SINGLE POINT ENERGY      -154.397121611714

DIPOLE MOMENT
-------------
                                X             Y             Z
Electronic contribution:      2.54490      -1.16104       1.29159
Nuclear contribution   :     -3.69910       1.55962      -1.78699
                        -----------------------------------------
Total Dipole Moment    :     -1.15420       0.39858      -0.49540
                        -----------------------------------------
Magnitude (a.u.)       :      1.31775
Magnitude (Debye)      :      3.34946

Rotational constants in cm-1:     1.268893     0.327436     0.287754
Rotational constants in MHz : 38040.440181  9816.269339  8626.646564

                             ****ORCA TERMINATED NORMALLY****
TOTAL RUN TIME: 0 days 0 hours 0 minutes 12 seconds 415 msec
