                         Program Version 5.0.0 -  RELEASE  -
|  1> !B3LYP D3BJ RIJCOSX def2-TZVP def2/J TightSCF
|  2> *xyz 0 1
|  3> C         -0.77455        2.78833       -0.54394
|  4> C          0.69721        3.22791       -0.52513
|  5> F          1.48929        2.37470        0.19919
|  6> H          0.71600        4.26403       -0.13077
|  7> H          1.03615        3.33092       -1.58367
|  8> H         -1.34746        3.48478       -1.11982
|  9> H         -1.15078        2.75876        0.45729
| 10> H         -0.85058        1.81526       -0.98241
| 11> *
| 12>
| 13> %MaxCore 64000
| 14> %pal nprocs 4
| 15> end
| 16>
| 17> %scf
| 18>   MaxIter 150
| 19> end
| 20>
| 21>
| 22>                          ****END OF INPUT****

CARTESIAN COORDINATES (ANGSTROEM)
---------------------------------
  C     -0.774550    2.788330   -0.543940
  C      0.697210    3.227910   -0.525130
  F      1.489290    2.374700    0.199190
  H      0.716000    4.264030   -0.130770
  H      1.036150    3.330920   -1.583670
  H     -1.347460    3.484780   -1.119820
  H     -1.150780    2.758760    0.457290
  H     -0.850580    1.815260   -0.982410

 Total Charge           Charge          ....    0
 Multiplicity           Mult            ....    1
 Number of Electrons    NEL             ....   26
 Basis Dimension        Dim             ....  123

ORBITAL ENERGIES
----------------

  NO   OCC          E(Eh)            E(eV)
   0   2.0000     -24.666078      -671.1981
   1   2.0000     -10.247241      -278.8416
   2   2.0000     -10.162571      -276.5376
   3   2.0000      -1.197018       -32.5725
   4   2.0000      -0.763890       -20.7865
   5   2.0000      -0.630977       -17.1698
   6   2.0000      -0.507938       -13.8217
   7   2.0000      -0.493785       -13.4366
   8   2.0000      -0.457136       -12.4393
   9   2.0000      -0.405197       -11.0260
  10   2.0000      -0.401762       -10.9325
  11   2.0000      -0.336527        -9.1574
  12   2.0000      -0.331091        -9.0094
  13   0.0000       0.040727         1.1082
  14   0.0000       0.078922         2.1476
  15   0.0000       0.095509         2.5989
  16   0.0000       0.097427         2.6511
  17   0.0000       0.111991         3.0474

MULLIKEN ATOMIC CHARGES
-----------------------
   0 C :   -0.299041
   1 C :    0.062163
   2 F :   -0.245620
   3 H :    0.082090
   4 H :    0.082148
   5 H :    0.099450
   6 H :    0.109573
   7 H :    0.109237
Sum of atomic charges:    0.0000000

LOEWDIN ATOMIC CHARGES
----------------------
   0 C :   -0.305334
   1 C :   -0.363731
   2 F :    0.091107
   3 H :    0.114327
   4 H :    0.115058
   5 H :    0.119195
   6 H :    0.114809
   7 H :    0.114569

  Mayer bond orders larger than 0.100000
B(  0-C ,  1-C ) :   0.9750 B(  0-C ,  5-H ) :   0.9580 B(  0-C ,  6-H ) :   0.9714
B(  0-C ,  7-H ) :   0.9716 B(  1-C ,  2-F ) :   0.9865 B(  1-C ,  3-H ) :   0.9685
B(  1-C ,  4-H ) :   0.9687

Dispersion correction           -0.005743213
FINAL SINGLE POINT ENERGY      -179.047953127100

DIPOLE MOMENT
-------------
                                X             Y             Z
Electronic contribution:      4.42518      -1.66153       2.00840
Nuclear contribution   :     -4.89513       2.05627      -2.36166
                        -----------------------------------------
Total Dipole Moment    :     -0.46996       0.39474      -0.35327
                        -----------------------------------------
Magnitude (a.u.)       :      0.70815
Magnitude (Debye)      :      1.79998

Rotational constants in cm-1:     1.247826     0.304622     0.269019
Rotational constants in MHz : 37408.889506  9132.346906  8064.979146

                             ****ORCA TERMINATED NORMALLY****
TOTAL RUN TIME: 0 days 0 hours 0 minutes 10 seconds 842 msec
