                         Program Version 5.0.0 -  RELEASE  -
|  1> !B3LYP D3BJ RIJCOSX def2-TZVP def2/J TightSCF
|  2> *xyz 0 1
|  3> C          3.95643        0.50147       -0.37910
|  4> H          3.16840        0.02920        0.20738
|  5> C          3.80389        1.96157       -0.15675
|  6> C          3.84232        0.14849       -1.85406
|  7> H          4.92323        0.17798        0.00937
|  8> H          4.20643        2.24441        0.74536
|  9> H          2.80827        2.21132       -0.09610
| 10> H          4.28076        2.50155       -0.89104
| 11> H          4.62951        0.62800       -2.39748
| 12> H          2.89665        0.48102       -2.22825
| 13> H          3.92053       -0.91187       -1.97413
| 14> *
| 15>
| 16> %MaxCore 64000
| 17> %pal nprocs 4
| 18> end
| 19>
| 20> %scf
| 21>   MaxIter 150
| 22> end
| 23>
| 24>
| 25>                          ****END OF INPUT****

CARTESIAN COORDINATES (ANGSTROEM)
---------------------------------
  C      3.956430    0.501470   -0.379100
  H      3.168400    0.029200    0.207380
  C      3.803890    1.961570   -0.156750
  C      3.842320    0.148490   -1.854060
  H      4.923230    0.177980    0.009370
  H      4.206430    2.244410    0.745360
  H      2.808270    2.211320   -0.096100
  H      4.280760    2.501550   -0.891040
  H      4.629510    0.628000   -2.397480
  H      2.896650    0.481020   -2.228250
  H      3.920530   -0.911870   -1.974130

 Total Charge           Charge          ....    0
 Multiplicity           Mult            ....    1
 Number of Electrons    NEL             ....   26
 Basis Dimension        Dim             ....  141

ORBITAL ENERGIES
----------------

  NO   OCC          E(Eh)            E(eV)
   0   2.0000     -10.152894      -276.2743
   1   2.0000     -10.144357      -276.0420
   2   2.0000     -10.126239      -275.5490
   3   2.0000      -0.790765       -21.5178
   4   2.0000      -0.689351       -18.7582
   5   2.0000      -0.584544       -15.9063
   6   2.0000      -0.468352       -12.7445
   7   2.0000      -0.444832       -12.1045
   8   2.0000      -0.401409       -10.9229
   9   2.0000      -0.390773       -10.6335
  10   2.0000      -0.337030        -9.1710
  11   2.0000      -0.335006        -9.1160
  12   2.0000      -0.326025        -8.8716
  13   0.0000       0.040945         1.1142
  14   0.0000       0.082126         2.2348
  15   0.0000       0.088947         2.4204
  16   0.0000       0.093562         2.5460
  17   0.0000       0.114144         3.1060

MULLIKEN ATOMIC CHARGES
-----------------------
   0 C :   -0.125962
   1 H :    0.075295
   2 C :   -0.309830
   3 C :   -0.309737
   4 H :    0.077331
   5 H :    0.103578
   6 H :    0.100701
   7 H :    0.093100
   8 H :    0.098146
   9 H :    0.095534
  10 H :    0.101845
Sum of atomic charges:    0.0000000

LOEWDIN ATOMIC CHARGES
----------------------
   0 C :   -0.316752
   1 H :    0.129833
   2 C :   -0.300791
   3 C :   -0.301431
   4 H :    0.127659
   5 H :    0.107650
   6 H :    0.108048
   7 H :    0.107196
   8 H :    0.112803
   9 H :    0.113554
  10 H :    0.112230

  Mayer bond orders larger than 0.100000
B(  0-C ,  1-H ) :   0.9742 B(  0-C ,  2-C ) :   0.9545 B(  0-C ,  3-C ) :   0.9688
B(  0-C ,  4-H ) :   0.9741 B(  2-C ,  5-H ) :   0.9833 B(  2-C ,  6-H ) :   0.9812
B(  2-C ,  7-H ) :   0.9808 B(  3-C ,  8-H ) :   0.9775 B(  3-C ,  9-H ) :   0.9771
B(  3-C , 10-H ) :   0.9801

Dispersion correction           -0.010116238
FINAL SINGLE POINT ENERGY      -119.093777575112

DIPOLE MOMENT
-------------
                                X             Y             Z
Electronic contribution:      0.08170      -0.29634       0.23529
Nuclear contribution   :     -0.08172       0.30475      -0.19303
                        -----------------------------------------
Total Dipole Moment    :     -0.00001       0.00842       0.04226
                        -----------------------------------------
Magnitude (a.u.)       :      0.04309
Magnitude (Debye)      :      0.10952

Rotational constants in cm-1:     1.020248     0.295755     0.261591
Rotational constants in MHz : 30586.266829  8866.511639  7842.297953

                             ****ORCA TERMINATED NORMALLY****
TOTAL RUN TIME: 0 days 0 hours 0 minutes 14 seconds 349 msec
