                         Program Version 5.0.0 -  RELEASE  -
|  1> !M062X D3Zero RIJCOSX def2-SVP def2/J TightSCF
|  2> *xyz -1 1
|  3> C          3.80351        1.37472       -3.26081
|  4> C          3.93993        0.32036       -4.36773
|  5> H          4.10504       -0.65508       -3.90773
|  6> H          3.02280        0.28052       -4.95712
|  7> C          5.10585        0.66802       -5.30546
|  8> O          4.80913        1.15019       -6.41436
|  9> O          6.26737        0.56500       -4.81948
| 10> H          3.64113        2.33595       -3.70189
| 11> H          4.69995        1.39701       -2.67703
| 12> H          2.97435        1.12625       -2.63180
| 13> *
| 14>
| 15> %MaxCore 64000
| 16>
| 17> %pal nprocs 4
| 18> end
| 19>
| 20> %scf
| 21>   MaxIter 150
| 22> end
| 23>
| 24>
| 25>                          ****END OF INPUT****

CARTESIAN COORDINATES (ANGSTROEM)
---------------------------------
  C      3.803510    1.374720   -3.260810
  C      3.939930    0.320360   -4.367730
  H      4.105040   -0.655080   -3.907730
  H      3.022800    0.280520   -4.957120
  C      5.105850    0.668020   -5.305460
  O      4.809130    1.150190   -6.414360
  O      6.267370    0.565000   -4.819480
  H      3.641130    2.335950   -3.701890
  H      4.699950    1.397010   -2.677030
  H      2.974350    1.126250   -2.631800

 Total Charge           Charge          ....   -1
 Multiplicity           Mult            ....    1
 Number of Electrons    NEL             ....   40
 Basis Dimension        Dim             ....   95

ORBITAL ENERGIES
----------------

  NO   OCC          E(Eh)            E(eV)
   0   2.0000     -19.334140      -526.1087
   1   2.0000     -19.329773      -525.9899
   2   2.0000     -10.407408      -283.2000
   3   2.0000     -10.381458      -282.4938
   4   2.0000     -10.358228      -281.8617
   5   2.0000      -0.897224       -24.4147
   6   2.0000      -0.797124       -21.6908
   7   2.0000      -0.681220       -18.5369
   8   2.0000      -0.538878       -14.6636
   9   2.0000      -0.377396       -10.2695
  10   2.0000      -0.349749        -9.5172
  11   2.0000      -0.312740        -8.5101
  12   2.0000      -0.280889        -7.6434
  13   2.0000      -0.264661        -7.2018
  14   2.0000      -0.259976        -7.0743
  15   2.0000      -0.224173        -6.1001
  16   2.0000      -0.210523        -5.7286
  17   2.0000      -0.078611        -2.1391
  18   2.0000      -0.078027        -2.1232
  19   2.0000      -0.072000        -1.9592
  20   0.0000       0.255730         6.9588
  21   0.0000       0.307495         8.3674
  22   0.0000       0.317142         8.6299
  23   0.0000       0.321875         8.7587
  24   0.0000       0.336700         9.1621

MULLIKEN ATOMIC CHARGES
-----------------------
   0 C :   -0.051961
   1 C :   -0.049698
   2 H :   -0.023260
   3 H :   -0.028354
   4 C :    0.105699
   5 O :   -0.463311
   6 O :   -0.496963
   7 H :    0.011511
   8 H :    0.018635
   9 H :   -0.022297
Sum of atomic charges:   -1.0000000

LOEWDIN ATOMIC CHARGES
----------------------
   0 C :   -0.064548
   1 C :   -0.097887
   2 H :    0.001026
   3 H :   -0.001831
   4 C :   -0.031342
   5 O :   -0.399629
   6 O :   -0.429782
   7 H :    0.013563
   8 H :    0.014759
   9 H :   -0.004330

  Mayer bond orders larger than 0.100000
B(  0-C ,  1-C ) :   1.0948 B(  0-C ,  7-H ) :   0.9727 B(  0-C ,  8-H ) :   0.9687
B(  0-C ,  9-H ) :   0.9722 B(  1-C ,  2-H ) :   0.9396 B(  1-C ,  3-H ) :   0.9429
B(  1-C ,  4-C ) :   0.9169 B(  4-C ,  5-O ) :   1.8433 B(  4-C ,  6-O ) :   1.7948
B(  5-O ,  6-O ) :   0.1060

Dispersion correction           -0.000084286
FINAL SINGLE POINT ENERGY      -267.493921083304

DIPOLE MOMENT
-------------
                                X             Y             Z
Electronic contribution:      3.83882      -0.44792      -4.58480
Nuclear contribution   :     -5.15232       0.33441       5.87398
                        -----------------------------------------
Total Dipole Moment    :     -1.31350      -0.11351       1.28918
                        -----------------------------------------
Magnitude (a.u.)       :      1.84395
Magnitude (Debye)      :      4.68696

Rotational constants in cm-1:     0.295355     0.137164     0.110193
Rotational constants in MHz :  8854.523706  4112.077980  3303.490503

                             ****ORCA TERMINATED NORMALLY****
TOTAL RUN TIME: 0 days 0 hours 0 minutes 11 seconds 893 msec
