                         Program Version 5.0.0 -  RELEASE  -
|  1> !M062X D3Zero RIJCOSX def2-SVP def2/J TightSCF
|  2> *xyz 1 1
|  3> C          3.90595        2.81985       -3.75292
|  4> N          5.29562        3.13151       -4.10533
|  5> C          3.80351        1.37472       -3.26081
|  6> C          5.70862        3.46889       -5.32419
|  7> N          6.90470        3.03895       -5.71708
|  8> N          4.98188        4.29357       -6.09746
|  9> H          5.00055        4.10131       -7.08776
| 10> H          4.08469        4.59690       -5.73965
| 11> H          5.96336        2.52611       -3.64239
| 12> H          7.04716        2.06686       -5.47360
| 13> H          7.19815        3.30799       -6.64523
| 14> H          3.28202        2.94919       -4.64026
| 15> H          3.56525        3.51457       -2.98252
| 16> H          4.14157        0.71142       -4.02935
| 17> H          2.78528        1.15146       -3.01944
| 18> H          4.41205        1.25066       -2.38949
| 19> *
| 20>
| 21> %MaxCore 64000
| 22>
| 23> %pal nprocs 4
| 24> end
| 25>
| 26> %scf
| 27>   MaxIter 150
| 28> end
| 29>
| 30>
| 31>                          ****END OF INPUT****

CARTESIAN COORDINATES (ANGSTROEM)
---------------------------------
  C      3.905950    2.819850   -3.752920
  N      5.295620    3.131510   -4.105330
  C      3.803510    1.374720   -3.260810
  C      5.708620    3.468890   -5.324190
  N      6.904700    3.038950   -5.717080
  N      4.981880    4.293570   -6.097460
  H      5.000550    4.101310   -7.087760
  H      4.084690    4.596900   -5.739650
  H      5.963360    2.526110   -3.642390
  H      7.047160    2.066860   -5.473600
  H      7.198150    3.307990   -6.645230
  H      3.282020    2.949190   -4.640260
  H      3.565250    3.514570   -2.982520
  H      4.141570    0.711420   -4.029350
  H      2.785280    1.151460   -3.019440
  H      4.412050    1.250660   -2.389490

 Total Charge           Charge          ....    1
 Multiplicity           Mult            ....    1
 Number of Electrons    NEL             ....   48
 Basis Dimension        Dim             ....  134

ORBITAL ENERGIES
----------------

  NO   OCC          E(Eh)            E(eV)
   0   2.0000     -14.988599      -407.8605
   1   2.0000     -14.987019      -407.8175
   2   2.0000     -14.986798      -407.8115
   3   2.0000     -10.892135      -296.3901
   4   2.0000     -10.761790      -292.8432
   5   2.0000     -10.695386      -291.0363
   6   2.0000      -1.324844       -36.0508
   7   2.0000      -1.203445       -32.7474
   8   2.0000      -1.193541       -32.4779
   9   2.0000      -1.022365       -27.8200
  10   2.0000      -0.914518       -24.8853
  11   2.0000      -0.888357       -24.1734
  12   2.0000      -0.854300       -23.2467
  13   2.0000      -0.820318       -22.3220
  14   2.0000      -0.774970       -21.0880
  15   2.0000      -0.757721       -20.6186
  16   2.0000      -0.722830       -19.6692
  17   2.0000      -0.696440       -18.9511
  18   2.0000      -0.666720       -18.1424
  19   2.0000      -0.624558       -16.9951
  20   2.0000      -0.599689       -16.3184
  21   2.0000      -0.584562       -15.9067
  22   2.0000      -0.552787       -15.0421
  23   2.0000      -0.518807       -14.1175
  24   0.0000      -0.145755        -3.9662
  25   0.0000      -0.103186        -2.8078
  26   0.0000      -0.068017        -1.8508
  27   0.0000      -0.052414        -1.4262
  28   0.0000      -0.033294        -0.9060

MULLIKEN ATOMIC CHARGES
-----------------------
   0 C :   -0.005413
   1 N :   -0.162244
   2 C :   -0.084655
   3 C :    0.067779
   4 N :   -0.065785
   5 N :   -0.075120
   6 H :    0.190148
   7 H :    0.188151
   8 H :    0.171361
   9 H :    0.190201
  10 H :    0.182654
  11 H :    0.067163
  12 H :    0.106885
  13 H :    0.054039
  14 H :    0.096519
  15 H :    0.078316
Sum of atomic charges:    1.0000000

LOEWDIN ATOMIC CHARGES
----------------------
   0 C :    0.041192
   1 N :    0.018802
   2 C :   -0.047867
   3 C :    0.151882
   4 N :    0.038835
   5 N :    0.038310
   6 H :    0.112810
   7 H :    0.112193
   8 H :    0.104598
   9 H :    0.112818
  10 H :    0.112795
  11 H :    0.030685
  12 H :    0.047373
  13 H :    0.030467
  14 H :    0.055761
  15 H :    0.039346

  Mayer bond orders larger than 0.100000
B(  0-C ,  1-N ) :   0.9068 B(  0-C ,  2-C ) :   1.0942 B(  0-C , 11-H ) :   0.9519
B(  0-C , 12-H ) :   0.9446 B(  1-N ,  3-C ) :   1.3954 B(  1-N ,  8-H ) :   0.9051
B(  2-C , 13-H ) :   0.9728 B(  2-C , 14-H ) :   0.9612 B(  2-C , 15-H ) :   0.9679
B(  3-C ,  4-N ) :   1.3797 B(  3-C ,  5-N ) :   1.3840 B(  4-N ,  9-H ) :   0.9214
B(  4-N , 10-H ) :   0.9214 B(  5-N ,  6-H ) :   0.9206 B(  5-N ,  7-H ) :   0.9154

Dispersion correction           -0.000313006
FINAL SINGLE POINT ENERGY      -284.033876280504

DIPOLE MOMENT
-------------
                                X             Y             Z
Electronic contribution:      3.52952       3.37429      -2.73006
Nuclear contribution   :     -3.31456      -3.64300       1.57303
                        -----------------------------------------
Total Dipole Moment    :      0.21495      -0.26871      -1.15703
                        -----------------------------------------
Magnitude (a.u.)       :      1.20711
Magnitude (Debye)      :      3.06824

Rotational constants in cm-1:     0.229487     0.071000     0.059428
Rotational constants in MHz :  6879.840828  2128.520047  1781.605314

                             ****ORCA TERMINATED NORMALLY****
TOTAL RUN TIME: 0 days 0 hours 0 minutes 17 seconds 937 msec
