                         Program Version 5.0.0 -  RELEASE  -
|  1> !M062X D3Zero RIJCOSX def2-TZVP def2/J TightSCF xyzfile
|  2>
|  3> *xyzfile 0 1 B.xyz
|  4>
|  5> %MaxCore 64000
|  6>
|  7> %pal nprocs 18
|  8> end
|  9>
| 10> %scf
| 11>   MaxIter 150
| 12> end
| 13>
| 14>
| 15>                          ****END OF INPUT****

CARTESIAN COORDINATES (ANGSTROEM)
---------------------------------
  C      3.905947    2.819855   -3.752920
  N      5.295615    3.131515   -4.105334
  C      3.803511    1.374716   -3.260807
  C      3.939934    0.320362   -4.367729
  H      4.105043   -0.655085   -3.907733
  H      3.022801    0.280517   -4.957117
  C      5.105846    0.668022   -5.305463
  C      5.708619    3.468885   -5.324190
  N      6.904696    3.038954   -5.717084
  N      4.981884    4.293570   -6.097457
  H      5.000546    4.101311   -7.087761
  H      4.084693    4.596899   -5.739652
  H      5.963358    2.526112   -3.642391
  H      7.047164    2.066861   -5.473604
  H      7.198145    3.307994   -6.645225
  H      3.282025    2.949187   -4.640259
  H      3.565254    3.514574   -2.982523
  H      4.574833    1.215157   -2.500443
  H      2.843514    1.260845   -2.751465
  O      4.809132    1.150187   -6.414361
  O      6.267366    0.564999   -4.819481

 Total Charge           Charge          ....    0
 Multiplicity           Mult            ....    1
 Number of Electrons    NEL             ....   78
 Basis Dimension        Dim             ....  376

ORBITAL ENERGIES
----------------

  NO   OCC          E(Eh)            E(eV)
   0   2.0000     -19.539864      -531.7067
   1   2.0000     -19.538092      -531.6585
   2   2.0000     -14.812955      -403.0810
   3   2.0000     -14.804680      -402.8558
   4   2.0000     -14.782121      -402.2420
   5   2.0000     -10.708450      -291.3917
   6   2.0000     -10.598828      -288.4088
   7   2.0000     -10.596564      -288.3472
   8   2.0000     -10.546978      -286.9979
   9   2.0000     -10.512848      -286.0691
  10   2.0000      -1.165756       -31.7218
  11   2.0000      -1.125502       -30.6265
  12   2.0000      -1.049951       -28.5706
  13   2.0000      -1.032721       -28.1018
  14   2.0000      -1.026052       -27.9203
  15   2.0000      -0.894045       -24.3282
  16   2.0000      -0.806206       -21.9380
  17   2.0000      -0.741990       -20.1906
  18   2.0000      -0.708876       -19.2895
  19   2.0000      -0.685596       -18.6560
  20   2.0000      -0.651181       -17.7195
  21   2.0000      -0.610194       -16.6042
  22   2.0000      -0.586658       -15.9638
  23   2.0000      -0.574006       -15.6195
  24   2.0000      -0.552142       -15.0246
  25   2.0000      -0.548010       -14.9121
  26   2.0000      -0.503359       -13.6971
  27   2.0000      -0.500647       -13.6233
  28   2.0000      -0.481950       -13.1145
  29   2.0000      -0.458420       -12.4742
  30   2.0000      -0.453786       -12.3481
  31   2.0000      -0.446350       -12.1458
  32   2.0000      -0.407179       -11.0799
  33   2.0000      -0.399985       -10.8841
  34   2.0000      -0.383464       -10.4346
  35   2.0000      -0.354268        -9.6401
  36   2.0000      -0.298020        -8.1095
  37   2.0000      -0.290297        -7.8994
  38   2.0000      -0.281082        -7.6486
  39   0.0000       0.017798         0.4843
  40   0.0000       0.035709         0.9717
  41   0.0000       0.060916         1.6576
  42   0.0000       0.073575         2.0021
  43   0.0000       0.091493         2.4897

MULLIKEN ATOMIC CHARGES
-----------------------
   0 C :   -0.205667
   1 N :   -0.273965
   2 C :   -0.343387
   3 C :   -0.287695
   4 H :    0.138317
   5 H :    0.139975
   6 C :    0.353785
   7 C :    0.464005
   8 N :   -0.438100
   9 N :   -0.496522
  10 H :    0.285992
  11 H :    0.267423
  12 H :    0.272229
  13 H :    0.315329
  14 H :    0.246160
  15 H :    0.165982
  16 H :    0.157798
  17 H :    0.166702
  18 H :    0.145597
  19 O :   -0.484314
  20 O :   -0.589644
Sum of atomic charges:   -0.0000000

LOEWDIN ATOMIC CHARGES
----------------------
   0 C :   -0.267416
   1 N :    0.160146
   2 C :   -0.268259
   3 C :   -0.242391
   4 H :    0.142832
   5 H :    0.139119
   6 C :   -0.667284
   7 C :   -0.422826
   8 N :    0.049769
   9 N :    0.028798
  10 H :    0.190993
  11 H :    0.183052
  12 H :    0.211311
  13 H :    0.182144
  14 H :    0.180053
  15 H :    0.140818
  16 H :    0.131958
  17 H :    0.143851
  18 H :    0.141857
  19 O :   -0.054915
  20 O :   -0.103609

  Mayer bond orders larger than 0.100000
B(  0-C ,  1-N ) :   0.8681 B(  0-C ,  2-C ) :   0.9168 B(  0-C , 15-H ) :   0.9793
B(  0-C , 16-H ) :   0.9731 B(  1-N ,  7-C ) :   1.3429 B(  1-N , 12-H ) :   0.8896
B(  2-C ,  3-C ) :   0.9161 B(  2-C , 17-H ) :   0.9741 B(  2-C , 18-H ) :   0.9783
B(  3-C ,  4-H ) :   0.9646 B(  3-C ,  5-H ) :   0.9853 B(  3-C ,  6-C ) :   0.9202
B(  6-C , 19-O ) :   1.7943 B(  6-C , 20-O ) :   1.6272 B(  7-C ,  8-N ) :   1.3350
B(  7-C ,  9-N ) :   1.2053 B(  7-C , 19-O ) :   0.1611 B(  8-N , 13-H ) :   0.8001
B(  8-N , 14-H ) :   0.9208 B(  9-N , 10-H ) :   0.9022 B(  9-N , 11-H ) :   0.9172
B( 13-H , 20-O ) :   0.1368

Dispersion correction           -0.000695265
FINAL SINGLE POINT ENERGY      -511.872810081307

DIPOLE MOMENT
-------------
                                X             Y             Z
Electronic contribution:      4.15016       0.42339      -3.44108
Nuclear contribution   :     -4.94498       2.03334       3.78956
                        -----------------------------------------
Total Dipole Moment    :     -0.79482       2.45673       0.34848
                        -----------------------------------------
Magnitude (a.u.)       :      2.60552
Magnitude (Debye)      :      6.62269

Rotational constants in cm-1:     0.062533     0.042832     0.033687
Rotational constants in MHz :  1874.701390  1284.063603  1009.911042

                             ****ORCA TERMINATED NORMALLY****
TOTAL RUN TIME: 0 days 0 hours 0 minutes 36 seconds 979 msec
