                         Program Version 5.0.0 -  RELEASE  -
|  1> !M062X D3Zero RIJCOSX def2-SVP def2/J TightSCF
|  2> *xyz 0 1
|  3> C          3.80351        1.37472       -3.26081
|  4> C          3.93993        0.32036       -4.36773
|  5> H          4.10504       -0.65508       -3.90773
|  6> H          3.02280        0.28052       -4.95712
|  7> C          5.10585        0.66802       -5.30546
|  8> F          4.80913        1.15019       -6.41436
|  9> O          6.26737        0.56500       -4.81948
| 10> H          3.64113        2.33595       -3.70189
| 11> H          4.69995        1.39701       -2.67703
| 12> H          2.97435        1.12625       -2.63180
| 13> *
| 14>
| 15> %MaxCore 64000
| 16>
| 17> %pal nprocs 4
| 18> end
| 19>
| 20> %scf
| 21>   MaxIter 150
| 22> end
| 23>
| 24>
| 25>                          ****END OF INPUT****

CARTESIAN COORDINATES (ANGSTROEM)
---------------------------------
  C      3.803510    1.374720   -3.260810
  C      3.939930    0.320360   -4.367730
  H      4.105040   -0.655080   -3.907730
  H      3.022800    0.280520   -4.957120
  C      5.105850    0.668020   -5.305460
  F      4.809130    1.150190   -6.414360
  O      6.267370    0.565000   -4.819480
  H      3.641130    2.335950   -3.701890
  H      4.699950    1.397010   -2.677030
  H      2.974350    1.126250   -2.631800

 Total Charge           Charge          ....    0
 Multiplicity           Mult            ....    1
 Number of Electrons    NEL             ....   40
 Basis Dimension        Dim             ....   95

ORBITAL ENERGIES
----------------

  NO   OCC          E(Eh)            E(eV)
   0   2.0000     -25.318276      -688.9453
   1   2.0000     -19.634266      -534.2755
   2   2.0000     -10.728325      -291.9326
   3   2.0000     -10.578228      -287.8482
   4   2.0000     -10.557851      -287.2937
   5   2.0000      -1.444638       -39.3106
   6   2.0000      -1.130332       -30.7579
   7   2.0000      -0.889078       -24.1930
   8   2.0000      -0.776147       -21.1200
   9   2.0000      -0.725744       -19.7485
  10   2.0000      -0.641864       -17.4660
  11   2.0000      -0.627866       -17.0851
  12   2.0000      -0.582786       -15.8584
  13   2.0000      -0.534290       -14.5388
  14   2.0000      -0.504854       -13.7378
  15   2.0000      -0.463655       -12.6167
  16   2.0000      -0.444967       -12.1082
  17   2.0000      -0.435800       -11.8587
  18   2.0000      -0.406164       -11.0523
  19   2.0000      -0.359853        -9.7921
  20   0.0000       0.023383         0.6363
  21   0.0000       0.098389         2.6773
  22   0.0000       0.145660         3.9636
  23   0.0000       0.148345         4.0367
  24   0.0000       0.169787         4.6201

MULLIKEN ATOMIC CHARGES
-----------------------
   0 C :   -0.061868
   1 C :   -0.127926
   2 H :    0.080645
   3 H :    0.049214
   4 C :    0.290046
   5 F :   -0.092547
   6 O :   -0.299536
   7 H :    0.044623
   8 H :    0.065102
   9 H :    0.052247
Sum of atomic charges:    0.0000000

LOEWDIN ATOMIC CHARGES
----------------------
   0 C :   -0.041433
   1 C :   -0.076596
   2 H :    0.049705
   3 H :    0.029645
   4 C :    0.121295
   5 F :    0.042105
   6 O :   -0.216916
   7 H :    0.027273
   8 H :    0.033945
   9 H :    0.030978

  Mayer bond orders larger than 0.100000
B(  0-C ,  1-C ) :   1.0804 B(  0-C ,  7-H ) :   0.9761 B(  0-C ,  8-H ) :   0.9723
B(  0-C ,  9-H ) :   0.9729 B(  1-C ,  2-H ) :   0.9411 B(  1-C ,  3-H ) :   0.9409
B(  1-C ,  4-C ) :   0.9938 B(  4-C ,  5-F ) :   1.1748 B(  4-C ,  6-O ) :   2.0441

Dispersion correction           -0.000088712
FINAL SINGLE POINT ENERGY      -292.040837330172

DIPOLE MOMENT
-------------
                                X             Y             Z
Electronic contribution:      4.04785      -0.01061      -7.44004
Nuclear contribution   :     -5.17129      -0.01923       7.59895
                        -----------------------------------------
Total Dipole Moment    :     -1.12345      -0.02984       0.15891
                        -----------------------------------------
Magnitude (a.u.)       :      1.13502
Magnitude (Debye)      :      2.88500

Rotational constants in cm-1:     0.282073     0.131822     0.105134
Rotational constants in MHz :  8456.328792  3951.925810  3151.840112

                             ****ORCA TERMINATED NORMALLY****
TOTAL RUN TIME: 0 days 0 hours 0 minutes 11 seconds 872 msec
