                         Program Version 5.0.0 -  RELEASE  -
|  1> !M062X D3Zero RIJCOSX def2-SVP def2/J TightSCF
|  2> *xyz 0 1
|  3> C          3.90595        2.81985       -3.75292
|  4> C          5.29562        3.13151       -4.10533
|  5> C          3.80351        1.37472       -3.26081
|  6> C          5.70862        3.46889       -5.32419
|  7> N          6.90470        3.03895       -5.71708
|  8> N          4.98188        4.29357       -6.09746
|  9> H          5.00055        4.10131       -7.08776
| 10> H          4.08469        4.59690       -5.73965
| 11> H          5.96336        2.52611       -3.64239
| 12> H          7.04716        2.06686       -5.47360
| 13> H          7.19815        3.30799       -6.64523
| 14> H          3.28202        2.94919       -4.64026
| 15> H          3.56525        3.51457       -2.98252
| 16> H          4.14157        0.71142       -4.02935
| 17> H          2.78528        1.15146       -3.01944
| 18> H          4.41205        1.25066       -2.38949
| 19> *
| 20>
| 21> %MaxCore 64000
| 22>
| 23> %pal nprocs 4
| 24> end
| 25>
| 26> %scf
| 27>   MaxIter 150
| 28> end
| 29>
| 30>
| 31>                          ****END OF INPUT****

CARTESIAN COORDINATES (ANGSTROEM)
---------------------------------
  C      3.905950    2.819850   -3.752920
  C      5.295620    3.131510   -4.105330
  C      3.803510    1.374720   -3.260810
  C      5.708620    3.468890   -5.324190
  N      6.904700    3.038950   -5.717080
  N      4.981880    4.293570   -6.097460
  H      5.000550    4.101310   -7.087760
  H      4.084690    4.596900   -5.739650
  H      5.963360    2.526110   -3.642390
  H      7.047160    2.066860   -5.473600
  H      7.198150    3.307990   -6.645230
  H      3.282020    2.949190   -4.640260
  H      3.565250    3.514570   -2.982520
  H      4.141570    0.711420   -4.029350
  H      2.785280    1.151460   -3.019440
  H      4.412050    1.250660   -2.389490

 Total Charge           Charge          ....    0
 Multiplicity           Mult            ....    1
 Number of Electrons    NEL             ....   48
 Basis Dimension        Dim             ....  134

ORBITAL ENERGIES
----------------

  NO   OCC          E(Eh)            E(eV)
   0   2.0000     -14.757738      -401.5785
   1   2.0000     -14.753470      -401.4623
   2   2.0000     -10.588361      -288.1240
   3   2.0000     -10.524081      -286.3748
   4   2.0000     -10.519567      -286.2520
   5   2.0000     -10.469374      -284.8861
   6   2.0000      -1.058519       -28.8038
   7   2.0000      -0.962192       -26.1826
   8   2.0000      -0.862235       -23.4626
   9   2.0000      -0.774511       -21.0755
  10   2.0000      -0.687046       -18.6955
  11   2.0000      -0.646904       -17.6032
  12   2.0000      -0.603400       -16.4193
  13   2.0000      -0.577164       -15.7054
  14   2.0000      -0.541160       -14.7257
  15   2.0000      -0.511058       -13.9066
  16   2.0000      -0.483807       -13.1651
  17   2.0000      -0.451825       -12.2948
  18   2.0000      -0.431899       -11.7526
  19   2.0000      -0.409131       -11.1330
  20   2.0000      -0.384057       -10.4507
  21   2.0000      -0.379975       -10.3396
  22   2.0000      -0.331949        -9.0328
  23   2.0000      -0.213175        -5.8008
  24   0.0000       0.078297         2.1306
  25   0.0000       0.109555         2.9812
  26   0.0000       0.121263         3.2997
  27   0.0000       0.128901         3.5076
  28   0.0000       0.146455         3.9852

MULLIKEN ATOMIC CHARGES
-----------------------
   0 C :   -0.053596
   1 C :   -0.085562
   2 C :   -0.046849
   3 C :   -0.099886
   4 N :   -0.122706
   5 N :   -0.119568
   6 H :    0.115016
   7 H :    0.134842
   8 H :   -0.074489
   9 H :    0.146469
  10 H :    0.109960
  11 H :   -0.005244
  12 H :    0.025168
  13 H :    0.017639
  14 H :    0.023616
  15 H :    0.035189
Sum of atomic charges:   -0.0000000

LOEWDIN ATOMIC CHARGES
----------------------
   0 C :   -0.048214
   1 C :   -0.208487
   2 C :   -0.054419
   3 C :    0.014036
   4 N :   -0.029977
   5 N :   -0.036021
   6 H :    0.062543
   7 H :    0.081538
   8 H :   -0.008584
   9 H :    0.083523
  10 H :    0.064889
  11 H :    0.006099
  12 H :    0.016318
  13 H :    0.016208
  14 H :    0.018513
  15 H :    0.022033

  Mayer bond orders larger than 0.100000
B(  0-C ,  1-C ) :   1.0548 B(  0-C ,  2-C ) :   1.0867 B(  0-C , 11-H ) :   0.9505
B(  0-C , 12-H ) :   0.9319 B(  1-C ,  3-C ) :   1.7354 B(  1-C ,  8-H ) :   0.9277
B(  2-C , 13-H ) :   0.9746 B(  2-C , 14-H ) :   0.9688 B(  2-C , 15-H ) :   0.9760
B(  3-C ,  4-N ) :   1.1944 B(  3-C ,  5-N ) :   1.2298 B(  4-N ,  9-H ) :   0.9437
B(  4-N , 10-H ) :   0.9493 B(  5-N ,  6-H ) :   0.9381 B(  5-N ,  7-H ) :   0.9380

Dispersion correction           -0.000311309
FINAL SINGLE POINT ENERGY      -267.567890828961

DIPOLE MOMENT
-------------
                                X             Y             Z
Electronic contribution:      3.21033       3.26867      -2.95317
Nuclear contribution   :     -3.27358      -3.61654       1.70633
                        -----------------------------------------
Total Dipole Moment    :     -0.06324      -0.34787      -1.24684
                        -----------------------------------------
Magnitude (a.u.)       :      1.29600
Magnitude (Debye)      :      3.29418

Rotational constants in cm-1:     0.231961     0.071249     0.059473
Rotational constants in MHz :  6954.024434  2135.976855  1782.962814

                             ****ORCA TERMINATED NORMALLY****
TOTAL RUN TIME: 0 days 0 hours 0 minutes 17 seconds 866 msec
