                         Program Version 5.0.0 -  RELEASE  -
|  1> !M062X D3Zero RIJCOSX def2-SVP def2/J TightSCF
|  2> *xyz 0 1
|  3> C          3.80351        1.37472       -3.26081
|  4> C          3.93993        0.32036       -4.36773
|  5> H          4.10504       -0.65508       -3.90773
|  6> H          3.02280        0.28052       -4.95712
|  7> C          5.10585        0.66802       -5.30546
|  8> O          4.80913        1.15019       -6.41436
|  9> F          6.26737        0.56500       -4.81948
| 10> H          3.64113        2.33595       -3.70189
| 11> H          4.69995        1.39701       -2.67703
| 12> H          2.97435        1.12625       -2.63180
| 13> *
| 14>
| 15> %MaxCore 64000
| 16>
| 17> %pal nprocs 4
| 18> end
| 19>
| 20> %scf
| 21>   MaxIter 150
| 22> end
| 23>
| 24>
| 25>                          ****END OF INPUT****

CARTESIAN COORDINATES (ANGSTROEM)
---------------------------------
  C      3.803510    1.374720   -3.260810
  C      3.939930    0.320360   -4.367730
  H      4.105040   -0.655080   -3.907730
  H      3.022800    0.280520   -4.957120
  C      5.105850    0.668020   -5.305460
  O      4.809130    1.150190   -6.414360
  F      6.267370    0.565000   -4.819480
  H      3.641130    2.335950   -3.701890
  H      4.699950    1.397010   -2.677030
  H      2.974350    1.126250   -2.631800

 Total Charge           Charge          ....    0
 Multiplicity           Mult            ....    1
 Number of Electrons    NEL             ....   40
 Basis Dimension        Dim             ....   95

ORBITAL ENERGIES
----------------

  NO   OCC          E(Eh)            E(eV)
   0   2.0000     -25.311624      -688.7643
   1   2.0000     -19.637222      -534.3560
   2   2.0000     -10.726418      -291.8807
   3   2.0000     -10.577601      -287.8312
   4   2.0000     -10.560437      -287.3641
   5   2.0000      -1.430599       -38.9286
   6   2.0000      -1.141977       -31.0748
   7   2.0000      -0.890917       -24.2431
   8   2.0000      -0.769283       -20.9332
   9   2.0000      -0.723836       -19.6966
  10   2.0000      -0.635128       -17.2827
  11   2.0000      -0.623364       -16.9626
  12   2.0000      -0.580078       -15.7847
  13   2.0000      -0.534298       -14.5390
  14   2.0000      -0.506767       -13.7898
  15   2.0000      -0.468501       -12.7486
  16   2.0000      -0.450685       -12.2638
  17   2.0000      -0.436267       -11.8714
  18   2.0000      -0.415161       -11.2971
  19   2.0000      -0.360295        -9.8041
  20   0.0000       0.028584         0.7778
  21   0.0000       0.096084         2.6146
  22   0.0000       0.143824         3.9137
  23   0.0000       0.149875         4.0783
  24   0.0000       0.173477         4.7205

MULLIKEN ATOMIC CHARGES
-----------------------
   0 C :   -0.075833
   1 C :   -0.123818
   2 H :    0.060819
   3 H :    0.074723
   4 C :    0.291510
   5 O :   -0.273091
   6 F :   -0.118605
   7 H :    0.057499
   8 H :    0.050454
   9 H :    0.056340
Sum of atomic charges:    0.0000000

LOEWDIN ATOMIC CHARGES
----------------------
   0 C :   -0.047027
   1 C :   -0.074048
   2 H :    0.036625
   3 H :    0.046163
   4 C :    0.122704
   5 O :   -0.193614
   6 F :    0.017868
   7 H :    0.031180
   8 H :    0.027313
   9 H :    0.032838

  Mayer bond orders larger than 0.100000
B(  0-C ,  1-C ) :   1.0707 B(  0-C ,  7-H ) :   0.9744 B(  0-C ,  8-H ) :   0.9750
B(  0-C ,  9-H ) :   0.9725 B(  1-C ,  2-H ) :   0.9361 B(  1-C ,  3-H ) :   0.9510
B(  1-C ,  4-C ) :   1.0023 B(  4-C ,  5-O ) :   2.0794 B(  4-C ,  6-F ) :   1.1422

Dispersion correction           -0.000090414
FINAL SINGLE POINT ENERGY      -292.046309817019

DIPOLE MOMENT
-------------
                                X             Y             Z
Electronic contribution:      6.42861      -0.96758      -4.82113
Nuclear contribution   :     -6.76123       0.61881       5.86003
                        -----------------------------------------
Total Dipole Moment    :     -0.33262      -0.34877       1.03890
                        -----------------------------------------
Magnitude (a.u.)       :      1.14525
Magnitude (Debye)      :      2.91098

Rotational constants in cm-1:     0.275298     0.134631     0.105723
Rotational constants in MHz :  8253.224169  4036.137572  3169.487264

                             ****ORCA TERMINATED NORMALLY****
TOTAL RUN TIME: 0 days 0 hours 0 minutes 11 seconds 889 msec
