                         Program Version 5.0.0 -  RELEASE  -
|  1> !M062X D3Zero RIJCOSX def2-SVP def2/J TightSCF
|  2> *xyz 0 1
|  3> C          3.90595        2.81985       -3.75292
|  4> N          5.29562        3.13151       -4.10533
|  5> C          3.80351        1.37472       -3.26081
|  6> C          5.70862        3.46889       -5.32419
|  7> C          6.90470        3.03895       -5.71708
|  8> N          4.98188        4.29357       -6.09746
|  9> H          5.00055        4.10131       -7.08776
| 10> H          4.08469        4.59690       -5.73965
| 11> H          5.96336        2.52611       -3.64239
| 12> H          7.04716        2.06686       -5.47360
| 13> H          7.19815        3.30799       -6.64523
| 14> H          3.28202        2.94919       -4.64026
| 15> H          3.56525        3.51457       -2.98252
| 16> H          4.14157        0.71142       -4.02935
| 17> H          2.78528        1.15146       -3.01944
| 18> H          4.41205        1.25066       -2.38949
| 19> *
| 20>
| 21> %MaxCore 64000
| 22>
| 23> %pal nprocs 4
| 24> end
| 25>
| 26> %scf
| 27>   MaxIter 150
| 28> end
| 29>
| 30>
| 31>                          ****END OF INPUT****

CARTESIAN COORDINATES (ANGSTROEM)
---------------------------------
  C      3.905950    2.819850   -3.752920
  N      5.295620    3.131510   -4.105330
  C      3.803510    1.374720   -3.260810
  C      5.708620    3.468890   -5.324190
  C      6.904700    3.038950   -5.717080
  N      4.981880    4.293570   -6.097460
  H      5.000550    4.101310   -7.087760
  H      4.084690    4.596900   -5.739650
  H      5.963360    2.526110   -3.642390
  H      7.047160    2.066860   -5.473600
  H      7.198150    3.307990   -6.645230
  H      3.282020    2.949190   -4.640260
  H      3.565250    3.514570   -2.982520
  H      4.141570    0.711420   -4.029350
  H      2.785280    1.151460   -3.019440
  H      4.412050    1.250660   -2.389490

 Total Charge           Charge          ....    0
 Multiplicity           Mult            ....    1
 Number of Electrons    NEL             ....   48
 Basis Dimension        Dim             ....  134

ORBITAL ENERGIES
----------------

  NO   OCC          E(Eh)            E(eV)
   0   2.0000     -14.757267      -401.5656
   1   2.0000     -14.755006      -401.5041
   2   2.0000     -10.592998      -288.2501
   3   2.0000     -10.589530      -288.1558
   4   2.0000     -10.550208      -287.0857
   5   2.0000     -10.457881      -284.5734
   6   2.0000      -1.064772       -28.9739
   7   2.0000      -0.975742       -26.5513
   8   2.0000      -0.859662       -23.3926
   9   2.0000      -0.786761       -21.4088
  10   2.0000      -0.706728       -19.2310
  11   2.0000      -0.668754       -18.1977
  12   2.0000      -0.602173       -16.3860
  13   2.0000      -0.561431       -15.2773
  14   2.0000      -0.553250       -15.0547
  15   2.0000      -0.517187       -14.0734
  16   2.0000      -0.487601       -13.2683
  17   2.0000      -0.465283       -12.6610
  18   2.0000      -0.441422       -12.0117
  19   2.0000      -0.433146       -11.7865
  20   2.0000      -0.432366       -11.7653
  21   2.0000      -0.398986       -10.8570
  22   2.0000      -0.317636        -8.6433
  23   2.0000      -0.217676        -5.9233
  24   0.0000       0.082448         2.2435
  25   0.0000       0.102196         2.7809
  26   0.0000       0.115987         3.1562
  27   0.0000       0.127027         3.4566
  28   0.0000       0.145025         3.9463

MULLIKEN ATOMIC CHARGES
-----------------------
   0 C :    0.030398
   1 N :   -0.196977
   2 C :   -0.079605
   3 C :   -0.052947
   4 C :   -0.091515
   5 N :   -0.139092
   6 H :    0.144988
   7 H :    0.117800
   8 H :    0.128563
   9 H :   -0.024856
  10 H :   -0.045885
  11 H :    0.027006
  12 H :    0.046108
  13 H :    0.046775
  14 H :    0.043026
  15 H :    0.046211
Sum of atomic charges:    0.0000000

LOEWDIN ATOMIC CHARGES
----------------------
   0 C :    0.026965
   1 N :   -0.044229
   2 C :   -0.063246
   3 C :    0.036248
   4 C :   -0.259005
   5 N :   -0.030099
   6 H :    0.083109
   7 H :    0.065490
   8 H :    0.082821
   9 H :   -0.005341
  10 H :   -0.009239
  11 H :    0.015287
  12 H :    0.018461
  13 H :    0.027365
  14 H :    0.029775
  15 H :    0.025638

  Mayer bond orders larger than 0.100000
B(  0-C ,  1-N ) :   0.9799 B(  0-C ,  2-C ) :   1.0992 B(  0-C , 11-H ) :   0.9498
B(  0-C , 12-H ) :   0.9530 B(  1-N ,  3-C ) :   1.2101 B(  1-N ,  8-H ) :   0.9275
B(  2-C , 13-H ) :   0.9744 B(  2-C , 14-H ) :   0.9669 B(  2-C , 15-H ) :   0.9716
B(  3-C ,  4-C ) :   1.7455 B(  3-C ,  5-N ) :   1.1955 B(  4-C ,  9-H ) :   0.9463
B(  4-C , 10-H ) :   0.9499 B(  5-N ,  6-H ) :   0.9454 B(  5-N ,  7-H ) :   0.9473

Dispersion correction           -0.000307957
FINAL SINGLE POINT ENERGY      -267.557392280565

DIPOLE MOMENT
-------------
                                X             Y             Z
Electronic contribution:      1.50620       3.24276      -1.29767
Nuclear contribution   :     -2.93222      -3.63618       1.36440
                        -----------------------------------------
Total Dipole Moment    :     -1.42602      -0.39341       0.06673
                        -----------------------------------------
Magnitude (a.u.)       :      1.48080
Magnitude (Debye)      :      3.76388

Rotational constants in cm-1:     0.237993     0.072843     0.061284
Rotational constants in MHz :  7134.860770  2183.763760  1837.240960

                             ****ORCA TERMINATED NORMALLY****
TOTAL RUN TIME: 0 days 0 hours 0 minutes 17 seconds 687 msec
