                         Program Version 5.0.0 -  RELEASE  -
|  1> !M062X D3Zero RIJCOSX def2-SVP def2/J TightSCF
|  2> *xyz 0 1
|  3> C          3.90595        2.81985       -3.75292
|  4> N          5.29562        3.13151       -4.10533
|  5> C          3.80351        1.37472       -3.26081
|  6> C          5.70862        3.46889       -5.32419
|  7> N          6.90470        3.03895       -5.71708
|  8> C          4.98188        4.29357       -6.09746
|  9> H          5.00055        4.10131       -7.08776
| 10> H          4.08469        4.59690       -5.73965
| 11> H          5.96336        2.52611       -3.64239
| 12> H          7.04716        2.06686       -5.47360
| 13> H          7.19815        3.30799       -6.64523
| 14> H          3.28202        2.94919       -4.64026
| 15> H          3.56525        3.51457       -2.98252
| 16> H          4.14157        0.71142       -4.02935
| 17> H          2.78528        1.15146       -3.01944
| 18> H          4.41205        1.25066       -2.38949
| 19> *
| 20>
| 21> %MaxCore 64000
| 22>
| 23> %pal nprocs 4
| 24> end
| 25>
| 26> %scf
| 27>   MaxIter 150
| 28> end
| 29>
| 30>
| 31>                          ****END OF INPUT****

CARTESIAN COORDINATES (ANGSTROEM)
---------------------------------
  C      3.905950    2.819850   -3.752920
  N      5.295620    3.131510   -4.105330
  C      3.803510    1.374720   -3.260810
  C      5.708620    3.468890   -5.324190
  N      6.904700    3.038950   -5.717080
  C      4.981880    4.293570   -6.097460
  H      5.000550    4.101310   -7.087760
  H      4.084690    4.596900   -5.739650
  H      5.963360    2.526110   -3.642390
  H      7.047160    2.066860   -5.473600
  H      7.198150    3.307990   -6.645230
  H      3.282020    2.949190   -4.640260
  H      3.565250    3.514570   -2.982520
  H      4.141570    0.711420   -4.029350
  H      2.785280    1.151460   -3.019440
  H      4.412050    1.250660   -2.389490

 Total Charge           Charge          ....    0
 Multiplicity           Mult            ....    1
 Number of Electrons    NEL             ....   48
 Basis Dimension        Dim             ....  134

ORBITAL ENERGIES
----------------

  NO   OCC          E(Eh)            E(eV)
   0   2.0000     -14.757006      -401.5585
   1   2.0000     -14.756323      -401.5400
   2   2.0000     -10.592071      -288.2249
   3   2.0000     -10.582723      -287.9705
   4   2.0000     -10.547765      -287.0193
   5   2.0000     -10.463583      -284.7286
   6   2.0000      -1.069772       -29.1100
   7   2.0000      -0.977990       -26.6124
   8   2.0000      -0.847801       -23.0698
   9   2.0000      -0.787731       -21.4352
  10   2.0000      -0.720729       -19.6120
  11   2.0000      -0.637997       -17.3608
  12   2.0000      -0.605408       -16.4740
  13   2.0000      -0.584514       -15.9054
  14   2.0000      -0.540517       -14.7082
  15   2.0000      -0.522351       -14.2139
  16   2.0000      -0.469721       -12.7818
  17   2.0000      -0.464162       -12.6305
  18   2.0000      -0.453358       -12.3365
  19   2.0000      -0.433896       -11.8069
  20   2.0000      -0.422890       -11.5074
  21   2.0000      -0.400250       -10.8913
  22   2.0000      -0.315174        -8.5763
  23   2.0000      -0.220894        -6.0108
  24   0.0000       0.079945         2.1754
  25   0.0000       0.108712         2.9582
  26   0.0000       0.117631         3.2009
  27   0.0000       0.130234         3.5438
  28   0.0000       0.144288         3.9263

MULLIKEN ATOMIC CHARGES
-----------------------
   0 C :    0.054633
   1 N :   -0.214776
   2 C :   -0.084577
   3 C :   -0.047422
   4 N :   -0.122397
   5 C :   -0.098431
   6 H :   -0.027202
   7 H :   -0.031196
   8 H :    0.105769
   9 H :    0.114702
  10 H :    0.132336
  11 H :    0.050434
  12 H :    0.046429
  13 H :    0.035999
  14 H :    0.045058
  15 H :    0.040640
Sum of atomic charges:   -0.0000000

LOEWDIN ATOMIC CHARGES
----------------------
   0 C :    0.041238
   1 N :   -0.042006
   2 C :   -0.066333
   3 C :    0.027806
   4 N :   -0.032175
   5 C :   -0.248564
   6 H :   -0.005897
   7 H :   -0.007282
   8 H :    0.062162
   9 H :    0.062478
  10 H :    0.084129
  11 H :    0.027384
  12 H :    0.020812
  13 H :    0.022570
  14 H :    0.031206
  15 H :    0.022472

  Mayer bond orders larger than 0.100000
B(  0-C ,  1-N ) :   0.9796 B(  0-C ,  2-C ) :   1.0992 B(  0-C , 11-H ) :   0.9443
B(  0-C , 12-H ) :   0.9558 B(  1-N ,  3-C ) :   1.1780 B(  1-N ,  8-H ) :   0.9335
B(  2-C , 13-H ) :   0.9741 B(  2-C , 14-H ) :   0.9664 B(  2-C , 15-H ) :   0.9712
B(  3-C ,  4-N ) :   1.2183 B(  3-C ,  5-C ) :   1.7377 B(  4-N ,  9-H ) :   0.9418
B(  4-N , 10-H ) :   0.9416 B(  5-C ,  6-H ) :   0.9440 B(  5-C ,  7-H ) :   0.9424

Dispersion correction           -0.000310601
FINAL SINGLE POINT ENERGY      -267.561962579742

DIPOLE MOMENT
-------------
                                X             Y             Z
Electronic contribution:      3.45434       2.02935      -1.01326
Nuclear contribution   :     -3.34013      -3.37002       1.28371
                        -----------------------------------------
Total Dipole Moment    :      0.11421      -1.34067       0.27044
                        -----------------------------------------
Magnitude (a.u.)       :      1.37244
Magnitude (Debye)      :      3.48846

Rotational constants in cm-1:     0.239537     0.072280     0.060961
Rotational constants in MHz :  7181.153552  2166.902802  1827.551447

                             ****ORCA TERMINATED NORMALLY****
TOTAL RUN TIME: 0 days 0 hours 0 minutes 17 seconds 555 msec
