                         Program Version 5.0.0 -  RELEASE  -
|  1> !M062X D3Zero RIJCOSX def2-TZVP def2/J TightSCF xyzfile
|  2>
|  3> *xyzfile 0 1 D4.xyz
|  4>
|  5> %MaxCore 64000
|  6>
|  7> %pal nprocs 18
|  8> end
|  9>
| 10> %scf
| 11>   MaxIter 150
| 12> end
| 13>
| 14>
| 15>                          ****END OF INPUT****

CARTESIAN COORDINATES (ANGSTROEM)
---------------------------------
  C      3.905947    2.819855   -3.752920
  C      5.295615    3.131515   -4.105334
  C      3.803511    1.374716   -3.260807
  C      3.939934    0.320362   -4.367729
  H      4.105043   -0.655085   -3.907733
  H      3.022801    0.280517   -4.957117
  C      5.105846    0.668022   -5.305463
  C      5.708619    3.468885   -5.324190
  N      6.904696    3.038954   -5.717084
  N      4.981884    4.293570   -6.097457
  H      5.000546    4.101311   -7.087761
  H      4.084693    4.596899   -5.739652
  H      5.963358    2.526112   -3.642391
  H      7.047164    2.066861   -5.473604
  H      7.198145    3.307994   -6.645225
  H      3.282025    2.949187   -4.640259
  H      3.565254    3.514574   -2.982523
  H      4.574833    1.215157   -2.500443
  H      2.843514    1.260845   -2.751465
  O      4.809132    1.150187   -6.414361
  F      6.267366    0.564999   -4.819481

 Total Charge           Charge          ....    0
 Multiplicity           Mult            ....    1
 Number of Electrons    NEL             ....   78
 Basis Dimension        Dim             ....  376

ORBITAL ENERGIES
----------------

  NO   OCC          E(Eh)            E(eV)
   0   2.0000     -25.322619      -689.0635
   1   2.0000     -19.634789      -534.2898
   2   2.0000     -14.746951      -401.2849
   3   2.0000     -14.736390      -400.9976
   4   2.0000     -10.721804      -291.7551
   5   2.0000     -10.581297      -287.9317
   6   2.0000     -10.561508      -287.3932
   7   2.0000     -10.542891      -286.8867
   8   2.0000     -10.521794      -286.3126
   9   2.0000     -10.462377      -284.6957
  10   2.0000      -1.472495       -40.0686
  11   2.0000      -1.165635       -31.7186
  12   2.0000      -1.072450       -29.1828
  13   2.0000      -0.976570       -26.5738
  14   2.0000      -0.918500       -24.9937
  15   2.0000      -0.848326       -23.0841
  16   2.0000      -0.790870       -21.5207
  17   2.0000      -0.753685       -20.5088
  18   2.0000      -0.694710       -18.9040
  19   2.0000      -0.676365       -18.4048
  20   2.0000      -0.650691       -17.7062
  21   2.0000      -0.632038       -17.1986
  22   2.0000      -0.604562       -16.4510
  23   2.0000      -0.585663       -15.9367
  24   2.0000      -0.584120       -15.8947
  25   2.0000      -0.539722       -14.6866
  26   2.0000      -0.535791       -14.5796
  27   2.0000      -0.513815       -13.9816
  28   2.0000      -0.500831       -13.6283
  29   2.0000      -0.471640       -12.8340
  30   2.0000      -0.453868       -12.3504
  31   2.0000      -0.439170       -11.9504
  32   2.0000      -0.429335       -11.6828
  33   2.0000      -0.408644       -11.1198
  34   2.0000      -0.403433       -10.9780
  35   2.0000      -0.389356       -10.5949
  36   2.0000      -0.363967        -9.9040
  37   2.0000      -0.332236        -9.0406
  38   2.0000      -0.225029        -6.1233
  39   0.0000       0.016002         0.4354
  40   0.0000       0.059735         1.6255
  41   0.0000       0.073781         2.0077
  42   0.0000       0.088981         2.4213
  43   0.0000       0.097604         2.6559

MULLIKEN ATOMIC CHARGES
-----------------------
   0 C :   -0.296722
   1 C :   -0.329792
   2 C :   -0.313721
   3 C :   -0.321332
   4 H :    0.157395
   5 H :    0.168137
   6 C :    0.443826
   7 C :    0.316379
   8 N :   -0.491184
   9 N :   -0.536310
  10 H :    0.235195
  11 H :    0.251015
  12 H :    0.132232
  13 H :    0.254303
  14 H :    0.227515
  15 H :    0.125949
  16 H :    0.150276
  17 H :    0.167837
  18 H :    0.144028
  19 O :   -0.336786
  20 F :   -0.148241
Sum of atomic charges:    0.0000000

LOEWDIN ATOMIC CHARGES
----------------------
   0 C :   -0.287421
   1 C :   -0.276279
   2 C :   -0.256648
   3 C :   -0.225990
   4 H :    0.146371
   5 H :    0.154590
   6 C :   -0.496617
   7 C :   -0.476127
   8 N :   -0.007647
   9 N :   -0.012592
  10 H :    0.163364
  11 H :    0.175461
  12 H :    0.124123
  13 H :    0.169258
  14 H :    0.164168
  15 H :    0.137911
  16 H :    0.137047
  17 H :    0.143598
  18 H :    0.139647
  19 O :    0.077480
  20 F :    0.306303

  Mayer bond orders larger than 0.100000
B(  0-C ,  1-C ) :   0.8795 B(  0-C ,  2-C ) :   0.8966 B(  0-C , 15-H ) :   0.9797
B(  0-C , 16-H ) :   0.9770 B(  1-C ,  7-C ) :   1.5799 B(  1-C , 12-H ) :   1.0833
B(  2-C ,  3-C ) :   0.9102 B(  2-C , 17-H ) :   0.9813 B(  2-C , 18-H ) :   0.9805
B(  3-C ,  4-H ) :   0.9627 B(  3-C ,  5-H ) :   0.9780 B(  3-C ,  6-C ) :   0.9822
B(  6-C , 19-O ) :   2.0244 B(  6-C , 20-F ) :   1.0612 B(  7-C ,  8-N ) :   1.0862
B(  7-C ,  9-N ) :   1.0977 B(  8-N , 13-H ) :   0.9086 B(  8-N , 14-H ) :   0.9331
B(  9-N , 10-H ) :   0.9171 B(  9-N , 11-H ) :   0.9284

Dispersion correction           -0.000691211
FINAL SINGLE POINT ENERGY      -519.777204666013

DIPOLE MOMENT
-------------
                                X             Y             Z
Electronic contribution:      5.80736      -4.54588      -3.92923
Nuclear contribution   :     -6.25608       3.89116       3.75052
                        -----------------------------------------
Total Dipole Moment    :     -0.44872      -0.65472      -0.17870
                        -----------------------------------------
Magnitude (a.u.)       :      0.81360
Magnitude (Debye)      :      2.06800

Rotational constants in cm-1:     0.061229     0.042568     0.033282
Rotational constants in MHz :  1835.590871  1276.154029   997.769927

                             ****ORCA TERMINATED NORMALLY****
TOTAL RUN TIME: 0 days 0 hours 0 minutes 41 seconds 226 msec
