                         Program Version 5.0.0 -  RELEASE  -
|  1> !M062X D3Zero RIJCOSX def2-TZVP def2/J TightSCF xyzfile
|  2>
|  3> *xyzfile 0 1 D5.xyz
|  4>
|  5> %MaxCore 64000
|  6>
|  7> %pal nprocs 18
|  8> end
|  9>
| 10> %scf
| 11>   MaxIter 150
| 12> end
| 13>
| 14>
| 15>                          ****END OF INPUT****

CARTESIAN COORDINATES (ANGSTROEM)
---------------------------------
  C      3.905947    2.819855   -3.752920
  N      5.295615    3.131515   -4.105334
  C      3.803511    1.374716   -3.260807
  C      3.939934    0.320362   -4.367729
  H      4.105043   -0.655085   -3.907733
  H      3.022801    0.280517   -4.957117
  C      5.105846    0.668022   -5.305463
  C      5.708619    3.468885   -5.324190
  C      6.904696    3.038954   -5.717084
  N      4.981884    4.293570   -6.097457
  H      5.000546    4.101311   -7.087761
  H      4.084693    4.596899   -5.739652
  H      5.963358    2.526112   -3.642391
  H      7.047164    2.066861   -5.473604
  H      7.198145    3.307994   -6.645225
  H      3.282025    2.949187   -4.640259
  H      3.565254    3.514574   -2.982523
  H      4.574833    1.215157   -2.500443
  H      2.843514    1.260845   -2.751465
  O      4.809132    1.150187   -6.414361
  F      6.267366    0.564999   -4.819481

 Total Charge           Charge          ....    0
 Multiplicity           Mult            ....    1
 Number of Electrons    NEL             ....   78
 Basis Dimension        Dim             ....  376

ORBITAL ENERGIES
----------------

  NO   OCC          E(Eh)            E(eV)
   0   2.0000     -25.318098      -688.9405
   1   2.0000     -19.638249      -534.3839
   2   2.0000     -14.753498      -401.4631
   3   2.0000     -14.742519      -401.1643
   4   2.0000     -10.723731      -291.8076
   5   2.0000     -10.584503      -288.0190
   6   2.0000     -10.577608      -287.8313
   7   2.0000     -10.574490      -287.7465
   8   2.0000     -10.568243      -287.5765
   9   2.0000     -10.435012      -283.9511
  10   2.0000      -1.468587       -39.9623
  11   2.0000      -1.167845       -31.7787
  12   2.0000      -1.082669       -29.4609
  13   2.0000      -0.993812       -27.0430
  14   2.0000      -0.920590       -25.0505
  15   2.0000      -0.840500       -22.8712
  16   2.0000      -0.797146       -21.6915
  17   2.0000      -0.757104       -20.6018
  18   2.0000      -0.709530       -19.3073
  19   2.0000      -0.681661       -18.5489
  20   2.0000      -0.650190       -17.6926
  21   2.0000      -0.648099       -17.6357
  22   2.0000      -0.598484       -16.2856
  23   2.0000      -0.593156       -16.1406
  24   2.0000      -0.572580       -15.5807
  25   2.0000      -0.561423       -15.2771
  26   2.0000      -0.537327       -14.6214
  27   2.0000      -0.515167       -14.0184
  28   2.0000      -0.494809       -13.4644
  29   2.0000      -0.473176       -12.8758
  30   2.0000      -0.462962       -12.5978
  31   2.0000      -0.452777       -12.3207
  32   2.0000      -0.439079       -11.9480
  33   2.0000      -0.429782       -11.6950
  34   2.0000      -0.425868       -11.5884
  35   2.0000      -0.392242       -10.6735
  36   2.0000      -0.370319       -10.0769
  37   2.0000      -0.325942        -8.8693
  38   2.0000      -0.219060        -5.9609
  39   0.0000       0.012609         0.3431
  40   0.0000       0.050291         1.3685
  41   0.0000       0.067669         1.8414
  42   0.0000       0.083498         2.2721
  43   0.0000       0.093750         2.5511

MULLIKEN ATOMIC CHARGES
-----------------------
   0 C :   -0.210441
   1 N :   -0.326782
   2 C :   -0.350987
   3 C :   -0.297540
   4 H :    0.164014
   5 H :    0.173324
   6 C :    0.403754
   7 C :    0.347787
   8 C :   -0.455565
   9 N :   -0.549361
  10 H :    0.266732
  11 H :    0.227290
  12 H :    0.240010
  13 H :    0.084387
  14 H :    0.079637
  15 H :    0.164249
  16 H :    0.154235
  17 H :    0.176594
  18 H :    0.152681
  19 O :   -0.309828
  20 F :   -0.134191
Sum of atomic charges:   -0.0000000

LOEWDIN ATOMIC CHARGES
----------------------
   0 C :   -0.284603
   1 N :    0.115643
   2 C :   -0.268906
   3 C :   -0.228015
   4 H :    0.148591
   5 H :    0.155740
   6 C :   -0.498682
   7 C :   -0.486446
   8 C :   -0.335446
   9 N :   -0.012418
  10 H :    0.179855
  11 H :    0.160224
  12 H :    0.194868
  13 H :    0.097197
  14 H :    0.096815
  15 H :    0.137268
  16 H :    0.130560
  17 H :    0.143363
  18 H :    0.145121
  19 O :    0.097072
  20 F :    0.312198

  Mayer bond orders larger than 0.100000
B(  0-C ,  1-N ) :   0.8887 B(  0-C ,  2-C ) :   0.9031 B(  0-C , 15-H ) :   0.9794
B(  0-C , 16-H ) :   0.9745 B(  1-N ,  7-C ) :   1.1211 B(  1-N , 12-H ) :   0.9211
B(  2-C ,  3-C ) :   0.8959 B(  2-C , 17-H ) :   0.9787 B(  2-C , 18-H ) :   0.9749
B(  3-C ,  4-H ) :   0.9651 B(  3-C ,  5-H ) :   0.9788 B(  3-C ,  6-C ) :   0.9711
B(  6-C , 19-O ) :   2.0387 B(  6-C , 20-F ) :   1.0948 B(  7-C ,  8-C ) :   1.6789
B(  7-C ,  9-N ) :   1.0126 B(  8-C , 13-H ) :   0.9947 B(  8-C , 14-H ) :   1.0271
B(  9-N , 10-H ) :   0.9189 B(  9-N , 11-H ) :   0.9395

Dispersion correction           -0.000690586
FINAL SINGLE POINT ENERGY      -519.753517240587

DIPOLE MOMENT
-------------
                                X             Y             Z
Electronic contribution:      4.38451      -4.67888      -2.60694
Nuclear contribution   :     -6.05797       3.87976       3.55209
                        -----------------------------------------
Total Dipole Moment    :     -1.67345      -0.79912       0.94515
                        -----------------------------------------
Magnitude (a.u.)       :      2.08143
Magnitude (Debye)      :      5.29057

Rotational constants in cm-1:     0.061282     0.043164     0.033679
Rotational constants in MHz :  1837.191639  1294.028651  1009.659886

                             ****ORCA TERMINATED NORMALLY****
TOTAL RUN TIME: 0 days 0 hours 0 minutes 26 seconds 687 msec
