                         Program Version 5.0.0 -  RELEASE  -
|  1> !M062X D3Zero RIJCOSX def2-TZVP def2/J TightSCF xyzfile
|  2>
|  3> *xyzfile 0 1 D6.xyz
|  4>
|  5> %MaxCore 64000
|  6>
|  7> %pal nprocs 18
|  8> end
|  9>
| 10> %scf
| 11>   MaxIter 150
| 12> end
| 13>
| 14>
| 15>                          ****END OF INPUT****

CARTESIAN COORDINATES (ANGSTROEM)
---------------------------------
  C      3.905947    2.819855   -3.752920
  N      5.295615    3.131515   -4.105334
  C      3.803511    1.374716   -3.260807
  C      3.939934    0.320362   -4.367729
  H      4.105043   -0.655085   -3.907733
  H      3.022801    0.280517   -4.957117
  C      5.105846    0.668022   -5.305463
  C      5.708619    3.468885   -5.324190
  N      6.904696    3.038954   -5.717084
  C      4.981884    4.293570   -6.097457
  H      5.000546    4.101311   -7.087761
  H      4.084693    4.596899   -5.739652
  H      5.963358    2.526112   -3.642391
  H      7.047164    2.066861   -5.473604
  H      7.198145    3.307994   -6.645225
  H      3.282025    2.949187   -4.640259
  H      3.565254    3.514574   -2.982523
  H      4.574833    1.215157   -2.500443
  H      2.843514    1.260845   -2.751465
  O      4.809132    1.150187   -6.414361
  F      6.267366    0.564999   -4.819481

 Total Charge           Charge          ....    0
 Multiplicity           Mult            ....    1
 Number of Electrons    NEL             ....   78
 Basis Dimension        Dim             ....  376

ORBITAL ENERGIES
----------------

  NO   OCC          E(Eh)            E(eV)
   0   2.0000     -25.336258      -689.4346
   1   2.0000     -19.647611      -534.6387
   2   2.0000     -14.755691      -401.5228
   3   2.0000     -14.734693      -400.9514
   4   2.0000     -10.730832      -292.0008
   5   2.0000     -10.580603      -287.9129
   6   2.0000     -10.578231      -287.8483
   7   2.0000     -10.577402      -287.8258
   8   2.0000     -10.567622      -287.5596
   9   2.0000     -10.446058      -284.2517
  10   2.0000      -1.486649       -40.4538
  11   2.0000      -1.176158       -32.0049
  12   2.0000      -1.086656       -29.5694
  13   2.0000      -0.995950       -27.1012
  14   2.0000      -0.918342       -24.9894
  15   2.0000      -0.835497       -22.7350
  16   2.0000      -0.797657       -21.7054
  17   2.0000      -0.777590       -21.1593
  18   2.0000      -0.722244       -19.6532
  19   2.0000      -0.673520       -18.3274
  20   2.0000      -0.665894       -18.1199
  21   2.0000      -0.647447       -17.6179
  22   2.0000      -0.604747       -16.4560
  23   2.0000      -0.591401       -16.0928
  24   2.0000      -0.578664       -15.7463
  25   2.0000      -0.558256       -15.1909
  26   2.0000      -0.552739       -15.0408
  27   2.0000      -0.504823       -13.7369
  28   2.0000      -0.498463       -13.5639
  29   2.0000      -0.472847       -12.8668
  30   2.0000      -0.462955       -12.5976
  31   2.0000      -0.457093       -12.4381
  32   2.0000      -0.447281       -12.1711
  33   2.0000      -0.432345       -11.7647
  34   2.0000      -0.424856       -11.5609
  35   2.0000      -0.400235       -10.8909
  36   2.0000      -0.375272       -10.2117
  37   2.0000      -0.321424        -8.7464
  38   2.0000      -0.224710        -6.1147
  39   0.0000       0.006138         0.1670
  40   0.0000       0.050652         1.3783
  41   0.0000       0.079423         2.1612
  42   0.0000       0.090135         2.4527
  43   0.0000       0.094520         2.5720

MULLIKEN ATOMIC CHARGES
-----------------------
   0 C :   -0.187305
   1 N :   -0.335635
   2 C :   -0.359064
   3 C :   -0.286890
   4 H :    0.163058
   5 H :    0.176949
   6 C :    0.368865
   7 C :    0.325242
   8 N :   -0.499114
   9 C :   -0.469412
  10 H :    0.110818
  11 H :    0.071995
  12 H :    0.211565
  13 H :    0.231079
  14 H :    0.251880
  15 H :    0.186410
  16 H :    0.154551
  17 H :    0.173921
  18 H :    0.156316
  19 O :   -0.290598
  20 F :   -0.154632
Sum of atomic charges:    0.0000000

LOEWDIN ATOMIC CHARGES
----------------------
   0 C :   -0.268804
   1 N :    0.120847
   2 C :   -0.269361
   3 C :   -0.227258
   4 H :    0.148258
   5 H :    0.157868
   6 C :   -0.510550
   7 C :   -0.497395
   8 N :   -0.014215
   9 C :   -0.322193
  10 H :    0.100661
  11 H :    0.095122
  12 H :    0.177218
  13 H :    0.155039
  14 H :    0.178789
  15 H :    0.147573
  16 H :    0.133026
  17 H :    0.141673
  18 H :    0.146382
  19 O :    0.109163
  20 F :    0.298157

  Mayer bond orders larger than 0.100000
B(  0-C ,  1-N ) :   0.8880 B(  0-C ,  2-C ) :   0.9052 B(  0-C , 15-H ) :   0.9758
B(  0-C , 16-H ) :   0.9790 B(  1-N ,  7-C ) :   1.0817 B(  1-N , 12-H ) :   0.9311
B(  2-C ,  3-C ) :   0.8963 B(  2-C , 17-H ) :   0.9804 B(  2-C , 18-H ) :   0.9768
B(  3-C ,  4-H ) :   0.9635 B(  3-C ,  5-H ) :   0.9749 B(  3-C ,  6-C ) :   0.9720
B(  6-C , 19-O ) :   2.0582 B(  6-C , 20-F ) :   1.0515 B(  7-C ,  8-N ) :   1.1143
B(  7-C ,  9-C ) :   1.6763 B(  8-N , 13-H ) :   0.9223 B(  8-N , 14-H ) :   0.9264
B(  9-C , 10-H ) :   0.9744 B(  9-C , 11-H ) :   1.0241

Dispersion correction           -0.000688392
FINAL SINGLE POINT ENERGY      -519.764336259170

DIPOLE MOMENT
-------------
                                X             Y             Z
Electronic contribution:      5.93352      -5.68825      -2.34441
Nuclear contribution   :     -6.29470       4.03423       3.50525
                        -----------------------------------------
Total Dipole Moment    :     -0.36118      -1.65402       1.16084
                        -----------------------------------------
Magnitude (a.u.)       :      2.05275
Magnitude (Debye)      :      5.21767

Rotational constants in cm-1:     0.061094     0.043661     0.033867
Rotational constants in MHz :  1831.559881  1308.929520  1015.295167

                             ****ORCA TERMINATED NORMALLY****
TOTAL RUN TIME: 0 days 0 hours 0 minutes 26 seconds 295 msec
