                         Program Version 5.0.0 -  RELEASE  -
|  1> !M062X D3Zero RIJCOSX def2-SVPD def2/J TightSCF
|  2> *xyz -1 1
|  3> C         -0.25875        1.00432       -5.40983
|  4> C          0.39596       -0.37070       -5.33994
|  5> O         -0.32633       -1.39040       -5.49128
|  6> O          1.61941       -0.40073       -5.03683
|  7> H         -1.28979        0.89539       -5.67439
|  8> H          0.23798        1.59877       -6.14792
|  9> H         -0.18395        1.48386       -4.45623
| 10> *
| 11> %MaxCore 64000
| 12>
| 13> %pal nprocs 4
| 14> end
| 15>
| 16> %scf
| 17>   MaxIter 150
| 18> end
| 19>
| 20>
| 21>                          ****END OF INPUT****

CARTESIAN COORDINATES (ANGSTROEM)
---------------------------------
  C     -0.258750    1.004320   -5.409830
  C      0.395960   -0.370700   -5.339940
  O     -0.326330   -1.390400   -5.491280
  O      1.619410   -0.400730   -5.036830
  H     -1.289790    0.895390   -5.674390
  H      0.237980    1.598770   -6.147920
  H     -0.183950    1.483860   -4.456230

 Total Charge           Charge          ....   -1
 Multiplicity           Mult            ....    1
 Number of Electrons    NEL             ....   32
 Basis Dimension        Dim             ....  110

ORBITAL ENERGIES
----------------

  NO   OCC          E(Eh)            E(eV)
   0   2.0000     -19.369172      -527.0620
   1   2.0000     -19.366280      -526.9833
   2   2.0000     -10.436829      -284.0006
   3   2.0000     -10.363016      -281.9920
   4   2.0000      -0.923319       -25.1248
   5   2.0000      -0.822318       -22.3764
   6   2.0000      -0.630966       -17.1695
   7   2.0000      -0.380520       -10.3545
   8   2.0000      -0.329421        -8.9640
   9   2.0000      -0.316263        -8.6059
  10   2.0000      -0.302568        -8.2333
  11   2.0000      -0.255190        -6.9441
  12   2.0000      -0.234040        -6.3685
  13   2.0000      -0.109533        -2.9806
  14   2.0000      -0.106737        -2.9045
  15   2.0000      -0.097532        -2.6540
  16   0.0000       0.190697         5.1891
  17   0.0000       0.223109         6.0711
  18   0.0000       0.250460         6.8154
  19   0.0000       0.259298         7.0559
  20   0.0000       0.283320         7.7095

MULLIKEN ATOMIC CHARGES
-----------------------
   0 C :    0.464867
   1 C :    0.152575
   2 O :   -0.709844
   3 O :   -0.735404
   4 H :   -0.074766
   5 H :   -0.048329
   6 H :   -0.049100
Sum of atomic charges:   -1.0000000

LOEWDIN ATOMIC CHARGES
----------------------
   0 C :    0.143188
   1 C :   -0.321312
   2 O :   -0.352388
   3 O :   -0.358920
   4 H :   -0.041975
   5 H :   -0.035759
   6 H :   -0.032833

  Mayer bond orders larger than 0.100000
B(  0-C ,  1-C ) :   1.1905 B(  0-C ,  4-H ) :   0.8713 B(  0-C ,  5-H ) :   0.8108
B(  0-C ,  6-H ) :   0.8279 B(  1-C ,  2-O ) :   1.4200 B(  1-C ,  3-O ) :   1.4123
B(  1-C ,  4-H ) :   0.2443 B(  1-C ,  5-H ) :   0.1763 B(  1-C ,  6-H ) :   0.1571

Dispersion correction           -0.000017467
FINAL SINGLE POINT ENERGY      -228.267215364529

DIPOLE MOMENT
-------------
                                X             Y             Z
Electronic contribution:      1.51370      -3.21572       0.18181
Nuclear contribution   :     -2.15615       4.52621      -0.30445
                        -----------------------------------------
Total Dipole Moment    :     -0.64245       1.31049      -0.12264
                        -----------------------------------------
Magnitude (a.u.)       :      1.46464
Magnitude (Debye)      :      3.72281

Rotational constants in cm-1:     0.393591     0.332639     0.186460
Rotational constants in MHz : 11799.557437  9972.275109  5589.926304

                             ****ORCA TERMINATED NORMALLY****
TOTAL RUN TIME: 0 days 0 hours 0 minutes 7 seconds 929 msec
