                         Program Version 5.0.0 -  RELEASE  -
|  1> !M062X D3Zero RIJCOSX def2-SVPD def2/J TightSCF
|  2> *xyz 1 1
|  3> C          0.81607       -2.10149       -2.18655
|  4> N          1.10055       -2.46749       -3.59927
|  5> H          1.70061       -1.75723       -4.07838
|  6> H          0.29386       -2.35977       -4.25632
|  7> H          1.50132       -3.42848       -3.69491
|  8> H          0.40947       -1.11246       -2.14929
|  9> H          1.72290       -2.13590       -1.61965
| 10> H          0.11112       -2.79271       -1.77405
| 11> *
| 12> %MaxCore 64000
| 13>
| 14> %pal nprocs 4
| 15> end
| 16>
| 17> %scf
| 18>   MaxIter 150
| 19> end
| 20>
| 21>
| 22>                          ****END OF INPUT****

CARTESIAN COORDINATES (ANGSTROEM)
---------------------------------
  C      0.816070   -2.101490   -2.186550
  N      1.100550   -2.467490   -3.599270
  H      1.700610   -1.757230   -4.078380
  H      0.293860   -2.359770   -4.256320
  H      1.501320   -3.428480   -3.694910
  H      0.409470   -1.112460   -2.149290
  H      1.722900   -2.135900   -1.619650
  H      0.111120   -2.792710   -1.774050

 Total Charge           Charge          ....    1
 Multiplicity           Mult            ....    1
 Number of Electrons    NEL             ....   18
 Basis Dimension        Dim             ....   88

ORBITAL ENERGIES
----------------

  NO   OCC          E(Eh)            E(eV)
   0   2.0000     -15.112419      -411.2298
   1   2.0000     -10.810152      -294.1592
   2   2.0000      -1.315873       -35.8067
   3   2.0000      -1.025379       -27.9020
   4   2.0000      -0.889473       -24.2038
   5   2.0000      -0.854567       -23.2539
   6   2.0000      -0.785493       -21.3743
   7   2.0000      -0.693217       -18.8634
   8   2.0000      -0.687396       -18.7050
   9   0.0000      -0.180505        -4.9118
  10   0.0000      -0.112218        -3.0536
  11   0.0000      -0.109890        -2.9903
  12   0.0000      -0.108424        -2.9504
  13   0.0000      -0.060002        -1.6327

MULLIKEN ATOMIC CHARGES
-----------------------
   0 C :    0.866699
   1 N :   -1.025269
   2 H :    0.406321
   3 H :    0.390068
   4 H :    0.425031
   5 H :   -0.026032
   6 H :   -0.015095
   7 H :   -0.021724
Sum of atomic charges:    1.0000000

LOEWDIN ATOMIC CHARGES
----------------------
   0 C :    0.286269
   1 N :    0.277240
   2 H :    0.118431
   3 H :    0.119058
   4 H :    0.124659
   5 H :    0.024716
   6 H :    0.025319
   7 H :    0.024308

  Mayer bond orders larger than 0.100000
B(  0-C ,  1-N ) :   0.7262 B(  0-C ,  5-H ) :   0.9079 B(  0-C ,  6-H ) :   0.9021
B(  0-C ,  7-H ) :   0.9132 B(  1-N ,  2-H ) :   0.7333 B(  1-N ,  3-H ) :   0.7560
B(  1-N ,  4-H ) :   0.6849

Dispersion correction           -0.000006981
FINAL SINGLE POINT ENERGY       -96.083422830666

DIPOLE MOMENT
-------------
                                X             Y             Z
Electronic contribution:      0.21125      -0.30910      -0.96314
Nuclear contribution   :     -0.05716       0.15480       0.08012
                        -----------------------------------------
Total Dipole Moment    :      0.15409      -0.15431      -0.88302
                        -----------------------------------------
Magnitude (a.u.)       :      0.90955
Magnitude (Debye)      :      2.31190

Rotational constants in cm-1:     2.875975     0.681325     0.670600
Rotational constants in MHz : 86219.567947 20425.600745 20104.086440

                             ****ORCA TERMINATED NORMALLY****
TOTAL RUN TIME: 0 days 0 hours 0 minutes 5 seconds 589 msec
