                         Program Version 5.0.0 -  RELEASE  -
|  1> !M062X D3Zero RIJCOSX def2-SVPD def2/J TightSCF
|  2> *xyz 0 1
|  3> C         -0.25875        1.00432       -5.40983
|  4> C          0.39596       -0.37070       -5.33994
|  5> F         -0.32633       -1.39040       -5.49128
|  6> O          1.61941       -0.40073       -5.03683
|  7> H         -1.28979        0.89539       -5.67439
|  8> H          0.23798        1.59877       -6.14792
|  9> H         -0.18395        1.48386       -4.45623
| 10> *
| 11> %MaxCore 64000
| 12>
| 13> %pal nprocs 4
| 14> end
| 15>
| 16> %scf
| 17>   MaxIter 150
| 18> end
| 19>
| 20>
| 21>                          ****END OF INPUT****

CARTESIAN COORDINATES (ANGSTROEM)
---------------------------------
  C     -0.258750    1.004320   -5.409830
  C      0.395960   -0.370700   -5.339940
  F     -0.326330   -1.390400   -5.491280
  O      1.619410   -0.400730   -5.036830
  H     -1.289790    0.895390   -5.674390
  H      0.237980    1.598770   -6.147920
  H     -0.183950    1.483860   -4.456230

 Total Charge           Charge          ....    0
 Multiplicity           Mult            ....    1
 Number of Electrons    NEL             ....   32
 Basis Dimension        Dim             ....  110

ORBITAL ENERGIES
----------------

  NO   OCC          E(Eh)            E(eV)
   0   2.0000     -25.331961      -689.3177
   1   2.0000     -19.650479      -534.7167
   2   2.0000     -10.745197      -292.3917
   3   2.0000     -10.581169      -287.9282
   4   2.0000      -1.447232       -39.3812
   5   2.0000      -1.143307       -31.1110
   6   2.0000      -0.866298       -23.5732
   7   2.0000      -0.757138       -20.6028
   8   2.0000      -0.646168       -17.5831
   9   2.0000      -0.642761       -17.4904
  10   2.0000      -0.589675       -16.0459
  11   2.0000      -0.518986       -14.1223
  12   2.0000      -0.504777       -13.7357
  13   2.0000      -0.483894       -13.1674
  14   2.0000      -0.423314       -11.5190
  15   2.0000      -0.375190       -10.2094
  16   0.0000       0.007913         0.2153
  17   0.0000       0.026989         0.7344
  18   0.0000       0.065485         1.7819
  19   0.0000       0.099077         2.6960
  20   0.0000       0.102299         2.7837

MULLIKEN ATOMIC CHARGES
-----------------------
   0 C :    0.323194
   1 C :    0.474964
   2 F :   -0.381730
   3 O :   -0.532858
   4 H :    0.005422
   5 H :    0.052230
   6 H :    0.058777
Sum of atomic charges:    0.0000000

LOEWDIN ATOMIC CHARGES
----------------------
   0 C :    0.216743
   1 C :   -0.009725
   2 F :   -0.055183
   3 O :   -0.153793
   4 H :   -0.011330
   5 H :    0.005851
   6 H :    0.007436

  Mayer bond orders larger than 0.100000
B(  0-C ,  1-C ) :   1.2620 B(  0-C ,  4-H ) :   0.8879 B(  0-C ,  5-H ) :   0.8112
B(  0-C ,  6-H ) :   0.8252 B(  1-C ,  2-F ) :   0.7373 B(  1-C ,  3-O ) :   1.7650
B(  1-C ,  4-H ) :   0.1501 B(  1-C ,  5-H ) :   0.1481 B(  1-C ,  6-H ) :   0.1273

Dispersion correction           -0.000021372
FINAL SINGLE POINT ENERGY      -252.799233264104

DIPOLE MOMENT
-------------
                                X             Y             Z
Electronic contribution:      0.43334      -5.01661      -0.09895
Nuclear contribution   :     -1.44986       5.66477      -0.12483
                        -----------------------------------------
Total Dipole Moment    :     -1.01652       0.64816      -0.22377
                        -----------------------------------------
Magnitude (a.u.)       :      1.22617
Magnitude (Debye)      :      3.11668

Rotational constants in cm-1:     0.371735     0.317798     0.176902
Rotational constants in MHz : 11144.324945  9527.341239  5303.391856

                             ****ORCA TERMINATED NORMALLY****
TOTAL RUN TIME: 0 days 0 hours 0 minutes 8 seconds 701 msec
