                         Program Version 5.0.0 -  RELEASE  -
|  1> !M062X D3Zero RIJCOSX def2-SVPD def2/J TightSCF
|  2> *xyz 0 1
|  3> C          0.81607       -2.10149       -2.18655
|  4> C          1.10055       -2.46749       -3.59927
|  5> H          1.70061       -1.75723       -4.07838
|  6> H          0.29386       -2.35977       -4.25632
|  7> H          1.50132       -3.42848       -3.69491
|  8> H          0.40947       -1.11246       -2.14929
|  9> H          1.72290       -2.13590       -1.61965
| 10> H          0.11112       -2.79271       -1.77405
| 11> *
| 12> %MaxCore 64000
| 13>
| 14> %pal nprocs 4
| 15> end
| 16>
| 17> %scf
| 18>   MaxIter 150
| 19> end
| 20>
| 21>
| 22>                          ****END OF INPUT****

CARTESIAN COORDINATES (ANGSTROEM)
---------------------------------
  C      0.816070   -2.101490   -2.186550
  C      1.100550   -2.467490   -3.599270
  H      1.700610   -1.757230   -4.078380
  H      0.293860   -2.359770   -4.256320
  H      1.501320   -3.428480   -3.694910
  H      0.409470   -1.112460   -2.149290
  H      1.722900   -2.135900   -1.619650
  H      0.111120   -2.792710   -1.774050

 Total Charge           Charge          ....    0
 Multiplicity           Mult            ....    1
 Number of Electrons    NEL             ....   18
 Basis Dimension        Dim             ....   88

ORBITAL ENERGIES
----------------

  NO   OCC          E(Eh)            E(eV)
   0   2.0000     -10.528769      -286.5024
   1   2.0000     -10.519593      -286.2527
   2   2.0000      -0.855731       -23.2856
   3   2.0000      -0.703066       -19.1314
   4   2.0000      -0.522777       -14.2255
   5   2.0000      -0.503686       -13.7060
   6   2.0000      -0.437058       -11.8929
   7   2.0000      -0.413486       -11.2515
   8   2.0000      -0.392155       -10.6711
   9   0.0000       0.045536         1.2391
  10   0.0000       0.074787         2.0351
  11   0.0000       0.126511         3.4426
  12   0.0000       0.132200         3.5973
  13   0.0000       0.147815         4.0222

MULLIKEN ATOMIC CHARGES
-----------------------
   0 C :    0.227148
   1 C :    0.306178
   2 H :   -0.142808
   3 H :   -0.157305
   4 H :   -0.129936
   5 H :   -0.026189
   6 H :   -0.036211
   7 H :   -0.040877
Sum of atomic charges:    0.0000000

LOEWDIN ATOMIC CHARGES
----------------------
   0 C :    0.075283
   1 C :    0.063941
   2 H :   -0.032181
   3 H :   -0.032415
   4 H :   -0.024683
   5 H :   -0.016055
   6 H :   -0.016243
   7 H :   -0.017646

  Mayer bond orders larger than 0.100000
B(  0-C ,  1-C ) :   1.4469 B(  0-C ,  2-H ) :   0.1298 B(  0-C ,  3-H ) :   0.1189
B(  0-C ,  4-H ) :   0.1419 B(  0-C ,  5-H ) :   0.8774 B(  0-C ,  6-H ) :   0.8561
B(  0-C ,  7-H ) :   0.8724 B(  1-C ,  2-H ) :   0.8118 B(  1-C ,  3-H ) :   0.8180
B(  1-C ,  4-H ) :   0.8612 B(  1-C ,  5-H ) :   0.1470 B(  1-C ,  6-H ) :   0.1531
B(  1-C ,  7-H ) :   0.1455 B(  2-H ,  3-H ) :   0.2377

Dispersion correction           -0.000006914
FINAL SINGLE POINT ENERGY       -79.701933819551

DIPOLE MOMENT
-------------
                                X             Y             Z
Electronic contribution:      0.00487      -0.07041       0.12675
Nuclear contribution   :     -0.00793       0.09023      -0.16124
                        -----------------------------------------
Total Dipole Moment    :     -0.00306       0.01982      -0.03449
                        -----------------------------------------
Magnitude (a.u.)       :      0.03990
Magnitude (Debye)      :      0.10141

Rotational constants in cm-1:     2.876169     0.710562     0.698917
Rotational constants in MHz : 86225.370734 21302.115394 20952.991121

                             ****ORCA TERMINATED NORMALLY****
TOTAL RUN TIME: 0 days 0 hours 0 minutes 5 seconds 530 msec
