                         Program Version 5.0.0 -  RELEASE  -
|  1> !M062X D3Zero RIJCOSX def2-SVPD def2/J TightSCF
|  2> *xyz 0 1
|  3> C         -0.25875        1.00432       -5.40983
|  4> C          0.39596       -0.37070       -5.33994
|  5> O         -0.32633       -1.39040       -5.49128
|  6> F          1.61941       -0.40073       -5.03683
|  7> H         -1.28979        0.89539       -5.67439
|  8> H          0.23798        1.59877       -6.14792
|  9> H         -0.18395        1.48386       -4.45623
| 10> *
| 11> %MaxCore 64000
| 12>
| 13> %pal nprocs 4
| 14> end
| 15>
| 16> %scf
| 17>   MaxIter 150
| 18> end
| 19>
| 20>
| 21>                          ****END OF INPUT****

CARTESIAN COORDINATES (ANGSTROEM)
---------------------------------
  C     -0.258750    1.004320   -5.409830
  C      0.395960   -0.370700   -5.339940
  O     -0.326330   -1.390400   -5.491280
  F      1.619410   -0.400730   -5.036830
  H     -1.289790    0.895390   -5.674390
  H      0.237980    1.598770   -6.147920
  H     -0.183950    1.483860   -4.456230

 Total Charge           Charge          ....    0
 Multiplicity           Mult            ....    1
 Number of Electrons    NEL             ....   32
 Basis Dimension        Dim             ....  110

ORBITAL ENERGIES
----------------

  NO   OCC          E(Eh)            E(eV)
   0   2.0000     -25.329911      -689.2619
   1   2.0000     -19.652416      -534.7694
   2   2.0000     -10.744974      -292.3856
   3   2.0000     -10.581016      -287.9241
   4   2.0000      -1.444867       -39.3168
   5   2.0000      -1.145049       -31.1584
   6   2.0000      -0.867356       -23.6020
   7   2.0000      -0.755109       -20.5476
   8   2.0000      -0.645394       -17.5621
   9   2.0000      -0.641020       -17.4430
  10   2.0000      -0.589728       -16.0473
  11   2.0000      -0.517688       -14.0870
  12   2.0000      -0.505237       -13.7482
  13   2.0000      -0.483983       -13.1698
  14   2.0000      -0.427757       -11.6399
  15   2.0000      -0.376379       -10.2418
  16   0.0000       0.011715         0.3188
  17   0.0000       0.027556         0.7498
  18   0.0000       0.065413         1.7800
  19   0.0000       0.096397         2.6231
  20   0.0000       0.103618         2.8196

MULLIKEN ATOMIC CHARGES
-----------------------
   0 C :    0.335367
   1 C :    0.483569
   2 O :   -0.509314
   3 F :   -0.402522
   4 H :   -0.018771
   5 H :    0.053318
   6 H :    0.058354
Sum of atomic charges:   -0.0000000

LOEWDIN ATOMIC CHARGES
----------------------
   0 C :    0.216631
   1 C :   -0.012627
   2 O :   -0.149150
   3 F :   -0.058047
   4 H :    0.001286
   5 H :   -0.000731
   6 H :    0.002638

  Mayer bond orders larger than 0.100000
B(  0-C ,  1-C ) :   1.2461 B(  0-C ,  4-H ) :   0.9008 B(  0-C ,  5-H ) :   0.8111
B(  0-C ,  6-H ) :   0.8203 B(  1-C ,  2-O ) :   1.7913 B(  1-C ,  3-F ) :   0.7000
B(  1-C ,  4-H ) :   0.2039 B(  1-C ,  5-H ) :   0.1292 B(  1-C ,  6-H ) :   0.1177

Dispersion correction           -0.000021097
FINAL SINGLE POINT ENERGY      -252.801737429189

DIPOLE MOMENT
-------------
                                X             Y             Z
Electronic contribution:      3.58220      -3.41477       0.63719
Nuclear contribution   :     -3.46039       4.64214      -0.59441
                        -----------------------------------------
Total Dipole Moment    :      0.12181       1.22737       0.04278
                        -----------------------------------------
Magnitude (a.u.)       :      1.23414
Magnitude (Debye)      :      3.13694

Rotational constants in cm-1:     0.366844     0.321935     0.177045
Rotational constants in MHz : 10997.709774  9651.373819  5307.687677

                             ****ORCA TERMINATED NORMALLY****
TOTAL RUN TIME: 0 days 0 hours 0 minutes 8 seconds 873 msec
