                         Program Version 5.0.0 -  RELEASE  -
|  1> !wB97X-D3 RIJCOSX def2-SVPD def2/J TightSCF CPCM(Water)
|  2> *xyz -1 1
|  3> C          4.90646       -3.10282       -5.95484
|  4> C          3.51177       -2.80621       -6.49228
|  5> H          2.73604       -3.37345       -5.97374
|  6> H          3.44490       -3.04083       -7.55528
|  7> S          3.00462       -1.09621       -6.38926
|  8> O          4.12886       -0.32965       -6.95372
|  9> O          1.78128       -1.00078       -7.13640
| 10> O          2.85155       -0.78368       -4.95679
| 11> H          5.62703       -2.52424       -6.49422
| 12> H          5.12164       -4.14387       -6.07654
| 13> H          4.95004       -2.84862       -4.91639
| 14> *
| 15>
| 16> %MaxCore 64000
| 17>
| 18> %pal nprocs 18
| 19> end
| 20>
| 21> %scf
| 22>   MaxIter 150
| 23> end
| 24>
| 25>
| 26>                          ****END OF INPUT****

CARTESIAN COORDINATES (ANGSTROEM)
---------------------------------
  C      4.906460   -3.102820   -5.954840
  C      3.511770   -2.806210   -6.492280
  H      2.736040   -3.373450   -5.973740
  H      3.444900   -3.040830   -7.555280
  S      3.004620   -1.096210   -6.389260
  O      4.128860   -0.329650   -6.953720
  O      1.781280   -1.000780   -7.136400
  O      2.851550   -0.783680   -4.956790
  H      5.627030   -2.524240   -6.494220
  H      5.121640   -4.143870   -6.076540
  H      4.950040   -2.848620   -4.916390

 Total Charge           Charge          ....   -1
 Multiplicity           Mult            ....    1
 Number of Electrons    NEL             ....   58
 Basis Dimension        Dim             ....  176

ORBITAL ENERGIES
----------------

  NO   OCC          E(Eh)            E(eV)
   0   2.0000     -89.151874     -2425.9458
   1   2.0000     -19.210729      -522.7505
   2   2.0000     -19.200453      -522.4709
   3   2.0000     -19.199980      -522.4580
   4   2.0000     -10.300528      -280.2916
   5   2.0000     -10.275764      -279.6178
   6   2.0000      -8.226484      -223.8540
   7   2.0000      -6.186341      -168.3389
   8   2.0000      -6.186312      -168.3381
   9   2.0000      -6.184512      -168.2891
  10   2.0000      -1.228446       -33.4277
  11   2.0000      -1.085634       -29.5416
  12   2.0000      -1.065585       -28.9960
  13   2.0000      -0.889108       -24.1939
  14   2.0000      -0.763814       -20.7844
  15   2.0000      -0.652817       -17.7641
  16   2.0000      -0.588488       -16.0136
  17   2.0000      -0.571976       -15.5643
  18   2.0000      -0.554361       -15.0849
  19   2.0000      -0.538103       -14.6425
  20   2.0000      -0.503543       -13.7021
  21   2.0000      -0.470600       -12.8057
  22   2.0000      -0.450809       -12.2671
  23   2.0000      -0.435348       -11.8464
  24   2.0000      -0.435191       -11.8421
  25   2.0000      -0.391078       -10.6418
  26   2.0000      -0.381020       -10.3681
  27   2.0000      -0.373213       -10.1557
  28   2.0000      -0.345523        -9.4022
  29   0.0000       0.080921         2.2020
  30   0.0000       0.101252         2.7552
  31   0.0000       0.102133         2.7792
  32   0.0000       0.102830         2.7981
  33   0.0000       0.143830         3.9138

MULLIKEN ATOMIC CHARGES
-----------------------
   0 C :    0.679864
   1 C :   -0.403520
   2 H :    0.000497
   3 H :    0.029151
   4 S :    1.290567
   5 O :   -0.852119
   6 O :   -0.805568
   7 O :   -0.852435
   8 H :   -0.030896
   9 H :   -0.030018
  10 H :   -0.025523
Sum of atomic charges:   -1.0000000

LOEWDIN ATOMIC CHARGES
----------------------
   0 C :    0.119897
   1 C :   -0.126170
   2 H :    0.022082
   3 H :    0.018698
   4 S :    0.848611
   5 O :   -0.621811
   6 O :   -0.598976
   7 O :   -0.626548
   8 H :   -0.017485
   9 H :   -0.007391
  10 H :   -0.010907

  Mayer bond orders larger than 0.100000
B(  0-C ,  1-C ) :   1.2734 B(  0-C ,  8-H ) :   0.8364 B(  0-C ,  9-H ) :   0.7832
B(  0-C , 10-H ) :   0.8232 B(  1-C ,  2-H ) :   0.9932 B(  1-C ,  3-H ) :   0.9896
B(  1-C ,  4-S ) :   0.9552 B(  1-C ,  8-H ) :   0.1833 B(  1-C ,  9-H ) :   0.1922
B(  1-C , 10-H ) :   0.1758 B(  4-S ,  5-O ) :   1.2740 B(  4-S ,  6-O ) :   1.3555
B(  4-S ,  7-O ) :   1.2663

Dispersion correction           -0.002914523
FINAL SINGLE POINT ENERGY      -702.799070355465

DIPOLE MOMENT
-------------
                                X             Y             Z
Electronic contribution:     -4.07044       5.50596      -0.71721
Nuclear contribution   :      5.05690      -8.21735       0.57889
                        -----------------------------------------
Total Dipole Moment    :      0.98646      -2.71139      -0.13831
                        -----------------------------------------
Magnitude (a.u.)       :      2.88858
Magnitude (Debye)      :      7.34218

Rotational constants in cm-1:     0.162547     0.083494     0.081672
Rotational constants in MHz :  4873.033504  2503.090885  2448.458543

                             ****ORCA TERMINATED NORMALLY****
TOTAL RUN TIME: 0 days 0 hours 0 minutes 10 seconds 308 msec
