                         Program Version 5.0.0 -  RELEASE  -
|  1> !wB97X-D3 RIJCOSX def2-SVPD def2/J TightSCF CPCM(Water)
|  2> *xyz 1 1
|  3> C          4.49059        1.15590       -2.46929
|  4> N          4.30539        1.22276       -3.90832
|  5> C          4.63192        2.24637       -4.67096
|  6> N          4.54169        2.14399       -5.98714
|  7> N          5.08409        3.39358       -4.11855
|  8> H          4.92067        3.57050       -3.13587
|  9> H          5.25465        4.19739       -4.70696
| 10> H          3.82453        0.44911       -4.35093
| 11> H          4.34337        1.24932       -6.41665
| 12> H          4.67671        2.95662       -6.57411
| 13> C          5.94213        0.93950       -2.03689
| 14> H          3.86431        0.32853       -2.13661
| 15> H          4.07623        2.04999       -1.98901
| 16> H          6.32982        0.06401       -2.51451
| 17> H          5.98308        0.81426       -0.97504
| 18> H          6.52865        1.78889       -2.31873
| 19> *
| 20>
| 21> %MaxCore 64000
| 22>
| 23> %pal nprocs 18
| 24> end
| 25>
| 26> %scf
| 27>   MaxIter 150
| 28> end
| 29>
| 30>
| 31>                          ****END OF INPUT****

CARTESIAN COORDINATES (ANGSTROEM)
---------------------------------
  C      4.490590    1.155900   -2.469290
  N      4.305390    1.222760   -3.908320
  C      4.631920    2.246370   -4.670960
  N      4.541690    2.143990   -5.987140
  N      5.084090    3.393580   -4.118550
  H      4.920670    3.570500   -3.135870
  H      5.254650    4.197390   -4.706960
  H      3.824530    0.449110   -4.350930
  H      4.343370    1.249320   -6.416650
  H      4.676710    2.956620   -6.574110
  C      5.942130    0.939500   -2.036890
  H      3.864310    0.328530   -2.136610
  H      4.076230    2.049990   -1.989010
  H      6.329820    0.064010   -2.514510
  H      5.983080    0.814260   -0.975040
  H      6.528650    1.788890   -2.318730

 Total Charge           Charge          ....    1
 Multiplicity           Mult            ....    1
 Number of Electrons    NEL             ....   48
 Basis Dimension        Dim             ....  200

ORBITAL ENERGIES
----------------

  NO   OCC          E(Eh)            E(eV)
   0   2.0000     -14.490504      -394.3067
   1   2.0000     -14.483673      -394.1208
   2   2.0000     -14.483383      -394.1129
   3   2.0000     -10.455786      -284.5164
   4   2.0000     -10.340088      -281.3681
   5   2.0000     -10.280469      -279.7458
   6   2.0000      -1.153946       -31.4005
   7   2.0000      -1.042928       -28.3795
   8   2.0000      -1.022363       -27.8199
   9   2.0000      -0.883157       -24.0319
  10   2.0000      -0.786602       -21.4045
  11   2.0000      -0.740755       -20.1570
  12   2.0000      -0.717118       -19.5138
  13   2.0000      -0.675623       -18.3846
  14   2.0000      -0.617233       -16.7958
  15   2.0000      -0.614587       -16.7238
  16   2.0000      -0.595514       -16.2048
  17   2.0000      -0.561127       -15.2690
  18   2.0000      -0.548535       -14.9264
  19   2.0000      -0.503332       -13.6964
  20   2.0000      -0.481077       -13.0908
  21   2.0000      -0.455391       -12.3918
  22   2.0000      -0.398067       -10.8320
  23   2.0000      -0.376019       -10.2320
  24   0.0000       0.080922         2.2020
  25   0.0000       0.087753         2.3879
  26   0.0000       0.116675         3.1749
  27   0.0000       0.125528         3.4158
  28   0.0000       0.130049         3.5388

MULLIKEN ATOMIC CHARGES
-----------------------
   0 C :    0.185029
   1 N :   -0.457971
   2 C :    1.340731
   3 N :   -0.148607
   4 N :   -0.111999
   5 H :    0.022594
   6 H :   -0.088180
   7 H :   -0.137381
   8 H :    0.020846
   9 H :    0.028068
  10 C :    0.529276
  11 H :   -0.236371
  12 H :    0.048518
  13 H :   -0.024761
  14 H :    0.043788
  15 H :   -0.013579
Sum of atomic charges:    1.0000000

LOEWDIN ATOMIC CHARGES
----------------------
   0 C :    0.038207
   1 N :    0.038975
   2 C :   -0.028681
   3 N :    0.261840
   4 N :    0.277300
   5 H :    0.021525
   6 H :    0.043548
   7 H :    0.073329
   8 H :    0.050004
   9 H :    0.049257
  10 C :    0.143240
  11 H :    0.039760
  12 H :    0.032262
  13 H :   -0.009866
  14 H :   -0.006456
  15 H :   -0.024244

  Mayer bond orders larger than 0.100000
B(  0-C ,  1-N ) :   0.8506 B(  0-C ,  7-H ) :  -0.1419 B(  0-C , 10-C ) :   1.2581
B(  0-C , 11-H ) :   0.9782 B(  0-C , 12-H ) :   0.8890 B(  0-C , 13-H ) :   0.2128
B(  0-C , 14-H ) :   0.1368 B(  0-C , 15-H ) :   0.1795 B(  1-N ,  2-C ) :   0.9984
B(  1-N ,  3-N ) :   0.2471 B(  1-N ,  4-N ) :   0.2084 B(  1-N ,  7-H ) :   1.3259
B(  1-N , 11-H ) :   0.1491 B(  2-C ,  3-N ) :   0.8705 B(  2-C ,  4-N ) :   0.9075
B(  2-C ,  6-H ) :  -0.1471 B(  2-C ,  7-H ) :  -0.2237 B(  2-C ,  8-H ) :  -0.1398
B(  2-C ,  9-H ) :  -0.1123 B(  3-N ,  4-N ) :   0.1427 B(  3-N ,  8-H ) :   1.1682
B(  3-N ,  9-H ) :   1.1960 B(  4-N ,  5-H ) :   1.0525 B(  4-N ,  6-H ) :   1.2753
B(  5-H ,  6-H ) :  -0.1955 B(  8-H ,  9-H ) :  -0.1682 B( 10-C , 13-H ) :   0.8393
B( 10-C , 14-H ) :   0.8456 B( 10-C , 15-H ) :   0.8358

Dispersion correction           -0.003828055
FINAL SINGLE POINT ENERGY      -284.237244091583

DIPOLE MOMENT
-------------
                                X             Y             Z
Electronic contribution:     -2.00918       1.71224      -4.76118
Nuclear contribution   :      1.34333      -1.11039       3.43667
                        -----------------------------------------
Total Dipole Moment    :     -0.66585       0.60184      -1.32451
                        -----------------------------------------
Magnitude (a.u.)       :      1.59997
Magnitude (Debye)      :      4.06680

Rotational constants in cm-1:     0.227161     0.075356     0.065003
Rotational constants in MHz :  6810.114531  2259.122204  1948.738523

                             ****ORCA TERMINATED NORMALLY****
TOTAL RUN TIME: 0 days 0 hours 0 minutes 13 seconds 516 msec
