                         Program Version 5.0.0 -  RELEASE  -
|  1> !wB97X-D3 RIJCOSX def2-SVPD def2/J TightSCF CPCM(Water)
|  2> *xyz 0 1
|  3> C          4.90646       -3.10282       -5.95484
|  4> C          3.51177       -2.80621       -6.49228
|  5> H          2.73604       -3.37345       -5.97374
|  6> H          3.44490       -3.04083       -7.55528
|  7> S          3.00462       -1.09621       -6.38926
|  8> F          4.12886       -0.32965       -6.95372
|  9> O          1.78128       -1.00078       -7.13640
| 10> O          2.85155       -0.78368       -4.95679
| 11> H          5.62703       -2.52424       -6.49422
| 12> H          5.12164       -4.14387       -6.07654
| 13> H          4.95004       -2.84862       -4.91639
| 14> *
| 15>
| 16> %MaxCore 64000
| 17>
| 18> %pal nprocs 18
| 19> end
| 20>
| 21> %scf
| 22>   MaxIter 150
| 23> end
| 24>
| 25>
| 26>                          ****END OF INPUT****

CARTESIAN COORDINATES (ANGSTROEM)
---------------------------------
  C      4.906460   -3.102820   -5.954840
  C      3.511770   -2.806210   -6.492280
  H      2.736040   -3.373450   -5.973740
  H      3.444900   -3.040830   -7.555280
  S      3.004620   -1.096210   -6.389260
  F      4.128860   -0.329650   -6.953720
  O      1.781280   -1.000780   -7.136400
  O      2.851550   -0.783680   -4.956790
  H      5.627030   -2.524240   -6.494220
  H      5.121640   -4.143870   -6.076540
  H      4.950040   -2.848620   -4.916390

 Total Charge           Charge          ....    0
 Multiplicity           Mult            ....    1
 Number of Electrons    NEL             ....   58
 Basis Dimension        Dim             ....  176

ORBITAL ENERGIES
----------------

  NO   OCC          E(Eh)            E(eV)
   0   2.0000     -89.238267     -2428.2967
   1   2.0000     -24.904898      -677.6967
   2   2.0000     -19.271287      -524.3984
   3   2.0000     -19.260614      -524.1080
   4   2.0000     -10.341261      -281.4000
   5   2.0000     -10.293158      -280.0911
   6   2.0000      -8.312864      -226.2045
   7   2.0000      -6.276483      -170.7918
   8   2.0000      -6.270649      -170.6330
   9   2.0000      -6.268398      -170.5718
  10   2.0000      -1.466993       -39.9189
  11   2.0000      -1.238108       -33.6906
  12   2.0000      -1.135894       -30.9092
  13   2.0000      -0.930232       -25.3129
  14   2.0000      -0.830706       -22.6047
  15   2.0000      -0.776332       -21.1251
  16   2.0000      -0.687122       -18.6975
  17   2.0000      -0.676970       -18.4213
  18   2.0000      -0.657201       -17.8833
  19   2.0000      -0.589308       -16.0359
  20   2.0000      -0.576002       -15.6738
  21   2.0000      -0.561439       -15.2775
  22   2.0000      -0.531745       -14.4695
  23   2.0000      -0.505839       -13.7646
  24   2.0000      -0.488184       -13.2842
  25   2.0000      -0.470367       -12.7993
  26   2.0000      -0.443281       -12.0623
  27   2.0000      -0.428611       -11.6631
  28   2.0000      -0.421589       -11.4720
  29   0.0000       0.069170         1.8822
  30   0.0000       0.096920         2.6373
  31   0.0000       0.097869         2.6631
  32   0.0000       0.099903         2.7185
  33   0.0000       0.126631         3.4458

MULLIKEN ATOMIC CHARGES
-----------------------
   0 C :    0.625673
   1 C :   -0.491603
   2 H :    0.077722
   3 H :    0.095714
   4 S :    1.523192
   5 F :   -0.412484
   6 O :   -0.691441
   7 O :   -0.746475
   8 H :    0.012550
   9 H :    0.000865
  10 H :    0.006288
Sum of atomic charges:    0.0000000

LOEWDIN ATOMIC CHARGES
----------------------
   0 C :    0.138443
   1 C :   -0.079326
   2 H :    0.047071
   3 H :    0.035414
   4 S :    1.128180
   5 F :   -0.256412
   6 O :   -0.493437
   7 O :   -0.519070
   8 H :   -0.003357
   9 H :    0.004770
  10 H :   -0.002274

  Mayer bond orders larger than 0.100000
B(  0-C ,  1-C ) :   1.2832 B(  0-C ,  8-H ) :   0.8369 B(  0-C ,  9-H ) :   0.7877
B(  0-C , 10-H ) :   0.8370 B(  1-C ,  2-H ) :   0.9893 B(  1-C ,  3-H ) :   0.9883
B(  1-C ,  4-S ) :   1.0133 B(  1-C ,  8-H ) :   0.1731 B(  1-C ,  9-H ) :   0.1878
B(  1-C , 10-H ) :   0.1715 B(  4-S ,  5-F ) :   0.6495 B(  4-S ,  6-O ) :   1.5343
B(  4-S ,  7-O ) :   1.4596

Dispersion correction           -0.002892604
FINAL SINGLE POINT ENERGY      -727.204615618534

DIPOLE MOMENT
-------------
                                X             Y             Z
Electronic contribution:     -2.63635       7.81239      -1.96584
Nuclear contribution   :      4.18919      -9.36357       1.23251
                        -----------------------------------------
Total Dipole Moment    :      1.55284      -1.55118      -0.73333
                        -----------------------------------------
Magnitude (a.u.)       :      2.31414
Magnitude (Debye)      :      5.88207

Rotational constants in cm-1:     0.153152     0.082513     0.079874
Rotational constants in MHz :  4591.373714  2473.673397  2394.575279

                             ****ORCA TERMINATED NORMALLY****
TOTAL RUN TIME: 0 days 0 hours 0 minutes 10 seconds 758 msec
