                         Program Version 5.0.0 -  RELEASE  -
|  1> !wB97X-D3 RIJCOSX def2-SVPD def2/J TightSCF CPCM(Water)
|  2> *xyz 0 1
|  3> C          4.49059        1.15590       -2.46929
|  4> C          4.30539        1.22276       -3.90832
|  5> C          4.63192        2.24637       -4.67096
|  6> N          4.54169        2.14399       -5.98714
|  7> N          5.08409        3.39358       -4.11855
|  8> H          4.92067        3.57050       -3.13587
|  9> H          5.25465        4.19739       -4.70696
| 10> H          3.82453        0.44911       -4.35093
| 11> H          4.34337        1.24932       -6.41665
| 12> H          4.67671        2.95662       -6.57411
| 13> C          5.94213        0.93950       -2.03689
| 14> H          3.86431        0.32853       -2.13661
| 15> H          4.07623        2.04999       -1.98901
| 16> H          6.32982        0.06401       -2.51451
| 17> H          5.98308        0.81426       -0.97504
| 18> H          6.52865        1.78889       -2.31873
| 19> *
| 20>
| 21> %MaxCore 64000
| 22>
| 23> %pal nprocs 18
| 24> end
| 25>
| 26> %scf
| 27>   MaxIter 150
| 28> end
| 29>
| 30>
| 31>                          ****END OF INPUT****

CARTESIAN COORDINATES (ANGSTROEM)
---------------------------------
  C      4.490590    1.155900   -2.469290
  C      4.305390    1.222760   -3.908320
  C      4.631920    2.246370   -4.670960
  N      4.541690    2.143990   -5.987140
  N      5.084090    3.393580   -4.118550
  H      4.920670    3.570500   -3.135870
  H      5.254650    4.197390   -4.706960
  H      3.824530    0.449110   -4.350930
  H      4.343370    1.249320   -6.416650
  H      4.676710    2.956620   -6.574110
  C      5.942130    0.939500   -2.036890
  H      3.864310    0.328530   -2.136610
  H      4.076230    2.049990   -1.989010
  H      6.329820    0.064010   -2.514510
  H      5.983080    0.814260   -0.975040
  H      6.528650    1.788890   -2.318730

 Total Charge           Charge          ....    0
 Multiplicity           Mult            ....    1
 Number of Electrons    NEL             ....   48
 Basis Dimension        Dim             ....  200

ORBITAL ENERGIES
----------------

  NO   OCC          E(Eh)            E(eV)
   0   2.0000     -14.431598      -392.7037
   1   2.0000     -14.428623      -392.6228
   2   2.0000     -10.335858      -281.2530
   3   2.0000     -10.267683      -279.3979
   4   2.0000     -10.259062      -279.1633
   5   2.0000     -10.211219      -277.8614
   6   2.0000      -1.065857       -29.0034
   7   2.0000      -0.970423       -26.4066
   8   2.0000      -0.886790       -24.1308
   9   2.0000      -0.804501       -21.8916
  10   2.0000      -0.724383       -19.7115
  11   2.0000      -0.678324       -18.4581
  12   2.0000      -0.639690       -17.4069
  13   2.0000      -0.607245       -16.5240
  14   2.0000      -0.566544       -15.4164
  15   2.0000      -0.538565       -14.6551
  16   2.0000      -0.526633       -14.3304
  17   2.0000      -0.492477       -13.4010
  18   2.0000      -0.486851       -13.2479
  19   2.0000      -0.451798       -12.2940
  20   2.0000      -0.427651       -11.6370
  21   2.0000      -0.414602       -11.2819
  22   2.0000      -0.356601        -9.7036
  23   2.0000      -0.250758        -6.8235
  24   0.0000       0.096185         2.6173
  25   0.0000       0.118259         3.2180
  26   0.0000       0.127294         3.4638
  27   0.0000       0.132058         3.5935
  28   0.0000       0.159800         4.3484

MULLIKEN ATOMIC CHARGES
-----------------------
   0 C :   -0.258587
   1 C :   -0.328714
   2 C :    0.921549
   3 N :   -0.074039
   4 N :   -0.084015
   5 H :    0.003840
   6 H :   -0.179301
   7 H :   -0.385581
   8 H :    0.016736
   9 H :   -0.087166
  10 C :    0.588949
  11 H :   -0.000723
  12 H :   -0.023245
  13 H :   -0.049666
  14 H :    0.000377
  15 H :   -0.060414
Sum of atomic charges:   -0.0000000

LOEWDIN ATOMIC CHARGES
----------------------
   0 C :   -0.114218
   1 C :   -0.064517
   2 C :   -0.232583
   3 N :    0.175125
   4 N :    0.203910
   5 H :   -0.002887
   6 H :    0.006103
   7 H :   -0.055612
   8 H :    0.018830
   9 H :    0.009986
  10 C :    0.110690
  11 H :    0.014113
  12 H :    0.008955
  13 H :   -0.020762
  14 H :   -0.024602
  15 H :   -0.032530

  Mayer bond orders larger than 0.100000
B(  0-C ,  1-C ) :   1.2789 B(  0-C ,  7-H ) :   0.2691 B(  0-C , 10-C ) :   1.2357
B(  0-C , 11-H ) :   0.8393 B(  0-C , 12-H ) :   0.8824 B(  0-C , 13-H ) :   0.1721
B(  0-C , 14-H ) :   0.1548 B(  0-C , 15-H ) :   0.2019 B(  1-C ,  2-C ) :   1.5800
B(  1-C ,  3-N ) :   0.3706 B(  1-C ,  4-N ) :   0.2055 B(  1-C ,  7-H ) :   0.9494
B(  1-C , 11-H ) :   0.2860 B(  1-C , 12-H ) :   0.1524 B(  2-C ,  3-N ) :   0.8702
B(  2-C ,  4-N ) :   0.9440 B(  2-C ,  6-H ) :  -0.1598 B(  3-N ,  8-H ) :   1.1440
B(  3-N ,  9-H ) :   1.2073 B(  4-N ,  5-H ) :   1.0295 B(  4-N ,  6-H ) :   1.3175
B(  5-H ,  6-H ) :  -0.1845 B(  7-H , 11-H ) :  -0.1007 B(  8-H ,  9-H ) :  -0.1612
B( 10-C , 13-H ) :   0.8576 B( 10-C , 14-H ) :   0.8347 B( 10-C , 15-H ) :   0.8247

Dispersion correction           -0.003822244
FINAL SINGLE POINT ENERGY      -267.682222517932

DIPOLE MOMENT
-------------
                                X             Y             Z
Electronic contribution:     -1.26179       2.26987      -4.26851
Nuclear contribution   :      1.23062      -1.24683       3.43056
                        -----------------------------------------
Total Dipole Moment    :     -0.03117       1.02304      -0.83794
                        -----------------------------------------
Magnitude (a.u.)       :      1.32278
Magnitude (Debye)      :      3.36223

Rotational constants in cm-1:     0.231477     0.075416     0.065327
Rotational constants in MHz :  6939.497385  2260.912204  1958.442932

                             ****ORCA TERMINATED NORMALLY****
TOTAL RUN TIME: 0 days 0 hours 0 minutes 13 seconds 816 msec
