                         Program Version 5.0.0 -  RELEASE  -
|  1> !wB97X-D3 RIJCOSX def2-SVPD def2/J TightSCF CPCM(Water)
|  2> *xyz 0 1
|  3> C          4.90646       -3.10282       -5.95484
|  4> C          3.51177       -2.80621       -6.49228
|  5> H          2.73604       -3.37345       -5.97374
|  6> H          3.44490       -3.04083       -7.55528
|  7> S          3.00462       -1.09621       -6.38926
|  8> O          4.12886       -0.32965       -6.95372
|  9> F          1.78128       -1.00078       -7.13640
| 10> O          2.85155       -0.78368       -4.95679
| 11> H          5.62703       -2.52424       -6.49422
| 12> H          5.12164       -4.14387       -6.07654
| 13> H          4.95004       -2.84862       -4.91639
| 14> *
| 15>
| 16> %MaxCore 64000
| 17>
| 18> %pal nprocs 18
| 19> end
| 20>
| 21> %scf
| 22>   MaxIter 150
| 23> end
| 24>
| 25>
| 26>                          ****END OF INPUT****

CARTESIAN COORDINATES (ANGSTROEM)
---------------------------------
  C      4.906460   -3.102820   -5.954840
  C      3.511770   -2.806210   -6.492280
  H      2.736040   -3.373450   -5.973740
  H      3.444900   -3.040830   -7.555280
  S      3.004620   -1.096210   -6.389260
  O      4.128860   -0.329650   -6.953720
  F      1.781280   -1.000780   -7.136400
  O      2.851550   -0.783680   -4.956790
  H      5.627030   -2.524240   -6.494220
  H      5.121640   -4.143870   -6.076540
  H      4.950040   -2.848620   -4.916390

 Total Charge           Charge          ....    0
 Multiplicity           Mult            ....    1
 Number of Electrons    NEL             ....   58
 Basis Dimension        Dim             ....  176

ORBITAL ENERGIES
----------------

  NO   OCC          E(Eh)            E(eV)
   0   2.0000     -89.240551     -2428.3588
   1   2.0000     -24.921777      -678.1560
   2   2.0000     -19.260651      -524.1090
   3   2.0000     -19.260394      -524.1020
   4   2.0000     -10.341684      -281.4115
   5   2.0000     -10.294875      -280.1378
   6   2.0000      -8.315122      -226.2660
   7   2.0000      -6.278770      -170.8540
   8   2.0000      -6.272808      -170.6918
   9   2.0000      -6.270572      -170.6309
  10   2.0000      -1.496507       -40.7220
  11   2.0000      -1.225468       -33.3467
  12   2.0000      -1.122423       -30.5427
  13   2.0000      -0.929362       -25.2892
  14   2.0000      -0.846244       -23.0275
  15   2.0000      -0.778638       -21.1878
  16   2.0000      -0.697646       -18.9839
  17   2.0000      -0.689097       -18.7513
  18   2.0000      -0.666133       -18.1264
  19   2.0000      -0.588477       -16.0133
  20   2.0000      -0.586571       -15.9614
  21   2.0000      -0.551111       -14.9965
  22   2.0000      -0.524113       -14.2618
  23   2.0000      -0.496546       -13.5117
  24   2.0000      -0.487605       -13.2684
  25   2.0000      -0.471926       -12.8418
  26   2.0000      -0.436206       -11.8698
  27   2.0000      -0.425946       -11.5906
  28   2.0000      -0.410872       -11.1804
  29   0.0000       0.070118         1.9080
  30   0.0000       0.097291         2.6474
  31   0.0000       0.097930         2.6648
  32   0.0000       0.099636         2.7112
  33   0.0000       0.121592         3.3087

MULLIKEN ATOMIC CHARGES
-----------------------
   0 C :    0.627477
   1 C :   -0.504474
   2 H :    0.080186
   3 H :    0.112592
   4 S :    1.552323
   5 O :   -0.735612
   6 F :   -0.400474
   7 O :   -0.736928
   8 H :   -0.000028
   9 H :    0.003213
  10 H :    0.001726
Sum of atomic charges:   -0.0000000

LOEWDIN ATOMIC CHARGES
----------------------
   0 C :    0.147809
   1 C :   -0.086427
   2 H :    0.038560
   3 H :    0.035690
   4 S :    1.136551
   5 O :   -0.518000
   6 F :   -0.235840
   7 O :   -0.520271
   8 H :   -0.005866
   9 H :    0.007632
  10 H :    0.000162

  Mayer bond orders larger than 0.100000
B(  0-C ,  1-C ) :   1.3102 B(  0-C ,  8-H ) :   0.8407 B(  0-C ,  9-H ) :   0.7973
B(  0-C , 10-H ) :   0.8303 B(  1-C ,  2-H ) :   0.9819 B(  1-C ,  3-H ) :   0.9655
B(  1-C ,  4-S ) :   0.9894 B(  1-C ,  8-H ) :   0.1773 B(  1-C ,  9-H ) :   0.1830
B(  1-C , 10-H ) :   0.1689 B(  4-S ,  5-O ) :   1.4606 B(  4-S ,  6-F ) :   0.6986
B(  4-S ,  7-O ) :   1.4489

Dispersion correction           -0.002915770
FINAL SINGLE POINT ENERGY      -727.190359877723

DIPOLE MOMENT
-------------
                                X             Y             Z
Electronic contribution:     -7.13600       6.51501      -2.29996
Nuclear contribution   :      6.63544      -8.66423       1.42287
                        -----------------------------------------
Total Dipole Moment    :     -0.50056      -2.14922      -0.87709
                        -----------------------------------------
Magnitude (a.u.)       :      2.37465
Magnitude (Debye)      :      6.03589

Rotational constants in cm-1:     0.158118     0.080978     0.078216
Rotational constants in MHz :  4740.271775  2427.649826  2344.849020

                             ****ORCA TERMINATED NORMALLY****
TOTAL RUN TIME: 0 days 0 hours 0 minutes 11 seconds 233 msec
