                         Program Version 5.0.0 -  RELEASE  -
|  1> !wB97X-D3 RIJCOSX def2-SVPD def2/J TightSCF CPCM(Water)
|  2> *xyz 0 1
|  3> C          4.49059        1.15590       -2.46929
|  4> N          4.30539        1.22276       -3.90832
|  5> C          4.63192        2.24637       -4.67096
|  6> C          4.54169        2.14399       -5.98714
|  7> N          5.08409        3.39358       -4.11855
|  8> H          4.92067        3.57050       -3.13587
|  9> H          5.25465        4.19739       -4.70696
| 10> H          3.82453        0.44911       -4.35093
| 11> H          4.34337        1.24932       -6.41665
| 12> H          4.67671        2.95662       -6.57411
| 13> C          5.94213        0.93950       -2.03689
| 14> H          3.86431        0.32853       -2.13661
| 15> H          4.07623        2.04999       -1.98901
| 16> H          6.32982        0.06401       -2.51451
| 17> H          5.98308        0.81426       -0.97504
| 18> H          6.52865        1.78889       -2.31873
| 19> *
| 20>
| 21> %MaxCore 64000
| 22>
| 23> %pal nprocs 18
| 24> end
| 25>
| 26> %scf
| 27>   MaxIter 150
| 28> end
| 29>
| 30>
| 31>                          ****END OF INPUT****

CARTESIAN COORDINATES (ANGSTROEM)
---------------------------------
  C      4.490590    1.155900   -2.469290
  N      4.305390    1.222760   -3.908320
  C      4.631920    2.246370   -4.670960
  C      4.541690    2.143990   -5.987140
  N      5.084090    3.393580   -4.118550
  H      4.920670    3.570500   -3.135870
  H      5.254650    4.197390   -4.706960
  H      3.824530    0.449110   -4.350930
  H      4.343370    1.249320   -6.416650
  H      4.676710    2.956620   -6.574110
  C      5.942130    0.939500   -2.036890
  H      3.864310    0.328530   -2.136610
  H      4.076230    2.049990   -1.989010
  H      6.329820    0.064010   -2.514510
  H      5.983080    0.814260   -0.975040
  H      6.528650    1.788890   -2.318730

 Total Charge           Charge          ....    0
 Multiplicity           Mult            ....    1
 Number of Electrons    NEL             ....   48
 Basis Dimension        Dim             ....  200

ORBITAL ENERGIES
----------------

  NO   OCC          E(Eh)            E(eV)
   0   2.0000     -14.435401      -392.8072
   1   2.0000     -14.433483      -392.7550
   2   2.0000     -10.344266      -281.4818
   3   2.0000     -10.319008      -280.7945
   4   2.0000     -10.268865      -279.4300
   5   2.0000     -10.206913      -277.7442
   6   2.0000      -1.078491       -29.3472
   7   2.0000      -0.986324       -26.8392
   8   2.0000      -0.875535       -23.8245
   9   2.0000      -0.811666       -22.0865
  10   2.0000      -0.733533       -19.9604
  11   2.0000      -0.697389       -18.9769
  12   2.0000      -0.637150       -17.3377
  13   2.0000      -0.597302       -16.2534
  14   2.0000      -0.574604       -15.6358
  15   2.0000      -0.541769       -14.7423
  16   2.0000      -0.521578       -14.1929
  17   2.0000      -0.503076       -13.6894
  18   2.0000      -0.481295       -13.0967
  19   2.0000      -0.467741       -12.7279
  20   2.0000      -0.455965       -12.4074
  21   2.0000      -0.438801       -11.9404
  22   2.0000      -0.347573        -9.4579
  23   2.0000      -0.259882        -7.0718
  24   0.0000       0.093551         2.5457
  25   0.0000       0.117220         3.1897
  26   0.0000       0.124197         3.3796
  27   0.0000       0.133731         3.6390
  28   0.0000       0.150322         4.0905

MULLIKEN ATOMIC CHARGES
-----------------------
   0 C :    0.199923
   1 N :   -0.367467
   2 C :    0.575251
   3 C :    0.294588
   4 N :    0.058730
   5 H :   -0.063528
   6 H :   -0.117441
   7 H :   -0.192828
   8 H :   -0.247269
   9 H :   -0.340681
  10 C :    0.568900
  11 H :   -0.285144
  12 H :   -0.000328
  13 H :   -0.043415
  14 H :   -0.002123
  15 H :   -0.037169
Sum of atomic charges:    0.0000000

LOEWDIN ATOMIC CHARGES
----------------------
   0 C :    0.014759
   1 N :   -0.022298
   2 C :   -0.251003
   3 C :    0.103363
   4 N :    0.203471
   5 H :   -0.009254
   6 H :    0.015906
   7 H :    0.048109
   8 H :   -0.107026
   9 H :   -0.110034
  10 C :    0.129109
  11 H :    0.027970
  12 H :    0.018656
  13 H :   -0.015810
  14 H :   -0.014973
  15 H :   -0.030945

  Mayer bond orders larger than 0.100000
B(  0-C ,  1-N ) :   0.8823 B(  0-C ,  7-H ) :  -0.1473 B(  0-C , 10-C ) :   1.2510
B(  0-C , 11-H ) :   0.9727 B(  0-C , 12-H ) :   0.8881 B(  0-C , 13-H ) :   0.2204
B(  0-C , 14-H ) :   0.1466 B(  0-C , 15-H ) :   0.1864 B(  1-N ,  2-C ) :   1.0812
B(  1-N ,  3-C ) :   0.2170 B(  1-N ,  4-N ) :   0.1547 B(  1-N ,  7-H ) :   1.2813
B(  1-N , 11-H ) :   0.1560 B(  1-N , 12-H ) :   0.1133 B(  2-C ,  3-C ) :   1.5417
B(  2-C ,  4-N ) :   0.9764 B(  2-C ,  6-H ) :  -0.1007 B(  2-C ,  7-H ) :  -0.1924
B(  2-C ,  9-H ) :   0.1464 B(  3-C ,  4-N ) :   0.1786 B(  3-C ,  8-H ) :   0.8427
B(  3-C ,  9-H ) :   0.8155 B(  4-N ,  5-H ) :   1.0330 B(  4-N ,  6-H ) :   1.2109
B(  5-H ,  6-H ) :  -0.1833 B(  8-H ,  9-H ) :   0.1350 B( 10-C , 13-H ) :   0.8298
B( 10-C , 14-H ) :   0.8546 B( 10-C , 15-H ) :   0.8349

Dispersion correction           -0.003854416
FINAL SINGLE POINT ENERGY      -267.674278396627

DIPOLE MOMENT
-------------
                                X             Y             Z
Electronic contribution:     -1.51016       1.10895      -1.48735
Nuclear contribution   :      1.28075      -1.05140       2.98955
                        -----------------------------------------
Total Dipole Moment    :     -0.22941       0.05755       1.50220
                        -----------------------------------------
Magnitude (a.u.)       :      1.52071
Magnitude (Debye)      :      3.86533

Rotational constants in cm-1:     0.229858     0.078444     0.067377
Rotational constants in MHz :  6890.979812  2351.691803  2019.910665

                             ****ORCA TERMINATED NORMALLY****
TOTAL RUN TIME: 0 days 0 hours 0 minutes 14 seconds 308 msec
