                         Program Version 5.0.0 -  RELEASE  -
|  1> !wB97X-D3 RIJCOSX def2-SVPD def2/J TightSCF CPCM(Water)
|  2> *xyz 0 1
|  3> C          4.90646       -3.10282       -5.95484
|  4> C          3.51177       -2.80621       -6.49228
|  5> H          2.73604       -3.37345       -5.97374
|  6> H          3.44490       -3.04083       -7.55528
|  7> S          3.00462       -1.09621       -6.38926
|  8> O          4.12886       -0.32965       -6.95372
|  9> O          1.78128       -1.00078       -7.13640
| 10> F          2.85155       -0.78368       -4.95679
| 11> H          5.62703       -2.52424       -6.49422
| 12> H          5.12164       -4.14387       -6.07654
| 13> H          4.95004       -2.84862       -4.91639
| 14> *
| 15>
| 16> %MaxCore 64000
| 17>
| 18> %pal nprocs 18
| 19> end
| 20>
| 21> %scf
| 22>   MaxIter 150
| 23> end
| 24>
| 25>
| 26>                          ****END OF INPUT****

CARTESIAN COORDINATES (ANGSTROEM)
---------------------------------
  C      4.906460   -3.102820   -5.954840
  C      3.511770   -2.806210   -6.492280
  H      2.736040   -3.373450   -5.973740
  H      3.444900   -3.040830   -7.555280
  S      3.004620   -1.096210   -6.389260
  O      4.128860   -0.329650   -6.953720
  O      1.781280   -1.000780   -7.136400
  F      2.851550   -0.783680   -4.956790
  H      5.627030   -2.524240   -6.494220
  H      5.121640   -4.143870   -6.076540
  H      4.950040   -2.848620   -4.916390

 Total Charge           Charge          ....    0
 Multiplicity           Mult            ....    1
 Number of Electrons    NEL             ....   58
 Basis Dimension        Dim             ....  176

ORBITAL ENERGIES
----------------

  NO   OCC          E(Eh)            E(eV)
   0   2.0000     -89.237914     -2428.2871
   1   2.0000     -24.904364      -677.6822
   2   2.0000     -19.271105      -524.3934
   3   2.0000     -19.260254      -524.0982
   4   2.0000     -10.341035      -281.3939
   5   2.0000     -10.291948      -280.0582
   6   2.0000      -8.312492      -226.1944
   7   2.0000      -6.276067      -170.7805
   8   2.0000      -6.270270      -170.6227
   9   2.0000      -6.268082      -170.5632
  10   2.0000      -1.465877       -39.8885
  11   2.0000      -1.237690       -33.6793
  12   2.0000      -1.136932       -30.9375
  13   2.0000      -0.928298       -25.2603
  14   2.0000      -0.830620       -22.6023
  15   2.0000      -0.775752       -21.1093
  16   2.0000      -0.684453       -18.6249
  17   2.0000      -0.675728       -18.3875
  18   2.0000      -0.658139       -17.9089
  19   2.0000      -0.590335       -16.0638
  20   2.0000      -0.574906       -15.6440
  21   2.0000      -0.565276       -15.3819
  22   2.0000      -0.527448       -14.3526
  23   2.0000      -0.504857       -13.7379
  24   2.0000      -0.487708       -13.2712
  25   2.0000      -0.466884       -12.7046
  26   2.0000      -0.444059       -12.0835
  27   2.0000      -0.428488       -11.6598
  28   2.0000      -0.422514       -11.4972
  29   0.0000       0.069278         1.8852
  30   0.0000       0.097085         2.6418
  31   0.0000       0.097652         2.6573
  32   0.0000       0.100267         2.7284
  33   0.0000       0.123316         3.3556

MULLIKEN ATOMIC CHARGES
-----------------------
   0 C :    0.642166
   1 C :   -0.499472
   2 H :    0.071703
   3 H :    0.107259
   4 S :    1.526289
   5 O :   -0.747038
   6 O :   -0.694311
   7 F :   -0.412525
   8 H :   -0.000557
   9 H :    0.002117
  10 H :    0.004369
Sum of atomic charges:   -0.0000000

LOEWDIN ATOMIC CHARGES
----------------------
   0 C :    0.137800
   1 C :   -0.079582
   2 H :    0.038677
   3 H :    0.043268
   4 S :    1.130124
   5 O :   -0.516076
   6 O :   -0.493871
   7 F :   -0.256765
   8 H :   -0.008300
   9 H :    0.004407
  10 H :    0.000318

  Mayer bond orders larger than 0.100000
B(  0-C ,  1-C ) :   1.2885 B(  0-C ,  8-H ) :   0.8452 B(  0-C ,  9-H ) :   0.7869
B(  0-C , 10-H ) :   0.8234 B(  1-C ,  2-H ) :   0.9874 B(  1-C ,  3-H ) :   0.9818
B(  1-C ,  4-S ) :   1.0142 B(  1-C ,  8-H ) :   0.1802 B(  1-C ,  9-H ) :   0.1848
B(  1-C , 10-H ) :   0.1731 B(  4-S ,  5-O ) :   1.4689 B(  4-S ,  6-O ) :   1.5312
B(  4-S ,  7-F ) :   0.6386

Dispersion correction           -0.002874431
FINAL SINGLE POINT ENERGY      -727.204677426691

DIPOLE MOMENT
-------------
                                X             Y             Z
Electronic contribution:     -5.10845       6.93955       1.90482
Nuclear contribution   :      5.52019      -8.89046      -0.84835
                        -----------------------------------------
Total Dipole Moment    :      0.41173      -1.95091       1.05647
                        -----------------------------------------
Magnitude (a.u.)       :      2.25648
Magnitude (Debye)      :      5.73551

Rotational constants in cm-1:     0.153332     0.082132     0.079755
Rotational constants in MHz :  4596.775407  2462.251277  2391.008596

                             ****ORCA TERMINATED NORMALLY****
TOTAL RUN TIME: 0 days 0 hours 0 minutes 11 seconds 70 msec
