                         Program Version 5.0.0 -  RELEASE  -
|  1> !wB97X-D3 RIJCOSX def2-SVPD def2/J TightSCF CPCM(Water)
|  2> *xyz 0 1
|  3> C          4.49059        1.15590       -2.46929
|  4> N          4.30539        1.22276       -3.90832
|  5> C          4.63192        2.24637       -4.67096
|  6> N          4.54169        2.14399       -5.98714
|  7> C          5.08409        3.39358       -4.11855
|  8> H          4.92067        3.57050       -3.13587
|  9> H          5.25465        4.19739       -4.70696
| 10> H          3.82453        0.44911       -4.35093
| 11> H          4.34337        1.24932       -6.41665
| 12> H          4.67671        2.95662       -6.57411
| 13> C          5.94213        0.93950       -2.03689
| 14> H          3.86431        0.32853       -2.13661
| 15> H          4.07623        2.04999       -1.98901
| 16> H          6.32982        0.06401       -2.51451
| 17> H          5.98308        0.81426       -0.97504
| 18> H          6.52865        1.78889       -2.31873
| 19> *
| 20>
| 21> %MaxCore 64000
| 22>
| 23> %pal nprocs 18
| 24> end
| 25>
| 26> %scf
| 27>   MaxIter 150
| 28> end
| 29>
| 30>
| 31>                          ****END OF INPUT****

CARTESIAN COORDINATES (ANGSTROEM)
---------------------------------
  C      4.490590    1.155900   -2.469290
  N      4.305390    1.222760   -3.908320
  C      4.631920    2.246370   -4.670960
  N      4.541690    2.143990   -5.987140
  C      5.084090    3.393580   -4.118550
  H      4.920670    3.570500   -3.135870
  H      5.254650    4.197390   -4.706960
  H      3.824530    0.449110   -4.350930
  H      4.343370    1.249320   -6.416650
  H      4.676710    2.956620   -6.574110
  C      5.942130    0.939500   -2.036890
  H      3.864310    0.328530   -2.136610
  H      4.076230    2.049990   -1.989010
  H      6.329820    0.064010   -2.514510
  H      5.983080    0.814260   -0.975040
  H      6.528650    1.788890   -2.318730

 Total Charge           Charge          ....    0
 Multiplicity           Mult            ....    1
 Number of Electrons    NEL             ....   48
 Basis Dimension        Dim             ....  200

ORBITAL ENERGIES
----------------

  NO   OCC          E(Eh)            E(eV)
   0   2.0000     -14.438480      -392.8910
   1   2.0000     -14.433675      -392.7603
   2   2.0000     -10.346338      -281.5382
   3   2.0000     -10.317739      -280.7600
   4   2.0000     -10.266963      -279.3783
   5   2.0000     -10.207610      -277.7632
   6   2.0000      -1.081584       -29.4314
   7   2.0000      -0.993147       -27.0249
   8   2.0000      -0.858990       -23.3743
   9   2.0000      -0.820303       -22.3216
  10   2.0000      -0.745460       -20.2850
  11   2.0000      -0.663480       -18.0542
  12   2.0000      -0.653671       -17.7873
  13   2.0000      -0.620093       -16.8736
  14   2.0000      -0.569032       -15.4842
  15   2.0000      -0.537956       -14.6385
  16   2.0000      -0.514055       -13.9881
  17   2.0000      -0.498335       -13.5604
  18   2.0000      -0.481266       -13.0959
  19   2.0000      -0.465034       -12.6542
  20   2.0000      -0.459011       -12.4903
  21   2.0000      -0.436771       -11.8851
  22   2.0000      -0.341892        -9.3033
  23   2.0000      -0.261338        -7.1114
  24   0.0000       0.096487         2.6255
  25   0.0000       0.116193         3.1618
  26   0.0000       0.121363         3.3025
  27   0.0000       0.130197         3.5428
  28   0.0000       0.154572         4.2061

MULLIKEN ATOMIC CHARGES
-----------------------
   0 C :    0.211644
   1 N :   -0.421197
   2 C :    0.524320
   3 N :   -0.005454
   4 C :    0.364018
   5 H :   -0.123584
   6 H :   -0.480025
   7 H :   -0.241288
   8 H :   -0.085659
   9 H :   -0.002828
  10 C :    0.592657
  11 H :   -0.279327
  12 H :    0.079817
  13 H :   -0.061028
  14 H :    0.013465
  15 H :   -0.085531
Sum of atomic charges:    0.0000000

LOEWDIN ATOMIC CHARGES
----------------------
   0 C :    0.017497
   1 N :   -0.022348
   2 C :   -0.244950
   3 N :    0.185759
   4 C :    0.120284
   5 H :   -0.126529
   6 H :   -0.116633
   7 H :    0.043255
   8 H :    0.014861
   9 H :    0.021369
  10 C :    0.130323
  11 H :    0.027901
  12 H :    0.018484
  13 H :   -0.016570
  14 H :   -0.014650
  15 H :   -0.038052

  Mayer bond orders larger than 0.100000
B(  0-C ,  1-N ) :   0.8696 B(  0-C ,  5-H ) :   0.1010 B(  0-C ,  7-H ) :  -0.1478
B(  0-C , 10-C ) :   1.2210 B(  0-C , 11-H ) :   1.0122 B(  0-C , 12-H ) :   0.8623
B(  0-C , 13-H ) :   0.2092 B(  0-C , 14-H ) :   0.1411 B(  0-C , 15-H ) :   0.1863
B(  1-N ,  2-C ) :   0.9843 B(  1-N ,  3-N ) :   0.1608 B(  1-N ,  4-C ) :   0.3449
B(  1-N ,  7-H ) :   1.4102 B(  1-N , 11-H ) :   0.1326 B(  2-C ,  3-N ) :   0.9727
B(  2-C ,  4-C ) :   1.7495 B(  2-C ,  5-H ) :   0.2798 B(  2-C ,  6-H ) :   0.1799
B(  2-C ,  7-H ) :  -0.2720 B(  3-N ,  4-C ) :   0.2201 B(  3-N ,  8-H ) :   1.1738
B(  3-N ,  9-H ) :   1.1733 B(  4-C ,  5-H ) :   0.6484 B(  4-C ,  6-H ) :   0.8719
B(  5-H ,  6-H ) :   0.1510 B(  8-H ,  9-H ) :  -0.1640 B( 10-C , 13-H ) :   0.8286
B( 10-C , 14-H ) :   0.8492 B( 10-C , 15-H ) :   0.8516

Dispersion correction           -0.003801789
FINAL SINGLE POINT ENERGY      -267.674559521034

DIPOLE MOMENT
-------------
                                X             Y             Z
Electronic contribution:     -2.16768      -0.57127      -3.99147
Nuclear contribution   :      1.39581      -0.78630       3.38596
                        -----------------------------------------
Total Dipole Moment    :     -0.77187      -1.35758      -0.60550
                        -----------------------------------------
Magnitude (a.u.)       :      1.67494
Magnitude (Debye)      :      4.25736

Rotational constants in cm-1:     0.239249     0.075811     0.066261
Rotational constants in MHz :  7172.504830  2272.756282  1986.457543

                             ****ORCA TERMINATED NORMALLY****
TOTAL RUN TIME: 0 days 0 hours 0 minutes 13 seconds 346 msec
