                         Program Version 5.0.0 -  RELEASE  -
|  1> !wB97X-D3 RIJCOSX def2-SVPD def2/J TightSCF CPCM(Water) xyzfile
|  2>
|  3> *xyzfile 0 1 D3.xyz
|  4>
|  5> %MaxCore 64000
|  6>
|  7> %pal nprocs 18
|  8> end
|  9>
| 10> %scf
| 11>   MaxIter 150
| 12> end
| 13>
| 14>
| 15>                          ****END OF INPUT****

CARTESIAN COORDINATES (ANGSTROEM)
---------------------------------
  C      4.490588    1.155899   -2.469290
  N      4.305394    1.222762   -3.908317
  C      4.906458   -3.102816   -5.954844
  C      3.511771   -2.806215   -6.492283
  H      2.736044   -3.373445   -5.973736
  H      3.444904   -3.040831   -7.555281
  S      3.004618   -1.096206   -6.389259
  C      4.631918    2.246365   -4.670958
  N      4.541686    2.143990   -5.987139
  C      5.084086    3.393584   -4.118545
  H      4.920675    3.570501   -3.135870
  H      5.254652    4.197390   -4.706956
  H      3.824530    0.449113   -4.350926
  H      4.343373    1.249318   -6.416646
  H      4.676712    2.956624   -6.574113
  F      4.128856   -0.329647   -6.953717
  O      1.781285   -1.000779   -7.136399
  C      5.942129    0.939500   -2.036893
  H      3.864305    0.328532   -2.136611
  H      4.076233    2.049994   -1.989010
  C      6.462677   -3.117775   -3.944671
  C      5.024977   -3.025679   -4.437625
  H      4.423321   -3.818693   -3.977648
  H      4.579350   -2.087131   -4.108727
  H      5.201533   -4.100207   -6.296905
  H      5.605922   -2.397822   -6.413368
  C      6.559957   -0.356290   -2.559086
  H      5.967976    0.952567   -0.942444
  H      6.547184    1.788331   -2.368849
  C      6.006283   -1.615917   -1.899301
  H      7.642360   -0.318000   -2.402059
  H      6.414855   -0.403433   -3.642587
  C      6.608718   -2.917014   -2.435655
  H      6.190324   -1.561115   -0.820948
  H      4.919250   -1.651245   -2.016586
  H      7.066975   -2.374258   -4.475514
  H      6.887808   -4.089747   -4.215332
  H      6.135197   -3.755573   -1.915159
  H      7.671142   -2.955503   -2.172291
  O      2.851546   -0.783683   -4.956789

 Total Charge           Charge          ....    0
 Multiplicity           Mult            ....    1
 Number of Electrons    NEL             ....  144
 Basis Dimension        Dim             ....  540

ORBITAL ENERGIES
----------------

  NO   OCC          E(Eh)            E(eV)
   0   2.0000     -89.252725     -2428.6901
   1   2.0000     -24.925892      -678.2680
   2   2.0000     -19.280877      -524.6593
   3   2.0000     -19.276273      -524.5340
   4   2.0000     -14.428750      -392.6262
   5   2.0000     -14.421270      -392.4227
   6   2.0000     -10.344784      -281.4959
   7   2.0000     -10.341063      -281.3946
   8   2.0000     -10.311140      -280.5804
   9   2.0000     -10.304054      -280.3876
  10   2.0000     -10.280775      -279.7541
  11   2.0000     -10.277863      -279.6749
  12   2.0000     -10.276506      -279.6379
  13   2.0000     -10.274134      -279.5734
  14   2.0000     -10.274117      -279.5729
  15   2.0000     -10.273367      -279.5525
  16   2.0000     -10.203678      -277.6562
  17   2.0000      -8.326219      -226.5679
  18   2.0000      -6.290094      -171.1622
  19   2.0000      -6.284102      -170.9991
  20   2.0000      -6.281530      -170.9291
  21   2.0000      -1.489234       -40.5241
  22   2.0000      -1.251254       -34.0483
  23   2.0000      -1.152188       -31.3526
  24   2.0000      -1.075923       -29.2773
  25   2.0000      -0.989493       -26.9255
  26   2.0000      -0.948616       -25.8131
  27   2.0000      -0.917880       -24.9768
  28   2.0000      -0.886174       -24.1140
  29   2.0000      -0.858788       -23.3688
  30   2.0000      -0.827486       -22.5170
  31   2.0000      -0.818100       -22.2616
  32   2.0000      -0.796136       -21.6640
  33   2.0000      -0.759459       -20.6659
  34   2.0000      -0.727397       -19.7935
  35   2.0000      -0.711960       -19.3734
  36   2.0000      -0.703205       -19.1352
  37   2.0000      -0.697663       -18.9844
  38   2.0000      -0.678308       -18.4577
  39   2.0000      -0.661039       -17.9878
  40   2.0000      -0.646540       -17.5933
  41   2.0000      -0.637230       -17.3399
  42   2.0000      -0.618342       -16.8259
  43   2.0000      -0.594781       -16.1848
  44   2.0000      -0.586510       -15.9597
  45   2.0000      -0.580464       -15.7952
  46   2.0000      -0.570819       -15.5328
  47   2.0000      -0.560809       -15.2604
  48   2.0000      -0.551408       -15.0046
  49   2.0000      -0.541973       -14.7478
  50   2.0000      -0.530414       -14.4333
  51   2.0000      -0.525091       -14.2885
  52   2.0000      -0.513672       -13.9777
  53   2.0000      -0.507409       -13.8073
  54   2.0000      -0.493326       -13.4241
  55   2.0000      -0.489578       -13.3221
  56   2.0000      -0.479340       -13.0435
  57   2.0000      -0.473698       -12.8900
  58   2.0000      -0.467744       -12.7280
  59   2.0000      -0.456977       -12.4350
  60   2.0000      -0.456153       -12.4126
  61   2.0000      -0.449590       -12.2340
  62   2.0000      -0.439072       -11.9478
  63   2.0000      -0.431535       -11.7427
  64   2.0000      -0.426592       -11.6082
  65   2.0000      -0.422707       -11.5024
  66   2.0000      -0.411242       -11.1905
  67   2.0000      -0.399744       -10.8776
  68   2.0000      -0.396399       -10.7866
  69   2.0000      -0.393087       -10.6964
  70   2.0000      -0.335470        -9.1286
  71   2.0000      -0.257200        -6.9988
  72   0.0000       0.067972         1.8496
  73   0.0000       0.090802         2.4709
  74   0.0000       0.093918         2.5556
  75   0.0000       0.096066         2.6141
  76   0.0000       0.107231         2.9179

MULLIKEN ATOMIC CHARGES
-----------------------
   0 C :    0.929032
   1 N :    0.358168
   2 C :    0.142485
   3 C :    0.139947
   4 H :    0.144246
   5 H :    0.105022
   6 S :    1.464659
   7 C :    0.487923
   8 N :    0.556104
   9 C :    0.479902
  10 H :    0.101062
  11 H :   -0.644058
  12 H :   -1.272171
  13 H :   -0.411966
  14 H :   -0.119585
  15 F :   -0.460797
  16 O :   -0.739141
  17 C :    0.298023
  18 H :   -0.263849
  19 H :   -0.066531
  20 C :   -0.033271
  21 C :    0.232310
  22 H :    0.070984
  23 H :   -0.510754
  24 H :   -0.045160
  25 H :    0.066988
  26 C :    0.072122
  27 H :   -0.098849
  28 H :   -0.067423
  29 C :   -0.197764
  30 H :   -0.143854
  31 H :   -0.124318
  32 C :    0.615949
  33 H :   -0.309024
  34 H :    0.165190
  35 H :    0.132893
  36 H :   -0.298399
  37 H :   -0.016251
  38 H :    0.028624
  39 O :   -0.768468
Sum of atomic charges:    0.0000000

LOEWDIN ATOMIC CHARGES
----------------------
   0 C :    0.071146
   1 N :    0.008031
   2 C :   -0.023896
   3 C :   -0.019200
   4 H :    0.055100
   5 H :    0.041010
   6 S :    1.177935
   7 C :   -0.224875
   8 N :    0.215432
   9 C :    0.119773
  10 H :   -0.127310
  11 H :   -0.119293
  12 H :   -0.100059
  13 H :   -0.077538
  14 H :    0.027796
  15 F :   -0.244360
  16 O :   -0.463939
  17 C :   -0.019440
  18 H :    0.022818
  19 H :    0.018836
  20 C :   -0.035807
  21 C :   -0.028167
  22 H :    0.046258
  23 H :   -0.019777
  24 H :    0.046680
  25 H :    0.033991
  26 C :   -0.034578
  27 H :    0.025997
  28 H :    0.002051
  29 C :   -0.038962
  30 H :    0.027740
  31 H :    0.005960
  32 C :   -0.032328
  33 H :    0.025689
  34 H :    0.007777
  35 H :    0.019246
  36 H :    0.027069
  37 H :    0.023697
  38 H :    0.023857
  39 O :   -0.464362

  Mayer bond orders larger than 0.100000
B(  0-C ,  1-N ) :   0.9801 B(  0-C , 10-H ) :   0.1119 B(  0-C , 12-H ) :  -0.5413
B(  0-C , 17-C ) :   1.0968 B(  0-C , 18-H ) :   0.7615 B(  0-C , 19-H ) :   0.8580
B(  1-N ,  7-C ) :   1.0681 B(  1-N ,  9-C ) :   0.2779 B(  1-N , 11-H ) :   0.1254
B(  1-N , 12-H ) :   0.7266 B(  1-N , 13-H ) :   0.1522 B(  1-N , 18-H ) :   0.2645
B(  2-C ,  3-C ) :   1.2371 B(  2-C ,  5-H ) :   0.2222 B(  2-C , 21-C ) :   1.1177
B(  2-C , 24-H ) :   0.8786 B(  2-C , 25-H ) :   0.8537 B(  3-C ,  4-H ) :   0.9091
B(  3-C ,  5-H ) :   0.7632 B(  3-C ,  6-S ) :   1.0536 B(  3-C , 25-H ) :   0.1046
B(  6-S , 15-F ) :   0.5977 B(  6-S , 16-O ) :   1.4625 B(  6-S , 39-O ) :   1.3915
B(  7-C ,  8-N ) :   1.0014 B(  7-C ,  9-C ) :   1.7617 B(  7-C , 10-H ) :   0.3869
B(  7-C , 11-H ) :   0.3604 B(  7-C , 12-H ) :  -0.7119 B(  7-C , 13-H ) :  -0.1708
B(  7-C , 18-H ) :   0.1145 B(  8-N ,  9-C ) :   0.1916 B(  8-N , 13-H ) :   0.8975
B(  8-N , 14-H ) :   1.2582 B(  9-C , 10-H ) :   0.5117 B(  9-C , 11-H ) :   0.6637
B( 10-H , 13-H ) :   0.1418 B( 10-H , 18-H ) :  -0.1024 B( 10-H , 19-H ) :   0.1146
B( 11-H , 12-H ) :  -0.1128 B( 12-H , 39-O ) :   0.2017 B( 13-H , 14-H ) :  -0.2393
B( 13-H , 15-F ) :   0.1826 B( 16-O , 39-O ) :   0.1249 B( 17-C , 18-H ) :   0.1183
B( 17-C , 26-C ) :   1.1806 B( 17-C , 27-H ) :   0.9153 B( 17-C , 28-H ) :   0.7833
B( 17-C , 31-H ) :   0.1064 B( 18-H , 19-H ) :  -0.1891 B( 20-C , 21-C ) :   1.2259
B( 20-C , 22-H ) :   0.1062 B( 20-C , 23-H ) :   0.1013 B( 20-C , 32-C ) :   1.1386
B( 20-C , 35-H ) :   0.8570 B( 20-C , 36-H ) :   0.9898 B( 20-C , 37-H ) :   0.1097
B( 20-C , 38-H ) :   0.2044 B( 21-C , 22-H ) :   0.7318 B( 21-C , 23-H ) :   0.8234
B( 21-C , 24-H ) :   0.1739 B( 21-C , 36-H ) :   0.1902 B( 22-H , 23-H ) :   0.2170
B( 23-H , 34-H ) :   0.1145 B( 26-C , 28-H ) :   0.2081 B( 26-C , 29-C ) :   1.2152
B( 26-C , 30-H ) :   0.9017 B( 26-C , 31-H ) :   0.9225 B( 26-C , 33-H ) :   0.1399
B( 27-H , 28-H ) :  -0.1193 B( 29-C , 30-H ) :   0.1461 B( 29-C , 31-H ) :   0.1227
B( 29-C , 32-C ) :   1.1427 B( 29-C , 33-H ) :   1.0573 B( 29-C , 34-H ) :   0.8392
B( 29-C , 37-H ) :   0.2693 B( 29-C , 38-H ) :   0.1325 B( 32-C , 37-H ) :   0.6921
B( 32-C , 38-H ) :   0.7147

Dispersion correction           -0.021830216
FINAL SINGLE POINT ENERGY     -1190.071712304071

DIPOLE MOMENT
-------------
                                X             Y             Z
Electronic contribution:    -16.74492       1.82757     -21.76268
Nuclear contribution   :     17.35766      -5.13497      20.30937
                        -----------------------------------------
Total Dipole Moment    :      0.61275      -3.30740      -1.45332
                        -----------------------------------------
Magnitude (a.u.)       :      3.66421
Magnitude (Debye)      :      9.31369

Rotational constants in cm-1:     0.014431     0.012329     0.007535
Rotational constants in MHz :   432.628327   369.619539   225.898827

                             ****ORCA TERMINATED NORMALLY****
TOTAL RUN TIME: 0 days 0 hours 2 minutes 4 seconds 50 msec
