                         Program Version 5.0.0 -  RELEASE  -
|  1> !wB97X-D3 RIJCOSX def2-SVPD def2/J TightSCF CPCM(Water) xyzfile
|  2>
|  3> *xyzfile 0 1 D5.xyz
|  4>
|  5> %MaxCore 64000
|  6>
|  7> %pal nprocs 18
|  8> end
|  9>
| 10> %scf
| 11>   MaxIter 150
| 12> end
| 13>
| 14>
| 15>                          ****END OF INPUT****

CARTESIAN COORDINATES (ANGSTROEM)
---------------------------------
  C      4.490588    1.155899   -2.469290
  N      4.305394    1.222762   -3.908317
  C      4.906458   -3.102816   -5.954844
  C      3.511771   -2.806215   -6.492283
  H      2.736044   -3.373445   -5.973736
  H      3.444904   -3.040831   -7.555281
  S      3.004618   -1.096206   -6.389259
  C      4.631918    2.246365   -4.670958
  C      4.541686    2.143990   -5.987139
  N      5.084086    3.393584   -4.118545
  H      4.920675    3.570501   -3.135870
  H      5.254652    4.197390   -4.706956
  H      3.824530    0.449113   -4.350926
  H      4.343373    1.249318   -6.416646
  H      4.676712    2.956624   -6.574113
  O      4.128856   -0.329647   -6.953717
  F      1.781285   -1.000779   -7.136399
  C      5.942129    0.939500   -2.036893
  H      3.864305    0.328532   -2.136611
  H      4.076233    2.049994   -1.989010
  C      6.462677   -3.117775   -3.944671
  C      5.024977   -3.025679   -4.437625
  H      4.423321   -3.818693   -3.977648
  H      4.579350   -2.087131   -4.108727
  H      5.201533   -4.100207   -6.296905
  H      5.605922   -2.397822   -6.413368
  C      6.559957   -0.356290   -2.559086
  H      5.967976    0.952567   -0.942444
  H      6.547184    1.788331   -2.368849
  C      6.006283   -1.615917   -1.899301
  H      7.642360   -0.318000   -2.402059
  H      6.414855   -0.403433   -3.642587
  C      6.608718   -2.917014   -2.435655
  H      6.190324   -1.561115   -0.820948
  H      4.919250   -1.651245   -2.016586
  H      7.066975   -2.374258   -4.475514
  H      6.887808   -4.089747   -4.215332
  H      6.135197   -3.755573   -1.915159
  H      7.671142   -2.955503   -2.172291
  O      2.851546   -0.783683   -4.956789

 Total Charge           Charge          ....    0
 Multiplicity           Mult            ....    1
 Number of Electrons    NEL             ....  144
 Basis Dimension        Dim             ....  540

ORBITAL ENERGIES
----------------

  NO   OCC          E(Eh)            E(eV)
   0   2.0000     -89.249508     -2428.6026
   1   2.0000     -24.926470      -678.2837
   2   2.0000     -19.271160      -524.3949
   3   2.0000     -19.262847      -524.1687
   4   2.0000     -14.426723      -392.5711
   5   2.0000     -14.414109      -392.2278
   6   2.0000     -10.341675      -281.4113
   7   2.0000     -10.332256      -281.1550
   8   2.0000     -10.310760      -280.5700
   9   2.0000     -10.304025      -280.3868
  10   2.0000     -10.280191      -279.7382
  11   2.0000     -10.277623      -279.6683
  12   2.0000     -10.276516      -279.6382
  13   2.0000     -10.275402      -279.6079
  14   2.0000     -10.274345      -279.5791
  15   2.0000     -10.273839      -279.5654
  16   2.0000     -10.185404      -277.1589
  17   2.0000      -8.322567      -226.4685
  18   2.0000      -6.286271      -171.0581
  19   2.0000      -6.280480      -170.9005
  20   2.0000      -6.278067      -170.8349
  21   2.0000      -1.500049       -40.8184
  22   2.0000      -1.235918       -33.6310
  23   2.0000      -1.133527       -30.8448
  24   2.0000      -1.067397       -29.0453
  25   2.0000      -0.978118       -26.6159
  26   2.0000      -0.944614       -25.7043
  27   2.0000      -0.917132       -24.9564
  28   2.0000      -0.890968       -24.2445
  29   2.0000      -0.859716       -23.3940
  30   2.0000      -0.836313       -22.7572
  31   2.0000      -0.811991       -22.0954
  32   2.0000      -0.780602       -21.2413
  33   2.0000      -0.752693       -20.4818
  34   2.0000      -0.725265       -19.7355
  35   2.0000      -0.709925       -19.3180
  36   2.0000      -0.701703       -19.0943
  37   2.0000      -0.688420       -18.7329
  38   2.0000      -0.679997       -18.5037
  39   2.0000      -0.667376       -18.1602
  40   2.0000      -0.651736       -17.7346
  41   2.0000      -0.631907       -17.1951
  42   2.0000      -0.601953       -16.3800
  43   2.0000      -0.590993       -16.0817
  44   2.0000      -0.584069       -15.8933
  45   2.0000      -0.577079       -15.7031
  46   2.0000      -0.570465       -15.5231
  47   2.0000      -0.563265       -15.3272
  48   2.0000      -0.551757       -15.0141
  49   2.0000      -0.533834       -14.5264
  50   2.0000      -0.530776       -14.4432
  51   2.0000      -0.521611       -14.1938
  52   2.0000      -0.516538       -14.0557
  53   2.0000      -0.502117       -13.6633
  54   2.0000      -0.489372       -13.3165
  55   2.0000      -0.484884       -13.1944
  56   2.0000      -0.477464       -12.9925
  57   2.0000      -0.470681       -12.8079
  58   2.0000      -0.464460       -12.6386
  59   2.0000      -0.455014       -12.3816
  60   2.0000      -0.448751       -12.2111
  61   2.0000      -0.441985       -12.0270
  62   2.0000      -0.433487       -11.7958
  63   2.0000      -0.425654       -11.5826
  64   2.0000      -0.419642       -11.4190
  65   2.0000      -0.409983       -11.1562
  66   2.0000      -0.400759       -10.9052
  67   2.0000      -0.399146       -10.8613
  68   2.0000      -0.394823       -10.7437
  69   2.0000      -0.393412       -10.7053
  70   2.0000      -0.337373        -9.1804
  71   2.0000      -0.248116        -6.7516
  72   0.0000       0.071273         1.9394
  73   0.0000       0.090474         2.4619
  74   0.0000       0.095449         2.5973
  75   0.0000       0.097198         2.6449
  76   0.0000       0.109110         2.9690

MULLIKEN ATOMIC CHARGES
-----------------------
   0 C :    0.968491
   1 N :    0.214547
   2 C :    0.098984
   3 C :    0.141127
   4 H :    0.125426
   5 H :    0.129507
   6 S :    1.680898
   7 C :    0.795405
   8 C :    0.622302
   9 N :    0.157163
  10 H :   -0.006119
  11 H :   -0.143385
  12 H :   -1.069887
  13 H :   -0.436925
  14 H :   -0.665299
  15 O :   -0.727546
  16 F :   -0.535498
  17 C :    0.270627
  18 H :   -0.245786
  19 H :   -0.132995
  20 C :   -0.023020
  21 C :    0.200828
  22 H :    0.071593
  23 H :   -0.516506
  24 H :   -0.030442
  25 H :    0.065387
  26 C :    0.115492
  27 H :   -0.133975
  28 H :   -0.038760
  29 C :   -0.188720
  30 H :   -0.140959
  31 H :   -0.129284
  32 C :    0.610152
  33 H :   -0.314571
  34 H :    0.170866
  35 H :    0.127228
  36 H :   -0.297585
  37 H :   -0.015936
  38 H :    0.029904
  39 O :   -0.802726
Sum of atomic charges:    0.0000000

LOEWDIN ATOMIC CHARGES
----------------------
   0 C :    0.066380
   1 N :    0.007999
   2 C :   -0.015309
   3 C :   -0.029243
   4 H :    0.044171
   5 H :    0.039827
   6 S :    1.213697
   7 C :   -0.228454
   8 C :    0.134478
   9 N :    0.198594
  10 H :   -0.012814
  11 H :    0.011796
  12 H :   -0.092535
  13 H :   -0.211413
  14 H :   -0.108929
  15 O :   -0.479333
  16 F :   -0.221270
  17 C :   -0.022971
  18 H :    0.021914
  19 H :    0.017859
  20 C :   -0.035626
  21 C :   -0.026654
  22 H :    0.045601
  23 H :   -0.018049
  24 H :    0.048863
  25 H :    0.030142
  26 C :   -0.034085
  27 H :    0.024852
  28 H :    0.008849
  29 C :   -0.038551
  30 H :    0.027937
  31 H :    0.006417
  32 C :   -0.032193
  33 H :    0.025727
  34 H :    0.007918
  35 H :    0.019366
  36 H :    0.027079
  37 H :    0.023728
  38 H :    0.023892
  39 O :   -0.469658

  Mayer bond orders larger than 0.100000
B(  0-C ,  1-N ) :   0.9221 B(  0-C , 12-H ) :  -0.5021 B(  0-C , 17-C ) :   1.1173
B(  0-C , 18-H ) :   0.6827 B(  0-C , 19-H ) :   0.8731 B(  0-C , 27-H ) :   0.1032
B(  1-N ,  7-C ) :   1.1727 B(  1-N ,  8-C ) :   0.1344 B(  1-N ,  9-N ) :   0.2876
B(  1-N , 12-H ) :   0.9389 B(  1-N , 18-H ) :   0.2379 B(  2-C ,  3-C ) :   1.2809
B(  2-C ,  5-H ) :   0.2463 B(  2-C , 20-C ) :   0.1009 B(  2-C , 21-C ) :   1.1364
B(  2-C , 22-H ) :   0.1023 B(  2-C , 24-H ) :   0.8581 B(  2-C , 25-H ) :   0.8712
B(  3-C ,  4-H ) :   0.9121 B(  3-C ,  5-H ) :   0.7076 B(  3-C ,  6-S ) :   1.0083
B(  3-C , 16-F ) :   0.1110 B(  3-C , 25-H ) :   0.1030 B(  6-S , 15-O ) :   1.3847
B(  6-S , 16-F ) :   0.4661 B(  6-S , 39-O ) :   1.3075 B(  7-C ,  8-C ) :   1.4542
B(  7-C ,  9-N ) :   0.8583 B(  7-C , 12-H ) :  -0.7023 B(  7-C , 14-H ) :   0.1221
B(  8-C ,  9-N ) :   0.2809 B(  8-C , 13-H ) :   0.4641 B(  8-C , 14-H ) :   0.7892
B(  9-N , 10-H ) :   0.9478 B(  9-N , 11-H ) :   1.2085 B( 10-H , 11-H ) :  -0.1805
B( 12-H , 39-O ) :   0.1579 B( 13-H , 14-H ) :  -0.1734 B( 13-H , 15-O ) :   0.1716
B( 16-F , 39-O ) :   0.1027 B( 17-C , 18-H ) :   0.1185 B( 17-C , 19-H ) :   0.1083
B( 17-C , 26-C ) :   1.2052 B( 17-C , 27-H ) :   0.9408 B( 17-C , 28-H ) :   0.7451
B( 17-C , 31-H ) :   0.1040 B( 18-H , 19-H ) :  -0.1620 B( 20-C , 21-C ) :   1.2282
B( 20-C , 22-H ) :   0.1066 B( 20-C , 32-C ) :   1.1386 B( 20-C , 35-H ) :   0.8586
B( 20-C , 36-H ) :   0.9818 B( 20-C , 37-H ) :   0.1076 B( 20-C , 38-H ) :   0.2041
B( 21-C , 22-H ) :   0.7288 B( 21-C , 23-H ) :   0.8375 B( 21-C , 24-H ) :   0.1788
B( 21-C , 36-H ) :   0.1920 B( 22-H , 23-H ) :   0.2155 B( 23-H , 34-H ) :   0.1185
B( 26-C , 28-H ) :   0.2015 B( 26-C , 29-C ) :   1.2141 B( 26-C , 30-H ) :   0.8885
B( 26-C , 31-H ) :   0.9194 B( 26-C , 33-H ) :   0.1368 B( 29-C , 30-H ) :   0.1449
B( 29-C , 31-H ) :   0.1147 B( 29-C , 32-C ) :   1.1420 B( 29-C , 33-H ) :   1.0592
B( 29-C , 34-H ) :   0.8328 B( 29-C , 37-H ) :   0.2654 B( 29-C , 38-H ) :   0.1332
B( 32-C , 37-H ) :   0.6949 B( 32-C , 38-H ) :   0.7138

Dispersion correction           -0.022008519
FINAL SINGLE POINT ENERGY     -1190.052622823397

DIPOLE MOMENT
-------------
                                X             Y             Z
Electronic contribution:    -20.87717       2.03831     -19.86594
Nuclear contribution   :     20.03262      -4.53368      20.24480
                        -----------------------------------------
Total Dipole Moment    :     -0.84455      -2.49537       0.37886
                        -----------------------------------------
Magnitude (a.u.)       :      2.66152
Magnitude (Debye)      :      6.76504

Rotational constants in cm-1:     0.014367     0.012055     0.007393
Rotational constants in MHz :   430.711297   361.391195   221.649333

                             ****ORCA TERMINATED NORMALLY****
TOTAL RUN TIME: 0 days 0 hours 2 minutes 11 seconds 955 msec
