                         Program Version 5.0.0 -  RELEASE  -
|  1> !DLPNO-CCSD(T) aug-cc-pVTZ aug-cc-pVTZ/C TightSCF TightPNO RIJCOSX def2/J
|  2> *xyz -1 1
|  3> C          4.93020       -7.37532       -2.64962
|  4> C          3.84189       -6.95161       -3.63283
|  5> H          3.45814       -5.95442       -3.40712
|  6> H          2.98848       -7.64361       -3.56708
|  7> S          4.31812       -6.91593       -5.36869
|  8> O          5.40615       -5.89948       -5.51297
|  9> O          3.11191       -6.44508       -6.04379
| 10> O          4.76340       -8.23942       -5.69863
| 11> H          5.27901       -8.35440       -2.90385
| 12> H          4.53000       -7.38577       -1.65734
| 13> H          5.74437       -6.68276       -2.69856
| 14> *
| 15>
| 16> %MaxCore 64000
| 17>
| 18> %pal nprocs 18
| 19> end
| 20>
| 21> %scf
| 22>   MaxIter 150
| 23> end
| 24>
| 25>
| 26>                          ****END OF INPUT****

CARTESIAN COORDINATES (ANGSTROEM)
---------------------------------
  C      4.930200   -7.375320   -2.649620
  C      3.841890   -6.951610   -3.632830
  H      3.458140   -5.954420   -3.407120
  H      2.988480   -7.643610   -3.567080
  S      4.318120   -6.915930   -5.368690
  O      5.406150   -5.899480   -5.512970
  O      3.111910   -6.445080   -6.043790
  O      4.763400   -8.239420   -5.698630
  H      5.279010   -8.354400   -2.903850
  H      4.530000   -7.385770   -1.657340
  H      5.744370   -6.682760   -2.698560

 Total Charge           Charge          ....   -1
 Multiplicity           Mult            ....    1
 Number of Electrons    NEL             ....   58
 Basis Dimension        Dim             ....  395

ORBITAL ENERGIES
----------------

  NO   OCC          E(Eh)            E(eV)
   0   2.0000     -91.983747     -2503.0050
   1   2.0000     -20.336980      -553.3974
   2   2.0000     -20.327195      -553.1311
   3   2.0000     -20.319815      -552.9303
   4   2.0000     -11.098119      -301.9952
   5   2.0000     -11.085766      -301.6590
   6   2.0000      -8.946910      -243.4578
   7   2.0000      -6.633007      -180.4933
   8   2.0000      -6.631783      -180.4600
   9   2.0000      -6.631698      -180.4577
  10   2.0000      -1.269998       -34.5584
  11   2.0000      -1.130383       -30.7593
  12   2.0000      -1.097250       -29.8577
  13   2.0000      -0.908809       -24.7300
  14   2.0000      -0.748828       -20.3766
  15   2.0000      -0.597994       -16.2722
  16   2.0000      -0.500477       -13.6187
  17   2.0000      -0.493150       -13.4193
  18   2.0000      -0.457161       -12.4400
  19   2.0000      -0.446633       -12.1535
  20   2.0000      -0.426178       -11.5969
  21   2.0000      -0.385813       -10.4985
  22   2.0000      -0.368699       -10.0328
  23   2.0000      -0.322378        -8.7723
  24   2.0000      -0.317217        -8.6319
  25   2.0000      -0.279119        -7.5952
  26   2.0000      -0.262308        -7.1378
  27   2.0000      -0.250190        -6.8080
  28   2.0000      -0.227553        -6.1920
  29   0.0000       0.112554         3.0627
  30   0.0000       0.132011         3.5922
  31   0.0000       0.133992         3.6461
  32   0.0000       0.145481         3.9588
  33   0.0000       0.154451         4.2028

MULLIKEN ATOMIC CHARGES
-----------------------
   0 C :   -0.975139
   1 C :   -0.552398
   2 H :    0.287701
   3 H :    0.261732
   4 S :    2.140101
   5 O :   -1.022450
   6 O :   -1.031295
   7 O :   -1.028217
   8 H :    0.314938
   9 H :    0.288716
  10 H :    0.316312
Sum of atomic charges:   -1.0000000

LOEWDIN ATOMIC CHARGES
----------------------
   0 C :    0.532536
   1 C :    0.110344
   2 H :   -0.211036
   3 H :   -0.203000
   4 S :   -0.403718
   5 O :   -0.093778
   6 O :   -0.069447
   7 O :   -0.048872
   8 H :   -0.204282
   9 H :   -0.206469
  10 H :   -0.202279

  Mayer bond orders larger than 0.100000
B(  0-C ,  1-C ) :   0.8988 B(  0-C ,  8-H ) :   0.9202 B(  0-C ,  9-H ) :   0.9537
B(  0-C , 10-H ) :   0.9156 B(  1-C ,  2-H ) :   0.9157 B(  1-C ,  3-H ) :   0.9263
B(  1-C ,  4-S ) :   0.7914 B(  4-S ,  5-O ) :   1.3143 B(  4-S ,  6-O ) :   1.3423
B(  4-S ,  7-O ) :   1.3966

E(0)                                       ...   -700.923566342
E(0)                                       ...   -700.923566342
E(CORR)(strong-pairs)                      ...     -1.302744979
E(CORR)(weak-pairs)                        ...     -0.001269665
E(CORR)(corrected)                         ...     -1.304014644
E(TOT)                                     ...   -702.227580985
E(CCSD(T))                                 ...   -702.283384582
FINAL SINGLE POINT ENERGY      -702.283384582268

DIPOLE MOMENT
-------------
                                X             Y             Z
Electronic contribution:     -0.39653       0.77316      -7.58136
Nuclear contribution   :      0.07504      -1.14369       9.75001
                        -----------------------------------------
Total Dipole Moment    :     -0.32149      -0.37053       2.16864
                        -----------------------------------------
Magnitude (a.u.)       :      2.22343
Magnitude (Debye)      :      5.65152

Rotational constants in cm-1:     0.160553     0.082191     0.080550
Rotational constants in MHz :  4813.250478  2464.013016  2414.833054

                             ****ORCA TERMINATED NORMALLY****
TOTAL RUN TIME: 0 days 0 hours 6 minutes 12 seconds 855 msec
