                         Program Version 5.0.0 -  RELEASE  -
|  1> !DLPNO-CCSD(T) aug-cc-pVTZ aug-cc-pVTZ/C TightSCF TightPNO RIJCOSX def2/J
|  2> *xyz 1 1
|  3> C          5.55821       -1.99291       -6.21505
|  4> C          4.18188       -2.58967       -6.29891
|  5> N          3.14587       -1.76843       -6.48675
|  6> N          4.01910       -3.86431       -6.22743
|  7> H          4.76849       -4.59115       -5.99077
|  8> H          3.12241       -4.33339       -6.31462
|  9> H          3.28164       -0.77779       -6.56655
| 10> H          2.21255       -2.13419       -6.56225
| 11> C          6.41926       -2.54294       -5.07763
| 12> H          6.03683       -2.19819       -7.17685
| 13> H          5.46761       -0.90737       -6.12797
| 14> H          6.50056       -3.60553       -5.17358
| 15> H          5.96544       -2.30329       -4.13874
| 16> H          7.39438       -2.10494       -5.12457
| 17> *
| 18>
| 19> %MaxCore 64000
| 20>
| 21> %pal nprocs 18
| 22> end
| 23>
| 24> %scf
| 25>   MaxIter 150
| 26> end
| 27>
| 28>
| 29>                          ****END OF INPUT****

CARTESIAN COORDINATES (ANGSTROEM)
---------------------------------
  C      5.558210   -1.992910   -6.215050
  C      4.181880   -2.589670   -6.298910
  N      3.145870   -1.768430   -6.486750
  N      4.019100   -3.864310   -6.227430
  H      4.768490   -4.591150   -5.990770
  H      3.122410   -4.333390   -6.314620
  H      3.281640   -0.777790   -6.566550
  H      2.212550   -2.134190   -6.562250
  C      6.419260   -2.542940   -5.077630
  H      6.036830   -2.198190   -7.176850
  H      5.467610   -0.907370   -6.127970
  H      6.500560   -3.605530   -5.173580
  H      5.965440   -2.303290   -4.138740
  H      7.394380   -2.104940   -5.124570

 Total Charge           Charge          ....    1
 Multiplicity           Mult            ....    1
 Number of Electrons    NEL             ....   40
 Basis Dimension        Dim             ....  437

ORBITAL ENERGIES
----------------

  NO   OCC          E(Eh)            E(eV)
   0   2.0000     -15.813212      -430.2994
   1   2.0000     -15.800137      -429.9436
   2   2.0000     -11.571006      -314.8631
   3   2.0000     -11.424963      -310.8891
   4   2.0000     -11.379294      -309.6463
   5   2.0000      -1.521928       -41.4138
   6   2.0000      -1.400533       -38.1104
   7   2.0000      -1.238765       -33.7085
   8   2.0000      -1.098077       -29.8802
   9   2.0000      -1.027156       -27.9503
  10   2.0000      -0.957175       -26.0461
  11   2.0000      -0.933463       -25.4008
  12   2.0000      -0.864689       -23.5294
  13   2.0000      -0.817882       -22.2557
  14   2.0000      -0.784150       -21.3378
  15   2.0000      -0.761435       -20.7197
  16   2.0000      -0.697555       -18.9814
  17   2.0000      -0.687795       -18.7159
  18   2.0000      -0.672453       -18.2984
  19   2.0000      -0.626903       -17.0589
  20   0.0000      -0.097578        -2.6552
  21   0.0000      -0.076105        -2.0709
  22   0.0000      -0.072271        -1.9666
  23   0.0000      -0.064965        -1.7678
  24   0.0000      -0.050464        -1.3732

MULLIKEN ATOMIC CHARGES
-----------------------
   0 C :   -0.081566
   1 C :    0.555374
   2 N :   -0.356554
   3 N :   -0.353878
   4 H :    0.184475
   5 H :    0.156433
   6 H :    0.111748
   7 H :    0.149799
   8 C :   -0.928547
   9 H :    0.295000
  10 H :    0.325338
  11 H :    0.312501
  12 H :    0.317322
  13 H :    0.312555
Sum of atomic charges:    1.0000000

LOEWDIN ATOMIC CHARGES
----------------------
   0 C :    0.342607
   1 C :   -0.222572
   2 N :    0.955855
   3 N :    0.910525
   4 H :   -0.157115
   5 H :   -0.223662
   6 H :   -0.249967
   7 H :   -0.241748
   8 C :    0.646097
   9 H :   -0.119860
  10 H :   -0.136467
  11 H :   -0.188321
  12 H :   -0.161561
  13 H :   -0.153811

  Mayer bond orders larger than 0.100000
B(  0-C ,  1-C ) :   0.4346 B(  0-C ,  8-C ) :   0.8610 B(  0-C ,  9-H ) :   0.9361
B(  0-C , 10-H ) :   0.8950 B(  1-C ,  2-N ) :   1.0132 B(  1-C ,  3-N ) :   1.0473
B(  2-N ,  3-N ) :  -0.1433 B(  2-N ,  6-H ) :   1.1133 B(  2-N ,  7-H ) :   1.0848
B(  3-N ,  4-H ) :   1.0626 B(  3-N ,  5-H ) :   1.0732 B(  8-C , 11-H ) :   0.9224
B(  8-C , 12-H ) :   0.9168 B(  8-C , 13-H ) :   0.9619

E(0)                                       ...   -227.638840040
E(0)                                       ...   -227.638840040
E(CORR)(strong-pairs)                      ...     -0.969902269
E(CORR)(weak-pairs)                        ...     -0.000933098
E(CORR)(corrected)                         ...     -0.970835367
E(TOT)                                     ...   -228.609675406
E(CCSD(T))                                 ...   -228.648135376
FINAL SINGLE POINT ENERGY      -228.648135375947

DIPOLE MOMENT
-------------
                                X             Y             Z
Electronic contribution:     -3.71064      -0.46973      -1.55344
Nuclear contribution   :      2.76041       0.12669       1.26265
                        -----------------------------------------
Total Dipole Moment    :     -0.95022      -0.34304      -0.29079
                        -----------------------------------------
Magnitude (a.u.)       :      1.05127
Magnitude (Debye)      :      2.67211

Rotational constants in cm-1:     0.280918     0.124524     0.094121
Rotational constants in MHz :  8421.697738  3733.133254  2821.684112

                             ****ORCA TERMINATED NORMALLY****
TOTAL RUN TIME: 0 days 0 hours 6 minutes 28 seconds 703 msec
