                         Program Version 5.0.0 -  RELEASE  -
|  1> !DLPNO-CCSD(T) aug-cc-pVTZ aug-cc-pVTZ/C TightSCF TightPNO RIJCOSX def2/J
|  2> *xyz 0 1
|  3> C          4.93020       -7.37532       -2.64962
|  4> C          3.84189       -6.95161       -3.63283
|  5> H          3.45814       -5.95442       -3.40712
|  6> H          2.98848       -7.64361       -3.56708
|  7> S          4.31812       -6.91593       -5.36869
|  8> F          5.40615       -5.89948       -5.51297
|  9> O          3.11191       -6.44508       -6.04379
| 10> O          4.76340       -8.23942       -5.69863
| 11> H          5.27901       -8.35440       -2.90385
| 12> H          4.53000       -7.38577       -1.65734
| 13> H          5.74437       -6.68276       -2.69856
| 14> *
| 15>
| 16> %MaxCore 64000
| 17>
| 18> %pal nprocs 18
| 19> end
| 20>
| 21> %scf
| 22>   MaxIter 150
| 23> end
| 24>
| 25>
| 26>                          ****END OF INPUT****

CARTESIAN COORDINATES (ANGSTROEM)
---------------------------------
  C      4.930200   -7.375320   -2.649620
  C      3.841890   -6.951610   -3.632830
  H      3.458140   -5.954420   -3.407120
  H      2.988480   -7.643610   -3.567080
  S      4.318120   -6.915930   -5.368690
  F      5.406150   -5.899480   -5.512970
  O      3.111910   -6.445080   -6.043790
  O      4.763400   -8.239420   -5.698630
  H      5.279010   -8.354400   -2.903850
  H      4.530000   -7.385770   -1.657340
  H      5.744370   -6.682760   -2.698560

 Total Charge           Charge          ....    0
 Multiplicity           Mult            ....    1
 Number of Electrons    NEL             ....   58
 Basis Dimension        Dim             ....  395

ORBITAL ENERGIES
----------------

  NO   OCC          E(Eh)            E(eV)
   0   2.0000     -92.250865     -2510.2736
   1   2.0000     -26.409878      -718.6493
   2   2.0000     -20.573651      -559.8375
   3   2.0000     -20.563235      -559.5541
   4   2.0000     -11.300281      -307.4963
   5   2.0000     -11.251023      -306.1559
   6   2.0000      -9.213886      -250.7226
   7   2.0000      -6.901394      -187.7965
   8   2.0000      -6.897656      -187.6948
   9   2.0000      -6.896611      -187.6663
  10   2.0000      -1.756997       -47.8103
  11   2.0000      -1.462984       -39.8098
  12   2.0000      -1.358886       -36.9772
  13   2.0000      -1.101729       -29.9796
  14   2.0000      -0.971346       -26.4317
  15   2.0000      -0.906721       -24.6731
  16   2.0000      -0.804513       -21.8919
  17   2.0000      -0.798464       -21.7273
  18   2.0000      -0.758150       -20.6303
  19   2.0000      -0.675851       -18.3908
  20   2.0000      -0.664820       -18.0907
  21   2.0000      -0.643002       -17.4970
  22   2.0000      -0.603778       -16.4296
  23   2.0000      -0.572876       -15.5888
  24   2.0000      -0.563173       -15.3247
  25   2.0000      -0.540680       -14.7127
  26   2.0000      -0.508240       -13.8299
  27   2.0000      -0.487829       -13.2745
  28   2.0000      -0.481362       -13.0985
  29   0.0000       0.022333         0.6077
  30   0.0000       0.036897         1.0040
  31   0.0000       0.038651         1.0518
  32   0.0000       0.047704         1.2981
  33   0.0000       0.061593         1.6760

MULLIKEN ATOMIC CHARGES
-----------------------
   0 C :   -0.959677
   1 C :   -0.506940
   2 H :    0.322821
   3 H :    0.316217
   4 S :    2.141963
   5 F :   -0.510623
   6 O :   -0.887651
   7 O :   -0.883494
   8 H :    0.331854
   9 H :    0.322242
  10 H :    0.313290
Sum of atomic charges:    0.0000000

LOEWDIN ATOMIC CHARGES
----------------------
   0 C :    0.571068
   1 C :    0.168244
   2 H :   -0.194099
   3 H :   -0.169125
   4 S :   -0.105997
   5 F :    0.241911
   6 O :    0.016115
   7 O :    0.034169
   8 H :   -0.191550
   9 H :   -0.179579
  10 H :   -0.191157

  Mayer bond orders larger than 0.100000
B(  0-C ,  1-C ) :   0.9045 B(  0-C ,  8-H ) :   0.9059 B(  0-C ,  9-H ) :   0.9346
B(  0-C , 10-H ) :   0.9200 B(  1-C ,  2-H ) :   0.8926 B(  1-C ,  3-H ) :   0.8844
B(  1-C ,  4-S ) :   0.8774 B(  4-S ,  5-F ) :   0.5539 B(  4-S ,  6-O ) :   1.5342
B(  4-S ,  7-O ) :   1.5829

E(0)                                       ...   -725.439105694
E(0)                                       ...   -725.439105694
E(CORR)(strong-pairs)                      ...     -1.306827612
E(CORR)(weak-pairs)                        ...     -0.001243904
E(CORR)(corrected)                         ...     -1.308071516
E(TOT)                                     ...   -726.747177210
E(CCSD(T))                                 ...   -726.800291578
FINAL SINGLE POINT ENERGY      -726.800291578362

DIPOLE MOMENT
-------------
                                X             Y             Z
Electronic contribution:      1.35056       2.67972      -8.56526
Nuclear contribution   :     -0.98922      -2.24849      10.35711
                        -----------------------------------------
Total Dipole Moment    :      0.36134       0.43123       1.79185
                        -----------------------------------------
Magnitude (a.u.)       :      1.87809
Magnitude (Debye)      :      4.77374

Rotational constants in cm-1:     0.151436     0.080885     0.078670
Rotational constants in MHz :  4539.936009  2424.868817  2358.476812

                             ****ORCA TERMINATED NORMALLY****
TOTAL RUN TIME: 0 days 0 hours 6 minutes 23 seconds 344 msec
