                         Program Version 5.0.0 -  RELEASE  -
|  1> !DLPNO-CCSD(T) aug-cc-pVTZ aug-cc-pVTZ/C TightSCF TightPNO RIJCOSX def2/J
|  2> *xyz 0 1
|  3> C          5.55821       -1.99291       -6.21505
|  4> C          4.18188       -2.58967       -6.29891
|  5> C          3.14587       -1.76843       -6.48675
|  6> N          4.01910       -3.86431       -6.22743
|  7> H          4.76849       -4.59115       -5.99077
|  8> H          3.12241       -4.33339       -6.31462
|  9> H          3.28164       -0.77779       -6.56655
| 10> H          2.21255       -2.13419       -6.56225
| 11> C          6.41926       -2.54294       -5.07763
| 12> H          6.03683       -2.19819       -7.17685
| 13> H          5.46761       -0.90737       -6.12797
| 14> H          6.50056       -3.60553       -5.17358
| 15> H          5.96544       -2.30329       -4.13874
| 16> H          7.39438       -2.10494       -5.12457
| 17> *
| 18>
| 19> %MaxCore 64000
| 20>
| 21> %pal nprocs 18
| 22> end
| 23>
| 24> %scf
| 25>   MaxIter 150
| 26> end
| 27>
| 28>
| 29>                          ****END OF INPUT****

CARTESIAN COORDINATES (ANGSTROEM)
---------------------------------
  C      5.558210   -1.992910   -6.215050
  C      4.181880   -2.589670   -6.298910
  C      3.145870   -1.768430   -6.486750
  N      4.019100   -3.864310   -6.227430
  H      4.768490   -4.591150   -5.990770
  H      3.122410   -4.333390   -6.314620
  H      3.281640   -0.777790   -6.566550
  H      2.212550   -2.134190   -6.562250
  C      6.419260   -2.542940   -5.077630
  H      6.036830   -2.198190   -7.176850
  H      5.467610   -0.907370   -6.127970
  H      6.500560   -3.605530   -5.173580
  H      5.965440   -2.303290   -4.138740
  H      7.394380   -2.104940   -5.124570

 Total Charge           Charge          ....    0
 Multiplicity           Mult            ....    1
 Number of Electrons    NEL             ....   40
 Basis Dimension        Dim             ....  437

ORBITAL ENERGIES
----------------

  NO   OCC          E(Eh)            E(eV)
   0   2.0000     -15.568987      -423.6537
   1   2.0000     -11.257652      -306.3363
   2   2.0000     -11.224774      -305.4416
   3   2.0000     -11.212370      -305.1041
   4   2.0000     -11.147073      -303.3273
   5   2.0000      -1.244814       -33.8731
   6   2.0000      -1.050066       -28.5738
   7   2.0000      -0.978388       -26.6233
   8   2.0000      -0.863398       -23.4943
   9   2.0000      -0.783981       -21.3332
  10   2.0000      -0.692643       -18.8478
  11   2.0000      -0.649128       -17.6637
  12   2.0000      -0.609698       -16.5907
  13   2.0000      -0.582678       -15.8555
  14   2.0000      -0.553081       -15.0501
  15   2.0000      -0.535918       -14.5831
  16   2.0000      -0.505410       -13.7529
  17   2.0000      -0.479755       -13.0548
  18   2.0000      -0.475034       -12.9263
  19   2.0000      -0.283764        -7.7216
  20   0.0000       0.026172         0.7122
  21   0.0000       0.035290         0.9603
  22   0.0000       0.040941         1.1141
  23   0.0000       0.043983         1.1968
  24   0.0000       0.054737         1.4895

MULLIKEN ATOMIC CHARGES
-----------------------
   0 C :   -0.113422
   1 C :    0.609329
   2 C :   -1.374142
   3 N :   -0.591334
   4 H :    0.125802
   5 H :    0.049138
   6 H :    0.167143
   7 H :    0.607999
   8 C :   -0.949519
   9 H :    0.279012
  10 H :    0.287546
  11 H :    0.315496
  12 H :    0.307938
  13 H :    0.279014
Sum of atomic charges:    0.0000000

LOEWDIN ATOMIC CHARGES
----------------------
   0 C :    0.276622
   1 C :   -0.321033
   2 C :    0.565915
   3 N :    0.802420
   4 H :   -0.207937
   5 H :   -0.262109
   6 H :   -0.311173
   7 H :   -0.300251
   8 C :    0.607534
   9 H :   -0.140573
  10 H :   -0.153410
  11 H :   -0.202553
  12 H :   -0.174078
  13 H :   -0.179376

  Mayer bond orders larger than 0.100000
B(  0-C ,  1-C ) :   0.5232 B(  0-C ,  3-N ) :  -0.1089 B(  0-C ,  8-C ) :   0.8606
B(  0-C ,  9-H ) :   0.9677 B(  0-C , 10-H ) :   0.9432 B(  1-C ,  2-C ) :   1.1564
B(  1-C ,  3-N ) :   0.8770 B(  2-C ,  3-N ) :  -0.2937 B(  2-C ,  6-H ) :   1.4119
B(  2-C ,  7-H ) :   0.5049 B(  3-N ,  4-H ) :   1.1264 B(  3-N ,  5-H ) :   1.1732
B(  8-C , 11-H ) :   0.9308 B(  8-C , 12-H ) :   0.9309 B(  8-C , 13-H ) :   0.9959

E(0)                                       ...   -211.195957296
E(0)                                       ...   -211.195957296
E(CORR)(strong-pairs)                      ...     -0.951059776
E(CORR)(weak-pairs)                        ...     -0.000923725
E(CORR)(corrected)                         ...     -0.951983501
E(TOT)                                     ...   -212.147940796
E(CCSD(T))                                 ...   -212.186749826
FINAL SINGLE POINT ENERGY      -212.186749825989

DIPOLE MOMENT
-------------
                                X             Y             Z
Electronic contribution:     -1.96674      -1.07258      -1.00952
Nuclear contribution   :      2.41345       0.31141       1.16343
                        -----------------------------------------
Total Dipole Moment    :      0.44671      -0.76117       0.15392
                        -----------------------------------------
Magnitude (a.u.)       :      0.89589
Magnitude (Debye)      :      2.27717

Rotational constants in cm-1:     0.287957     0.129204     0.097498
Rotational constants in MHz :  8632.737925  3873.424745  2922.919500

                             ****ORCA TERMINATED NORMALLY****
TOTAL RUN TIME: 0 days 0 hours 7 minutes 51 seconds 286 msec
