                         Program Version 5.0.0 -  RELEASE  -
|  1> !DLPNO-CCSD(T) aug-cc-pVTZ aug-cc-pVTZ/C TightSCF TightPNO RIJCOSX def2/J
|  2> *xyz 0 1
|  3> C          4.93020       -7.37532       -2.64962
|  4> C          3.84189       -6.95161       -3.63283
|  5> H          3.45814       -5.95442       -3.40712
|  6> H          2.98848       -7.64361       -3.56708
|  7> S          4.31812       -6.91593       -5.36869
|  8> O          5.40615       -5.89948       -5.51297
|  9> F          3.11191       -6.44508       -6.04379
| 10> O          4.76340       -8.23942       -5.69863
| 11> H          5.27901       -8.35440       -2.90385
| 12> H          4.53000       -7.38577       -1.65734
| 13> H          5.74437       -6.68276       -2.69856
| 14> *
| 15>
| 16> %MaxCore 64000
| 17>
| 18> %pal nprocs 18
| 19> end
| 20>
| 21> %scf
| 22>   MaxIter 150
| 23> end
| 24>
| 25>
| 26>                          ****END OF INPUT****

CARTESIAN COORDINATES (ANGSTROEM)
---------------------------------
  C      4.930200   -7.375320   -2.649620
  C      3.841890   -6.951610   -3.632830
  H      3.458140   -5.954420   -3.407120
  H      2.988480   -7.643610   -3.567080
  S      4.318120   -6.915930   -5.368690
  O      5.406150   -5.899480   -5.512970
  F      3.111910   -6.445080   -6.043790
  O      4.763400   -8.239420   -5.698630
  H      5.279010   -8.354400   -2.903850
  H      4.530000   -7.385770   -1.657340
  H      5.744370   -6.682760   -2.698560

 Total Charge           Charge          ....    0
 Multiplicity           Mult            ....    1
 Number of Electrons    NEL             ....   58
 Basis Dimension        Dim             ....  395

ORBITAL ENERGIES
----------------

  NO   OCC          E(Eh)            E(eV)
   0   2.0000     -92.252001     -2510.3046
   1   2.0000     -26.425338      -719.0700
   2   2.0000     -20.573437      -559.8317
   3   2.0000     -20.555395      -559.3407
   4   2.0000     -11.301308      -307.5242
   5   2.0000     -11.248827      -306.0961
   6   2.0000      -9.215195      -250.7582
   7   2.0000      -6.902696      -187.8319
   8   2.0000      -6.898806      -187.7260
   9   2.0000      -6.897963      -187.7031
  10   2.0000      -1.786454       -48.6119
  11   2.0000      -1.455112       -39.5956
  12   2.0000      -1.337890       -36.4058
  13   2.0000      -1.101458       -29.9722
  14   2.0000      -0.988036       -26.8858
  15   2.0000      -0.908604       -24.7244
  16   2.0000      -0.819655       -22.3040
  17   2.0000      -0.812565       -22.1110
  18   2.0000      -0.766884       -20.8680
  19   2.0000      -0.674259       -18.3475
  20   2.0000      -0.670403       -18.2426
  21   2.0000      -0.625246       -17.0138
  22   2.0000      -0.596607       -16.2345
  23   2.0000      -0.569095       -15.4859
  24   2.0000      -0.553467       -15.0606
  25   2.0000      -0.545352       -14.8398
  26   2.0000      -0.500772       -13.6267
  27   2.0000      -0.478584       -13.0229
  28   2.0000      -0.474375       -12.9084
  29   0.0000       0.022370         0.6087
  30   0.0000       0.036872         1.0033
  31   0.0000       0.039055         1.0627
  32   0.0000       0.050035         1.3615
  33   0.0000       0.063539         1.7290

MULLIKEN ATOMIC CHARGES
-----------------------
   0 C :   -0.932726
   1 C :   -0.524438
   2 H :    0.316531
   3 H :    0.297803
   4 S :    2.102415
   5 O :   -0.871631
   6 F :   -0.495127
   7 O :   -0.878471
   8 H :    0.329855
   9 H :    0.324081
  10 H :    0.331706
Sum of atomic charges:   -0.0000000

LOEWDIN ATOMIC CHARGES
----------------------
   0 C :    0.582490
   1 C :    0.167326
   2 H :   -0.194882
   3 H :   -0.186977
   4 S :   -0.112160
   5 O :   -0.006906
   6 F :    0.270862
   7 O :    0.032721
   8 H :   -0.188290
   9 H :   -0.177990
  10 H :   -0.186193

  Mayer bond orders larger than 0.100000
B(  0-C ,  1-C ) :   0.9011 B(  0-C ,  8-H ) :   0.9092 B(  0-C ,  9-H ) :   0.9223
B(  0-C , 10-H ) :   0.9039 B(  1-C ,  2-H ) :   0.8869 B(  1-C ,  3-H ) :   0.8925
B(  1-C ,  4-S ) :   0.8693 B(  4-S ,  5-O ) :   1.5091 B(  4-S ,  6-F ) :   0.5729
B(  4-S ,  7-O ) :   1.5935

E(0)                                       ...   -725.427885755
E(0)                                       ...   -725.427885755
E(CORR)(strong-pairs)                      ...     -1.307362608
E(CORR)(weak-pairs)                        ...     -0.001249752
E(CORR)(corrected)                         ...     -1.308612360
E(TOT)                                     ...   -726.736498115
E(CCSD(T))                                 ...   -726.789803185
FINAL SINGLE POINT ENERGY      -726.789803184657

DIPOLE MOMENT
-------------
                                X             Y             Z
Electronic contribution:     -2.72310       1.70337      -9.52474
Nuclear contribution   :      1.40145      -1.67996      10.91024
                        -----------------------------------------
Total Dipole Moment    :     -1.32165       0.02341       1.38550
                        -----------------------------------------
Magnitude (a.u.)       :      1.91492
Magnitude (Debye)      :      4.86734

Rotational constants in cm-1:     0.155875     0.079864     0.077188
Rotational constants in MHz :  4673.017506  2394.277415  2314.027118

                             ****ORCA TERMINATED NORMALLY****
TOTAL RUN TIME: 0 days 0 hours 6 minutes 23 seconds 872 msec
