                         Program Version 5.0.0 -  RELEASE  -
|  1> !DLPNO-CCSD(T) aug-cc-pVTZ aug-cc-pVTZ/C TightSCF TightPNO RIJCOSX def2/J
|  2> *xyz 0 1
|  3> C          5.55821       -1.99291       -6.21505
|  4> C          4.18188       -2.58967       -6.29891
|  5> N          3.14587       -1.76843       -6.48675
|  6> C          4.01910       -3.86431       -6.22743
|  7> H          4.76849       -4.59115       -5.99077
|  8> H          3.12241       -4.33339       -6.31462
|  9> H          3.28164       -0.77779       -6.56655
| 10> H          2.21255       -2.13419       -6.56225
| 11> C          6.41926       -2.54294       -5.07763
| 12> H          6.03683       -2.19819       -7.17685
| 13> H          5.46761       -0.90737       -6.12797
| 14> H          6.50056       -3.60553       -5.17358
| 15> H          5.96544       -2.30329       -4.13874
| 16> H          7.39438       -2.10494       -5.12457
| 17> *
| 18>
| 19> %MaxCore 64000
| 20>
| 21> %pal nprocs 18
| 22> end
| 23>
| 24> %scf
| 25>   MaxIter 150
| 26> end
| 27>
| 28>
| 29>                          ****END OF INPUT****

CARTESIAN COORDINATES (ANGSTROEM)
---------------------------------
  C      5.558210   -1.992910   -6.215050
  C      4.181880   -2.589670   -6.298910
  N      3.145870   -1.768430   -6.486750
  C      4.019100   -3.864310   -6.227430
  H      4.768490   -4.591150   -5.990770
  H      3.122410   -4.333390   -6.314620
  H      3.281640   -0.777790   -6.566550
  H      2.212550   -2.134190   -6.562250
  C      6.419260   -2.542940   -5.077630
  H      6.036830   -2.198190   -7.176850
  H      5.467610   -0.907370   -6.127970
  H      6.500560   -3.605530   -5.173580
  H      5.965440   -2.303290   -4.138740
  H      7.394380   -2.104940   -5.124570

 Total Charge           Charge          ....    0
 Multiplicity           Mult            ....    1
 Number of Electrons    NEL             ....   40
 Basis Dimension        Dim             ....  437

ORBITAL ENERGIES
----------------

  NO   OCC          E(Eh)            E(eV)
   0   2.0000     -15.556617      -423.3171
   1   2.0000     -11.253233      -306.2160
   2   2.0000     -11.225195      -305.4531
   3   2.0000     -11.206009      -304.9310
   4   2.0000     -11.154904      -303.5404
   5   2.0000      -1.231795       -33.5188
   6   2.0000      -1.055057       -28.7096
   7   2.0000      -0.975301       -26.5393
   8   2.0000      -0.873147       -23.7595
   9   2.0000      -0.756267       -20.5791
  10   2.0000      -0.700390       -19.0586
  11   2.0000      -0.663255       -18.0481
  12   2.0000      -0.612503       -16.6670
  13   2.0000      -0.583851       -15.8874
  14   2.0000      -0.534135       -14.5346
  15   2.0000      -0.526533       -14.3277
  16   2.0000      -0.496678       -13.5153
  17   2.0000      -0.481650       -13.1064
  18   2.0000      -0.472080       -12.8460
  19   2.0000      -0.296648        -8.0722
  20   0.0000       0.027862         0.7582
  21   0.0000       0.035685         0.9710
  22   0.0000       0.039786         1.0826
  23   0.0000       0.045319         1.2332
  24   0.0000       0.055430         1.5083

MULLIKEN ATOMIC CHARGES
-----------------------
   0 C :   -0.188151
   1 C :    0.815364
   2 N :   -0.542701
   3 C :   -1.332769
   4 H :    0.175126
   5 H :    0.560828
   6 H :    0.047682
   7 H :    0.030513
   8 C :   -0.978268
   9 H :    0.268254
  10 H :    0.261539
  11 H :    0.308269
  12 H :    0.304542
  13 H :    0.269773
Sum of atomic charges:    0.0000000

LOEWDIN ATOMIC CHARGES
----------------------
   0 C :    0.278821
   1 C :   -0.306307
   2 N :    0.850390
   3 C :    0.518725
   4 H :   -0.232178
   5 H :   -0.285487
   6 H :   -0.297595
   7 H :   -0.278929
   8 C :    0.606990
   9 H :   -0.139695
  10 H :   -0.158281
  11 H :   -0.201840
  12 H :   -0.173943
  13 H :   -0.180670

  Mayer bond orders larger than 0.100000
B(  0-C ,  1-C ) :   0.7062 B(  0-C ,  2-N ) :  -0.1091 B(  0-C ,  8-C ) :   0.8968
B(  0-C ,  9-H ) :   0.9581 B(  0-C , 10-H ) :   0.9414 B(  1-C ,  2-N ) :   0.8747
B(  1-C ,  3-C ) :   1.1446 B(  1-C ,  4-H ) :  -0.1356 B(  2-N ,  3-C ) :  -0.3522
B(  2-N ,  6-H ) :   1.1796 B(  2-N ,  7-H ) :   1.1887 B(  3-C ,  4-H ) :   1.4459
B(  3-C ,  5-H ) :   0.5466 B(  8-C , 11-H ) :   0.9380 B(  8-C , 12-H ) :   0.9357
B(  8-C , 13-H ) :   0.9882

E(0)                                       ...   -211.207351820
E(0)                                       ...   -211.207351820
E(CORR)(strong-pairs)                      ...     -0.949709093
E(CORR)(weak-pairs)                        ...     -0.000920333
E(CORR)(corrected)                         ...     -0.950629427
E(TOT)                                     ...   -212.157981246
E(CCSD(T))                                 ...   -212.196460071
FINAL SINGLE POINT ENERGY      -212.196460071112

DIPOLE MOMENT
-------------
                                X             Y             Z
Electronic contribution:     -2.75010       0.81387      -1.26983
Nuclear contribution   :      2.61570      -0.17401       1.22349
                        -----------------------------------------
Total Dipole Moment    :     -0.13439       0.63986      -0.04633
                        -----------------------------------------
Magnitude (a.u.)       :      0.65546
Magnitude (Debye)      :      1.66605

Rotational constants in cm-1:     0.298189     0.125314     0.096441
Rotational constants in MHz :  8939.495008  3756.825352  2891.223400

                             ****ORCA TERMINATED NORMALLY****
TOTAL RUN TIME: 0 days 0 hours 7 minutes 16 seconds 335 msec
