                         Program Version 5.0.0 -  RELEASE  -
|  1> !DLPNO-CCSD(T) aug-cc-pVTZ aug-cc-pVTZ/C TightSCF TightPNO RIJCOSX def2/J
|  2> *xyz 0 1
|  3> C          4.93020       -7.37532       -2.64962
|  4> C          3.84189       -6.95161       -3.63283
|  5> H          3.45814       -5.95442       -3.40712
|  6> H          2.98848       -7.64361       -3.56708
|  7> S          4.31812       -6.91593       -5.36869
|  8> O          5.40615       -5.89948       -5.51297
|  9> O          3.11191       -6.44508       -6.04379
| 10> F          4.76340       -8.23942       -5.69863
| 11> H          5.27901       -8.35440       -2.90385
| 12> H          4.53000       -7.38577       -1.65734
| 13> H          5.74437       -6.68276       -2.69856
| 14> *
| 15>
| 16> %MaxCore 64000
| 17>
| 18> %pal nprocs 18
| 19> end
| 20>
| 21> %scf
| 22>   MaxIter 150
| 23> end
| 24>
| 25>
| 26>                          ****END OF INPUT****

CARTESIAN COORDINATES (ANGSTROEM)
---------------------------------
  C      4.930200   -7.375320   -2.649620
  C      3.841890   -6.951610   -3.632830
  H      3.458140   -5.954420   -3.407120
  H      2.988480   -7.643610   -3.567080
  S      4.318120   -6.915930   -5.368690
  O      5.406150   -5.899480   -5.512970
  O      3.111910   -6.445080   -6.043790
  F      4.763400   -8.239420   -5.698630
  H      5.279010   -8.354400   -2.903850
  H      4.530000   -7.385770   -1.657340
  H      5.744370   -6.682760   -2.698560

 Total Charge           Charge          ....    0
 Multiplicity           Mult            ....    1
 Number of Electrons    NEL             ....   58
 Basis Dimension        Dim             ....  395

ORBITAL ENERGIES
----------------

  NO   OCC          E(Eh)            E(eV)
   0   2.0000     -92.252771     -2510.3255
   1   2.0000     -26.439647      -719.4594
   2   2.0000     -20.563833      -559.5703
   3   2.0000     -20.556192      -559.3624
   4   2.0000     -11.301559      -307.5311
   5   2.0000     -11.252293      -306.1905
   6   2.0000      -9.216129      -250.7836
   7   2.0000      -6.903763      -187.8609
   8   2.0000      -6.899542      -187.7461
   9   2.0000      -6.898801      -187.7259
  10   2.0000      -1.810719       -49.2722
  11   2.0000      -1.441117       -39.2148
  12   2.0000      -1.329521       -36.1781
  13   2.0000      -1.104900       -30.0659
  14   2.0000      -0.994247       -27.0548
  15   2.0000      -0.920193       -25.0397
  16   2.0000      -0.838814       -22.8253
  17   2.0000      -0.834852       -22.7175
  18   2.0000      -0.758027       -20.6270
  19   2.0000      -0.670958       -18.2577
  20   2.0000      -0.663303       -18.0494
  21   2.0000      -0.629813       -17.1381
  22   2.0000      -0.600067       -16.3287
  23   2.0000      -0.570089       -15.5129
  24   2.0000      -0.556148       -15.1336
  25   2.0000      -0.538621       -14.6566
  26   2.0000      -0.491982       -13.3875
  27   2.0000      -0.476764       -12.9734
  28   2.0000      -0.468573       -12.7505
  29   0.0000       0.021269         0.5788
  30   0.0000       0.036086         0.9819
  31   0.0000       0.037772         1.0278
  32   0.0000       0.048025         1.3068
  33   0.0000       0.061700         1.6790

MULLIKEN ATOMIC CHARGES
-----------------------
   0 C :   -0.957108
   1 C :   -0.495123
   2 H :    0.336546
   3 H :    0.300169
   4 S :    2.096553
   5 O :   -0.868692
   6 O :   -0.878245
   7 F :   -0.503845
   8 H :    0.311982
   9 H :    0.323980
  10 H :    0.333784
Sum of atomic charges:   -0.0000000

LOEWDIN ATOMIC CHARGES
----------------------
   0 C :    0.571188
   1 C :    0.168020
   2 H :   -0.177583
   3 H :   -0.185946
   4 S :   -0.114784
   5 O :   -0.005921
   6 O :    0.015702
   7 F :    0.290767
   8 H :   -0.192837
   9 H :   -0.179307
  10 H :   -0.189301

  Mayer bond orders larger than 0.100000
B(  0-C ,  1-C ) :   0.8990 B(  0-C ,  8-H ) :   0.9247 B(  0-C ,  9-H ) :   0.9329
B(  0-C , 10-H ) :   0.9015 B(  1-C ,  2-H ) :   0.8726 B(  1-C ,  3-H ) :   0.9025
B(  1-C ,  4-S ) :   0.8947 B(  4-S ,  5-O ) :   1.4967 B(  4-S ,  6-O ) :   1.5402
B(  4-S ,  7-F ) :   0.5929

E(0)                                       ...   -725.416056108
E(0)                                       ...   -725.416056108
E(CORR)(strong-pairs)                      ...     -1.307921723
E(CORR)(weak-pairs)                        ...     -0.001250456
E(CORR)(corrected)                         ...     -1.309172179
E(TOT)                                     ...   -726.725228287
E(CCSD(T))                                 ...   -726.778683622
FINAL SINGLE POINT ENERGY      -726.778683621662

DIPOLE MOMENT
-------------
                                X             Y             Z
Electronic contribution:      0.19760      -1.45288      -8.89593
Nuclear contribution   :     -0.31946       0.18980      10.55057
                        -----------------------------------------
Total Dipole Moment    :     -0.12185      -1.26308       1.65464
                        -----------------------------------------
Magnitude (a.u.)       :      2.08520
Magnitude (Debye)      :      5.30016

Rotational constants in cm-1:     0.151421     0.081183     0.078684
Rotational constants in MHz :  4539.489207  2433.790160  2358.892966

                             ****ORCA TERMINATED NORMALLY****
TOTAL RUN TIME: 0 days 0 hours 6 minutes 5 seconds 438 msec
