                         Program Version 5.0.0 -  RELEASE  -
|  1> !DLPNO-CCSD(T) aug-cc-pVTZ aug-cc-pVTZ/C TightSCF TightPNO RIJCOSX def2/J
|  2>
|  3> *xyz -1 1
|  4> C          2.95263        1.86308       -3.57485
|  5> C          4.12921        0.89839       -3.41895
|  6> H          3.73369       -0.10060       -3.23763
|  7> H          4.71910        0.86256       -4.33901
|  8> C          5.01734        1.31521       -2.22130
|  9> O          4.73706        0.85411       -1.12283
| 10> O          5.92815        2.16811       -2.49136
| 11> H          2.35067        1.56005       -4.40594
| 12> H          3.32277        2.85258       -3.74453
| 13> H          2.36134        1.85149       -2.68315
| 14> *
| 15> %MaxCore 64000
| 16>
| 17> %pal nprocs 18
| 18> end
| 19>
| 20> %scf
| 21>   MaxIter 150
| 22> end
| 23>
| 24>
| 25>                          ****END OF INPUT****

CARTESIAN COORDINATES (ANGSTROEM)
---------------------------------
  C      2.952630    1.863080   -3.574850
  C      4.129210    0.898390   -3.418950
  H      3.733690   -0.100600   -3.237630
  H      4.719100    0.862560   -4.339010
  C      5.017340    1.315210   -2.221300
  O      4.737060    0.854110   -1.122830
  O      5.928150    2.168110   -2.491360
  H      2.350670    1.560050   -4.405940
  H      3.322770    2.852580   -3.744530
  H      2.361340    1.851490   -2.683150

 Total Charge           Charge          ....   -1
 Multiplicity           Mult            ....    1
 Number of Electrons    NEL             ....   40
 Basis Dimension        Dim             ....  345

ORBITAL ENERGIES
----------------

  NO   OCC          E(Eh)            E(eV)
   0   2.0000     -20.290673      -552.1373
   1   2.0000     -20.277637      -551.7825
   2   2.0000     -11.124784      -302.7208
   3   2.0000     -11.063387      -301.0501
   4   2.0000     -11.050480      -300.6988
   5   2.0000      -1.169992       -31.8371
   6   2.0000      -1.057423       -28.7739
   7   2.0000      -0.876141       -23.8410
   8   2.0000      -0.705609       -19.2006
   9   2.0000      -0.518576       -14.1112
  10   2.0000      -0.460442       -12.5293
  11   2.0000      -0.445226       -12.1152
  12   2.0000      -0.394952       -10.7472
  13   2.0000      -0.390647       -10.6300
  14   2.0000      -0.371151       -10.0995
  15   2.0000      -0.333390        -9.0720
  16   2.0000      -0.315926        -8.5968
  17   2.0000      -0.200648        -5.4599
  18   2.0000      -0.189753        -5.1635
  19   2.0000      -0.186472        -5.0742
  20   0.0000       0.117911         3.2085
  21   0.0000       0.136206         3.7063
  22   0.0000       0.138040         3.7563
  23   0.0000       0.148372         4.0374
  24   0.0000       0.156180         4.2499

MULLIKEN ATOMIC CHARGES
-----------------------
   0 C :   -1.001003
   1 C :   -0.170599
   2 H :    0.253039
   3 H :    0.245568
   4 C :    0.523222
   5 O :   -0.842297
   6 O :   -0.877368
   7 H :    0.260642
   8 H :    0.309843
   9 H :    0.298954
Sum of atomic charges:   -1.0000000

LOEWDIN ATOMIC CHARGES
----------------------
   0 C :    0.547701
   1 C :    0.171745
   2 H :   -0.199940
   3 H :   -0.188576
   4 C :   -1.217954
   5 O :    0.270810
   6 O :    0.215842
   7 H :   -0.207915
   8 H :   -0.196447
   9 H :   -0.195266

  Mayer bond orders larger than 0.100000
B(  0-C ,  1-C ) :   0.8219 B(  0-C ,  4-C ) :   0.1578 B(  0-C ,  7-H ) :   0.9723
B(  0-C ,  8-H ) :   0.9153 B(  0-C ,  9-H ) :   0.9285 B(  1-C ,  2-H ) :   0.9642
B(  1-C ,  3-H ) :   0.9607 B(  1-C ,  4-C ) :   0.6771 B(  4-C ,  5-O ) :   1.4148
B(  4-C ,  6-O ) :   1.4130

E(0)                                       ...   -266.375148828
E(0)                                       ...   -266.375148828
E(CORR)(strong-pairs)                      ...     -1.022883725
E(CORR)(weak-pairs)                        ...     -0.000889991
E(CORR)(corrected)                         ...     -1.023773716
E(TOT)                                     ...   -267.398922544
E(CCSD(T))                                 ...   -267.442513118
FINAL SINGLE POINT ENERGY      -267.442513117878

DIPOLE MOMENT
-------------
                                X             Y             Z
Electronic contribution:      4.29893      -0.25089       3.77540
Nuclear contribution   :     -5.85873      -0.10793      -5.24103
                        -----------------------------------------
Total Dipole Moment    :     -1.55980      -0.35883      -1.46563
                        -----------------------------------------
Magnitude (a.u.)       :      2.17021
Magnitude (Debye)      :      5.51622

Rotational constants in cm-1:     0.292505     0.135951     0.110253
Rotational constants in MHz :  8769.065873  4075.717001  3305.311891

                             ****ORCA TERMINATED NORMALLY****
TOTAL RUN TIME: 0 days 0 hours 4 minutes 9 seconds 9 msec
