                         Program Version 5.0.0 -  RELEASE  -
|  1> !DLPNO-CCSD(T) aug-cc-pVTZ aug-cc-pVTZ/C TightSCF TightPNO RIJCOSX def2/J
|  2>
|  3> *xyz 1 1
|  4> C          3.34350        3.35457       -3.59200
|  5> C          2.95263        1.86308       -3.57485
|  6> C          4.25587        3.70385       -4.72605
|  7> N          3.73403        4.29378       -5.80077
|  8> N          5.51504        3.40725       -4.63718
|  9> H          6.14919        3.60120       -5.39905
| 10> H          5.81358        2.89950       -3.80879
| 11> H          2.74138        4.51311       -5.82470
| 12> H          4.28755        4.52126       -6.61434
| 13> H          3.86125        3.59725       -2.66298
| 14> H          2.44649        3.97346       -3.65656
| 15> H          2.44395        1.61721       -4.48352
| 16> H          2.30781        1.67290       -2.74242
| 17> H          3.83491        1.26414       -3.48670
| 18> *
| 19> %MaxCore 64000
| 20>
| 21> %pal nprocs 18
| 22> end
| 23>
| 24> %scf
| 25>   MaxIter 150
| 26> end
| 27>
| 28>
| 29>                          ****END OF INPUT****

CARTESIAN COORDINATES (ANGSTROEM)
---------------------------------
  C      3.343500    3.354570   -3.592000
  C      2.952630    1.863080   -3.574850
  C      4.255870    3.703850   -4.726050
  N      3.734030    4.293780   -5.800770
  N      5.515040    3.407250   -4.637180
  H      6.149190    3.601200   -5.399050
  H      5.813580    2.899500   -3.808790
  H      2.741380    4.513110   -5.824700
  H      4.287550    4.521260   -6.614340
  H      3.861250    3.597250   -2.662980
  H      2.446490    3.973460   -3.656560
  H      2.443950    1.617210   -4.483520
  H      2.307810    1.672900   -2.742420
  H      3.834910    1.264140   -3.486700

 Total Charge           Charge          ....    1
 Multiplicity           Mult            ....    1
 Number of Electrons    NEL             ....   40
 Basis Dimension        Dim             ....  437

ORBITAL ENERGIES
----------------

  NO   OCC          E(Eh)            E(eV)
   0   2.0000     -15.809636      -430.2021
   1   2.0000     -15.803948      -430.0473
   2   2.0000     -11.569114      -314.8116
   3   2.0000     -11.425393      -310.9007
   4   2.0000     -11.380868      -309.6892
   5   2.0000      -1.523601       -41.4593
   6   2.0000      -1.405509       -38.2458
   7   2.0000      -1.238554       -33.7028
   8   2.0000      -1.093412       -29.7532
   9   2.0000      -1.025820       -27.9140
  10   2.0000      -0.963019       -26.2051
  11   2.0000      -0.939542       -25.5662
  12   2.0000      -0.871289       -23.7090
  13   2.0000      -0.811173       -22.0731
  14   2.0000      -0.790117       -21.5002
  15   2.0000      -0.770863       -20.9762
  16   2.0000      -0.694880       -18.9087
  17   2.0000      -0.683138       -18.5891
  18   2.0000      -0.677522       -18.4363
  19   2.0000      -0.628130       -17.0923
  20   0.0000      -0.097632        -2.6567
  21   0.0000      -0.075182        -2.0458
  22   0.0000      -0.073567        -2.0019
  23   0.0000      -0.064060        -1.7432
  24   0.0000      -0.050886        -1.3847

MULLIKEN ATOMIC CHARGES
-----------------------
   0 C :   -0.097534
   1 C :   -0.900505
   2 C :    0.694094
   3 N :   -0.392117
   4 N :   -0.355997
   5 H :    0.164045
   6 H :    0.112823
   7 H :    0.129604
   8 H :    0.160380
   9 H :    0.272236
  10 H :    0.293514
  11 H :    0.298513
  12 H :    0.307662
  13 H :    0.313283
Sum of atomic charges:    1.0000000

LOEWDIN ATOMIC CHARGES
----------------------
   0 C :    0.341976
   1 C :    0.654145
   2 C :   -0.222230
   3 N :    0.950395
   4 N :    0.945380
   5 H :   -0.219631
   6 H :   -0.224006
   7 H :   -0.232760
   8 H :   -0.232908
   9 H :   -0.129350
  10 H :   -0.133619
  11 H :   -0.166618
  12 H :   -0.156846
  13 H :   -0.173929

  Mayer bond orders larger than 0.100000
B(  0-C ,  1-C ) :   0.8437 B(  0-C ,  2-C ) :   0.4284 B(  0-C ,  9-H ) :   0.9565
B(  0-C , 10-H ) :   0.9529 B(  1-C ,  2-C ) :   0.1490 B(  1-C , 11-H ) :   0.9259
B(  1-C , 12-H ) :   0.9518 B(  1-C , 13-H ) :   0.9091 B(  2-C ,  3-N ) :   0.9437
B(  2-C ,  4-N ) :   1.0341 B(  3-N ,  7-H ) :   1.0999 B(  3-N ,  8-H ) :   1.0587
B(  4-N ,  5-H ) :   1.0502 B(  4-N ,  6-H ) :   1.1287

E(0)                                       ...   -227.645120947
E(0)                                       ...   -227.645120947
E(CORR)(strong-pairs)                      ...     -0.968716586
E(CORR)(weak-pairs)                        ...     -0.000925456
E(CORR)(corrected)                         ...     -0.969642041
E(TOT)                                     ...   -228.614762988
E(CCSD(T))                                 ...   -228.653088124
FINAL SINGLE POINT ENERGY      -228.653088124327

DIPOLE MOMENT
-------------
                                X             Y             Z
Electronic contribution:      2.34354       2.55579      -2.22579
Nuclear contribution   :     -1.74195      -2.09431       1.58516
                        -----------------------------------------
Total Dipole Moment    :      0.60159       0.46148      -0.64063
                        -----------------------------------------
Magnitude (a.u.)       :      0.99261
Magnitude (Debye)      :      2.52303

Rotational constants in cm-1:     0.258965     0.126500     0.098780
Rotational constants in MHz :  7763.584551  3792.383135  2961.336502

                             ****ORCA TERMINATED NORMALLY****
TOTAL RUN TIME: 0 days 0 hours 6 minutes 10 seconds 18 msec
