                         Program Version 5.0.0 -  RELEASE  -
|  1> !DLPNO-CCSD(T) aug-cc-pVTZ aug-cc-pVTZ/C TightSCF TightPNO RIJCOSX def2/J
|  2>
|  3> *xyz 0 1
|  4> C          2.95263        1.86308       -3.57485
|  5> C          4.12921        0.89839       -3.41895
|  6> H          3.73369       -0.10060       -3.23763
|  7> H          4.71910        0.86256       -4.33901
|  8> C          5.01734        1.31521       -2.22130
|  9> F          4.73706        0.85411       -1.12283
| 10> O          5.92815        2.16811       -2.49136
| 11> H          2.35067        1.56005       -4.40594
| 12> H          3.32277        2.85258       -3.74453
| 13> H          2.36134        1.85149       -2.68315
| 14> *
| 15> %MaxCore 64000
| 16>
| 17> %pal nprocs 18
| 18> end
| 19>
| 20> %scf
| 21>   MaxIter 150
| 22> end
| 23>
| 24>
| 25>                          ****END OF INPUT****

CARTESIAN COORDINATES (ANGSTROEM)
---------------------------------
  C      2.952630    1.863080   -3.574850
  C      4.129210    0.898390   -3.418950
  H      3.733690   -0.100600   -3.237630
  H      4.719100    0.862560   -4.339010
  C      5.017340    1.315210   -2.221300
  F      4.737060    0.854110   -1.122830
  O      5.928150    2.168110   -2.491360
  H      2.350670    1.560050   -4.405940
  H      3.322770    2.852580   -3.744530
  H      2.361340    1.851490   -2.683150

 Total Charge           Charge          ....    0
 Multiplicity           Mult            ....    1
 Number of Electrons    NEL             ....   40
 Basis Dimension        Dim             ....  345

ORBITAL ENERGIES
----------------

  NO   OCC          E(Eh)            E(eV)
   0   2.0000     -26.391045      -718.1368
   1   2.0000     -20.558354      -559.4213
   2   2.0000     -11.433346      -311.1172
   3   2.0000     -11.261158      -306.4317
   4   2.0000     -11.234142      -305.6965
   5   2.0000      -1.758115       -47.8408
   6   2.0000      -1.358521       -36.9672
   7   2.0000      -1.077333       -29.3157
   8   2.0000      -0.946152       -25.7461
   9   2.0000      -0.884076       -24.0569
  10   2.0000      -0.790811       -21.5191
  11   2.0000      -0.783365       -21.3165
  12   2.0000      -0.707788       -19.2599
  13   2.0000      -0.637178       -17.3385
  14   2.0000      -0.611556       -16.6413
  15   2.0000      -0.557443       -15.1688
  16   2.0000      -0.541109       -14.7243
  17   2.0000      -0.525736       -14.3060
  18   2.0000      -0.482642       -13.1334
  19   2.0000      -0.455256       -12.3881
  20   0.0000       0.026091         0.7100
  21   0.0000       0.038905         1.0587
  22   0.0000       0.040774         1.1095
  23   0.0000       0.049243         1.3400
  24   0.0000       0.063241         1.7209

MULLIKEN ATOMIC CHARGES
-----------------------
   0 C :   -0.988734
   1 C :   -0.224745
   2 H :    0.281343
   3 H :    0.297995
   4 C :    0.634150
   5 F :   -0.268298
   6 O :   -0.658623
   7 H :    0.300670
   8 H :    0.327886
   9 H :    0.298358
Sum of atomic charges:    0.0000000

LOEWDIN ATOMIC CHARGES
----------------------
   0 C :    0.590459
   1 C :    0.245457
   2 H :   -0.177957
   3 H :   -0.157792
   4 C :   -0.930526
   5 F :    0.615274
   6 O :    0.359205
   7 H :   -0.178472
   8 H :   -0.182136
   9 H :   -0.183512

  Mayer bond orders larger than 0.100000
B(  0-C ,  1-C ) :   0.8384 B(  0-C ,  4-C ) :   0.1537 B(  0-C ,  7-H ) :   0.9426
B(  0-C ,  8-H ) :   0.9035 B(  0-C ,  9-H ) :   0.9298 B(  1-C ,  2-H ) :   0.9472
B(  1-C ,  3-H ) :   0.9142 B(  1-C ,  4-C ) :   0.7556 B(  4-C ,  5-F ) :   0.8868
B(  4-C ,  6-O ) :   1.6716

E(0)                                       ...   -290.916171476
E(0)                                       ...   -290.916171476
E(CORR)(strong-pairs)                      ...     -1.024678211
E(CORR)(weak-pairs)                        ...     -0.000875690
E(CORR)(corrected)                         ...     -1.025553902
E(TOT)                                     ...   -291.941725377
E(CCSD(T))                                 ...   -291.982075924
FINAL SINGLE POINT ENERGY      -291.982075923622

DIPOLE MOMENT
-------------
                                X             Y             Z
Electronic contribution:      4.93196      -1.26794       6.47710
Nuclear contribution   :     -6.06116       0.51860      -6.80802
                        -----------------------------------------
Total Dipole Moment    :     -1.12920      -0.74934      -0.33092
                        -----------------------------------------
Magnitude (a.u.)       :      1.39503
Magnitude (Debye)      :      3.54589

Rotational constants in cm-1:     0.276196     0.132056     0.105465
Rotational constants in MHz :  8280.156449  3958.940601  3161.775929

                             ****ORCA TERMINATED NORMALLY****
TOTAL RUN TIME: 0 days 0 hours 3 minutes 32 seconds 606 msec
