                         Program Version 5.0.0 -  RELEASE  -
|  1> !DLPNO-CCSD(T) aug-cc-pVTZ aug-cc-pVTZ/C TightSCF TightPNO RIJCOSX def2/J
|  2>
|  3> *xyz 0 1
|  4> C          3.34350        3.35457       -3.59200
|  5> C          2.95263        1.86308       -3.57485
|  6> C          4.25587        3.70385       -4.72605
|  7> C          3.73403        4.29378       -5.80077
|  8> N          5.51504        3.40725       -4.63718
|  9> H          6.14919        3.60120       -5.39905
| 10> H          5.81358        2.89950       -3.80879
| 11> H          2.74138        4.51311       -5.82470
| 12> H          4.28755        4.52126       -6.61434
| 13> H          3.86125        3.59725       -2.66298
| 14> H          2.44649        3.97346       -3.65656
| 15> H          2.44395        1.61721       -4.48352
| 16> H          2.30781        1.67290       -2.74242
| 17> H          3.83491        1.26414       -3.48670
| 18> *
| 19> %MaxCore 64000
| 20>
| 21> %pal nprocs 18
| 22> end
| 23>
| 24> %scf
| 25>   MaxIter 150
| 26> end
| 27>
| 28>
| 29>                          ****END OF INPUT****

CARTESIAN COORDINATES (ANGSTROEM)
---------------------------------
  C      3.343500    3.354570   -3.592000
  C      2.952630    1.863080   -3.574850
  C      4.255870    3.703850   -4.726050
  C      3.734030    4.293780   -5.800770
  N      5.515040    3.407250   -4.637180
  H      6.149190    3.601200   -5.399050
  H      5.813580    2.899500   -3.808790
  H      2.741380    4.513110   -5.824700
  H      4.287550    4.521260   -6.614340
  H      3.861250    3.597250   -2.662980
  H      2.446490    3.973460   -3.656560
  H      2.443950    1.617210   -4.483520
  H      2.307810    1.672900   -2.742420
  H      3.834910    1.264140   -3.486700

 Total Charge           Charge          ....    0
 Multiplicity           Mult            ....    1
 Number of Electrons    NEL             ....   40
 Basis Dimension        Dim             ....  437

ORBITAL ENERGIES
----------------

  NO   OCC          E(Eh)            E(eV)
   0   2.0000     -15.563209      -423.4964
   1   2.0000     -11.254234      -306.2433
   2   2.0000     -11.225168      -305.4524
   3   2.0000     -11.210422      -305.0511
   4   2.0000     -11.150021      -303.4075
   5   2.0000      -1.248580       -33.9756
   6   2.0000      -1.050711       -28.5913
   7   2.0000      -0.974077       -26.5060
   8   2.0000      -0.867785       -23.6136
   9   2.0000      -0.770257       -20.9598
  10   2.0000      -0.712444       -19.3866
  11   2.0000      -0.655647       -17.8411
  12   2.0000      -0.601606       -16.3705
  13   2.0000      -0.583437       -15.8761
  14   2.0000      -0.552943       -15.0463
  15   2.0000      -0.536195       -14.5906
  16   2.0000      -0.502514       -13.6741
  17   2.0000      -0.479308       -13.0426
  18   2.0000      -0.477070       -12.9817
  19   2.0000      -0.286351        -7.7920
  20   0.0000       0.026801         0.7293
  21   0.0000       0.035593         0.9685
  22   0.0000       0.040438         1.1004
  23   0.0000       0.043506         1.1839
  24   0.0000       0.055852         1.5198

MULLIKEN ATOMIC CHARGES
-----------------------
   0 C :   -0.140497
   1 C :   -0.955944
   2 C :    0.849398
   3 C :   -1.385095
   4 N :   -0.605210
   5 H :    0.031127
   6 H :    0.058507
   7 H :    0.174762
   8 H :    0.577252
   9 H :    0.237632
  10 H :    0.283123
  11 H :    0.303748
  12 H :    0.280510
  13 H :    0.290686
Sum of atomic charges:   -0.0000000

LOEWDIN ATOMIC CHARGES
----------------------
   0 C :    0.276054
   1 C :    0.615593
   2 C :   -0.321958
   3 C :    0.563228
   4 N :    0.836182
   5 H :   -0.257753
   6 H :   -0.269990
   7 H :   -0.296596
   8 H :   -0.293327
   9 H :   -0.150480
  10 H :   -0.151262
  11 H :   -0.178978
  12 H :   -0.183687
  13 H :   -0.187026

  Mayer bond orders larger than 0.100000
B(  0-C ,  1-C ) :   0.8394 B(  0-C ,  2-C ) :   0.5904 B(  0-C ,  9-H ) :   0.9895
B(  0-C , 10-H ) :   0.9896 B(  1-C ,  2-C ) :   0.1103 B(  1-C , 11-H ) :   0.9308
B(  1-C , 12-H ) :   0.9731 B(  1-C , 13-H ) :   0.9416 B(  2-C ,  3-C ) :   1.0314
B(  2-C ,  4-N ) :   0.7746 B(  3-C ,  4-N ) :  -0.2494 B(  3-C ,  7-H ) :   1.4131
B(  3-C ,  8-H ) :   0.5162 B(  4-N ,  5-H ) :   1.1803 B(  4-N ,  6-H ) :   1.1837

E(0)                                       ...   -211.206330512
E(0)                                       ...   -211.206330512
E(CORR)(strong-pairs)                      ...     -0.949466690
E(CORR)(weak-pairs)                        ...     -0.000920212
E(CORR)(corrected)                         ...     -0.950386902
E(TOT)                                     ...   -212.156717414
E(CCSD(T))                                 ...   -212.195323186
FINAL SINGLE POINT ENERGY      -212.195323186470

DIPOLE MOMENT
-------------
                                X             Y             Z
Electronic contribution:      2.31024       1.44241      -0.80441
Nuclear contribution   :     -1.79713      -1.86925       1.28073
                        -----------------------------------------
Total Dipole Moment    :      0.51311      -0.42683       0.47632
                        -----------------------------------------
Magnitude (a.u.)       :      0.81997
Magnitude (Debye)      :      2.08420

Rotational constants in cm-1:     0.269040     0.129645     0.102087
Rotational constants in MHz :  8065.609820  3886.645139  3060.489045

                             ****ORCA TERMINATED NORMALLY****
TOTAL RUN TIME: 0 days 0 hours 7 minutes 0 seconds 466 msec
