                         Program Version 5.0.0 -  RELEASE  -
|  1> !DLPNO-CCSD(T) aug-cc-pVTZ aug-cc-pVTZ/C TightSCF TightPNO RIJCOSX def2/J
|  2>
|  3> *xyz 0 1
|  4> C          2.95263        1.86308       -3.57485
|  5> C          4.12921        0.89839       -3.41895
|  6> H          3.73369       -0.10060       -3.23763
|  7> H          4.71910        0.86256       -4.33901
|  8> C          5.01734        1.31521       -2.22130
|  9> O          4.73706        0.85411       -1.12283
| 10> F          5.92815        2.16811       -2.49136
| 11> H          2.35067        1.56005       -4.40594
| 12> H          3.32277        2.85258       -3.74453
| 13> H          2.36134        1.85149       -2.68315
| 14> *
| 15> %MaxCore 64000
| 16>
| 17> %pal nprocs 18
| 18> end
| 19>
| 20> %scf
| 21>   MaxIter 150
| 22> end
| 23>
| 24>
| 25>                          ****END OF INPUT****

CARTESIAN COORDINATES (ANGSTROEM)
---------------------------------
  C      2.952630    1.863080   -3.574850
  C      4.129210    0.898390   -3.418950
  H      3.733690   -0.100600   -3.237630
  H      4.719100    0.862560   -4.339010
  C      5.017340    1.315210   -2.221300
  O      4.737060    0.854110   -1.122830
  F      5.928150    2.168110   -2.491360
  H      2.350670    1.560050   -4.405940
  H      3.322770    2.852580   -3.744530
  H      2.361340    1.851490   -2.683150

 Total Charge           Charge          ....    0
 Multiplicity           Mult            ....    1
 Number of Electrons    NEL             ....   40
 Basis Dimension        Dim             ....  345

ORBITAL ENERGIES
----------------

  NO   OCC          E(Eh)            E(eV)
   0   2.0000     -26.368085      -717.5121
   1   2.0000     -20.569261      -559.7180
   2   2.0000     -11.427385      -310.9550
   3   2.0000     -11.260263      -306.4073
   4   2.0000     -11.234041      -305.6938
   5   2.0000      -1.713505       -46.6268
   6   2.0000      -1.398684       -38.0601
   7   2.0000      -1.076242       -29.2860
   8   2.0000      -0.929824       -25.3018
   9   2.0000      -0.867424       -23.6038
  10   2.0000      -0.766051       -20.8453
  11   2.0000      -0.756821       -20.5942
  12   2.0000      -0.713067       -19.4035
  13   2.0000      -0.637034       -17.3346
  14   2.0000      -0.621075       -16.9003
  15   2.0000      -0.568497       -15.4696
  16   2.0000      -0.547180       -14.8895
  17   2.0000      -0.525178       -14.2908
  18   2.0000      -0.502648       -13.6778
  19   2.0000      -0.463216       -12.6047
  20   0.0000       0.026619         0.7243
  21   0.0000       0.039084         1.0635
  22   0.0000       0.041458         1.1281
  23   0.0000       0.048841         1.3290
  24   0.0000       0.063090         1.7168

MULLIKEN ATOMIC CHARGES
-----------------------
   0 C :   -0.990603
   1 C :   -0.231263
   2 H :    0.299140
   3 H :    0.282552
   4 C :    0.675631
   5 O :   -0.642718
   6 F :   -0.316559
   7 H :    0.298520
   8 H :    0.304950
   9 H :    0.320350
Sum of atomic charges:   -0.0000000

LOEWDIN ATOMIC CHARGES
----------------------
   0 C :    0.590503
   1 C :    0.247480
   2 H :   -0.168616
   3 H :   -0.166759
   4 C :   -0.920394
   5 O :    0.406121
   6 F :    0.555583
   7 H :   -0.178646
   8 H :   -0.184238
   9 H :   -0.181034

  Mayer bond orders larger than 0.100000
B(  0-C ,  1-C ) :   0.8396 B(  0-C ,  4-C ) :   0.1546 B(  0-C ,  7-H ) :   0.9459
B(  0-C ,  8-H ) :   0.9189 B(  0-C ,  9-H ) :   0.9131 B(  1-C ,  2-H ) :   0.9186
B(  1-C ,  3-H ) :   0.9404 B(  1-C ,  4-C ) :   0.7615 B(  4-C ,  5-O ) :   1.6664
B(  4-C ,  6-F ) :   0.8355

E(0)                                       ...   -290.933977531
E(0)                                       ...   -290.933977531
E(CORR)(strong-pairs)                      ...     -1.023048609
E(CORR)(weak-pairs)                        ...     -0.000867365
E(CORR)(corrected)                         ...     -1.023915974
E(TOT)                                     ...   -291.957893506
E(CCSD(T))                                 ...   -291.997698076
FINAL SINGLE POINT ENERGY      -291.997698076159

DIPOLE MOMENT
-------------
                                X             Y             Z
Electronic contribution:      7.00363       1.01227       4.10519
Nuclear contribution   :     -7.35982      -0.91407      -5.31589
                        -----------------------------------------
Total Dipole Moment    :     -0.35618       0.09820      -1.21070
                        -----------------------------------------
Magnitude (a.u.)       :      1.26582
Magnitude (Debye)      :      3.21746

Rotational constants in cm-1:     0.275433     0.132201     0.105422
Rotational constants in MHz :  8257.268192  3963.279062  3160.465566

                             ****ORCA TERMINATED NORMALLY****
TOTAL RUN TIME: 0 days 0 hours 3 minutes 16 seconds 279 msec
