                         Program Version 5.0.0 -  RELEASE  -
|  1> !DLPNO-CCSD(T) aug-cc-pVTZ aug-cc-pVTZ/C TightSCF TightPNO RIJCOSX def2/J
|  2>
|  3> *xyz 0 1
|  4> C          3.34350        3.35457       -3.59200
|  5> C          2.95263        1.86308       -3.57485
|  6> C          4.25587        3.70385       -4.72605
|  7> N          3.73403        4.29378       -5.80077
|  8> C          5.51504        3.40725       -4.63718
|  9> H          6.14919        3.60120       -5.39905
| 10> H          5.81358        2.89950       -3.80879
| 11> H          2.74138        4.51311       -5.82470
| 12> H          4.28755        4.52126       -6.61434
| 13> H          3.86125        3.59725       -2.66298
| 14> H          2.44649        3.97346       -3.65656
| 15> H          2.44395        1.61721       -4.48352
| 16> H          2.30781        1.67290       -2.74242
| 17> H          3.83491        1.26414       -3.48670
| 18> *
| 19> %MaxCore 64000
| 20>
| 21> %pal nprocs 18
| 22> end
| 23>
| 24> %scf
| 25>   MaxIter 150
| 26> end
| 27>
| 28>
| 29>                          ****END OF INPUT****

CARTESIAN COORDINATES (ANGSTROEM)
---------------------------------
  C      3.343500    3.354570   -3.592000
  C      2.952630    1.863080   -3.574850
  C      4.255870    3.703850   -4.726050
  N      3.734030    4.293780   -5.800770
  C      5.515040    3.407250   -4.637180
  H      6.149190    3.601200   -5.399050
  H      5.813580    2.899500   -3.808790
  H      2.741380    4.513110   -5.824700
  H      4.287550    4.521260   -6.614340
  H      3.861250    3.597250   -2.662980
  H      2.446490    3.973460   -3.656560
  H      2.443950    1.617210   -4.483520
  H      2.307810    1.672900   -2.742420
  H      3.834910    1.264140   -3.486700

 Total Charge           Charge          ....    0
 Multiplicity           Mult            ....    1
 Number of Electrons    NEL             ....   40
 Basis Dimension        Dim             ....  437

ORBITAL ENERGIES
----------------

  NO   OCC          E(Eh)            E(eV)
   0   2.0000     -15.558662      -423.3727
   1   2.0000     -11.250132      -306.1316
   2   2.0000     -11.224161      -305.4249
   3   2.0000     -11.208005      -304.9853
   4   2.0000     -11.148204      -303.3580
   5   2.0000      -1.230487       -33.4833
   6   2.0000      -1.053944       -28.6793
   7   2.0000      -0.979541       -26.6547
   8   2.0000      -0.869001       -23.6467
   9   2.0000      -0.761540       -20.7226
  10   2.0000      -0.697329       -18.9753
  11   2.0000      -0.659934       -17.9577
  12   2.0000      -0.602967       -16.4076
  13   2.0000      -0.577553       -15.7160
  14   2.0000      -0.553343       -15.0572
  15   2.0000      -0.533689       -14.5224
  16   2.0000      -0.497281       -13.5317
  17   2.0000      -0.484099       -13.1730
  18   2.0000      -0.472671       -12.8620
  19   2.0000      -0.294194        -8.0054
  20   0.0000       0.027299         0.7429
  21   0.0000       0.035910         0.9772
  22   0.0000       0.040194         1.0937
  23   0.0000       0.044233         1.2037
  24   0.0000       0.056234         1.5302

MULLIKEN ATOMIC CHARGES
-----------------------
   0 C :   -0.134376
   1 C :   -0.957620
   2 C :    0.839884
   3 N :   -0.632514
   4 C :   -1.390396
   5 H :    0.596984
   6 H :    0.141205
   7 H :    0.078663
   8 H :    0.038597
   9 H :    0.278705
  10 H :    0.267378
  11 H :    0.296404
  12 H :    0.260747
  13 H :    0.316339
Sum of atomic charges:    0.0000000

LOEWDIN ATOMIC CHARGES
----------------------
   0 C :    0.277626
   1 C :    0.615542
   2 C :   -0.314631
   3 N :    0.843546
   4 C :    0.548427
   5 H :   -0.281588
   6 H :   -0.285933
   7 H :   -0.280797
   8 H :   -0.270936
   9 H :   -0.147339
  10 H :   -0.154995
  11 H :   -0.179451
  12 H :   -0.184391
  13 H :   -0.185080

  Mayer bond orders larger than 0.100000
B(  0-C ,  1-C ) :   0.8222 B(  0-C ,  2-C ) :   0.6275 B(  0-C ,  9-H ) :   0.9953
B(  0-C , 10-H ) :   0.9617 B(  1-C ,  2-C ) :   0.1412 B(  1-C , 11-H ) :   0.9531
B(  1-C , 12-H ) :   0.9845 B(  1-C , 13-H ) :   0.9210 B(  2-C ,  3-N ) :   0.7319
B(  2-C ,  4-C ) :   1.1012 B(  3-N ,  4-C ) :  -0.2262 B(  3-N ,  7-H ) :   1.1437
B(  3-N ,  8-H ) :   1.1788 B(  4-C ,  5-H ) :   0.5022 B(  4-C ,  6-H ) :   1.4619

E(0)                                       ...   -211.206965607
E(0)                                       ...   -211.206965607
E(CORR)(strong-pairs)                      ...     -0.949351322
E(CORR)(weak-pairs)                        ...     -0.000909900
E(CORR)(corrected)                         ...     -0.950261223
E(TOT)                                     ...   -212.157226830
E(CCSD(T))                                 ...   -212.195677773
FINAL SINGLE POINT ENERGY      -212.195677773467

DIPOLE MOMENT
-------------
                                X             Y             Z
Electronic contribution:      0.74984       2.24276      -1.82475
Nuclear contribution   :     -1.38463      -2.07457       1.55023
                        -----------------------------------------
Total Dipole Moment    :     -0.63479       0.16818      -0.27452
                        -----------------------------------------
Magnitude (a.u.)       :      0.71176
Magnitude (Debye)      :      1.80915

Rotational constants in cm-1:     0.272312     0.128195     0.101724
Rotational constants in MHz :  8163.717141  3843.180148  3049.598073

                             ****ORCA TERMINATED NORMALLY****
TOTAL RUN TIME: 0 days 0 hours 6 minutes 54 seconds 365 msec
