                         Program Version 5.0.0 -  RELEASE  -
|  1> !DLPNO-CCSD(T) aug-cc-pVTZ aug-cc-pVTZ/C TightSCF TightPNO RIJCOSX def2/J
|  2>
|  3> *xyzfile 0 1 D2.xyz
|  4>
|  5> %MaxCore 64000
|  6>
|  7> %pal nprocs 18
|  8> end
|  9>
| 10> %scf
| 11>   MaxIter 150
| 12> end
| 13>
| 14>
| 15>                          ****END OF INPUT****

CARTESIAN COORDINATES (ANGSTROEM)
---------------------------------
  C      3.343500    3.354571   -3.591998
  C      2.952633    1.863077   -3.574849
  C      4.129209    0.898394   -3.418950
  H      3.733687   -0.100605   -3.237633
  H      4.719095    0.862556   -4.339005
  C      5.017344    1.315212   -2.221305
  C      4.255868    3.703851   -4.726054
  N      3.734032    4.293783   -5.800770
  C      5.515039    3.407255   -4.637185
  H      6.149187    3.601203   -5.399053
  H      5.813584    2.899504   -3.808785
  H      2.741380    4.513109   -5.824701
  H      4.287548    4.521260   -6.614341
  H      2.278938    1.735250   -2.725496
  H      2.377466    1.625787   -4.475869
  F      4.737055    0.854112   -1.122825
  O      5.928146    2.168108   -2.491365
  H      3.861246    3.597252   -2.662979
  H      2.446493    3.973461   -3.656556

 Total Charge           Charge          ....    0
 Multiplicity           Mult            ....    1
 Number of Electrons    NEL             ....   70
 Basis Dimension        Dim             ....  644

ORBITAL ENERGIES
----------------

  NO   OCC          E(Eh)            E(eV)
   0   2.0000     -26.395778      -718.2656
   1   2.0000     -20.558693      -559.4305
   2   2.0000     -15.547302      -423.0636
   3   2.0000     -11.440901      -311.3228
   4   2.0000     -11.258262      -306.3529
   5   2.0000     -11.247142      -306.0503
   6   2.0000     -11.233492      -305.6788
   7   2.0000     -11.226878      -305.4989
   8   2.0000     -11.113962      -302.4263
   9   2.0000      -1.762841       -47.9693
  10   2.0000      -1.374887       -37.4126
  11   2.0000      -1.219858       -33.1940
  12   2.0000      -1.097636       -29.8682
  13   2.0000      -1.017113       -27.6770
  14   2.0000      -0.959013       -26.0961
  15   2.0000      -0.925870       -25.1942
  16   2.0000      -0.848581       -23.0911
  17   2.0000      -0.798957       -21.7407
  18   2.0000      -0.789272       -21.4772
  19   2.0000      -0.752662       -20.4810
  20   2.0000      -0.723260       -19.6809
  21   2.0000      -0.681709       -18.5502
  22   2.0000      -0.653300       -17.7772
  23   2.0000      -0.638291       -17.3688
  24   2.0000      -0.624638       -16.9973
  25   2.0000      -0.587851       -15.9962
  26   2.0000      -0.547974       -14.9111
  27   2.0000      -0.546702       -14.8765
  28   2.0000      -0.514617       -14.0034
  29   2.0000      -0.501733       -13.6528
  30   2.0000      -0.499140       -13.5823
  31   2.0000      -0.470760       -12.8100
  32   2.0000      -0.463752       -12.6193
  33   2.0000      -0.427178       -11.6241
  34   2.0000      -0.277355        -7.5472
  35   0.0000       0.023743         0.6461
  36   0.0000       0.032365         0.8807
  37   0.0000       0.034540         0.9399
  38   0.0000       0.042463         1.1555
  39   0.0000       0.051852         1.4110

MULLIKEN ATOMIC CHARGES
-----------------------
   0 C :    0.037298
   1 C :   -0.536478
   2 C :   -0.298753
   3 H :    0.310273
   4 H :    0.281048
   5 C :    0.647279
   6 C :    0.707529
   7 N :   -0.815215
   8 C :   -1.381477
   9 H :    0.429241
  10 H :    0.612617
  11 H :   -0.015587
  12 H :    0.013763
  13 H :    0.183599
  14 H :    0.296130
  15 F :   -0.382846
  16 O :   -0.573228
  17 H :    0.138979
  18 H :    0.345827
Sum of atomic charges:    0.0000000

LOEWDIN ATOMIC CHARGES
----------------------
   0 C :    0.296044
   1 C :    0.297113
   2 C :    0.297823
   3 H :   -0.166387
   4 H :   -0.158327
   5 C :   -0.798138
   6 C :   -0.288683
   7 N :    0.837914
   8 C :    0.550034
   9 H :   -0.258547
  10 H :   -0.667825
  11 H :   -0.286234
  12 H :   -0.273399
  13 H :   -0.150460
  14 H :   -0.128406
  15 F :    0.636359
  16 O :    0.570290
  17 H :   -0.163857
  18 H :   -0.145314

  Mayer bond orders larger than 0.100000
B(  0-C ,  1-C ) :   0.7824 B(  0-C ,  6-C ) :   0.5632 B(  0-C ,  7-N ) :  -0.1412
B(  0-C , 17-H ) :   1.0948 B(  0-C , 18-H ) :   0.9244 B(  1-C ,  2-C ) :   0.8406
B(  1-C ,  5-C ) :   0.1838 B(  1-C ,  6-C ) :   0.1769 B(  1-C , 13-H ) :   1.0123
B(  1-C , 14-H ) :   0.9140 B(  2-C ,  3-H ) :   0.9376 B(  2-C ,  4-H ) :   0.9500
B(  2-C ,  5-C ) :   0.7220 B(  2-C , 15-F ) :   0.1108 B(  5-C , 15-F ) :   0.6620
B(  5-C , 16-O ) :   1.6850 B(  6-C ,  7-N ) :   0.5585 B(  6-C ,  8-C ) :   1.2035
B(  6-C , 11-H ) :  -0.1390 B(  6-C , 18-H ) :  -0.1204 B(  7-N ,  8-C ) :  -0.3702
B(  7-N , 11-H ) :   1.3228 B(  7-N , 12-H ) :   1.2331 B(  8-C ,  9-H ) :   0.8697
B(  8-C , 10-H ) :   0.7814

E(0)                                       ...   -461.867958775
E(0)                                       ...   -461.867958775
E(CORR)(strong-pairs)                      ...     -1.766915814
E(CORR)(weak-pairs)                        ...     -0.002254494
E(CORR)(corrected)                         ...     -1.769170308
E(TOT)                                     ...   -463.637129082
E(CCSD(T))                                 ...   -463.711792144
FINAL SINGLE POINT ENERGY      -463.711792143738

DIPOLE MOMENT
-------------
                                X             Y             Z
Electronic contribution:      4.20139      -5.26706       9.58543
Nuclear contribution   :     -5.64491       4.57111      -9.93176
                        -----------------------------------------
Total Dipole Moment    :     -1.44352      -0.69595      -0.34633
                        -----------------------------------------
Magnitude (a.u.)       :      1.63952
Magnitude (Debye)      :      4.16733

Rotational constants in cm-1:     0.109825     0.034347     0.029470
Rotational constants in MHz :  3292.465653  1029.684117   883.494260

                             ****ORCA TERMINATED NORMALLY****
TOTAL RUN TIME: 0 days 1 hours 3 minutes 51 seconds 114 msec
