                         Program Version 5.0.0 -  RELEASE  -
|  1> !BLYP D3BJ RIJCOSX def2-TZVP def2/J TightSCF
|  2> *xyz -1 1
|  3> C         -0.87096        0.24804       -2.66280
|  4> C         -0.47749        0.60819       -4.10105
|  5> H          0.20677        1.45830       -4.11875
|  6> H         -1.36844        0.92942       -4.64785
|  7> C          0.18467       -0.50664       -4.91676
|  8> O         -0.15869       -1.70109       -4.65798
|  9> O          1.05594       -0.17441       -5.74037
| 10> H         -1.54056       -0.58646       -2.67455
| 11> H         -1.35339        1.08600       -2.20455
| 12> H          0.00660       -0.00662       -2.10609
| 13> *
| 14>
| 15> %MaxCore 64000
| 16>
| 17> %pal nprocs 4
| 18> end
| 19>
| 20> %scf
| 21>   MaxIter 150
| 22> end
| 23>
| 24>
| 25>                          ****END OF INPUT****

CARTESIAN COORDINATES (ANGSTROEM)
---------------------------------
  C     -0.870960    0.248040   -2.662800
  C     -0.477490    0.608190   -4.101050
  H      0.206770    1.458300   -4.118750
  H     -1.368440    0.929420   -4.647850
  C      0.184670   -0.506640   -4.916760
  O     -0.158690   -1.701090   -4.657980
  O      1.055940   -0.174410   -5.740370
  H     -1.540560   -0.586460   -2.674550
  H     -1.353390    1.086000   -2.204550
  H      0.006600   -0.006620   -2.106090

 Total Charge           Charge          ....   -1
 Multiplicity           Mult            ....    1
 Number of Electrons    NEL             ....   40
 Basis Dimension        Dim             ....  185

ORBITAL ENERGIES
----------------

  NO   OCC          E(Eh)            E(eV)
   0   2.0000     -18.497838      -503.3518
   1   2.0000     -18.495463      -503.2871
   2   2.0000      -9.770877      -265.8791
   3   2.0000      -9.733109      -264.8513
   4   2.0000      -9.723165      -264.5808
   5   2.0000      -0.714397       -19.4397
   6   2.0000      -0.626399       -17.0452
   7   2.0000      -0.518709       -14.1148
   8   2.0000      -0.399608       -10.8739
   9   2.0000      -0.252342        -6.8666
  10   2.0000      -0.234816        -6.3897
  11   2.0000      -0.198443        -5.3999
  12   2.0000      -0.169825        -4.6212
  13   2.0000      -0.159101        -4.3294
  14   2.0000      -0.146000        -3.9729
  15   2.0000      -0.119169        -3.2427
  16   2.0000      -0.104486        -2.8432
  17   2.0000       0.003267         0.0889
  18   2.0000       0.014702         0.4001
  19   2.0000       0.032309         0.8792
  20   0.0000       0.164550         4.4776
  21   0.0000       0.205495         5.5918
  22   0.0000       0.213734         5.8160
  23   0.0000       0.227038         6.1780
  24   0.0000       0.238963         6.5025

MULLIKEN ATOMIC CHARGES
-----------------------
   0 C :   -0.235392
   1 C :   -0.133194
   2 H :    0.018368
   3 H :    0.015737
   4 C :    0.133550
   5 O :   -0.491715
   6 O :   -0.457852
   7 H :    0.064175
   8 H :    0.027011
   9 H :    0.059311
Sum of atomic charges:   -1.0000000

LOEWDIN ATOMIC CHARGES
----------------------
   0 C :   -0.324800
   1 C :   -0.295790
   2 H :    0.115117
   3 H :    0.117445
   4 C :   -0.721566
   5 O :   -0.109313
   6 O :   -0.074729
   7 H :    0.104121
   8 H :    0.086780
   9 H :    0.102735

  Mayer bond orders larger than 0.100000
B(  0-C ,  1-C ) :   0.9213 B(  0-C ,  7-H ) :   0.9682 B(  0-C ,  8-H ) :   0.9548
B(  0-C ,  9-H ) :   0.9777 B(  1-C ,  2-H ) :   0.9495 B(  1-C ,  3-H ) :   0.9496
B(  1-C ,  4-C ) :   0.9167 B(  4-C ,  5-O ) :   1.8803 B(  4-C ,  6-O ) :   1.9449

Dispersion correction           -0.013467156
FINAL SINGLE POINT ENERGY      -267.877999585825

DIPOLE MOMENT
-------------
                                X             Y             Z
Electronic contribution:      2.72749      -3.04756      -4.70348
Nuclear contribution   :     -3.54611       4.15440       5.90446
                        -----------------------------------------
Total Dipole Moment    :     -0.81863       1.10684       1.20099
                        -----------------------------------------
Magnitude (a.u.)       :      1.82692
Magnitude (Debye)      :      4.64365

Rotational constants in cm-1:     0.332789     0.132085     0.101080
Rotational constants in MHz :  9976.755824  3959.803182  3030.288811

                             ****ORCA TERMINATED NORMALLY****
TOTAL RUN TIME: 0 days 0 hours 0 minutes 10 seconds 129 msec
