                         Program Version 5.0.0 -  RELEASE  -
|  1> !BLYP D3BJ RIJCOSX def2-TZVP def2/J TightSCF
|  2> *xyz 1 1
|  3> C          2.48645       -2.67712       -2.56345
|  4> C          3.03764       -2.36672       -3.92351
|  5> N          2.28036       -2.45441       -4.96769
|  6> N          4.32174       -2.01793       -4.01664
|  7> H          4.87994       -1.91167       -3.17382
|  8> H          4.71015       -1.67088       -4.88356
|  9> H          1.27042       -2.41265       -4.86614
| 10> H          2.58183       -2.05528       -5.84688
| 11> C          2.49799       -1.46946       -1.61030
| 12> H          1.47259       -3.05153       -2.69437
| 13> H          3.08320       -3.49064       -2.14147
| 14> H          1.91240       -0.67831       -2.02991
| 15> H          3.50450       -1.13364       -1.47227
| 16> H          2.08509       -1.75655       -0.66585
| 17> *
| 18>
| 19> %MaxCore 64000
| 20>
| 21> %pal nprocs 4
| 22> end
| 23>
| 24> %scf
| 25>   MaxIter 150
| 26> end
| 27>
| 28>
| 29>                          ****END OF INPUT****

CARTESIAN COORDINATES (ANGSTROEM)
---------------------------------
  C      2.486450   -2.677120   -2.563450
  C      3.037640   -2.366720   -3.923510
  N      2.280360   -2.454410   -4.967690
  N      4.321740   -2.017930   -4.016640
  H      4.879940   -1.911670   -3.173820
  H      4.710150   -1.670880   -4.883560
  H      1.270420   -2.412650   -4.866140
  H      2.581830   -2.055280   -5.846880
  C      2.497990   -1.469460   -1.610300
  H      1.472590   -3.051530   -2.694370
  H      3.083200   -3.490640   -2.141470
  H      1.912400   -0.678310   -2.029910
  H      3.504500   -1.133640   -1.472270
  H      2.085090   -1.756550   -0.665850

 Total Charge           Charge          ....    1
 Multiplicity           Mult            ....    1
 Number of Electrons    NEL             ....   40
 Basis Dimension        Dim             ....  209

ORBITAL ENERGIES
----------------

  NO   OCC          E(Eh)            E(eV)
   0   2.0000     -14.253090      -387.8463
   1   2.0000     -14.248198      -387.7132
   2   2.0000     -10.219744      -278.0934
   3   2.0000     -10.102304      -274.8977
   4   2.0000     -10.061104      -273.7766
   5   2.0000      -1.116358       -30.3777
   6   2.0000      -1.027480       -27.9591
   7   2.0000      -0.890522       -24.2323
   8   2.0000      -0.798208       -21.7203
   9   2.0000      -0.751472       -20.4486
  10   2.0000      -0.717828       -19.5331
  11   2.0000      -0.691782       -18.8243
  12   2.0000      -0.649786       -17.6816
  13   2.0000      -0.598791       -16.2939
  14   2.0000      -0.572544       -15.5797
  15   2.0000      -0.558210       -15.1897
  16   2.0000      -0.503209       -13.6930
  17   2.0000      -0.493133       -13.4188
  18   2.0000      -0.483874       -13.1669
  19   2.0000      -0.453486       -12.3400
  20   0.0000      -0.243390        -6.6230
  21   0.0000      -0.184469        -5.0197
  22   0.0000      -0.142524        -3.8783
  23   0.0000      -0.140129        -3.8131
  24   0.0000      -0.108837        -2.9616

MULLIKEN ATOMIC CHARGES
-----------------------
   0 C :   -0.223164
   1 C :    0.306919
   2 N :   -0.258244
   3 N :   -0.294381
   4 H :    0.278252
   5 H :    0.259494
   6 H :    0.279923
   7 H :    0.255746
   8 C :   -0.291188
   9 H :    0.127418
  10 H :    0.163891
  11 H :    0.127385
  12 H :    0.107909
  13 H :    0.160041
Sum of atomic charges:    1.0000000

LOEWDIN ATOMIC CHARGES
----------------------
   0 C :   -0.212701
   1 C :   -0.299719
   2 N :    0.137273
   3 N :    0.116799
   4 H :    0.204450
   5 H :    0.192499
   6 H :    0.209628
   7 H :    0.196496
   8 C :   -0.253036
   9 H :    0.155512
  10 H :    0.168894
  11 H :    0.126855
  12 H :    0.119230
  13 H :    0.137820

  Mayer bond orders larger than 0.100000
B(  0-C ,  1-C ) :   0.9652 B(  0-C ,  8-C ) :   0.9415 B(  0-C ,  9-H ) :   0.9691
B(  0-C , 10-H ) :   0.9358 B(  1-C ,  2-N ) :   1.4695 B(  1-C ,  3-N ) :   1.4167
B(  2-N ,  6-H ) :   0.8888 B(  2-N ,  7-H ) :   0.8987 B(  3-N ,  4-H ) :   0.8957
B(  3-N ,  5-H ) :   0.8990 B(  8-C , 11-H ) :   0.9616 B(  8-C , 12-H ) :   0.9678
B(  8-C , 13-H ) :   0.9630

Dispersion correction           -0.020570697
FINAL SINGLE POINT ENERGY      -229.029994946345

DIPOLE MOMENT
-------------
                                X             Y             Z
Electronic contribution:      1.06787      -1.07033      -3.92364
Nuclear contribution   :     -0.84604       1.34287       2.92710
                        -----------------------------------------
Total Dipole Moment    :      0.22183       0.27254      -0.99655
                        -----------------------------------------
Magnitude (a.u.)       :      1.05669
Magnitude (Debye)      :      2.68588

Rotational constants in cm-1:     0.265816     0.126189     0.097583
Rotational constants in MHz :  7968.948902  3783.040103  2925.457702

                             ****ORCA TERMINATED NORMALLY****
TOTAL RUN TIME: 0 days 0 hours 0 minutes 10 seconds 975 msec
