                         Program Version 5.0.0 -  RELEASE  -
|  1> !BLYP D3BJ RIJCOSX def2-TZVP def2/J TightSCF
|  2> *xyz 0 1
|  3> C         -0.87096        0.24804       -2.66280
|  4> C         -0.47749        0.60819       -4.10105
|  5> H          0.20677        1.45830       -4.11875
|  6> H         -1.36844        0.92942       -4.64785
|  7> C          0.18467       -0.50664       -4.91676
|  8> F         -0.15869       -1.70109       -4.65798
|  9> O          1.05594       -0.17441       -5.74037
| 10> H         -1.54056       -0.58646       -2.67455
| 11> H         -1.35339        1.08600       -2.20455
| 12> H          0.00660       -0.00662       -2.10609
| 13> *
| 14>
| 15> %MaxCore 64000
| 16>
| 17> %pal nprocs 4
| 18> end
| 19>
| 20> %scf
| 21>   MaxIter 150
| 22> end
| 23>
| 24>
| 25>                          ****END OF INPUT****

CARTESIAN COORDINATES (ANGSTROEM)
---------------------------------
  C     -0.870960    0.248040   -2.662800
  C     -0.477490    0.608190   -4.101050
  H      0.206770    1.458300   -4.118750
  H     -1.368440    0.929420   -4.647850
  C      0.184670   -0.506640   -4.916760
  F     -0.158690   -1.701090   -4.657980
  O      1.055940   -0.174410   -5.740370
  H     -1.540560   -0.586460   -2.674550
  H     -1.353390    1.086000   -2.204550
  H      0.006600   -0.006620   -2.106090

 Total Charge           Charge          ....    0
 Multiplicity           Mult            ....    1
 Number of Electrons    NEL             ....   40
 Basis Dimension        Dim             ....  185

ORBITAL ENERGIES
----------------

  NO   OCC          E(Eh)            E(eV)
   0   2.0000     -24.346348      -662.4978
   1   2.0000     -18.775105      -510.8966
   2   2.0000     -10.071710      -274.0652
   3   2.0000      -9.934608      -270.3344
   4   2.0000      -9.910384      -269.6753
   5   2.0000      -1.197259       -32.5791
   6   2.0000      -0.942581       -25.6489
   7   2.0000      -0.721365       -19.6293
   8   2.0000      -0.612148       -16.6574
   9   2.0000      -0.572097       -15.5676
  10   2.0000      -0.479991       -13.0612
  11   2.0000      -0.472187       -12.8489
  12   2.0000      -0.433499       -11.7961
  13   2.0000      -0.412630       -11.2282
  14   2.0000      -0.379650       -10.3308
  15   2.0000      -0.351196        -9.5565
  16   2.0000      -0.338280        -9.2051
  17   2.0000      -0.330255        -8.9867
  18   2.0000      -0.304567        -8.2877
  19   2.0000      -0.239714        -6.5229
  20   0.0000      -0.059466        -1.6182
  21   0.0000       0.005115         0.1392
  22   0.0000       0.051275         1.3953
  23   0.0000       0.069394         1.8883
  24   0.0000       0.074823         2.0360

MULLIKEN ATOMIC CHARGES
-----------------------
   0 C :   -0.291767
   1 C :   -0.204354
   2 H :    0.118700
   3 H :    0.106692
   4 C :    0.323087
   5 F :   -0.093355
   6 O :   -0.279240
   7 H :    0.103796
   8 H :    0.108733
   9 H :    0.107709
Sum of atomic charges:   -0.0000000

LOEWDIN ATOMIC CHARGES
----------------------
   0 C :   -0.291306
   1 C :   -0.255697
   2 H :    0.150642
   3 H :    0.150185
   4 C :   -0.520300
   5 F :    0.319753
   6 O :    0.095245
   7 H :    0.116244
   8 H :    0.117924
   9 H :    0.117311

  Mayer bond orders larger than 0.100000
B(  0-C ,  1-C ) :   0.9401 B(  0-C ,  7-H ) :   0.9683 B(  0-C ,  8-H ) :   0.9673
B(  0-C ,  9-H ) :   0.9743 B(  1-C ,  2-H ) :   0.9609 B(  1-C ,  3-H ) :   0.9326
B(  1-C ,  4-C ) :   0.9981 B(  4-C ,  5-F ) :   1.1526 B(  4-C ,  6-O ) :   2.1025

Dispersion correction           -0.012676051
FINAL SINGLE POINT ENERGY      -292.456014099720

DIPOLE MOMENT
-------------
                                X             Y             Z
Electronic contribution:      2.64744      -5.37969      -5.34201
Nuclear contribution   :     -3.42837       5.66737       6.17046
                        -----------------------------------------
Total Dipole Moment    :     -0.78092       0.28768       0.82844
                        -----------------------------------------
Magnitude (a.u.)       :      1.17427
Magnitude (Debye)      :      2.98477

Rotational constants in cm-1:     0.304660     0.130969     0.097716
Rotational constants in MHz :  9133.464515  3926.366384  2929.457090

                             ****ORCA TERMINATED NORMALLY****
TOTAL RUN TIME: 0 days 0 hours 0 minutes 9 seconds 626 msec
