                         Program Version 5.0.0 -  RELEASE  -
|  1> !BLYP D3BJ RIJCOSX def2-TZVP def2/J TightSCF
|  2> *xyz 0 1
|  3> C          2.48645       -2.67712       -2.56345
|  4> C          3.03764       -2.36672       -3.92351
|  5> C          2.28036       -2.45441       -4.96769
|  6> N          4.32174       -2.01793       -4.01664
|  7> H          4.87994       -1.91167       -3.17382
|  8> H          4.71015       -1.67088       -4.88356
|  9> H          1.27042       -2.41265       -4.86614
| 10> H          2.58183       -2.05528       -5.84688
| 11> C          2.49799       -1.46946       -1.61030
| 12> H          1.47259       -3.05153       -2.69437
| 13> H          3.08320       -3.49064       -2.14147
| 14> H          1.91240       -0.67831       -2.02991
| 15> H          3.50450       -1.13364       -1.47227
| 16> H          2.08509       -1.75655       -0.66585
| 17> *
| 18>
| 19> %MaxCore 64000
| 20>
| 21> %pal nprocs 4
| 22> end
| 23>
| 24> %scf
| 25>   MaxIter 150
| 26> end
| 27>
| 28>
| 29>                          ****END OF INPUT****

CARTESIAN COORDINATES (ANGSTROEM)
---------------------------------
  C      2.486450   -2.677120   -2.563450
  C      3.037640   -2.366720   -3.923510
  C      2.280360   -2.454410   -4.967690
  N      4.321740   -2.017930   -4.016640
  H      4.879940   -1.911670   -3.173820
  H      4.710150   -1.670880   -4.883560
  H      1.270420   -2.412650   -4.866140
  H      2.581830   -2.055280   -5.846880
  C      2.497990   -1.469460   -1.610300
  H      1.472590   -3.051530   -2.694370
  H      3.083200   -3.490640   -2.141470
  H      1.912400   -0.678310   -2.029910
  H      3.504500   -1.133640   -1.472270
  H      2.085090   -1.756550   -0.665850

 Total Charge           Charge          ....    0
 Multiplicity           Mult            ....    1
 Number of Electrons    NEL             ....   40
 Basis Dimension        Dim             ....  209

ORBITAL ENERGIES
----------------

  NO   OCC          E(Eh)            E(eV)
   0   2.0000     -14.004852      -381.0914
   1   2.0000      -9.918759      -269.9032
   2   2.0000      -9.901759      -269.4406
   3   2.0000      -9.891516      -269.1618
   4   2.0000      -9.832419      -267.5537
   5   2.0000      -0.836622       -22.7656
   6   2.0000      -0.699237       -19.0272
   7   2.0000      -0.647661       -17.6238
   8   2.0000      -0.566428       -15.4133
   9   2.0000      -0.506332       -13.7780
  10   2.0000      -0.468717       -12.7544
  11   2.0000      -0.421629       -11.4731
  12   2.0000      -0.385229       -10.4826
  13   2.0000      -0.379301       -10.3213
  14   2.0000      -0.338653        -9.2152
  15   2.0000      -0.333696        -9.0803
  16   2.0000      -0.308992        -8.4081
  17   2.0000      -0.287763        -7.8304
  18   2.0000      -0.278664        -7.5828
  19   2.0000      -0.159554        -4.3417
  20   0.0000       0.002158         0.0587
  21   0.0000       0.017543         0.4774
  22   0.0000       0.048165         1.3106
  23   0.0000       0.055200         1.5021
  24   0.0000       0.068088         1.8528

MULLIKEN ATOMIC CHARGES
-----------------------
   0 C :   -0.170526
   1 C :    0.234773
   2 C :   -0.357604
   3 N :   -0.406519
   4 H :    0.203517
   5 H :    0.204902
   6 H :    0.072392
   7 H :    0.052445
   8 C :   -0.287050
   9 H :    0.089834
  10 H :    0.082350
  11 H :    0.103138
  12 H :    0.076833
  13 H :    0.101516
Sum of atomic charges:   -0.0000000

LOEWDIN ATOMIC CHARGES
----------------------
   0 C :   -0.231325
   1 C :   -0.361543
   2 C :   -0.273716
   3 N :    0.006152
   4 H :    0.163523
   5 H :    0.165364
   6 H :    0.107106
   7 H :    0.097533
   8 C :   -0.288940
   9 H :    0.143426
  10 H :    0.136008
  11 H :    0.116240
  12 H :    0.106822
  13 H :    0.113351

  Mayer bond orders larger than 0.100000
B(  0-C ,  1-C ) :   0.9697 B(  0-C ,  8-C ) :   0.9411 B(  0-C ,  9-H ) :   0.9752
B(  0-C , 10-H ) :   0.9610 B(  1-C ,  2-C ) :   1.7713 B(  1-C ,  3-N ) :   1.1504
B(  2-C ,  6-H ) :   0.9854 B(  2-C ,  7-H ) :   0.9876 B(  3-N ,  4-H ) :   0.9325
B(  3-N ,  5-H ) :   0.9246 B(  8-C , 11-H ) :   0.9760 B(  8-C , 12-H ) :   0.9731
B(  8-C , 13-H ) :   0.9731

Dispersion correction           -0.021443501
FINAL SINGLE POINT ENERGY      -212.547354677221

DIPOLE MOMENT
-------------
                                X             Y             Z
Electronic contribution:      1.57975      -0.87666      -2.14437
Nuclear contribution   :     -0.99743       1.27863       2.57190
                        -----------------------------------------
Total Dipole Moment    :      0.58231       0.40197       0.42753
                        -----------------------------------------
Magnitude (a.u.)       :      0.82671
Magnitude (Debye)      :      2.10133

Rotational constants in cm-1:     0.274050     0.130114     0.100964
Rotational constants in MHz :  8215.815505  3900.722919  3026.834930

                             ****ORCA TERMINATED NORMALLY****
TOTAL RUN TIME: 0 days 0 hours 0 minutes 11 seconds 539 msec
