                         Program Version 5.0.0 -  RELEASE  -
|  1> !BLYP D3BJ RIJCOSX def2-TZVP def2/J TightSCF
|  2> *xyz 0 1
|  3> C         -0.87096        0.24804       -2.66280
|  4> C         -0.47749        0.60819       -4.10105
|  5> H          0.20677        1.45830       -4.11875
|  6> H         -1.36844        0.92942       -4.64785
|  7> C          0.18467       -0.50664       -4.91676
|  8> O         -0.15869       -1.70109       -4.65798
|  9> F          1.05594       -0.17441       -5.74037
| 10> H         -1.54056       -0.58646       -2.67455
| 11> H         -1.35339        1.08600       -2.20455
| 12> H          0.00660       -0.00662       -2.10609
| 13> *
| 14>
| 15> %MaxCore 64000
| 16>
| 17> %pal nprocs 4
| 18> end
| 19>
| 20> %scf
| 21>   MaxIter 150
| 22> end
| 23>
| 24>
| 25>                          ****END OF INPUT****

CARTESIAN COORDINATES (ANGSTROEM)
---------------------------------
  C     -0.870960    0.248040   -2.662800
  C     -0.477490    0.608190   -4.101050
  H      0.206770    1.458300   -4.118750
  H     -1.368440    0.929420   -4.647850
  C      0.184670   -0.506640   -4.916760
  O     -0.158690   -1.701090   -4.657980
  F      1.055940   -0.174410   -5.740370
  H     -1.540560   -0.586460   -2.674550
  H     -1.353390    1.086000   -2.204550
  H      0.006600   -0.006620   -2.106090

 Total Charge           Charge          ....    0
 Multiplicity           Mult            ....    1
 Number of Electrons    NEL             ....   40
 Basis Dimension        Dim             ....  185

ORBITAL ENERGIES
----------------

  NO   OCC          E(Eh)            E(eV)
   0   2.0000     -24.355384      -662.7437
   1   2.0000     -18.772128      -510.8156
   2   2.0000     -10.074067      -274.1293
   3   2.0000      -9.935743      -270.3653
   4   2.0000      -9.904735      -269.5215
   5   2.0000      -1.215309       -33.0702
   6   2.0000      -0.928347       -25.2616
   7   2.0000      -0.717731       -19.5305
   8   2.0000      -0.620896       -16.8954
   9   2.0000      -0.571147       -15.5417
  10   2.0000      -0.487407       -13.2630
  11   2.0000      -0.472406       -12.8548
  12   2.0000      -0.443984       -12.0814
  13   2.0000      -0.412402       -11.2220
  14   2.0000      -0.377331       -10.2677
  15   2.0000      -0.346214        -9.4210
  16   2.0000      -0.328488        -8.9386
  17   2.0000      -0.324256        -8.8234
  18   2.0000      -0.300050        -8.1648
  19   2.0000      -0.236663        -6.4399
  20   0.0000      -0.061966        -1.6862
  21   0.0000       0.010292         0.2801
  22   0.0000       0.050226         1.3667
  23   0.0000       0.066346         1.8054
  24   0.0000       0.074405         2.0247

MULLIKEN ATOMIC CHARGES
-----------------------
   0 C :   -0.281131
   1 C :   -0.203058
   2 H :    0.095961
   3 H :    0.108780
   4 C :    0.334863
   5 O :   -0.311083
   6 F :   -0.068511
   7 H :    0.119618
   8 H :    0.103031
   9 H :    0.101529
Sum of atomic charges:    0.0000000

LOEWDIN ATOMIC CHARGES
----------------------
   0 C :   -0.280801
   1 C :   -0.260106
   2 H :    0.138297
   3 H :    0.151613
   4 C :   -0.525607
   5 O :    0.063352
   6 F :    0.357540
   7 H :    0.122063
   8 H :    0.115867
   9 H :    0.117781

  Mayer bond orders larger than 0.100000
B(  0-C ,  1-C ) :   0.9633 B(  0-C ,  7-H ) :   0.9681 B(  0-C ,  8-H ) :   0.9646
B(  0-C ,  9-H ) :   0.9759 B(  1-C ,  2-H ) :   0.9523 B(  1-C ,  3-H ) :   0.9273
B(  1-C ,  4-C ) :   0.9897 B(  4-C ,  5-O ) :   2.0566 B(  4-C ,  6-F ) :   1.1877

Dispersion correction           -0.012792130
FINAL SINGLE POINT ENERGY      -292.449685915182

DIPOLE MOMENT
-------------
                                X             Y             Z
Electronic contribution:      4.66118      -2.89302      -7.14815
Nuclear contribution   :     -4.75269       4.00281       7.35060
                        -----------------------------------------
Total Dipole Moment    :     -0.09151       1.10979       0.20245
                        -----------------------------------------
Magnitude (a.u.)       :      1.13181
Magnitude (Debye)      :      2.87683

Rotational constants in cm-1:     0.323805     0.124913     0.096140
Rotational constants in MHz :  9707.430323  3744.789513  2882.191141

                             ****ORCA TERMINATED NORMALLY****
TOTAL RUN TIME: 0 days 0 hours 0 minutes 9 seconds 382 msec
