                         Program Version 5.0.0 -  RELEASE  -
|  1> !BLYP D3BJ RIJCOSX def2-TZVP def2/J TightSCF
|  2> *xyz 0 1
|  3> C          2.48645       -2.67712       -2.56345
|  4> C          3.03764       -2.36672       -3.92351
|  5> N          2.28036       -2.45441       -4.96769
|  6> C          4.32174       -2.01793       -4.01664
|  7> H          4.87994       -1.91167       -3.17382
|  8> H          4.71015       -1.67088       -4.88356
|  9> H          1.27042       -2.41265       -4.86614
| 10> H          2.58183       -2.05528       -5.84688
| 11> C          2.49799       -1.46946       -1.61030
| 12> H          1.47259       -3.05153       -2.69437
| 13> H          3.08320       -3.49064       -2.14147
| 14> H          1.91240       -0.67831       -2.02991
| 15> H          3.50450       -1.13364       -1.47227
| 16> H          2.08509       -1.75655       -0.66585
| 17> *
| 18>
| 19> %MaxCore 64000
| 20>
| 21> %pal nprocs 4
| 22> end
| 23>
| 24> %scf
| 25>   MaxIter 150
| 26> end
| 27>
| 28>
| 29>                          ****END OF INPUT****

CARTESIAN COORDINATES (ANGSTROEM)
---------------------------------
  C      2.486450   -2.677120   -2.563450
  C      3.037640   -2.366720   -3.923510
  N      2.280360   -2.454410   -4.967690
  C      4.321740   -2.017930   -4.016640
  H      4.879940   -1.911670   -3.173820
  H      4.710150   -1.670880   -4.883560
  H      1.270420   -2.412650   -4.866140
  H      2.581830   -2.055280   -5.846880
  C      2.497990   -1.469460   -1.610300
  H      1.472590   -3.051530   -2.694370
  H      3.083200   -3.490640   -2.141470
  H      1.912400   -0.678310   -2.029910
  H      3.504500   -1.133640   -1.472270
  H      2.085090   -1.756550   -0.665850

 Total Charge           Charge          ....    0
 Multiplicity           Mult            ....    1
 Number of Electrons    NEL             ....   40
 Basis Dimension        Dim             ....  209

ORBITAL ENERGIES
----------------

  NO   OCC          E(Eh)            E(eV)
   0   2.0000     -14.008428      -381.1887
   1   2.0000      -9.918893      -269.9068
   2   2.0000      -9.902647      -269.4647
   3   2.0000      -9.887583      -269.0548
   4   2.0000      -9.833349      -267.5790
   5   2.0000      -0.851329       -23.1658
   6   2.0000      -0.700232       -19.0543
   7   2.0000      -0.633006       -17.2250
   8   2.0000      -0.571344       -15.5471
   9   2.0000      -0.509762       -13.8713
  10   2.0000      -0.465351       -12.6628
  11   2.0000      -0.425530       -11.5793
  12   2.0000      -0.392615       -10.6836
  13   2.0000      -0.358096        -9.7443
  14   2.0000      -0.344122        -9.3640
  15   2.0000      -0.329957        -8.9786
  16   2.0000      -0.306651        -8.3444
  17   2.0000      -0.291656        -7.9364
  18   2.0000      -0.286789        -7.8039
  19   2.0000      -0.151070        -4.1108
  20   0.0000       0.004156         0.1131
  21   0.0000       0.013240         0.3603
  22   0.0000       0.046603         1.2681
  23   0.0000       0.053643         1.4597
  24   0.0000       0.070611         1.9214

MULLIKEN ATOMIC CHARGES
-----------------------
   0 C :   -0.180373
   1 C :    0.231152
   2 N :   -0.370493
   3 C :   -0.395997
   4 H :    0.071962
   5 H :    0.064297
   6 H :    0.200598
   7 H :    0.205904
   8 C :   -0.273298
   9 H :    0.063044
  10 H :    0.100147
  11 H :    0.088441
  12 H :    0.101705
  13 H :    0.092909
Sum of atomic charges:   -0.0000000

LOEWDIN ATOMIC CHARGES
----------------------
   0 C :   -0.231783
   1 C :   -0.375185
   2 N :    0.025590
   3 C :   -0.276181
   4 H :    0.101793
   5 H :    0.092239
   6 H :    0.164140
   7 H :    0.168939
   8 C :   -0.282901
   9 H :    0.128291
  10 H :    0.146195
  11 H :    0.113157
  12 H :    0.115375
  13 H :    0.110331

  Mayer bond orders larger than 0.100000
B(  0-C ,  1-C ) :   0.9340 B(  0-C ,  8-C ) :   0.9549 B(  0-C ,  9-H ) :   0.9772
B(  0-C , 10-H ) :   0.9751 B(  1-C ,  2-N ) :   1.2046 B(  1-C ,  3-C ) :   1.7026
B(  2-N ,  6-H ) :   0.9245 B(  2-N ,  7-H ) :   0.9246 B(  3-C ,  4-H ) :   0.9978
B(  3-C ,  5-H ) :   0.9825 B(  8-C , 11-H ) :   0.9745 B(  8-C , 12-H ) :   0.9751
B(  8-C , 13-H ) :   0.9686

Dispersion correction           -0.021504495
FINAL SINGLE POINT ENERGY      -212.547832251890

DIPOLE MOMENT
-------------
                                X             Y             Z
Electronic contribution:     -0.27146      -1.20835      -3.00968
Nuclear contribution   :     -0.52463       1.37972       2.79217
                        -----------------------------------------
Total Dipole Moment    :     -0.79610       0.17137      -0.21751
                        -----------------------------------------
Magnitude (a.u.)       :      0.84288
Magnitude (Debye)      :      2.14243

Rotational constants in cm-1:     0.281086     0.127387     0.100311
Rotational constants in MHz :  8426.743103  3818.969834  3007.238026

                             ****ORCA TERMINATED NORMALLY****
TOTAL RUN TIME: 0 days 0 hours 0 minutes 11 seconds 407 msec
