                         Program Version 5.0.0 -  RELEASE  -
|  1> !BLYP D3BJ RIJCOSX def2-TZVP def2/J TightSCF xyzfile
|  2>
|  3> *xyzfile 0 1 D1.xyz
|  4>
|  5> %MaxCore 64000
|  6>
|  7> %pal nprocs 18
|  8> end
|  9>
| 10> %scf
| 11>   MaxIter 150
| 12> end
| 13>
| 14>
| 15>                          ****END OF INPUT****

CARTESIAN COORDINATES (ANGSTROEM)
---------------------------------
  C      2.486452   -2.677121   -2.563447
  C     -0.870963    0.248043   -2.662804
  C     -0.477492    0.608191   -4.101052
  H      0.206773    1.458299   -4.118748
  H     -1.368442    0.929419   -4.647855
  C      0.184673   -0.506640   -4.916760
  C      3.037640   -2.366715   -3.923509
  C      2.280360   -2.454408   -4.967692
  N      4.321736   -2.017932   -4.016641
  H      4.879940   -1.911668   -3.173823
  H      4.710148   -1.670882   -4.883561
  H      1.270423   -2.412650   -4.866143
  H      2.581829   -2.055282   -5.846878
  F     -0.158685   -1.701088   -4.657981
  O      1.055938   -0.174410   -5.740373
  C      2.497991   -1.469464   -1.610303
  C      1.582841   -0.321986   -2.042619
  H      2.193083   -1.833912   -0.625420
  H      3.523356   -1.103982   -1.490392
  C      0.100160   -0.673551   -1.915815
  H      1.822311   -0.040361   -3.072834
  H      1.813180    0.557019   -1.433266
  H     -0.063284   -1.679120   -2.301112
  H     -0.168820   -0.691680   -0.853831
  H     -1.001048    1.181040   -2.104071
  H     -1.844645   -0.246592   -2.663281
  H      1.472592   -3.051527   -2.694366
  H      3.083201   -3.490638   -2.141472

 Total Charge           Charge          ....    0
 Multiplicity           Mult            ....    1
 Number of Electrons    NEL             ....   94
 Basis Dimension        Dim             ....  468

ORBITAL ENERGIES
----------------

  NO   OCC          E(Eh)            E(eV)
   0   2.0000     -24.347589      -662.5316
   1   2.0000     -18.772067      -510.8139
   2   2.0000     -13.992313      -380.7502
   3   2.0000     -10.070187      -274.0237
   4   2.0000      -9.930183      -270.2140
   5   2.0000      -9.915590      -269.8169
   6   2.0000      -9.904279      -269.5091
   7   2.0000      -9.903476      -269.4873
   8   2.0000      -9.901464      -269.4325
   9   2.0000      -9.900335      -269.4018
  10   2.0000      -9.895451      -269.2689
  11   2.0000      -9.810579      -266.9594
  12   2.0000      -1.204799       -32.7842
  13   2.0000      -0.941936       -25.6314
  14   2.0000      -0.824703       -22.4413
  15   2.0000      -0.743235       -20.2244
  16   2.0000      -0.710808       -19.3421
  17   2.0000      -0.665510       -18.1094
  18   2.0000      -0.643552       -17.5119
  19   2.0000      -0.603067       -16.4103
  20   2.0000      -0.585683       -15.9372
  21   2.0000      -0.548760       -14.9325
  22   2.0000      -0.515669       -14.0321
  23   2.0000      -0.505852       -13.7649
  24   2.0000      -0.482190       -13.1211
  25   2.0000      -0.473498       -12.8845
  26   2.0000      -0.452147       -12.3035
  27   2.0000      -0.432370       -11.7654
  28   2.0000      -0.423865       -11.5339
  29   2.0000      -0.414143       -11.2694
  30   2.0000      -0.402929       -10.9643
  31   2.0000      -0.389034       -10.5862
  32   2.0000      -0.377646       -10.2763
  33   2.0000      -0.356704        -9.7064
  34   2.0000      -0.353430        -9.6173
  35   2.0000      -0.338261        -9.2046
  36   2.0000      -0.326739        -8.8910
  37   2.0000      -0.324419        -8.8279
  38   2.0000      -0.309263        -8.4155
  39   2.0000      -0.303706        -8.2643
  40   2.0000      -0.294279        -8.0077
  41   2.0000      -0.288376        -7.8471
  42   2.0000      -0.275561        -7.4984
  43   2.0000      -0.267224        -7.2715
  44   2.0000      -0.264948        -7.2096
  45   2.0000      -0.235144        -6.3986
  46   2.0000      -0.144456        -3.9308
  47   0.0000      -0.059615        -1.6222
  48   0.0000       0.003698         0.1006
  49   0.0000       0.011913         0.3242
  50   0.0000       0.027178         0.7395
  51   0.0000       0.035358         0.9621

MULLIKEN ATOMIC CHARGES
-----------------------
   0 C :   -0.215025
   1 C :   -0.141306
   2 C :   -0.204581
   3 H :    0.122603
   4 H :    0.114391
   5 C :    0.316612
   6 C :    0.203254
   7 C :   -0.336460
   8 N :   -0.415669
   9 H :    0.196154
  10 H :    0.203824
  11 H :    0.084826
  12 H :    0.058682
  13 F :   -0.100808
  14 O :   -0.277529
  15 C :   -0.108253
  16 C :   -0.175525
  17 H :    0.067387
  18 H :    0.069011
  19 C :   -0.173712
  20 H :    0.128350
  21 H :    0.063240
  22 H :    0.090761
  23 H :    0.078277
  24 H :    0.084506
  25 H :    0.086668
  26 H :    0.094977
  27 H :    0.085345
Sum of atomic charges:   -0.0000000

LOEWDIN ATOMIC CHARGES
----------------------
   0 C :   -0.213670
   1 C :   -0.259137
   2 C :   -0.233238
   3 H :    0.153442
   4 H :    0.152694
   5 C :   -0.520292
   6 C :   -0.376587
   7 C :   -0.263208
   8 N :    0.000356
   9 H :    0.159588
  10 H :    0.164764
  11 H :    0.095538
  12 H :    0.098981
  13 F :    0.338506
  14 O :    0.118373
  15 C :   -0.254341
  16 C :   -0.253944
  17 H :    0.133004
  18 H :    0.127022
  19 C :   -0.263406
  20 H :    0.144922
  21 H :    0.131140
  22 H :    0.132481
  23 H :    0.134285
  24 H :    0.136482
  25 H :    0.135882
  26 H :    0.141850
  27 H :    0.138511

  Mayer bond orders larger than 0.100000
B(  0-C ,  6-C ) :   0.9629 B(  0-C , 15-C ) :   0.9328 B(  0-C , 26-H ) :   0.9925
B(  0-C , 27-H ) :   0.9625 B(  1-C ,  2-C ) :   0.9412 B(  1-C , 19-C ) :   0.9571
B(  1-C , 24-H ) :   0.9552 B(  1-C , 25-H ) :   0.9657 B(  2-C ,  3-H ) :   0.9586
B(  2-C ,  4-H ) :   0.9381 B(  2-C ,  5-C ) :   0.9958 B(  5-C , 13-F ) :   1.1109
B(  5-C , 14-O ) :   2.0761 B(  6-C ,  7-C ) :   1.7185 B(  6-C ,  8-N ) :   1.1150
B(  7-C , 11-H ) :   1.0133 B(  7-C , 12-H ) :   0.9802 B(  8-N ,  9-H ) :   0.9336
B(  8-N , 10-H ) :   0.9249 B( 15-C , 16-C ) :   0.9571 B( 15-C , 17-H ) :   0.9555
B( 15-C , 18-H ) :   0.9608 B( 16-C , 19-C ) :   0.9479 B( 16-C , 20-H ) :   0.9672
B( 16-C , 21-H ) :   0.9527 B( 19-C , 22-H ) :   0.9761 B( 19-C , 23-H ) :   0.9579

Dispersion correction           -0.062651078
FINAL SINGLE POINT ENERGY      -582.394056182283

DIPOLE MOMENT
-------------
                                X             Y             Z
Electronic contribution:     -3.62304      -1.65211     -10.31199
Nuclear contribution   :      3.32973       2.37270      11.37738
                        -----------------------------------------
Total Dipole Moment    :     -0.29331       0.72059       1.06539
                        -----------------------------------------
Magnitude (a.u.)       :      1.31922
Magnitude (Debye)      :      3.35320

Rotational constants in cm-1:     0.040902     0.025807     0.019036
Rotational constants in MHz :  1226.202138   773.670450   570.681201

                             ****ORCA TERMINATED NORMALLY****
TOTAL RUN TIME: 0 days 0 hours 0 minutes 20 seconds 2 msec
