                         Program Version 5.0.0 -  RELEASE  -
|  1> !BLYP D3BJ RIJCOSX def2-TZVP def2/J TightSCF xyzfile
|  2>
|  3> *xyzfile 0 1 D4.xyz
|  4>
|  5> %MaxCore 64000
|  6>
|  7> %pal nprocs 18
|  8> end
|  9>
| 10> %scf
| 11>   MaxIter 150
| 12> end
| 13>
| 14>
| 15>                          ****END OF INPUT****

CARTESIAN COORDINATES (ANGSTROEM)
---------------------------------
  C      2.486452   -2.677121   -2.563447
  C     -0.870963    0.248043   -2.662804
  C     -0.477492    0.608191   -4.101052
  H      0.206773    1.458299   -4.118748
  H     -1.368442    0.929419   -4.647855
  C      0.184673   -0.506640   -4.916760
  C      3.037640   -2.366715   -3.923509
  N      2.280360   -2.454408   -4.967692
  C      4.321736   -2.017932   -4.016641
  H      4.879940   -1.911668   -3.173823
  H      4.710148   -1.670882   -4.883561
  H      1.270423   -2.412650   -4.866143
  H      2.581829   -2.055282   -5.846878
  O     -0.158685   -1.701088   -4.657981
  F      1.055938   -0.174410   -5.740373
  C      2.497991   -1.469464   -1.610303
  C      1.582841   -0.321986   -2.042619
  H      2.193083   -1.833912   -0.625420
  H      3.523356   -1.103982   -1.490392
  C      0.100160   -0.673551   -1.915815
  H      1.822311   -0.040361   -3.072834
  H      1.813180    0.557019   -1.433266
  H     -0.063284   -1.679120   -2.301112
  H     -0.168820   -0.691680   -0.853831
  H     -1.001048    1.181040   -2.104071
  H     -1.844645   -0.246592   -2.663281
  H      1.472592   -3.051527   -2.694366
  H      3.083201   -3.490638   -2.141472

 Total Charge           Charge          ....    0
 Multiplicity           Mult            ....    1
 Number of Electrons    NEL             ....   94
 Basis Dimension        Dim             ....  468

ORBITAL ENERGIES
----------------

  NO   OCC          E(Eh)            E(eV)
   0   2.0000     -24.376270      -663.3120
   1   2.0000     -18.798350      -511.5291
   2   2.0000     -13.973440      -380.2366
   3   2.0000     -10.098068      -274.7824
   4   2.0000      -9.945863      -270.6407
   5   2.0000      -9.921643      -269.9816
   6   2.0000      -9.903855      -269.4976
   7   2.0000      -9.901742      -269.4401
   8   2.0000      -9.901293      -269.4279
   9   2.0000      -9.896010      -269.2841
  10   2.0000      -9.891200      -269.1532
  11   2.0000      -9.818831      -267.1840
  12   2.0000      -1.237174       -33.6652
  13   2.0000      -0.963266       -26.2118
  14   2.0000      -0.828939       -22.5566
  15   2.0000      -0.747498       -20.3404
  16   2.0000      -0.711533       -19.3618
  17   2.0000      -0.673666       -18.3314
  18   2.0000      -0.635537       -17.2938
  19   2.0000      -0.611356       -16.6358
  20   2.0000      -0.592700       -16.1282
  21   2.0000      -0.553747       -15.0682
  22   2.0000      -0.520041       -14.1510
  23   2.0000      -0.511457       -13.9174
  24   2.0000      -0.494018       -13.4429
  25   2.0000      -0.481248       -13.0954
  26   2.0000      -0.468272       -12.7423
  27   2.0000      -0.440749       -11.9934
  28   2.0000      -0.426529       -11.6064
  29   2.0000      -0.422246       -11.4899
  30   2.0000      -0.414861       -11.2890
  31   2.0000      -0.390360       -10.6222
  32   2.0000      -0.373697       -10.1688
  33   2.0000      -0.359977        -9.7955
  34   2.0000      -0.356333        -9.6963
  35   2.0000      -0.343619        -9.3503
  36   2.0000      -0.332650        -9.0519
  37   2.0000      -0.324747        -8.8368
  38   2.0000      -0.314935        -8.5698
  39   2.0000      -0.313058        -8.5187
  40   2.0000      -0.296136        -8.0583
  41   2.0000      -0.289699        -7.8831
  42   2.0000      -0.279376        -7.6022
  43   2.0000      -0.273327        -7.4376
  44   2.0000      -0.269129        -7.3234
  45   2.0000      -0.251678        -6.8485
  46   2.0000      -0.134293        -3.6543
  47   0.0000      -0.086087        -2.3426
  48   0.0000       0.001781         0.0485
  49   0.0000       0.020698         0.5632
  50   0.0000       0.030436         0.8282
  51   0.0000       0.033710         0.9173

MULLIKEN ATOMIC CHARGES
-----------------------
   0 C :   -0.201488
   1 C :   -0.119339
   2 C :   -0.227143
   3 H :    0.116797
   4 H :    0.122450
   5 C :    0.346602
   6 C :    0.166787
   7 N :   -0.347855
   8 C :   -0.398438
   9 H :    0.062474
  10 H :    0.056207
  11 H :    0.228045
  12 H :    0.181604
  13 O :   -0.337870
  14 F :   -0.067839
  15 C :   -0.088292
  16 C :   -0.180090
  17 H :    0.059023
  18 H :    0.082853
  19 C :   -0.167809
  20 H :    0.096828
  21 H :    0.065965
  22 H :    0.110638
  23 H :    0.077836
  24 H :    0.087938
  25 H :    0.087115
  26 H :    0.090914
  27 H :    0.096085
Sum of atomic charges:    0.0000000

LOEWDIN ATOMIC CHARGES
----------------------
   0 C :   -0.207808
   1 C :   -0.247470
   2 C :   -0.233436
   3 H :    0.145835
   4 H :    0.156977
   5 C :   -0.514670
   6 C :   -0.386062
   7 N :    0.038917
   8 C :   -0.293350
   9 H :    0.098374
  10 H :    0.089820
  11 H :    0.136530
  12 H :    0.157402
  13 O :    0.080410
  14 F :    0.371377
  15 C :   -0.244607
  16 C :   -0.253736
  17 H :    0.131703
  18 H :    0.134947
  19 C :   -0.261824
  20 H :    0.136736
  21 H :    0.131687
  22 H :    0.137711
  23 H :    0.134581
  24 H :    0.138033
  25 H :    0.139941
  26 H :    0.134153
  27 H :    0.147826

  Mayer bond orders larger than 0.100000
B(  0-C ,  6-C ) :   0.9241 B(  0-C , 15-C ) :   0.9550 B(  0-C , 26-H ) :   0.9916
B(  0-C , 27-H ) :   0.9658 B(  1-C ,  2-C ) :   0.9616 B(  1-C , 19-C ) :   0.9653
B(  1-C , 24-H ) :   0.9580 B(  1-C , 25-H ) :   0.9572 B(  2-C ,  3-H ) :   0.9494
B(  2-C ,  4-H ) :   0.9249 B(  2-C ,  5-C ) :   1.0018 B(  5-C , 13-O ) :   1.9178
B(  5-C , 14-F ) :   1.1834 B(  6-C ,  7-N ) :   1.2560 B(  6-C ,  8-C ) :   1.6897
B(  7-N , 11-H ) :   0.8624 B(  7-N , 12-H ) :   0.9318 B(  8-C ,  9-H ) :   0.9910
B(  8-C , 10-H ) :   0.9845 B( 11-H , 13-O ) :   0.1277 B( 15-C , 16-C ) :   0.9756
B( 15-C , 17-H ) :   0.9494 B( 15-C , 18-H ) :   0.9553 B( 16-C , 19-C ) :   0.9499
B( 16-C , 20-H ) :   0.9579 B( 16-C , 21-H ) :   0.9546 B( 19-C , 22-H ) :   0.9686
B( 19-C , 23-H ) :   0.9575

Dispersion correction           -0.062712339
FINAL SINGLE POINT ENERGY      -582.408773947130

DIPOLE MOMENT
-------------
                                X             Y             Z
Electronic contribution:     -3.42637       0.72965     -12.79006
Nuclear contribution   :      2.21030       0.63135      12.80988
                        -----------------------------------------
Total Dipole Moment    :     -1.21607       1.36100       0.01982
                        -----------------------------------------
Magnitude (a.u.)       :      1.82525
Magnitude (Debye)      :      4.63942

Rotational constants in cm-1:     0.039980     0.026547     0.019089
Rotational constants in MHz :  1198.568620   795.867393   572.288555

                             ****ORCA TERMINATED NORMALLY****
TOTAL RUN TIME: 0 days 0 hours 0 minutes 14 seconds 10 msec
