                         Program Version 5.0.0 -  RELEASE  -
|  1> !LC-PBE RIJCOSX def2-SVPD def2/J TightSCF
|  2> *xyz -1 1
|  3> C          1.22302        2.46987       -3.75691
|  4> O          2.35381        1.71203       -3.93448
|  5> H          1.26998        3.33359       -4.38673
|  6> H          1.15671        2.77738       -2.73420
|  7> H          0.36099        1.88932       -4.01140
|  8> *
|  9>
| 10> %MaxCore 64000
| 11>
| 12> %pal nprocs 4
| 13> end
| 14>
| 15> %scf
| 16>   MaxIter 150
| 17> end
| 18>
| 19>
| 20>                          ****END OF INPUT****

CARTESIAN COORDINATES (ANGSTROEM)
---------------------------------
  C      1.223020    2.469870   -3.756910
  O      2.353810    1.712030   -3.934480
  H      1.269980    3.333590   -4.386730
  H      1.156710    2.777380   -2.734200
  H      0.360990    1.889320   -4.011400

 Total Charge           Charge          ....   -1
 Multiplicity           Mult            ....    1
 Number of Electrons    NEL             ....   18
 Basis Dimension        Dim             ....   67

ORBITAL ENERGIES
----------------

  NO   OCC          E(Eh)            E(eV)
   0   2.0000     -18.629369      -506.9309
   1   2.0000      -9.909807      -269.6595
   2   2.0000      -0.810661       -22.0592
   3   2.0000      -0.548961       -14.9380
   4   2.0000      -0.337873        -9.1940
   5   2.0000      -0.337864        -9.1937
   6   2.0000      -0.231261        -6.2929
   7   2.0000      -0.074734        -2.0336
   8   2.0000      -0.074728        -2.0334
   9   0.0000       0.262357         7.1391
  10   0.0000       0.340533         9.2664
  11   0.0000       0.340535         9.2664
  12   0.0000       0.350130         9.5275
  13   0.0000       0.387534        10.5453

MULLIKEN ATOMIC CHARGES
-----------------------
   0 C :    0.534954
   1 O :   -1.003939
   2 H :   -0.177088
   3 H :   -0.176848
   4 H :   -0.177079
Sum of atomic charges:   -1.0000000

LOEWDIN ATOMIC CHARGES
----------------------
   0 C :   -0.149549
   1 O :   -0.662416
   2 H :   -0.062685
   3 H :   -0.062677
   4 H :   -0.062674

  Mayer bond orders larger than 0.100000
B(  0-C ,  1-O ) :   1.2881 B(  0-C ,  2-H ) :   0.9442 B(  0-C ,  3-H ) :   0.9442
B(  0-C ,  4-H ) :   0.9443

FINAL SINGLE POINT ENERGY      -114.684578495412

DIPOLE MOMENT
-------------
                                X             Y             Z
Electronic contribution:      1.43796      -0.96354      -0.22582
Nuclear contribution   :     -2.37854       1.59406       0.37350
                        -----------------------------------------
Total Dipole Moment    :     -0.94058       0.63052       0.14768
                        -----------------------------------------
Magnitude (a.u.)       :      1.14195
Magnitude (Debye)      :      2.90261

Rotational constants in cm-1:     5.477743     0.935515     0.935515
Rotational constants in MHz : 164218.600605 28046.042741 28046.034116

                             ****ORCA TERMINATED NORMALLY****
TOTAL RUN TIME: 0 days 0 hours 0 minutes 3 seconds 436 msec
