                         Program Version 5.0.0 -  RELEASE  -
|  1> !LC-PBE RIJCOSX def2-SVPD def2/J TightSCF
|  2> *xyz 1 1
|  3> C          1.63556       -1.67040       -5.29211
|  4> N          2.48451       -0.50741       -5.14039
|  5> C          3.45115       -0.14953       -5.95259
|  6> N          3.92267        1.08956       -5.85071
|  7> N          3.96616       -1.00618       -6.86788
|  8> H          3.52139       -1.90647       -6.99527
|  9> H          4.44482       -0.62347       -7.67035
| 10> H          2.25200        0.24080       -4.49879
| 11> H          3.46428        1.64078       -5.13639
| 12> H          4.83447        1.31375       -6.22465
| 13> H          2.06372       -2.33262       -6.01532
| 14> H          0.66479       -1.36293       -5.62068
| 15> H          1.55078       -2.17513       -4.35245
| 16> *
| 17>
| 18> %MaxCore 64000
| 19>
| 20> %pal nprocs 4
| 21> end
| 22>
| 23> %scf
| 24>   MaxIter 150
| 25> end
| 26>
| 27>
| 28>                          ****END OF INPUT****

CARTESIAN COORDINATES (ANGSTROEM)
---------------------------------
  C      1.635560   -1.670400   -5.292110
  N      2.484510   -0.507410   -5.140390
  C      3.451150   -0.149530   -5.952590
  N      3.922670    1.089560   -5.850710
  N      3.966160   -1.006180   -6.867880
  H      3.521390   -1.906470   -6.995270
  H      4.444820   -0.623470   -7.670350
  H      2.252000    0.240800   -4.498790
  H      3.464280    1.640780   -5.136390
  H      4.834470    1.313750   -6.224650
  H      2.063720   -2.332620   -6.015320
  H      0.664790   -1.362930   -5.620680
  H      1.550780   -2.175130   -4.352450

 Total Charge           Charge          ....    1
 Multiplicity           Mult            ....    1
 Number of Electrons    NEL             ....   40
 Basis Dimension        Dim             ....  164

ORBITAL ENERGIES
----------------

  NO   OCC          E(Eh)            E(eV)
   0   2.0000     -14.469397      -393.7323
   1   2.0000     -14.458855      -393.4454
   2   2.0000     -14.455542      -393.3553
   3   2.0000     -10.477839      -285.1165
   4   2.0000     -10.337156      -281.2883
   5   2.0000      -1.399999       -38.0959
   6   2.0000      -1.276831       -34.7443
   7   2.0000      -1.261307       -34.3219
   8   2.0000      -1.079501       -29.3747
   9   2.0000      -0.984950       -26.8018
  10   2.0000      -0.941994       -25.6330
  11   2.0000      -0.912308       -24.8252
  12   2.0000      -0.838579       -22.8189
  13   2.0000      -0.836423       -22.7602
  14   2.0000      -0.814129       -22.1536
  15   2.0000      -0.792482       -21.5645
  16   2.0000      -0.739367       -20.1192
  17   2.0000      -0.724118       -19.7042
  18   2.0000      -0.617356       -16.7991
  19   2.0000      -0.590832       -16.0773
  20   0.0000      -0.084052        -2.2872
  21   0.0000      -0.079018        -2.1502
  22   0.0000      -0.045838        -1.2473
  23   0.0000      -0.034481        -0.9383
  24   0.0000      -0.002431        -0.0661

MULLIKEN ATOMIC CHARGES
-----------------------
   0 C :    0.964102
   1 N :   -0.627926
   2 C :    1.193184
   3 N :   -0.104064
   4 N :   -0.047204
   5 H :   -0.012881
   6 H :   -0.021844
   7 H :   -0.177198
   8 H :    0.069668
   9 H :   -0.023291
  10 H :   -0.201917
  11 H :   -0.002887
  12 H :   -0.007742
Sum of atomic charges:    1.0000000

LOEWDIN ATOMIC CHARGES
----------------------
   0 C :    0.245494
   1 N :    0.004682
   2 C :   -0.030790
   3 N :    0.248481
   4 N :    0.261613
   5 H :    0.013167
   6 H :    0.046476
   7 H :    0.066701
   8 H :    0.042395
   9 H :    0.054580
  10 H :   -0.006086
  11 H :    0.026492
  12 H :    0.026794

  Mayer bond orders larger than 0.100000
B(  0-C ,  1-N ) :   0.9765 B(  0-C ,  7-H ) :  -0.1633 B(  0-C , 10-H ) :   0.8755
B(  0-C , 11-H ) :   0.8179 B(  0-C , 12-H ) :   0.7886 B(  1-N ,  2-C ) :   1.0381
B(  1-N ,  3-N ) :   0.2684 B(  1-N ,  4-N ) :   0.1493 B(  1-N ,  7-H ) :   1.3422
B(  1-N , 10-H ) :   0.1968 B(  1-N , 11-H ) :   0.1360 B(  1-N , 12-H ) :   0.1724
B(  2-C ,  3-N ) :   0.9454 B(  2-C ,  4-N ) :   1.0183 B(  2-C ,  6-H ) :  -0.1171
B(  2-C ,  7-H ) :  -0.2367 B(  3-N ,  4-N ) :   0.1459 B(  3-N ,  8-H ) :   1.0570
B(  3-N ,  9-H ) :   1.1881 B(  4-N ,  5-H ) :   1.0381 B(  4-N ,  6-H ) :   1.1805
B(  5-H ,  6-H ) :  -0.1458 B(  8-H ,  9-H ) :  -0.1338

FINAL SINGLE POINT ENERGY      -244.156977483602

DIPOLE MOMENT
-------------
                                X             Y             Z
Electronic contribution:      1.96088       1.92533      -0.26303
Nuclear contribution   :     -1.83770      -1.53167       0.12165
                        -----------------------------------------
Total Dipole Moment    :      0.12318       0.39366      -0.14137
                        -----------------------------------------
Magnitude (a.u.)       :      0.43604
Magnitude (Debye)      :      1.10832

Rotational constants in cm-1:     0.307545     0.135665     0.096412
Rotational constants in MHz :  9219.967860  4067.145400  2890.348280

                             ****ORCA TERMINATED NORMALLY****
TOTAL RUN TIME: 0 days 0 hours 0 minutes 17 seconds 223 msec
