                         Program Version 5.0.0 -  RELEASE  -
|  1> !LC-PBE RIJCOSX def2-SVPD def2/J TightSCF
|  2> *xyz 0 1
|  3> C          1.22302        2.46987       -3.75691
|  4> F          2.35381        1.71203       -3.93448
|  5> H          1.26998        3.33359       -4.38673
|  6> H          1.15671        2.77738       -2.73420
|  7> H          0.36099        1.88932       -4.01140
|  8> *
|  9>
| 10> %MaxCore 64000
| 11>
| 12> %pal nprocs 4
| 13> end
| 14>
| 15> %scf
| 16>   MaxIter 150
| 17> end
| 18>
| 19>
| 20>                          ****END OF INPUT****

CARTESIAN COORDINATES (ANGSTROEM)
---------------------------------
  C      1.223020    2.469870   -3.756910
  F      2.353810    1.712030   -3.934480
  H      1.269980    3.333590   -4.386730
  H      1.156710    2.777380   -2.734200
  H      0.360990    1.889320   -4.011400

 Total Charge           Charge          ....    0
 Multiplicity           Mult            ....    1
 Number of Electrons    NEL             ....   18
 Basis Dimension        Dim             ....   67

ORBITAL ENERGIES
----------------

  NO   OCC          E(Eh)            E(eV)
   0   2.0000     -24.490930      -666.4321
   1   2.0000     -10.197864      -277.4980
   2   2.0000      -1.337905       -36.4062
   3   2.0000      -0.869718       -23.6662
   4   2.0000      -0.644435       -17.5360
   5   2.0000      -0.642767       -17.4906
   6   2.0000      -0.642759       -17.4904
   7   2.0000      -0.489878       -13.3303
   8   2.0000      -0.489873       -13.3301
   9   0.0000       0.091921         2.5013
  10   0.0000       0.147267         4.0073
  11   0.0000       0.175860         4.7854
  12   0.0000       0.175862         4.7854
  13   0.0000       0.213918         5.8210

MULLIKEN ATOMIC CHARGES
-----------------------
   0 C :    0.598741
   1 F :   -0.463216
   2 H :   -0.045173
   3 H :   -0.044985
   4 H :   -0.045366
Sum of atomic charges:   -0.0000000

LOEWDIN ATOMIC CHARGES
----------------------
   0 C :    0.230749
   1 F :   -0.248302
   2 H :    0.005848
   3 H :    0.005851
   4 H :    0.005854

  Mayer bond orders larger than 0.100000
B(  0-C ,  1-F ) :   0.8892 B(  0-C ,  2-H ) :   0.9647 B(  0-C ,  3-H ) :   0.9645
B(  0-C ,  4-H ) :   0.9648

FINAL SINGLE POINT ENERGY      -139.286229899521

DIPOLE MOMENT
-------------
                                X             Y             Z
Electronic contribution:      2.37987      -1.59489      -0.37384
Nuclear contribution   :     -3.01708       2.02200       0.47377
                        -----------------------------------------
Total Dipole Moment    :     -0.63721       0.42711       0.09993
                        -----------------------------------------
Magnitude (a.u.)       :      0.77359
Magnitude (Debye)      :      1.96632

Rotational constants in cm-1:     5.477743     0.870792     0.870792
Rotational constants in MHz : 164218.600605 26105.683059 26105.675587

                             ****ORCA TERMINATED NORMALLY****
TOTAL RUN TIME: 0 days 0 hours 0 minutes 3 seconds 262 msec
