                         Program Version 5.0.0 -  RELEASE  -
|  1> !LC-PBE RIJCOSX def2-SVPD def2/J TightSCF
|  2> *xyz 0 1
|  3> C          1.63556       -1.67040       -5.29211
|  4> C          2.48451       -0.50741       -5.14039
|  5> C          3.45115       -0.14953       -5.95259
|  6> N          3.92267        1.08956       -5.85071
|  7> N          3.96616       -1.00618       -6.86788
|  8> H          3.52139       -1.90647       -6.99527
|  9> H          4.44482       -0.62347       -7.67035
| 10> H          2.25200        0.24080       -4.49879
| 11> H          3.46428        1.64078       -5.13639
| 12> H          4.83447        1.31375       -6.22465
| 13> H          2.06372       -2.33262       -6.01532
| 14> H          0.66479       -1.36293       -5.62068
| 15> H          1.55078       -2.17513       -4.35245
| 16> *
| 17>
| 18> %MaxCore 64000
| 19>
| 20> %pal nprocs 4
| 21> end
| 22>
| 23> %scf
| 24>   MaxIter 150
| 25> end
| 26>
| 27>
| 28>                          ****END OF INPUT****

CARTESIAN COORDINATES (ANGSTROEM)
---------------------------------
  C      1.635560   -1.670400   -5.292110
  C      2.484510   -0.507410   -5.140390
  C      3.451150   -0.149530   -5.952590
  N      3.922670    1.089560   -5.850710
  N      3.966160   -1.006180   -6.867880
  H      3.521390   -1.906470   -6.995270
  H      4.444820   -0.623470   -7.670350
  H      2.252000    0.240800   -4.498790
  H      3.464280    1.640780   -5.136390
  H      4.834470    1.313750   -6.224650
  H      2.063720   -2.332620   -6.015320
  H      0.664790   -1.362930   -5.620680
  H      1.550780   -2.175130   -4.352450

 Total Charge           Charge          ....    0
 Multiplicity           Mult            ....    1
 Number of Electrons    NEL             ....   40
 Basis Dimension        Dim             ....  164

ORBITAL ENERGIES
----------------

  NO   OCC          E(Eh)            E(eV)
   0   2.0000     -14.226349      -387.1186
   1   2.0000     -14.223582      -387.0434
   2   2.0000     -10.170417      -276.7511
   3   2.0000     -10.094598      -274.6880
   4   2.0000     -10.053099      -273.5587
   5   2.0000      -1.126593       -30.6561
   6   2.0000      -1.029202       -28.0060
   7   2.0000      -0.925809       -25.1925
   8   2.0000      -0.817855       -22.2550
   9   2.0000      -0.735608       -20.0169
  10   2.0000      -0.688092       -18.7239
  11   2.0000      -0.655728       -17.8433
  12   2.0000      -0.605846       -16.4859
  13   2.0000      -0.569359       -15.4930
  14   2.0000      -0.554876       -15.0990
  15   2.0000      -0.522391       -14.2150
  16   2.0000      -0.498032       -13.5521
  17   2.0000      -0.477799       -13.0016
  18   2.0000      -0.398337       -10.8393
  19   2.0000      -0.278453        -7.5771
  20   0.0000       0.093746         2.5510
  21   0.0000       0.116952         3.1824
  22   0.0000       0.125444         3.4135
  23   0.0000       0.154993         4.2176
  24   0.0000       0.164644         4.4802

MULLIKEN ATOMIC CHARGES
-----------------------
   0 C :    0.705644
   1 C :   -0.696980
   2 C :    0.652482
   3 N :   -0.053493
   4 N :   -0.039399
   5 H :   -0.009581
   6 H :   -0.114083
   7 H :   -0.268215
   8 H :    0.078572
   9 H :   -0.126188
  10 H :   -0.260173
  11 H :    0.036380
  12 H :    0.095035
Sum of atomic charges:    0.0000000

LOEWDIN ATOMIC CHARGES
----------------------
   0 C :    0.080184
   1 C :   -0.088762
   2 C :   -0.235316
   3 N :    0.155402
   4 N :    0.177807
   5 H :   -0.018277
   6 H :   -0.002082
   7 H :   -0.039178
   8 H :    0.008686
   9 H :    0.003536
  10 H :   -0.033525
  11 H :   -0.003143
  12 H :   -0.005333

  Mayer bond orders larger than 0.100000
B(  0-C ,  1-C ) :   1.1216 B(  0-C ,  7-H ) :   0.1230 B(  0-C , 10-H ) :   0.8756
B(  0-C , 11-H ) :   0.8185 B(  0-C , 12-H ) :   0.6321 B(  1-C ,  2-C ) :   1.8275
B(  1-C ,  3-N ) :   0.3176 B(  1-C ,  4-N ) :   0.1598 B(  1-C ,  7-H ) :   0.9974
B(  1-C , 10-H ) :   0.2815 B(  1-C , 12-H ) :   0.2526 B(  2-C ,  3-N ) :   0.9717
B(  2-C ,  4-N ) :   1.0482 B(  2-C ,  7-H ) :   0.2154 B(  3-N ,  4-N ) :   0.1031
B(  3-N ,  8-H ) :   1.0450 B(  3-N ,  9-H ) :   1.1922 B(  4-N ,  5-H ) :   1.0279
B(  4-N ,  6-H ) :   1.1671 B(  5-H ,  6-H ) :  -0.1246 B(  8-H ,  9-H ) :  -0.1315
B( 10-H , 12-H ) :   0.2035

FINAL SINGLE POINT ENERGY      -227.713972167391

DIPOLE MOMENT
-------------
                                X             Y             Z
Electronic contribution:      2.39119       1.85741      -0.77662
Nuclear contribution   :     -1.96139      -1.54412       0.26148
                        -----------------------------------------
Total Dipole Moment    :      0.42981       0.31329      -0.51514
                        -----------------------------------------
Magnitude (a.u.)       :      0.74044
Magnitude (Debye)      :      1.88205

Rotational constants in cm-1:     0.312277     0.136708     0.097371
Rotational constants in MHz :  9361.815989  4098.393303  2919.105491

                             ****ORCA TERMINATED NORMALLY****
TOTAL RUN TIME: 0 days 0 hours 0 minutes 18 seconds 244 msec
