                         Program Version 5.0.0 -  RELEASE  -
|  1> !LC-PBE RIJCOSX def2-SVPD def2/J TightSCF
|  2> *xyz 0 1
|  3> C          1.63556       -1.67040       -5.29211
|  4> N          2.48451       -0.50741       -5.14039
|  5> C          3.45115       -0.14953       -5.95259
|  6> C          3.92267        1.08956       -5.85071
|  7> N          3.96616       -1.00618       -6.86788
|  8> H          3.52139       -1.90647       -6.99527
|  9> H          4.44482       -0.62347       -7.67035
| 10> H          2.25200        0.24080       -4.49879
| 11> H          3.46428        1.64078       -5.13639
| 12> H          4.83447        1.31375       -6.22465
| 13> H          2.06372       -2.33262       -6.01532
| 14> H          0.66479       -1.36293       -5.62068
| 15> H          1.55078       -2.17513       -4.35245
| 16> *
| 17>
| 18> %MaxCore 64000
| 19>
| 20> %pal nprocs 4
| 21> end
| 22>
| 23> %scf
| 24>   MaxIter 150
| 25> end
| 26>
| 27>
| 28>                          ****END OF INPUT****

CARTESIAN COORDINATES (ANGSTROEM)
---------------------------------
  C      1.635560   -1.670400   -5.292110
  N      2.484510   -0.507410   -5.140390
  C      3.451150   -0.149530   -5.952590
  C      3.922670    1.089560   -5.850710
  N      3.966160   -1.006180   -6.867880
  H      3.521390   -1.906470   -6.995270
  H      4.444820   -0.623470   -7.670350
  H      2.252000    0.240800   -4.498790
  H      3.464280    1.640780   -5.136390
  H      4.834470    1.313750   -6.224650
  H      2.063720   -2.332620   -6.015320
  H      0.664790   -1.362930   -5.620680
  H      1.550780   -2.175130   -4.352450

 Total Charge           Charge          ....    0
 Multiplicity           Mult            ....    1
 Number of Electrons    NEL             ....   40
 Basis Dimension        Dim             ....  164

ORBITAL ENERGIES
----------------

  NO   OCC          E(Eh)            E(eV)
   0   2.0000     -14.233906      -387.3243
   1   2.0000     -14.229423      -387.2023
   2   2.0000     -10.178910      -276.9822
   3   2.0000     -10.161865      -276.5184
   4   2.0000     -10.035723      -273.0859
   5   2.0000      -1.142628       -31.0925
   6   2.0000      -1.044979       -28.4353
   7   2.0000      -0.919279       -25.0148
   8   2.0000      -0.826222       -22.4827
   9   2.0000      -0.753689       -20.5089
  10   2.0000      -0.688213       -18.7272
  11   2.0000      -0.639731       -17.4080
  12   2.0000      -0.619455       -16.8562
  13   2.0000      -0.603204       -16.4140
  14   2.0000      -0.545268       -14.8375
  15   2.0000      -0.531717       -14.4688
  16   2.0000      -0.517915       -14.0932
  17   2.0000      -0.503178       -13.6922
  18   2.0000      -0.389123       -10.5886
  19   2.0000      -0.281126        -7.6498
  20   0.0000       0.083561         2.2738
  21   0.0000       0.118135         3.2146
  22   0.0000       0.123082         3.3492
  23   0.0000       0.156835         4.2677
  24   0.0000       0.158456         4.3118

MULLIKEN ATOMIC CHARGES
-----------------------
   0 C :    0.992862
   1 N :   -0.556388
   2 C :    0.548940
   3 C :    0.290791
   4 N :    0.009183
   5 H :   -0.137086
   6 H :   -0.029569
   7 H :   -0.209094
   8 H :   -0.175585
   9 H :   -0.356487
  10 H :   -0.247265
  11 H :   -0.061573
  12 H :   -0.068728
Sum of atomic charges:    0.0000000

LOEWDIN ATOMIC CHARGES
----------------------
   0 C :    0.193374
   1 N :   -0.060915
   2 C :   -0.238002
   3 C :    0.105356
   4 N :    0.181812
   5 H :   -0.029922
   6 H :    0.014660
   7 H :    0.040229
   8 H :   -0.092624
   9 H :   -0.085211
  10 H :   -0.024500
  11 H :   -0.002438
  12 H :   -0.001820

  Mayer bond orders larger than 0.100000
B(  0-C ,  1-N ) :   0.9526 B(  0-C ,  7-H ) :  -0.1678 B(  0-C , 10-H ) :   0.8693
B(  0-C , 11-H ) :   0.8270 B(  0-C , 12-H ) :   0.7932 B(  1-N ,  2-C ) :   1.0680
B(  1-N ,  3-C ) :   0.2666 B(  1-N ,  7-H ) :   1.3010 B(  1-N , 10-H ) :   0.2144
B(  1-N , 11-H ) :   0.1267 B(  1-N , 12-H ) :   0.1847 B(  2-C ,  3-C ) :   1.7078
B(  2-C ,  4-N ) :   0.9960 B(  2-C ,  7-H ) :  -0.1857 B(  2-C ,  8-H ) :   0.1597
B(  2-C ,  9-H ) :   0.2019 B(  3-C ,  4-N ) :   0.2076 B(  3-C ,  8-H ) :   0.8525
B(  3-C ,  9-H ) :   0.7803 B(  4-N ,  5-H ) :   1.0550 B(  4-N ,  6-H ) :   1.1539
B(  5-H ,  6-H ) :  -0.1429

FINAL SINGLE POINT ENERGY      -227.697504853794

DIPOLE MOMENT
-------------
                                X             Y             Z
Electronic contribution:      0.98755       0.28386      -0.22629
Nuclear contribution   :     -1.67010      -1.22066       0.11760
                        -----------------------------------------
Total Dipole Moment    :     -0.68255      -0.93681      -0.10869
                        -----------------------------------------
Magnitude (a.u.)       :      1.16417
Magnitude (Debye)      :      2.95909

Rotational constants in cm-1:     0.314526     0.141398     0.099973
Rotational constants in MHz :  9429.255015  4239.015262  2997.111162

                             ****ORCA TERMINATED NORMALLY****
TOTAL RUN TIME: 0 days 0 hours 0 minutes 19 seconds 498 msec
