                         Program Version 5.0.0 -  RELEASE  -
|  1> !LC-PBE RIJCOSX def2-SVPD def2/J TightSCF
|  2> *xyz 0 1
|  3> C          1.63556       -1.67040       -5.29211
|  4> N          2.48451       -0.50741       -5.14039
|  5> C          3.45115       -0.14953       -5.95259
|  6> N          3.92267        1.08956       -5.85071
|  7> C          3.96616       -1.00618       -6.86788
|  8> H          3.52139       -1.90647       -6.99527
|  9> H          4.44482       -0.62347       -7.67035
| 10> H          2.25200        0.24080       -4.49879
| 11> H          3.46428        1.64078       -5.13639
| 12> H          4.83447        1.31375       -6.22465
| 13> H          2.06372       -2.33262       -6.01532
| 14> H          0.66479       -1.36293       -5.62068
| 15> H          1.55078       -2.17513       -4.35245
| 16> *
| 17>
| 18> %MaxCore 64000
| 19>
| 20> %pal nprocs 4
| 21> end
| 22>
| 23> %scf
| 24>   MaxIter 150
| 25> end
| 26>
| 27>
| 28>                          ****END OF INPUT****

CARTESIAN COORDINATES (ANGSTROEM)
---------------------------------
  C      1.635560   -1.670400   -5.292110
  N      2.484510   -0.507410   -5.140390
  C      3.451150   -0.149530   -5.952590
  N      3.922670    1.089560   -5.850710
  C      3.966160   -1.006180   -6.867880
  H      3.521390   -1.906470   -6.995270
  H      4.444820   -0.623470   -7.670350
  H      2.252000    0.240800   -4.498790
  H      3.464280    1.640780   -5.136390
  H      4.834470    1.313750   -6.224650
  H      2.063720   -2.332620   -6.015320
  H      0.664790   -1.362930   -5.620680
  H      1.550780   -2.175130   -4.352450

 Total Charge           Charge          ....    0
 Multiplicity           Mult            ....    1
 Number of Electrons    NEL             ....   40
 Basis Dimension        Dim             ....  164

ORBITAL ENERGIES
----------------

  NO   OCC          E(Eh)            E(eV)
   0   2.0000     -14.239122      -387.4662
   1   2.0000     -14.232513      -387.2864
   2   2.0000     -10.181526      -277.0534
   3   2.0000     -10.152511      -276.2639
   4   2.0000     -10.036070      -273.0954
   5   2.0000      -1.150654       -31.3109
   6   2.0000      -1.050544       -28.5867
   7   2.0000      -0.882963       -24.0266
   8   2.0000      -0.866085       -23.5674
   9   2.0000      -0.716992       -19.5103
  10   2.0000      -0.696163       -18.9435
  11   2.0000      -0.677743       -18.4423
  12   2.0000      -0.606255       -16.4970
  13   2.0000      -0.594520       -16.1777
  14   2.0000      -0.555593       -15.1184
  15   2.0000      -0.523918       -14.2565
  16   2.0000      -0.511939       -13.9306
  17   2.0000      -0.494941       -13.4680
  18   2.0000      -0.385921       -10.5014
  19   2.0000      -0.282007        -7.6738
  20   0.0000       0.086840         2.3630
  21   0.0000       0.109296         2.9741
  22   0.0000       0.125287         3.4092
  23   0.0000       0.155161         4.2222
  24   0.0000       0.159681         4.3451

MULLIKEN ATOMIC CHARGES
-----------------------
   0 C :    1.016622
   1 N :   -0.513753
   2 C :    0.515514
   3 N :   -0.019057
   4 C :    0.262135
   5 H :   -0.258484
   6 H :   -0.245420
   7 H :   -0.305309
   8 H :   -0.080161
   9 H :   -0.031228
  10 H :   -0.230610
  11 H :   -0.060071
  12 H :   -0.050178
Sum of atomic charges:    0.0000000

LOEWDIN ATOMIC CHARGES
----------------------
   0 C :    0.202098
   1 N :   -0.063526
   2 C :   -0.244296
   3 N :    0.169959
   4 C :    0.122554
   5 H :   -0.120308
   6 H :   -0.092901
   7 H :    0.028067
   8 H :   -0.002914
   9 H :    0.022536
  10 H :   -0.020825
  11 H :    0.000166
  12 H :   -0.000610

  Mayer bond orders larger than 0.100000
B(  0-C ,  1-N ) :   0.9625 B(  0-C ,  7-H ) :  -0.1493 B(  0-C , 10-H ) :   0.8583
B(  0-C , 11-H ) :   0.7965 B(  0-C , 12-H ) :   0.7647 B(  1-N ,  2-C ) :   1.0444
B(  1-N ,  3-N ) :   0.1777 B(  1-N ,  4-C ) :   0.2585 B(  1-N ,  7-H ) :   1.3365
B(  1-N , 10-H ) :   0.1919 B(  1-N , 11-H ) :   0.1512 B(  1-N , 12-H ) :   0.1839
B(  2-C ,  3-N ) :   0.9353 B(  2-C ,  4-C ) :   1.8778 B(  2-C ,  5-H ) :   0.1872
B(  2-C ,  6-H ) :   0.1950 B(  2-C ,  7-H ) :  -0.2168 B(  3-N ,  4-C ) :   0.2390
B(  3-N ,  8-H ) :   1.0993 B(  3-N ,  9-H ) :   1.1700 B(  4-C ,  5-H ) :   0.7462
B(  4-C ,  6-H ) :   0.8109 B(  5-H ,  6-H ) :   0.2055 B(  5-H , 10-H ) :   0.1283
B(  8-H ,  9-H ) :  -0.1279

FINAL SINGLE POINT ENERGY      -227.696519034115

DIPOLE MOMENT
-------------
                                X             Y             Z
Electronic contribution:      1.03689       2.35001       0.86909
Nuclear contribution   :     -1.66129      -1.64514      -0.08842
                        -----------------------------------------
Total Dipole Moment    :     -0.62440       0.70486       0.78067
                        -----------------------------------------
Magnitude (a.u.)       :      1.22317
Magnitude (Debye)      :      3.10906

Rotational constants in cm-1:     0.330436     0.136339     0.098902
Rotational constants in MHz :  9906.231858  4087.333233  2964.994979

                             ****ORCA TERMINATED NORMALLY****
TOTAL RUN TIME: 0 days 0 hours 0 minutes 18 seconds 331 msec
