                         Program Version 5.0.0 -  RELEASE  -
|  1> !LC-PBE RIJCOSX def2-SVPD def2/J TightSCF xyzfile
|  2>
|  3> *xyzfile 0 1 D2.xyz
|  4>
|  5> %MaxCore 64000
|  6>
|  7> %pal nprocs 4
|  8> end
|  9>
| 10> %scf
| 11>   MaxIter 150
| 12> end
| 13>
| 14>
| 15>                          ****END OF INPUT****

CARTESIAN COORDINATES (ANGSTROEM)
---------------------------------
  C      1.635557   -1.670396   -5.292109
  C      0.338484   -1.500907   -4.505398
  N      2.484511   -0.507410   -5.140392
  C     -0.684873   -0.528026   -5.099889
  C     -0.290406    0.951335   -5.153423
  H      0.607991    1.070692   -5.764412
  C     -0.055168    1.619420   -3.788577
  H     -1.080912    1.483775   -5.689436
  H      0.045006    0.862302   -3.003015
  H     -0.922936    2.230329   -3.517028
  C      1.223022    2.469865   -3.756911
  H      1.114701    3.258074   -4.532999
  H      1.237732    3.011242   -2.792157
  F      2.353815    1.712032   -3.934477
  H      1.398337   -1.829239   -6.352591
  H      2.155864   -2.565398   -4.932091
  C      3.451149   -0.149530   -5.952589
  C      3.922667    1.089559   -5.850711
  N      3.966162   -1.006183   -6.867880
  H      3.521391   -1.906467   -6.995270
  H      4.444824   -0.623472   -7.670348
  H      2.251995    0.240804   -4.498792
  H      3.464277    1.640782   -5.136392
  H      4.834470    1.313745   -6.224653
  H     -0.937999   -0.869056   -6.110838
  H     -1.604638   -0.622496   -4.513132
  H      0.594887   -1.211578   -3.482312
  H     -0.126530   -2.487656   -4.434176

 Total Charge           Charge          ....    0
 Multiplicity           Mult            ....    1
 Number of Electrons    NEL             ....   88
 Basis Dimension        Dim             ....  359

ORBITAL ENERGIES
----------------

  NO   OCC          E(Eh)            E(eV)
   0   2.0000     -24.524226      -667.3381
   1   2.0000     -14.213383      -386.7658
   2   2.0000     -14.201824      -386.4513
   3   2.0000     -10.220939      -278.1259
   4   2.0000     -10.157934      -276.4114
   5   2.0000     -10.156418      -276.3702
   6   2.0000     -10.144221      -276.0383
   7   2.0000     -10.132433      -275.7175
   8   2.0000     -10.131925      -275.7037
   9   2.0000     -10.130032      -275.6522
  10   2.0000     -10.008120      -272.3348
  11   2.0000      -1.377025       -37.4708
  12   2.0000      -1.123218       -30.5643
  13   2.0000      -1.032958       -28.1082
  14   2.0000      -0.994087       -27.0505
  15   2.0000      -0.947361       -25.7790
  16   2.0000      -0.905887       -24.6504
  17   2.0000      -0.848022       -23.0758
  18   2.0000      -0.811841       -22.0913
  19   2.0000      -0.780439       -21.2368
  20   2.0000      -0.739319       -20.1179
  21   2.0000      -0.721199       -19.6248
  22   2.0000      -0.698488       -19.0068
  23   2.0000      -0.670445       -18.2437
  24   2.0000      -0.659848       -17.9554
  25   2.0000      -0.654489       -17.8095
  26   2.0000      -0.631478       -17.1834
  27   2.0000      -0.622672       -16.9438
  28   2.0000      -0.593689       -16.1551
  29   2.0000      -0.583668       -15.8824
  30   2.0000      -0.565086       -15.3768
  31   2.0000      -0.552683       -15.0393
  32   2.0000      -0.536899       -14.6098
  33   2.0000      -0.520209       -14.1556
  34   2.0000      -0.504399       -13.7254
  35   2.0000      -0.498125       -13.5547
  36   2.0000      -0.488074       -13.2812
  37   2.0000      -0.480282       -13.0692
  38   2.0000      -0.462529       -12.5860
  39   2.0000      -0.452753       -12.3200
  40   2.0000      -0.449596       -12.2341
  41   2.0000      -0.447181       -12.1684
  42   2.0000      -0.370099       -10.0709
  43   2.0000      -0.259878        -7.0716
  44   0.0000       0.084959         2.3118
  45   0.0000       0.095016         2.5855
  46   0.0000       0.104951         2.8559
  47   0.0000       0.108214         2.9446
  48   0.0000       0.128000         3.4831

MULLIKEN ATOMIC CHARGES
-----------------------
   0 C :    0.478102
   1 C :    0.015344
   2 N :   -0.103118
   3 C :    0.026812
   4 C :   -0.040168
   5 H :    0.146935
   6 C :   -0.155031
   7 H :   -0.176613
   8 H :    0.010973
   9 H :   -0.058741
  10 C :    0.738616
  11 H :    0.021881
  12 H :    0.022577
  13 F :   -0.751988
  14 H :    0.046734
  15 H :   -0.147662
  16 C :    0.667260
  17 C :    0.511113
  18 N :   -0.079140
  19 H :   -0.037604
  20 H :   -0.031722
  21 H :   -0.457421
  22 H :   -0.260640
  23 H :   -0.480221
  24 H :    0.163119
  25 H :   -0.033615
  26 H :    0.037738
  27 H :   -0.073519
Sum of atomic charges:    0.0000000

LOEWDIN ATOMIC CHARGES
----------------------
   0 C :    0.021373
   1 C :   -0.047605
   2 N :   -0.007946
   3 C :   -0.049790
   4 C :   -0.043025
   5 H :    0.023263
   6 C :   -0.025530
   7 H :    0.031500
   8 H :    0.026757
   9 H :    0.041763
  10 C :    0.132632
  11 H :    0.062032
  12 H :    0.049957
  13 F :   -0.208056
  14 H :    0.032376
  15 H :    0.030482
  16 C :   -0.215138
  17 C :    0.131993
  18 N :    0.181434
  19 H :   -0.020826
  20 H :    0.010002
  21 H :   -0.055234
  22 H :   -0.146036
  23 H :   -0.085836
  24 H :    0.036231
  25 H :    0.033697
  26 H :    0.025936
  27 H :    0.033591

  Mayer bond orders larger than 0.100000
B(  0-C ,  1-C ) :   1.2173 B(  0-C ,  2-N ) :   0.9796 B(  0-C , 14-H ) :   0.7984
B(  0-C , 15-H ) :   0.9275 B(  0-C , 21-H ) :  -0.1876 B(  0-C , 26-H ) :   0.1213
B(  0-C , 27-H ) :   0.1641 B(  1-C ,  3-C ) :   1.2335 B(  1-C , 24-H ) :   0.1390
B(  1-C , 25-H ) :   0.1582 B(  1-C , 26-H ) :   0.8135 B(  1-C , 27-H ) :   0.8534
B(  2-N , 14-H ) :   0.2733 B(  2-N , 15-H ) :   0.1618 B(  2-N , 16-C ) :   1.0458
B(  2-N , 17-C ) :   0.3164 B(  2-N , 18-N ) :   0.1372 B(  2-N , 21-H ) :   1.0795
B(  3-C ,  4-C ) :   1.3073 B(  3-C ,  5-H ) :   0.1287 B(  3-C ,  7-H ) :   0.1127
B(  3-C , 24-H ) :   0.7078 B(  3-C , 25-H ) :   0.8975 B(  3-C , 26-H ) :   0.1354
B(  3-C , 27-H ) :   0.1202 B(  4-C ,  5-H ) :   0.8607 B(  4-C ,  6-C ) :   1.2076
B(  4-C ,  7-H ) :   0.9066 B(  4-C ,  8-H ) :   0.1038 B(  4-C ,  9-H ) :   0.1411
B(  4-C , 24-H ) :   0.1947 B(  4-C , 25-H ) :   0.1085 B(  6-C ,  8-H ) :   0.9046
B(  6-C ,  9-H ) :   0.9552 B(  6-C , 10-C ) :   1.1703 B(  6-C , 12-H ) :   0.1378
B(  6-C , 13-F ) :   0.1027 B( 10-C , 11-H ) :   0.8828 B( 10-C , 12-H ) :   0.8479
B( 10-C , 13-F ) :   0.7237 B( 11-H , 13-F ) :   0.1763 B( 13-F , 21-H ) :   0.1163
B( 13-F , 22-H ) :   0.2092 B( 16-C , 17-C ) :   1.6449 B( 16-C , 18-N ) :   0.8087
B( 16-C , 20-H ) :  -0.1291 B( 16-C , 21-H ) :  -0.4022 B( 16-C , 22-H ) :   0.2219
B( 16-C , 23-H ) :   0.3479 B( 17-C , 18-N ) :   0.2852 B( 17-C , 22-H ) :   0.6452
B( 17-C , 23-H ) :   0.5636 B( 18-N , 19-H ) :   0.9968 B( 18-N , 20-H ) :   1.1884
B( 19-H , 20-H ) :  -0.1440 B( 21-H , 22-H ) :  -0.1168

FINAL SINGLE POINT ENERGY      -522.382431470873

DIPOLE MOMENT
-------------
                                X             Y             Z
Electronic contribution:      6.28496       2.46903       1.71066
Nuclear contribution   :     -7.85451      -2.70006      -1.48294
                        -----------------------------------------
Total Dipole Moment    :     -1.56955      -0.23104       0.22772
                        -----------------------------------------
Magnitude (a.u.)       :      1.60272
Magnitude (Debye)      :      4.07380

Rotational constants in cm-1:     0.044065     0.029250     0.019826
Rotational constants in MHz :  1321.026981   876.903192   594.367265

                             ****ORCA TERMINATED NORMALLY****
TOTAL RUN TIME: 0 days 0 hours 2 minutes 13 seconds 881 msec
