                         Program Version 5.0.0 -  RELEASE  -
|  1> !PBE D3BJ RIJCOSX def2-TZVPD def2/J TightSCF
|  2> *xyz -1 1
|  3> C         -1.10433        0.25137       -2.86006
|  4> C         -0.71189        0.84252       -4.21834
|  5> H          0.15463        1.49980       -4.13091
|  6> H         -1.53813        1.45922       -4.58267
|  7> C         -0.39762       -0.20587       -5.28802
|  8> O          0.61717       -0.00535       -5.99827
|  9> O         -1.13317       -1.22138       -5.34147
| 10> H         -1.95489       -0.38644       -2.98099
| 11> H         -1.34603        1.04362       -2.18269
| 12> H         -0.28606       -0.31581       -2.46809
| 13> *
| 14>
| 15> %MaxCore 64000
| 16>
| 17> %pal nprocs 4
| 18> end
| 19>
| 20> %scf
| 21>   MaxIter 150
| 22> end
| 23>
| 24>
| 25>                          ****END OF INPUT****

CARTESIAN COORDINATES (ANGSTROEM)
---------------------------------
  C     -1.104330    0.251370   -2.860060
  C     -0.711890    0.842520   -4.218340
  H      0.154630    1.499800   -4.130910
  H     -1.538130    1.459220   -4.582670
  C     -0.397620   -0.205870   -5.288020
  O      0.617170   -0.005350   -5.998270
  O     -1.133170   -1.221380   -5.341470
  H     -1.954890   -0.386440   -2.980990
  H     -1.346030    1.043620   -2.182690
  H     -0.286060   -0.315810   -2.468090

 Total Charge           Charge          ....   -1
 Multiplicity           Mult            ....    1
 Number of Electrons    NEL             ....   40
 Basis Dimension        Dim             ....  236

ORBITAL ENERGIES
----------------

  NO   OCC          E(Eh)            E(eV)
   0   2.0000     -18.489341      -503.1205
   1   2.0000     -18.488123      -503.0874
   2   2.0000      -9.754794      -265.4415
   3   2.0000      -9.714026      -264.3321
   4   2.0000      -9.706123      -264.1170
   5   2.0000      -0.734336       -19.9823
   6   2.0000      -0.646429       -17.5902
   7   2.0000      -0.531716       -14.4687
   8   2.0000      -0.409530       -11.1439
   9   2.0000      -0.265486        -7.2242
  10   2.0000      -0.243164        -6.6168
  11   2.0000      -0.209451        -5.6994
  12   2.0000      -0.182437        -4.9644
  13   2.0000      -0.168084        -4.5738
  14   2.0000      -0.158063        -4.3011
  15   2.0000      -0.132201        -3.5974
  16   2.0000      -0.118223        -3.2170
  17   2.0000      -0.013322        -0.3625
  18   2.0000       0.001002         0.0273
  19   2.0000       0.017285         0.4703
  20   0.0000       0.120081         3.2676
  21   0.0000       0.146255         3.9798
  22   0.0000       0.159269         4.3339
  23   0.0000       0.168265         4.5787
  24   0.0000       0.191110         5.2004

MULLIKEN ATOMIC CHARGES
-----------------------
   0 C :   -0.807034
   1 C :    0.033005
   2 H :    0.134175
   3 H :    0.102464
   4 C :    0.237138
   5 O :   -0.667840
   6 O :   -0.656968
   7 H :    0.199764
   8 H :    0.213477
   9 H :    0.211820
Sum of atomic charges:   -1.0000000

LOEWDIN ATOMIC CHARGES
----------------------
   0 C :   -0.138841
   1 C :   -0.215943
   2 H :    0.083679
   3 H :    0.091808
   4 C :   -0.796939
   5 O :   -0.091090
   6 O :   -0.080206
   7 H :    0.050944
   8 H :    0.038728
   9 H :    0.057861

  Mayer bond orders larger than 0.100000
B(  0-C ,  1-C ) :   0.7208 B(  0-C ,  4-C ) :   0.1310 B(  0-C ,  7-H ) :   1.0171
B(  0-C ,  8-H ) :   0.9804 B(  0-C ,  9-H ) :   0.9785 B(  1-C ,  2-H ) :   1.0147
B(  1-C ,  3-H ) :   0.9344 B(  1-C ,  4-C ) :   0.9856 B(  4-C ,  5-O ) :   1.4544
B(  4-C ,  6-O ) :   1.4770

Dispersion correction           -0.006523781
FINAL SINGLE POINT ENERGY      -267.643483226624

DIPOLE MOMENT
-------------
                                X             Y             Z
Electronic contribution:      1.57663      -2.44424      -5.31945
Nuclear contribution   :     -2.09607       3.44215       6.87744
                        -----------------------------------------
Total Dipole Moment    :     -0.51944       0.99790       1.55798
                        -----------------------------------------
Magnitude (a.u.)       :      1.92170
Magnitude (Debye)      :      4.88458

Rotational constants in cm-1:     0.324698     0.133739     0.103466
Rotational constants in MHz :  9734.203431  4009.406827  3101.846422

                             ****ORCA TERMINATED NORMALLY****
TOTAL RUN TIME: 0 days 0 hours 0 minutes 12 seconds 743 msec
