                         Program Version 5.0.0 -  RELEASE  -
|  1> !PBE D3BJ RIJCOSX def2-TZVPD def2/J TightSCF
|  2> *xyz 1 1
|  3> C          2.23447       -2.98975       -2.39762
|  4> N          2.75680       -2.94555       -3.76503
|  5> C          1.98721       -2.59045       -4.81898
|  6> N          0.74322       -3.01749       -4.91352
|  7> N          2.49964       -1.84860       -5.80324
|  8> H          3.30978       -1.29282       -5.55895
|  9> H          1.80103       -1.30430       -6.28913
| 10> H          3.71612       -2.62880       -3.82953
| 11> H          0.39583       -3.62775       -4.18502
| 12> H          0.03920       -2.45438       -5.37137
| 13> C          2.19120       -1.61950       -1.71549
| 14> H          2.87278       -3.66637       -1.82801
| 15> H          1.24619       -3.44744       -2.40784
| 16> H          1.56387       -0.96046       -2.27853
| 17> H          3.18033       -1.21449       -1.66568
| 18> H          1.79916       -1.72608       -0.72562
| 19> *
| 20>
| 21> %MaxCore 64000
| 22>
| 23> %pal nprocs 4
| 24> end
| 25>
| 26> %scf
| 27>   MaxIter 150
| 28> end
| 29>
| 30>
| 31>                          ****END OF INPUT****

CARTESIAN COORDINATES (ANGSTROEM)
---------------------------------
  C      2.234470   -2.989750   -2.397620
  N      2.756800   -2.945550   -3.765030
  C      1.987210   -2.590450   -4.818980
  N      0.743220   -3.017490   -4.913520
  N      2.499640   -1.848600   -5.803240
  H      3.309780   -1.292820   -5.558950
  H      1.801030   -1.304300   -6.289130
  H      3.716120   -2.628800   -3.829530
  H      0.395830   -3.627750   -4.185020
  H      0.039200   -2.454380   -5.371370
  C      2.191200   -1.619500   -1.715490
  H      2.872780   -3.666370   -1.828010
  H      1.246190   -3.447440   -2.407840
  H      1.563870   -0.960460   -2.278530
  H      3.180330   -1.214490   -1.665680
  H      1.799160   -1.726080   -0.725620

 Total Charge           Charge          ....    1
 Multiplicity           Mult            ....    1
 Number of Electrons    NEL             ....   48
 Basis Dimension        Dim             ....  312

ORBITAL ENERGIES
----------------

  NO   OCC          E(Eh)            E(eV)
   0   2.0000     -14.212857      -386.7515
   1   2.0000     -14.209599      -386.6629
   2   2.0000     -14.209195      -386.6519
   3   2.0000     -10.208013      -277.7741
   4   2.0000     -10.090756      -274.5834
   5   2.0000     -10.022386      -272.7230
   6   2.0000      -1.135944       -30.9106
   7   2.0000      -1.029507       -28.0143
   8   2.0000      -1.025344       -27.9010
   9   2.0000      -0.861340       -23.4382
  10   2.0000      -0.784459       -21.3462
  11   2.0000      -0.747016       -20.3274
  12   2.0000      -0.731601       -19.9079
  13   2.0000      -0.688581       -18.7372
  14   2.0000      -0.652170       -17.7465
  15   2.0000      -0.636930       -17.3317
  16   2.0000      -0.603293       -16.4164
  17   2.0000      -0.574812       -15.6414
  18   2.0000      -0.556651       -15.1472
  19   2.0000      -0.526109       -14.3162
  20   2.0000      -0.493464       -13.4278
  21   2.0000      -0.475052       -12.9268
  22   2.0000      -0.448435       -12.2025
  23   2.0000      -0.414635       -11.2828
  24   0.0000      -0.228580        -6.2200
  25   0.0000      -0.185460        -5.0466
  26   0.0000      -0.154555        -4.2057
  27   0.0000      -0.141236        -3.8432
  28   0.0000      -0.123963        -3.3732

MULLIKEN ATOMIC CHARGES
-----------------------
   0 C :   -0.257511
   1 N :   -0.006406
   2 C :    0.332500
   3 N :   -0.171262
   4 N :   -0.256699
   5 H :    0.214502
   6 H :    0.213793
   7 H :    0.208870
   8 H :    0.215195
   9 H :    0.205246
  10 C :   -0.828771
  11 H :    0.185007
  12 H :    0.184809
  13 H :    0.236875
  14 H :    0.274362
  15 H :    0.249491
Sum of atomic charges:    1.0000000

LOEWDIN ATOMIC CHARGES
----------------------
   0 C :   -0.211037
   1 N :    0.096912
   2 C :   -0.461645
   3 N :    0.235523
   4 N :    0.220722
   5 H :    0.134208
   6 H :    0.133915
   7 H :    0.156777
   8 H :    0.129467
   9 H :    0.144154
  10 C :   -0.051804
  11 H :    0.129994
  12 H :    0.109141
  13 H :    0.072205
  14 H :    0.077091
  15 H :    0.084378

  Mayer bond orders larger than 0.100000
B(  0-C ,  1-N ) :   0.9131 B(  0-C , 10-C ) :   0.8201 B(  0-C , 11-H ) :   0.9994
B(  0-C , 12-H ) :   0.9048 B(  1-N ,  2-C ) :   1.2982 B(  1-N ,  7-H ) :   0.8955
B(  2-C ,  3-N ) :   1.2179 B(  2-C ,  4-N ) :   1.2339 B(  3-N ,  8-H ) :   0.9142
B(  3-N ,  9-H ) :   0.9538 B(  4-N ,  5-H ) :   0.9383 B(  4-N ,  6-H ) :   0.9173
B( 10-C , 13-H ) :   0.9870 B( 10-C , 14-H ) :   0.9530 B( 10-C , 15-H ) :   0.9828

Dispersion correction           -0.012433815
FINAL SINGLE POINT ENERGY      -284.146839044545

DIPOLE MOMENT
-------------
                                X             Y             Z
Electronic contribution:      0.19925      -1.69986      -5.17637
Nuclear contribution   :     -0.59121       2.30298       4.63196
                        -----------------------------------------
Total Dipole Moment    :     -0.39196       0.60312      -0.54441
                        -----------------------------------------
Magnitude (a.u.)       :      0.90209
Magnitude (Debye)      :      2.29293

Rotational constants in cm-1:     0.205874     0.074757     0.066901
Rotational constants in MHz :  6171.937773  2241.151057  2005.629823

                             ****ORCA TERMINATED NORMALLY****
TOTAL RUN TIME: 0 days 0 hours 0 minutes 20 seconds 154 msec
