                         Program Version 5.0.0 -  RELEASE  -
|  1> !PBE D3BJ RIJCOSX def2-TZVPD def2/J TightSCF xyzfile
|  2>
|  3> *xyzfile 0 1 B.xyz
|  4>
|  5> %MaxCore 64000
|  6>
|  7> %pal nprocs 4
|  8> end
|  9>
| 10> %scf
| 11>   MaxIter 150
| 12> end
| 13>
| 14>
| 15>                          ****END OF INPUT****

CARTESIAN COORDINATES (ANGSTROEM)
---------------------------------
  C      2.234473   -2.989754   -2.397622
  N      2.756799   -2.945553   -3.765029
  C     -1.104325    0.251374   -2.860056
  C     -0.711893    0.842517   -4.218344
  H      0.154626    1.499800   -4.130909
  H     -1.538134    1.459222   -4.582671
  C     -0.397624   -0.205875   -5.288018
  C      1.987208   -2.590451   -4.818975
  N      0.743221   -3.017493   -4.913524
  N      2.499636   -1.848598   -5.803241
  H      3.309780   -1.292818   -5.558947
  H      1.801025   -1.304298   -6.289129
  H      3.716116   -2.628797   -3.829533
  H      0.395828   -3.627747   -4.185024
  H      0.039201   -2.454383   -5.371367
  O      0.617165   -0.005348   -5.998273
  O     -1.133173   -1.221380   -5.341465
  C      2.191199   -1.619503   -1.715492
  H      2.872783   -3.666368   -1.828014
  H      1.246188   -3.447444   -2.407842
  C      1.298729   -0.554314   -2.359773
  H      1.872917   -1.787955   -0.681310
  H      3.216809   -1.238432   -1.654428
  C     -0.196255   -0.863365   -2.325763
  H      1.612531   -0.371346   -3.393065
  H      1.480944    0.388638   -1.834444
  H     -0.404105   -1.761825   -2.909448
  H     -0.490439   -1.087880   -1.294131
  H     -1.143842    1.066711   -2.129680
  H     -2.114401   -0.156834   -2.930323

 Total Charge           Charge          ....    0
 Multiplicity           Mult            ....    1
 Number of Electrons    NEL             ....  102
 Basis Dimension        Dim             ....  640

ORBITAL ENERGIES
----------------

  NO   OCC          E(Eh)            E(eV)
   0   2.0000     -18.670792      -508.0581
   1   2.0000     -18.669688      -508.0280
   2   2.0000     -14.052998      -382.4015
   3   2.0000     -14.021249      -381.5376
   4   2.0000     -14.020894      -381.5279
   5   2.0000     -10.033515      -273.0258
   6   2.0000      -9.954854      -270.8853
   7   2.0000      -9.931562      -270.2515
   8   2.0000      -9.906573      -269.5715
   9   2.0000      -9.886906      -269.0364
  10   2.0000      -9.873638      -268.6754
  11   2.0000      -9.864302      -268.4213
  12   2.0000      -9.850900      -268.0566
  13   2.0000      -0.963695       -26.2235
  14   2.0000      -0.920353       -25.0441
  15   2.0000      -0.865509       -23.5517
  16   2.0000      -0.846082       -23.0231
  17   2.0000      -0.828417       -22.5424
  18   2.0000      -0.746544       -20.3145
  19   2.0000      -0.706189       -19.2164
  20   2.0000      -0.659044       -17.9335
  21   2.0000      -0.617787       -16.8108
  22   2.0000      -0.595967       -16.2171
  23   2.0000      -0.564313       -15.3557
  24   2.0000      -0.556347       -15.1390
  25   2.0000      -0.523307       -14.2399
  26   2.0000      -0.502199       -13.6655
  27   2.0000      -0.481569       -13.1042
  28   2.0000      -0.461281       -12.5521
  29   2.0000      -0.452688       -12.3183
  30   2.0000      -0.435519       -11.8511
  31   2.0000      -0.423963       -11.5366
  32   2.0000      -0.412873       -11.2349
  33   2.0000      -0.399097       -10.8600
  34   2.0000      -0.388784       -10.5794
  35   2.0000      -0.381449       -10.3798
  36   2.0000      -0.368393       -10.0245
  37   2.0000      -0.357452        -9.7268
  38   2.0000      -0.343194        -9.3388
  39   2.0000      -0.336145        -9.1470
  40   2.0000      -0.323606        -8.8058
  41   2.0000      -0.315442        -8.5836
  42   2.0000      -0.303083        -8.2473
  43   2.0000      -0.286345        -7.7918
  44   2.0000      -0.276260        -7.5174
  45   2.0000      -0.269269        -7.3272
  46   2.0000      -0.264480        -7.1969
  47   2.0000      -0.255950        -6.9648
  48   2.0000      -0.194965        -5.3053
  49   2.0000      -0.179489        -4.8841
  50   2.0000      -0.167507        -4.5581
  51   0.0000      -0.055159        -1.5010
  52   0.0000      -0.043268        -1.1774
  53   0.0000      -0.023524        -0.6401
  54   0.0000      -0.009750        -0.2653
  55   0.0000       0.001083         0.0295

MULLIKEN ATOMIC CHARGES
-----------------------
   0 C :   -0.566915
   1 N :    0.033153
   2 C :   -0.274410
   3 C :   -0.220992
   4 H :    0.177917
   5 H :    0.130634
   6 C :    0.517982
   7 C :    0.026313
   8 N :   -0.158551
   9 N :   -0.243132
  10 H :    0.183881
  11 H :    0.287603
  12 H :    0.212941
  13 H :    0.222209
  14 H :    0.252826
  15 O :   -0.759592
  16 O :   -0.760325
  17 C :   -0.259519
  18 H :    0.118947
  19 H :    0.255281
  20 C :   -0.200965
  21 H :    0.174244
  22 H :    0.142310
  23 C :   -0.258920
  24 H :    0.206225
  25 H :    0.212835
  26 H :    0.129119
  27 H :    0.128981
  28 H :    0.099837
  29 H :    0.190084
Sum of atomic charges:   -0.0000000

LOEWDIN ATOMIC CHARGES
----------------------
   0 C :   -0.183216
   1 N :    0.084181
   2 C :   -0.202106
   3 C :   -0.130550
   4 H :    0.104565
   5 H :    0.116524
   6 C :   -0.701531
   7 C :   -0.478331
   8 N :    0.238469
   9 N :    0.203727
  10 H :    0.120966
  11 H :    0.066092
  12 H :    0.143237
  13 H :    0.119683
  14 H :    0.057787
  15 O :   -0.035466
  16 O :   -0.026726
  17 C :   -0.183380
  18 H :    0.119059
  19 H :    0.107280
  20 C :   -0.200499
  21 H :    0.115812
  22 H :    0.110236
  23 C :   -0.210534
  24 H :    0.102835
  25 H :    0.121823
  26 H :    0.088345
  27 H :    0.114744
  28 H :    0.107308
  29 H :    0.109666

  Mayer bond orders larger than 0.100000
B(  0-C ,  1-N ) :   0.9240 B(  0-C ,  8-N ) :   0.1413 B(  0-C , 17-C ) :   0.8356
B(  0-C , 18-H ) :   1.0183 B(  0-C , 19-H ) :   0.9017 B(  0-C , 23-C ) :   0.1601
B(  1-N ,  7-C ) :   1.2222 B(  1-N ,  9-N ) :   0.1038 B(  1-N , 12-H ) :   0.8388
B(  2-C ,  3-C ) :   0.9623 B(  2-C , 20-C ) :   0.2411 B(  2-C , 23-C ) :   1.0999
B(  2-C , 26-H ) :   0.1347 B(  2-C , 28-H ) :   0.9345 B(  2-C , 29-H ) :   0.8478
B(  3-C ,  4-H ) :   0.9531 B(  3-C ,  5-H ) :   0.8935 B(  3-C ,  6-C ) :   1.0218
B(  3-C , 20-C ) :   0.1640 B(  6-C , 15-O ) :   1.1897 B(  6-C , 16-O ) :   1.2936
B(  7-C ,  8-N ) :   1.3093 B(  7-C ,  9-N ) :   1.2290 B(  7-C , 15-O ) :   0.1095
B(  7-C , 20-C ) :   0.1352 B(  8-N , 13-H ) :   0.8486 B(  8-N , 14-H ) :   0.7315
B(  9-N , 10-H ) :   0.9170 B(  9-N , 11-H ) :   0.7560 B( 14-H , 16-O ) :   0.1382
B( 15-O , 16-O ) :   0.1326 B( 17-C , 20-C ) :   1.0478 B( 17-C , 21-H ) :   0.9438
B( 17-C , 22-H ) :   0.9446 B( 17-C , 23-C ) :   0.2816 B( 17-C , 24-H ) :   0.1180
B( 20-C , 23-C ) :   0.6792 B( 20-C , 24-H ) :   1.0405 B( 20-C , 25-H ) :   0.7790
B( 20-C , 26-H ) :  -0.1109 B( 23-C , 26-H ) :   1.0717 B( 23-C , 27-H ) :   0.8692

Dispersion correction           -0.035310302
FINAL SINGLE POINT ENERGY      -629.332607684274

DIPOLE MOMENT
-------------
                                X             Y             Z
Electronic contribution:      0.52402      -2.82426     -10.32429
Nuclear contribution   :      1.76912       1.50070      12.36652
                        -----------------------------------------
Total Dipole Moment    :      2.29314      -1.32357       2.04224
                        -----------------------------------------
Magnitude (a.u.)       :      3.34381
Magnitude (Debye)      :      8.49928

Rotational constants in cm-1:     0.033272     0.023886     0.017112
Rotational constants in MHz :   997.469575   716.074432   513.001395

                             ****ORCA TERMINATED NORMALLY****
TOTAL RUN TIME: 0 days 0 hours 1 minutes 30 seconds 244 msec
