                         Program Version 5.0.0 -  RELEASE  -
|  1> !PBE D3BJ RIJCOSX def2-TZVPD def2/J TightSCF
|  2> *xyz 0 1
|  3> C         -1.10433        0.25137       -2.86006
|  4> C         -0.71189        0.84252       -4.21834
|  5> H          0.15463        1.49980       -4.13091
|  6> H         -1.53813        1.45922       -4.58267
|  7> C         -0.39762       -0.20587       -5.28802
|  8> F          0.61717       -0.00535       -5.99827
|  9> O         -1.13317       -1.22138       -5.34147
| 10> H         -1.95489       -0.38644       -2.98099
| 11> H         -1.34603        1.04362       -2.18269
| 12> H         -0.28606       -0.31581       -2.46809
| 13> *
| 14>
| 15> %MaxCore 64000
| 16>
| 17> %pal nprocs 4
| 18> end
| 19>
| 20> %scf
| 21>   MaxIter 150
| 22> end
| 23>
| 24>
| 25>                          ****END OF INPUT****

CARTESIAN COORDINATES (ANGSTROEM)
---------------------------------
  C     -1.104330    0.251370   -2.860060
  C     -0.711890    0.842520   -4.218340
  H      0.154630    1.499800   -4.130910
  H     -1.538130    1.459220   -4.582670
  C     -0.397620   -0.205870   -5.288020
  F      0.617170   -0.005350   -5.998270
  O     -1.133170   -1.221380   -5.341470
  H     -1.954890   -0.386440   -2.980990
  H     -1.346030    1.043620   -2.182690
  H     -0.286060   -0.315810   -2.468090

 Total Charge           Charge          ....    0
 Multiplicity           Mult            ....    1
 Number of Electrons    NEL             ....   40
 Basis Dimension        Dim             ....  236

ORBITAL ENERGIES
----------------

  NO   OCC          E(Eh)            E(eV)
   0   2.0000     -24.326987      -661.9710
   1   2.0000     -18.754688      -510.3410
   2   2.0000     -10.048366      -273.4299
   3   2.0000      -9.913106      -269.7493
   4   2.0000      -9.882503      -268.9166
   5   2.0000      -1.216541       -33.1038
   6   2.0000      -0.946448       -25.7542
   7   2.0000      -0.726766       -19.7763
   8   2.0000      -0.625434       -17.0189
   9   2.0000      -0.575028       -15.6473
  10   2.0000      -0.489554       -13.3214
  11   2.0000      -0.475261       -12.9325
  12   2.0000      -0.450741       -12.2653
  13   2.0000      -0.416266       -11.3272
  14   2.0000      -0.383962       -10.4481
  15   2.0000      -0.352477        -9.5914
  16   2.0000      -0.332045        -9.0354
  17   2.0000      -0.329234        -8.9589
  18   2.0000      -0.308526        -8.3954
  19   2.0000      -0.245490        -6.6801
  20   0.0000      -0.068041        -1.8515
  21   0.0000      -0.014280        -0.3886
  22   0.0000       0.014017         0.3814
  23   0.0000       0.025245         0.6870
  24   0.0000       0.033429         0.9097

MULLIKEN ATOMIC CHARGES
-----------------------
   0 C :   -0.808873
   1 C :    0.034643
   2 H :    0.168162
   3 H :    0.153258
   4 C :    0.353961
   5 F :   -0.154658
   6 O :   -0.429128
   7 H :    0.232076
   8 H :    0.206944
   9 H :    0.243614
Sum of atomic charges:    0.0000000

LOEWDIN ATOMIC CHARGES
----------------------
   0 C :   -0.088490
   1 C :   -0.160980
   2 H :    0.107194
   3 H :    0.121434
   4 C :   -0.517421
   5 F :    0.225749
   6 O :    0.100290
   7 H :    0.070368
   8 H :    0.068055
   9 H :    0.073801

  Mayer bond orders larger than 0.100000
B(  0-C ,  1-C ) :   0.8095 B(  0-C ,  4-C ) :   0.1264 B(  0-C ,  7-H ) :   0.9918
B(  0-C ,  8-H ) :   0.9817 B(  0-C ,  9-H ) :   0.9481 B(  1-C ,  2-H ) :   0.9685
B(  1-C ,  3-H ) :   0.9109 B(  1-C ,  4-C ) :   0.9601 B(  4-C ,  5-F ) :   1.0665
B(  4-C ,  6-O ) :   1.7969

Dispersion correction           -0.006206110
FINAL SINGLE POINT ENERGY      -292.194062907835

DIPOLE MOMENT
-------------
                                X             Y             Z
Electronic contribution:      3.59754      -2.40323      -7.73400
Nuclear contribution   :     -3.36368       3.36392       8.24820
                        -----------------------------------------
Total Dipole Moment    :      0.23386       0.96069       0.51419
                        -----------------------------------------
Magnitude (a.u.)       :      1.11445
Magnitude (Debye)      :      2.83271

Rotational constants in cm-1:     0.315013     0.126712     0.098430
Rotational constants in MHz :  9443.861322  3798.734540  2950.846388

                             ****ORCA TERMINATED NORMALLY****
TOTAL RUN TIME: 0 days 0 hours 0 minutes 11 seconds 718 msec
