                         Program Version 5.0.0 -  RELEASE  -
|  1> !PBE D3BJ RIJCOSX def2-TZVPD def2/J TightSCF
|  2> *xyz 0 1
|  3> C          2.23447       -2.98975       -2.39762
|  4> C          2.75680       -2.94555       -3.76503
|  5> C          1.98721       -2.59045       -4.81898
|  6> N          0.74322       -3.01749       -4.91352
|  7> N          2.49964       -1.84860       -5.80324
|  8> H          3.30978       -1.29282       -5.55895
|  9> H          1.80103       -1.30430       -6.28913
| 10> H          3.71612       -2.62880       -3.82953
| 11> H          0.39583       -3.62775       -4.18502
| 12> H          0.03920       -2.45438       -5.37137
| 13> C          2.19120       -1.61950       -1.71549
| 14> H          2.87278       -3.66637       -1.82801
| 15> H          1.24619       -3.44744       -2.40784
| 16> H          1.56387       -0.96046       -2.27853
| 17> H          3.18033       -1.21449       -1.66568
| 18> H          1.79916       -1.72608       -0.72562
| 19> *
| 20>
| 21> %MaxCore 64000
| 22>
| 23> %pal nprocs 4
| 24> end
| 25>
| 26> %scf
| 27>   MaxIter 150
| 28> end
| 29>
| 30>
| 31>                          ****END OF INPUT****

CARTESIAN COORDINATES (ANGSTROEM)
---------------------------------
  C      2.234470   -2.989750   -2.397620
  C      2.756800   -2.945550   -3.765030
  C      1.987210   -2.590450   -4.818980
  N      0.743220   -3.017490   -4.913520
  N      2.499640   -1.848600   -5.803240
  H      3.309780   -1.292820   -5.558950
  H      1.801030   -1.304300   -6.289130
  H      3.716120   -2.628800   -3.829530
  H      0.395830   -3.627750   -4.185020
  H      0.039200   -2.454380   -5.371370
  C      2.191200   -1.619500   -1.715490
  H      2.872780   -3.666370   -1.828010
  H      1.246190   -3.447440   -2.407840
  H      1.563870   -0.960460   -2.278530
  H      3.180330   -1.214490   -1.665680
  H      1.799160   -1.726080   -0.725620

 Total Charge           Charge          ....    0
 Multiplicity           Mult            ....    1
 Number of Electrons    NEL             ....   48
 Basis Dimension        Dim             ....  312

ORBITAL ENERGIES
----------------

  NO   OCC          E(Eh)            E(eV)
   0   2.0000     -13.992470      -380.7545
   1   2.0000     -13.988556      -380.6480
   2   2.0000      -9.924066      -270.0476
   3   2.0000      -9.860072      -268.3062
   4   2.0000      -9.849339      -268.0141
   5   2.0000      -9.811094      -266.9734
   6   2.0000      -0.890797       -24.2398
   7   2.0000      -0.805415       -21.9165
   8   2.0000      -0.702522       -19.1166
   9   2.0000      -0.626709       -17.0536
  10   2.0000      -0.560868       -15.2620
  11   2.0000      -0.524836       -14.2815
  12   2.0000      -0.493157       -13.4195
  13   2.0000      -0.457819       -12.4579
  14   2.0000      -0.424211       -11.5434
  15   2.0000      -0.403034       -10.9671
  16   2.0000      -0.368203       -10.0193
  17   2.0000      -0.348241        -9.4761
  18   2.0000      -0.329179        -8.9574
  19   2.0000      -0.318538        -8.6679
  20   2.0000      -0.287200        -7.8151
  21   2.0000      -0.280417        -7.6305
  22   2.0000      -0.234948        -6.3933
  23   2.0000      -0.133819        -3.6414
  24   0.0000      -0.025636        -0.6976
  25   0.0000       0.003418         0.0930
  26   0.0000       0.013066         0.3555
  27   0.0000       0.013728         0.3736
  28   0.0000       0.033863         0.9214

MULLIKEN ATOMIC CHARGES
-----------------------
   0 C :    0.037207
   1 C :   -0.571546
   2 C :    0.174154
   3 N :   -0.251137
   4 N :   -0.358495
   5 H :    0.203919
   6 H :    0.154956
   7 H :    0.292502
   8 H :    0.185298
   9 H :    0.117175
  10 C :   -0.943721
  11 H :    0.075891
  12 H :    0.188719
  13 H :    0.220327
  14 H :    0.255750
  15 H :    0.219003
Sum of atomic charges:   -0.0000000

LOEWDIN ATOMIC CHARGES
----------------------
   0 C :   -0.293257
   1 C :   -0.133142
   2 C :   -0.569165
   3 N :    0.140039
   4 N :    0.127448
   5 H :    0.104748
   6 H :    0.092863
   7 H :    0.059165
   8 H :    0.102726
   9 H :    0.100383
  10 C :   -0.099702
  11 H :    0.098196
  12 H :    0.085658
  13 H :    0.062745
  14 H :    0.063859
  15 H :    0.057434

  Mayer bond orders larger than 0.100000
B(  0-C ,  1-C ) :   0.8379 B(  0-C , 10-C ) :   0.6367 B(  0-C , 11-H ) :   1.0448
B(  0-C , 12-H ) :   0.9247 B(  1-C ,  2-C ) :   1.5947 B(  1-C ,  7-H ) :   0.9502
B(  1-C , 10-C ) :   0.1668 B(  2-C ,  3-N ) :   1.0515 B(  2-C ,  4-N ) :   1.1226
B(  2-C ,  7-H ) :  -0.1336 B(  2-C , 10-C ) :   0.1268 B(  3-N ,  8-H ) :   0.9355
B(  3-N ,  9-H ) :   1.0227 B(  4-N ,  5-H ) :   0.9244 B(  4-N ,  6-H ) :   0.9717
B( 10-C , 13-H ) :   1.0061 B( 10-C , 14-H ) :   0.9862 B( 10-C , 15-H ) :   0.9843

Dispersion correction           -0.012901354
FINAL SINGLE POINT ENERGY      -267.670346482582

DIPOLE MOMENT
-------------
                                X             Y             Z
Electronic contribution:     -0.29533      -1.41098      -5.00845
Nuclear contribution   :     -0.44240       2.20379       4.66256
                        -----------------------------------------
Total Dipole Moment    :     -0.73772       0.79280      -0.34588
                        -----------------------------------------
Magnitude (a.u.)       :      1.13684
Magnitude (Debye)      :      2.88962

Rotational constants in cm-1:     0.209447     0.075194     0.066975
Rotational constants in MHz :  6279.068019  2254.272519  2007.845458

                             ****ORCA TERMINATED NORMALLY****
TOTAL RUN TIME: 0 days 0 hours 0 minutes 19 seconds 222 msec
