                         Program Version 5.0.0 -  RELEASE  -
|  1> !PBE D3BJ RIJCOSX def2-TZVPD def2/J TightSCF
|  2> *xyz 0 1
|  3> C         -1.10433        0.25137       -2.86006
|  4> C         -0.71189        0.84252       -4.21834
|  5> H          0.15463        1.49980       -4.13091
|  6> H         -1.53813        1.45922       -4.58267
|  7> C         -0.39762       -0.20587       -5.28802
|  8> O          0.61717       -0.00535       -5.99827
|  9> F         -1.13317       -1.22138       -5.34147
| 10> H         -1.95489       -0.38644       -2.98099
| 11> H         -1.34603        1.04362       -2.18269
| 12> H         -0.28606       -0.31581       -2.46809
| 13> *
| 14>
| 15> %MaxCore 64000
| 16>
| 17> %pal nprocs 4
| 18> end
| 19>
| 20> %scf
| 21>   MaxIter 150
| 22> end
| 23>
| 24>
| 25>                          ****END OF INPUT****

CARTESIAN COORDINATES (ANGSTROEM)
---------------------------------
  C     -1.104330    0.251370   -2.860060
  C     -0.711890    0.842520   -4.218340
  H      0.154630    1.499800   -4.130910
  H     -1.538130    1.459220   -4.582670
  C     -0.397620   -0.205870   -5.288020
  O      0.617170   -0.005350   -5.998270
  F     -1.133170   -1.221380   -5.341470
  H     -1.954890   -0.386440   -2.980990
  H     -1.346030    1.043620   -2.182690
  H     -0.286060   -0.315810   -2.468090

 Total Charge           Charge          ....    0
 Multiplicity           Mult            ....    1
 Number of Electrons    NEL             ....   40
 Basis Dimension        Dim             ....  236

ORBITAL ENERGIES
----------------

  NO   OCC          E(Eh)            E(eV)
   0   2.0000     -24.327646      -661.9889
   1   2.0000     -18.753498      -510.3086
   2   2.0000     -10.047829      -273.4153
   3   2.0000      -9.912350      -269.7288
   4   2.0000      -9.887978      -269.0656
   5   2.0000      -1.216946       -33.1148
   6   2.0000      -0.945432       -25.7265
   7   2.0000      -0.730742       -19.8845
   8   2.0000      -0.620846       -16.8941
   9   2.0000      -0.581948       -15.8356
  10   2.0000      -0.491274       -13.3682
  11   2.0000      -0.481305       -13.0970
  12   2.0000      -0.442745       -12.0477
  13   2.0000      -0.417377       -11.3574
  14   2.0000      -0.385094       -10.4789
  15   2.0000      -0.356379        -9.6976
  16   2.0000      -0.339123        -9.2280
  17   2.0000      -0.333446        -9.0735
  18   2.0000      -0.309178        -8.4132
  19   2.0000      -0.240933        -6.5561
  20   0.0000      -0.066298        -1.8041
  21   0.0000      -0.017219        -0.4685
  22   0.0000       0.015208         0.4138
  23   0.0000       0.023259         0.6329
  24   0.0000       0.034003         0.9253

MULLIKEN ATOMIC CHARGES
-----------------------
   0 C :   -0.842198
   1 C :    0.097825
   2 H :    0.136208
   3 H :    0.163824
   4 C :    0.334354
   5 O :   -0.429433
   6 F :   -0.158194
   7 H :    0.237757
   8 H :    0.201300
   9 H :    0.258558
Sum of atomic charges:    0.0000000

LOEWDIN ATOMIC CHARGES
----------------------
   0 C :   -0.093624
   1 C :   -0.155638
   2 H :    0.116665
   3 H :    0.119986
   4 C :   -0.521073
   5 O :    0.096387
   6 F :    0.228793
   7 H :    0.066755
   8 H :    0.068232
   9 H :    0.073517

  Mayer bond orders larger than 0.100000
B(  0-C ,  1-C ) :   0.7585 B(  0-C ,  4-C ) :   0.1128 B(  0-C ,  7-H ) :   0.9768
B(  0-C ,  8-H ) :   0.9972 B(  0-C ,  9-H ) :   0.9615 B(  1-C ,  2-H ) :   0.9945
B(  1-C ,  3-H ) :   0.9042 B(  1-C ,  4-C ) :   0.9563 B(  4-C ,  5-O ) :   1.7884
B(  4-C ,  6-F ) :   1.0739

Dispersion correction           -0.006159165
FINAL SINGLE POINT ENERGY      -292.193168219016

DIPOLE MOMENT
-------------
                                X             Y             Z
Electronic contribution:      0.70444      -4.38834      -6.62369
Nuclear contribution   :     -1.45527       4.68977       7.53208
                        -----------------------------------------
Total Dipole Moment    :     -0.75082       0.30143       0.90839
                        -----------------------------------------
Magnitude (a.u.)       :      1.21646
Magnitude (Debye)      :      3.09199

Rotational constants in cm-1:     0.298240     0.132464     0.099915
Rotational constants in MHz :  8940.998095  3971.171647  2995.369122

                             ****ORCA TERMINATED NORMALLY****
TOTAL RUN TIME: 0 days 0 hours 0 minutes 11 seconds 671 msec
