                         Program Version 5.0.0 -  RELEASE  -
|  1> !PBE D3BJ RIJCOSX def2-TZVPD def2/J TightSCF
|  2> *xyz 0 1
|  3> C          2.23447       -2.98975       -2.39762
|  4> N          2.75680       -2.94555       -3.76503
|  5> C          1.98721       -2.59045       -4.81898
|  6> C          0.74322       -3.01749       -4.91352
|  7> N          2.49964       -1.84860       -5.80324
|  8> H          3.30978       -1.29282       -5.55895
|  9> H          1.80103       -1.30430       -6.28913
| 10> H          3.71612       -2.62880       -3.82953
| 11> H          0.39583       -3.62775       -4.18502
| 12> H          0.03920       -2.45438       -5.37137
| 13> C          2.19120       -1.61950       -1.71549
| 14> H          2.87278       -3.66637       -1.82801
| 15> H          1.24619       -3.44744       -2.40784
| 16> H          1.56387       -0.96046       -2.27853
| 17> H          3.18033       -1.21449       -1.66568
| 18> H          1.79916       -1.72608       -0.72562
| 19> *
| 20>
| 21> %MaxCore 64000
| 22>
| 23> %pal nprocs 4
| 24> end
| 25>
| 26> %scf
| 27>   MaxIter 150
| 28> end
| 29>
| 30>
| 31>                          ****END OF INPUT****

CARTESIAN COORDINATES (ANGSTROEM)
---------------------------------
  C      2.234470   -2.989750   -2.397620
  N      2.756800   -2.945550   -3.765030
  C      1.987210   -2.590450   -4.818980
  C      0.743220   -3.017490   -4.913520
  N      2.499640   -1.848600   -5.803240
  H      3.309780   -1.292820   -5.558950
  H      1.801030   -1.304300   -6.289130
  H      3.716120   -2.628800   -3.829530
  H      0.395830   -3.627750   -4.185020
  H      0.039200   -2.454380   -5.371370
  C      2.191200   -1.619500   -1.715490
  H      2.872780   -3.666370   -1.828010
  H      1.246190   -3.447440   -2.407840
  H      1.563870   -0.960460   -2.278530
  H      3.180330   -1.214490   -1.665680
  H      1.799160   -1.726080   -0.725620

 Total Charge           Charge          ....    0
 Multiplicity           Mult            ....    1
 Number of Electrons    NEL             ....   48
 Basis Dimension        Dim             ....  312

ORBITAL ENERGIES
----------------

  NO   OCC          E(Eh)            E(eV)
   0   2.0000     -13.990810      -380.7093
   1   2.0000     -13.986385      -380.5889
   2   2.0000      -9.921466      -269.9768
   3   2.0000      -9.913996      -269.7735
   4   2.0000      -9.869540      -268.5638
   5   2.0000      -9.800666      -266.6897
   6   2.0000      -0.887489       -24.1498
   7   2.0000      -0.813222       -22.1289
   8   2.0000      -0.687264       -18.7014
   9   2.0000      -0.647222       -17.6118
  10   2.0000      -0.580474       -15.7955
  11   2.0000      -0.508470       -13.8362
  12   2.0000      -0.493213       -13.4210
  13   2.0000      -0.462854       -12.5949
  14   2.0000      -0.415279       -11.3003
  15   2.0000      -0.399848       -10.8804
  16   2.0000      -0.371681       -10.1140
  17   2.0000      -0.353240        -9.6122
  18   2.0000      -0.349267        -9.5040
  19   2.0000      -0.328406        -8.9364
  20   2.0000      -0.315198        -8.5770
  21   2.0000      -0.306123        -8.3300
  22   2.0000      -0.213799        -5.8178
  23   2.0000      -0.148150        -4.0314
  24   0.0000      -0.020971        -0.5706
  25   0.0000       0.005234         0.1424
  26   0.0000       0.008670         0.2359
  27   0.0000       0.018009         0.4901
  28   0.0000       0.028864         0.7854

MULLIKEN ATOMIC CHARGES
-----------------------
   0 C :   -0.174462
   1 N :   -0.082807
   2 C :    0.448955
   3 C :   -0.999476
   4 N :   -0.338994
   5 H :    0.168655
   6 H :    0.167731
   7 H :    0.171008
   8 H :    0.297792
   9 H :    0.184485
  10 C :   -0.818810
  11 H :    0.142816
  12 H :    0.146548
  13 H :    0.211585
  14 H :    0.240085
  15 H :    0.234888
Sum of atomic charges:   -0.0000000

LOEWDIN ATOMIC CHARGES
----------------------
   0 C :   -0.244115
   1 N :    0.026158
   2 C :   -0.579824
   3 C :    0.011792
   4 N :    0.124492
   5 H :    0.090568
   6 H :    0.102179
   7 H :    0.124288
   8 H :    0.009356
   9 H :    0.017018
  10 C :   -0.081878
  11 H :    0.109072
  12 H :    0.100752
  13 H :    0.065286
  14 H :    0.061110
  15 H :    0.063746

  Mayer bond orders larger than 0.100000
B(  0-C ,  1-N ) :   0.8501 B(  0-C , 10-C ) :   0.7268 B(  0-C , 11-H ) :   0.9937
B(  0-C , 12-H ) :   0.9452 B(  1-N ,  2-C ) :   1.0486 B(  1-N ,  7-H ) :   0.9220
B(  2-C ,  3-C ) :   1.4746 B(  2-C ,  4-N ) :   1.0074 B(  3-C ,  4-N ) :   0.1020
B(  3-C ,  8-H ) :   0.9045 B(  3-C ,  9-H ) :   1.0897 B(  4-N ,  5-H ) :   0.9653
B(  4-N ,  6-H ) :   0.9472 B( 10-C , 13-H ) :   1.0301 B( 10-C , 14-H ) :   0.9705
B( 10-C , 15-H ) :   0.9824

Dispersion correction           -0.012837408
FINAL SINGLE POINT ENERGY      -267.664064539421

DIPOLE MOMENT
-------------
                                X             Y             Z
Electronic contribution:      1.49329      -1.28941      -3.85702
Nuclear contribution   :     -0.86957       2.18853       4.41892
                        -----------------------------------------
Total Dipole Moment    :      0.62372       0.89912       0.56190
                        -----------------------------------------
Magnitude (a.u.)       :      1.23011
Magnitude (Debye)      :      3.12669

Rotational constants in cm-1:     0.214718     0.075736     0.068547
Rotational constants in MHz :  6437.075121  2270.519635  2054.974198

                             ****ORCA TERMINATED NORMALLY****
TOTAL RUN TIME: 0 days 0 hours 0 minutes 20 seconds 199 msec
