                         Program Version 5.0.0 -  RELEASE  -
|  1> !PBE D3BJ RIJCOSX def2-TZVPD def2/J TightSCF
|  2> *xyz 0 1
|  3> C          2.23447       -2.98975       -2.39762
|  4> N          2.75680       -2.94555       -3.76503
|  5> C          1.98721       -2.59045       -4.81898
|  6> N          0.74322       -3.01749       -4.91352
|  7> C          2.49964       -1.84860       -5.80324
|  8> H          3.30978       -1.29282       -5.55895
|  9> H          1.80103       -1.30430       -6.28913
| 10> H          3.71612       -2.62880       -3.82953
| 11> H          0.39583       -3.62775       -4.18502
| 12> H          0.03920       -2.45438       -5.37137
| 13> C          2.19120       -1.61950       -1.71549
| 14> H          2.87278       -3.66637       -1.82801
| 15> H          1.24619       -3.44744       -2.40784
| 16> H          1.56387       -0.96046       -2.27853
| 17> H          3.18033       -1.21449       -1.66568
| 18> H          1.79916       -1.72608       -0.72562
| 19> *
| 20>
| 21> %MaxCore 64000
| 22>
| 23> %pal nprocs 4
| 24> end
| 25>
| 26> %scf
| 27>   MaxIter 150
| 28> end
| 29>
| 30>
| 31>                          ****END OF INPUT****

CARTESIAN COORDINATES (ANGSTROEM)
---------------------------------
  C      2.234470   -2.989750   -2.397620
  N      2.756800   -2.945550   -3.765030
  C      1.987210   -2.590450   -4.818980
  N      0.743220   -3.017490   -4.913520
  C      2.499640   -1.848600   -5.803240
  H      3.309780   -1.292820   -5.558950
  H      1.801030   -1.304300   -6.289130
  H      3.716120   -2.628800   -3.829530
  H      0.395830   -3.627750   -4.185020
  H      0.039200   -2.454380   -5.371370
  C      2.191200   -1.619500   -1.715490
  H      2.872780   -3.666370   -1.828010
  H      1.246190   -3.447440   -2.407840
  H      1.563870   -0.960460   -2.278530
  H      3.180330   -1.214490   -1.665680
  H      1.799160   -1.726080   -0.725620

 Total Charge           Charge          ....    0
 Multiplicity           Mult            ....    1
 Number of Electrons    NEL             ....   48
 Basis Dimension        Dim             ....  312

ORBITAL ENERGIES
----------------

  NO   OCC          E(Eh)            E(eV)
   0   2.0000     -13.989351      -380.6696
   1   2.0000     -13.989277      -380.6676
   2   2.0000      -9.924136      -270.0495
   3   2.0000      -9.921520      -269.9783
   4   2.0000      -9.873116      -268.6612
   5   2.0000      -9.796234      -266.5691
   6   2.0000      -0.889061       -24.1926
   7   2.0000      -0.813186       -22.1279
   8   2.0000      -0.698553       -19.0086
   9   2.0000      -0.640775       -17.4364
  10   2.0000      -0.570007       -15.5107
  11   2.0000      -0.546440       -14.8694
  12   2.0000      -0.488528       -13.2935
  13   2.0000      -0.443760       -12.0753
  14   2.0000      -0.441740       -12.0204
  15   2.0000      -0.393003       -10.6942
  16   2.0000      -0.382132       -10.3983
  17   2.0000      -0.356878        -9.7111
  18   2.0000      -0.334311        -9.0971
  19   2.0000      -0.323586        -8.8052
  20   2.0000      -0.321550        -8.7498
  21   2.0000      -0.312242        -8.4965
  22   2.0000      -0.216034        -5.8786
  23   2.0000      -0.143133        -3.8948
  24   0.0000      -0.021447        -0.5836
  25   0.0000       0.004066         0.1106
  26   0.0000       0.005406         0.1471
  27   0.0000       0.014228         0.3872
  28   0.0000       0.028266         0.7692

MULLIKEN ATOMIC CHARGES
-----------------------
   0 C :   -0.248601
   1 N :   -0.073116
   2 C :    0.421313
   3 N :   -0.234074
   4 C :   -0.942916
   5 H :    0.198825
   6 H :    0.184125
   7 H :    0.189142
   8 H :    0.171172
   9 H :    0.146848
  10 C :   -0.809456
  11 H :    0.148814
  12 H :    0.154170
  13 H :    0.210050
  14 H :    0.229525
  15 H :    0.254178
Sum of atomic charges:    0.0000000

LOEWDIN ATOMIC CHARGES
----------------------
   0 C :   -0.249414
   1 N :    0.029552
   2 C :   -0.582790
   3 N :    0.138025
   4 C :   -0.004506
   5 H :    0.006196
   6 H :    0.007476
   7 H :    0.132850
   8 H :    0.091578
   9 H :    0.113292
  10 C :   -0.080339
  11 H :    0.108126
  12 H :    0.095092
  13 H :    0.066474
  14 H :    0.065237
  15 H :    0.063151

  Mayer bond orders larger than 0.100000
B(  0-C ,  1-N ) :   0.9307 B(  0-C , 10-C ) :   0.7804 B(  0-C , 11-H ) :   1.0117
B(  0-C , 12-H ) :   0.9368 B(  1-N ,  2-C ) :   1.1106 B(  1-N ,  7-H ) :   0.8650
B(  2-C ,  3-N ) :   1.0555 B(  2-C ,  4-C ) :   1.3040 B(  3-N ,  8-H ) :   0.9484
B(  3-N ,  9-H ) :   0.9711 B(  4-C ,  5-H ) :   1.1252 B(  4-C ,  6-H ) :   1.0785
B( 10-C , 13-H ) :   1.0201 B( 10-C , 14-H ) :   0.9753 B( 10-C , 15-H ) :   0.9677

Dispersion correction           -0.012798985
FINAL SINGLE POINT ENERGY      -267.658774278284

DIPOLE MOMENT
-------------
                                X             Y             Z
Electronic contribution:     -0.10601      -2.40566      -2.99074
Nuclear contribution   :     -0.49695       2.43650       4.23017
                        -----------------------------------------
Total Dipole Moment    :     -0.60296       0.03084       1.23943
                        -----------------------------------------
Magnitude (a.u.)       :      1.37866
Magnitude (Debye)      :      3.50428

Rotational constants in cm-1:     0.211102     0.077011     0.069221
Rotational constants in MHz :  6328.667765  2308.731604  2075.192956

                             ****ORCA TERMINATED NORMALLY****
TOTAL RUN TIME: 0 days 0 hours 0 minutes 16 seconds 306 msec
