                         Program Version 5.0.0 -  RELEASE  -
|  1> !PBE D3BJ RIJCOSX def2-TZVPD def2/J TightSCF xyzfile
|  2>
|  3> *xyzfile 0 1 D1.xyz
|  4>
|  5> %MaxCore 64000
|  6>
|  7> %pal nprocs 4
|  8> end
|  9>
| 10> %scf
| 11>   MaxIter 150
| 12> end
| 13>
| 14>
| 15>                          ****END OF INPUT****

CARTESIAN COORDINATES (ANGSTROEM)
---------------------------------
  C      2.234473   -2.989754   -2.397622
  C      2.756799   -2.945553   -3.765029
  C     -1.104325    0.251374   -2.860056
  C     -0.711893    0.842517   -4.218344
  H      0.154626    1.499800   -4.130909
  H     -1.538134    1.459222   -4.582671
  C     -0.397624   -0.205875   -5.288018
  C      1.987208   -2.590451   -4.818975
  N      0.743221   -3.017493   -4.913524
  N      2.499636   -1.848598   -5.803241
  H      3.309780   -1.292818   -5.558947
  H      1.801025   -1.304298   -6.289129
  H      3.716116   -2.628797   -3.829533
  H      0.395828   -3.627747   -4.185024
  H      0.039201   -2.454383   -5.371367
  F      0.617165   -0.005348   -5.998273
  O     -1.133173   -1.221380   -5.341465
  C      2.191199   -1.619503   -1.715492
  H      2.872783   -3.666368   -1.828014
  H      1.246188   -3.447444   -2.407842
  C      1.298729   -0.554314   -2.359773
  H      1.872917   -1.787955   -0.681310
  H      3.216809   -1.238432   -1.654428
  C     -0.196255   -0.863365   -2.325763
  H      1.612531   -0.371346   -3.393065
  H      1.480944    0.388638   -1.834444
  H     -0.404105   -1.761825   -2.909448
  H     -0.490439   -1.087880   -1.294131
  H     -1.143842    1.066711   -2.129680
  H     -2.114401   -0.156834   -2.930323

 Total Charge           Charge          ....    0
 Multiplicity           Mult            ....    1
 Number of Electrons    NEL             ....  102
 Basis Dimension        Dim             ....  640

ORBITAL ENERGIES
----------------

  NO   OCC          E(Eh)            E(eV)
   0   2.0000     -24.356745      -662.7807
   1   2.0000     -18.781766      -511.0778
   2   2.0000     -13.976354      -380.3159
   3   2.0000     -13.966837      -380.0570
   4   2.0000     -10.069438      -274.0033
   5   2.0000      -9.922606      -270.0078
   6   2.0000      -9.915540      -269.8156
   7   2.0000      -9.899719      -269.3850
   8   2.0000      -9.880768      -268.8694
   9   2.0000      -9.877759      -268.7875
  10   2.0000      -9.867263      -268.5019
  11   2.0000      -9.857724      -268.2423
  12   2.0000      -9.805087      -266.8100
  13   2.0000      -1.248357       -33.9695
  14   2.0000      -0.978432       -26.6245
  15   2.0000      -0.878928       -23.9168
  16   2.0000      -0.792197       -21.5568
  17   2.0000      -0.754997       -20.5445
  18   2.0000      -0.718660       -19.5557
  19   2.0000      -0.684271       -18.6200
  20   2.0000      -0.643275       -17.5044
  21   2.0000      -0.623771       -16.9737
  22   2.0000      -0.590585       -16.0706
  23   2.0000      -0.554193       -15.0804
  24   2.0000      -0.529644       -14.4123
  25   2.0000      -0.523585       -14.2475
  26   2.0000      -0.507993       -13.8232
  27   2.0000      -0.494236       -13.4488
  28   2.0000      -0.485339       -13.2067
  29   2.0000      -0.464519       -12.6402
  30   2.0000      -0.445648       -12.1267
  31   2.0000      -0.430850       -11.7240
  32   2.0000      -0.425520       -11.5790
  33   2.0000      -0.411954       -11.2098
  34   2.0000      -0.395565       -10.7639
  35   2.0000      -0.391032       -10.6405
  36   2.0000      -0.376131       -10.2350
  37   2.0000      -0.362365        -9.8605
  38   2.0000      -0.350365        -9.5339
  39   2.0000      -0.344434        -9.3725
  40   2.0000      -0.333543        -9.0762
  41   2.0000      -0.324000        -8.8165
  42   2.0000      -0.316526        -8.6131
  43   2.0000      -0.306537        -8.3413
  44   2.0000      -0.297054        -8.0832
  45   2.0000      -0.285356        -7.7649
  46   2.0000      -0.275147        -7.4871
  47   2.0000      -0.269390        -7.3305
  48   2.0000      -0.266686        -7.2569
  49   2.0000      -0.219218        -5.9652
  50   2.0000      -0.126822        -3.4510
  51   0.0000      -0.092091        -2.5059
  52   0.0000      -0.023601        -0.6422
  53   0.0000      -0.004752        -0.1293
  54   0.0000       0.000177         0.0048
  55   0.0000       0.001897         0.0516

MULLIKEN ATOMIC CHARGES
-----------------------
   0 C :   -0.142419
   1 C :   -0.725882
   2 C :   -0.266190
   3 C :   -0.208796
   4 H :    0.250942
   5 H :    0.130311
   6 C :    0.522241
   7 C :   -0.131919
   8 N :   -0.240482
   9 N :   -0.390210
  10 H :    0.194826
  11 H :    0.294833
  12 H :    0.343242
  13 H :    0.220551
  14 H :    0.234621
  15 F :   -0.252908
  16 O :   -0.550495
  17 C :   -0.442279
  18 H :    0.030973
  19 H :    0.321298
  20 C :   -0.263649
  21 H :    0.128825
  22 H :    0.184866
  23 C :   -0.225523
  24 H :    0.218252
  25 H :    0.183154
  26 H :    0.128962
  27 H :    0.140993
  28 H :    0.113167
  29 H :    0.198697
Sum of atomic charges:    0.0000000

LOEWDIN ATOMIC CHARGES
----------------------
   0 C :   -0.240246
   1 C :   -0.118941
   2 C :   -0.191181
   3 C :   -0.102959
   4 H :    0.115069
   5 H :    0.127816
   6 C :   -0.491124
   7 C :   -0.557456
   8 N :    0.162907
   9 N :    0.140298
  10 H :    0.108849
  11 H :    0.067239
  12 H :    0.061007
  13 H :    0.109508
  14 H :    0.042327
  15 F :    0.209902
  16 O :    0.094148
  17 C :   -0.197048
  18 H :    0.102575
  19 H :    0.091886
  20 C :   -0.204655
  21 H :    0.106845
  22 H :    0.110921
  23 C :   -0.205083
  24 H :    0.098944
  25 H :    0.116104
  26 H :    0.092399
  27 H :    0.120388
  28 H :    0.115968
  29 H :    0.113592

  Mayer bond orders larger than 0.100000
B(  0-C ,  1-C ) :   0.8941 B(  0-C ,  7-C ) :   0.1381 B(  0-C , 17-C ) :   0.7982
B(  0-C , 18-H ) :   1.1025 B(  0-C , 19-H ) :   0.8023 B(  0-C , 23-C ) :   0.1550
B(  1-C ,  7-C ) :   1.5771 B(  1-C , 12-H ) :   0.9711 B(  1-C , 17-C ) :   0.1385
B(  2-C ,  3-C ) :   0.9778 B(  2-C ,  6-C ) :   0.1055 B(  2-C , 20-C ) :   0.1914
B(  2-C , 23-C ) :   1.0655 B(  2-C , 26-H ) :   0.1109 B(  2-C , 28-H ) :   0.9279
B(  2-C , 29-H ) :   0.8624 B(  3-C ,  4-H ) :   0.9023 B(  3-C ,  5-H ) :   0.8994
B(  3-C ,  6-C ) :   1.0064 B(  3-C , 20-C ) :   0.1915 B(  6-C , 15-F ) :   0.8502
B(  6-C , 16-O ) :   1.6028 B(  6-C , 23-C ) :   0.1063 B(  7-C ,  8-N ) :   1.1233
B(  7-C ,  9-N ) :   1.0430 B(  7-C , 12-H ) :  -0.1148 B(  7-C , 20-C ) :   0.1274
B(  8-N , 13-H ) :   0.8308 B(  8-N , 14-H ) :   0.7369 B(  9-N , 10-H ) :   0.8966
B(  9-N , 11-H ) :   0.7314 B( 17-C , 20-C ) :   1.1721 B( 17-C , 21-H ) :   0.9169
B( 17-C , 22-H ) :   0.9197 B( 17-C , 23-C ) :   0.3250 B( 17-C , 24-H ) :   0.1465
B( 20-C , 23-C ) :   0.6071 B( 20-C , 24-H ) :   1.0160 B( 20-C , 25-H ) :   0.8289
B( 23-C , 26-H ) :   1.1192 B( 23-C , 27-H ) :   0.8425

Dispersion correction           -0.035215986
FINAL SINGLE POINT ENERGY      -637.214069558950

DIPOLE MOMENT
-------------
                                X             Y             Z
Electronic contribution:     -2.96711       2.06475     -14.52508
Nuclear contribution   :      2.31842      -0.27661      14.74721
                        -----------------------------------------
Total Dipole Moment    :     -0.64869       1.78814       0.22213
                        -----------------------------------------
Magnitude (a.u.)       :      1.91510
Magnitude (Debye)      :      4.86779

Rotational constants in cm-1:     0.032691     0.023990     0.017099
Rotational constants in MHz :   980.050971   719.190545   512.606858

                             ****ORCA TERMINATED NORMALLY****
TOTAL RUN TIME: 0 days 0 hours 1 minutes 33 seconds 764 msec
