                         Program Version 5.0.0 -  RELEASE  -
|  1> !PBE D3BJ RIJCOSX def2-TZVPD def2/J TightSCF xyzfile
|  2>
|  3> *xyzfile 0 1 D2.xyz
|  4>
|  5> %MaxCore 64000
|  6>
|  7> %pal nprocs 4
|  8> end
|  9>
| 10> %scf
| 11>   MaxIter 150
| 12> end
| 13>
| 14>
| 15>                          ****END OF INPUT****

CARTESIAN COORDINATES (ANGSTROEM)
---------------------------------
  C      2.234473   -2.989754   -2.397622
  N      2.756799   -2.945553   -3.765029
  C     -1.104325    0.251374   -2.860056
  C     -0.711893    0.842517   -4.218344
  H      0.154626    1.499800   -4.130909
  H     -1.538134    1.459222   -4.582671
  C     -0.397624   -0.205875   -5.288018
  C      1.987208   -2.590451   -4.818975
  C      0.743221   -3.017493   -4.913524
  N      2.499636   -1.848598   -5.803241
  H      3.309780   -1.292818   -5.558947
  H      1.801025   -1.304298   -6.289129
  H      3.716116   -2.628797   -3.829533
  H      0.395828   -3.627747   -4.185024
  H      0.039201   -2.454383   -5.371367
  F      0.617165   -0.005348   -5.998273
  O     -1.133173   -1.221380   -5.341465
  C      2.191199   -1.619503   -1.715492
  H      2.872783   -3.666368   -1.828014
  H      1.246188   -3.447444   -2.407842
  C      1.298729   -0.554314   -2.359773
  H      1.872917   -1.787955   -0.681310
  H      3.216809   -1.238432   -1.654428
  C     -0.196255   -0.863365   -2.325763
  H      1.612531   -0.371346   -3.393065
  H      1.480944    0.388638   -1.834444
  H     -0.404105   -1.761825   -2.909448
  H     -0.490439   -1.087880   -1.294131
  H     -1.143842    1.066711   -2.129680
  H     -2.114401   -0.156834   -2.930323

 Total Charge           Charge          ....    0
 Multiplicity           Mult            ....    1
 Number of Electrons    NEL             ....  102
 Basis Dimension        Dim             ....  640

ORBITAL ENERGIES
----------------

  NO   OCC          E(Eh)            E(eV)
   0   2.0000     -24.343823      -662.4291
   1   2.0000     -18.761743      -510.5330
   2   2.0000     -13.982181      -380.4745
   3   2.0000     -13.972265      -380.2047
   4   2.0000     -10.055939      -273.6360
   5   2.0000      -9.915119      -269.8041
   6   2.0000      -9.909299      -269.6457
   7   2.0000      -9.908552      -269.6254
   8   2.0000      -9.895195      -269.2619
   9   2.0000      -9.884056      -268.9588
  10   2.0000      -9.883789      -268.9516
  11   2.0000      -9.877569      -268.7823
  12   2.0000      -9.779844      -266.1231
  13   2.0000      -1.235516       -33.6201
  14   2.0000      -0.958859       -26.0919
  15   2.0000      -0.878320       -23.9003
  16   2.0000      -0.805561       -21.9204
  17   2.0000      -0.749675       -20.3997
  18   2.0000      -0.714086       -19.4313
  19   2.0000      -0.666965       -18.1490
  20   2.0000      -0.642013       -17.4701
  21   2.0000      -0.626115       -17.0375
  22   2.0000      -0.599911       -16.3244
  23   2.0000      -0.559187       -15.2163
  24   2.0000      -0.528698       -14.3866
  25   2.0000      -0.508880       -13.8473
  26   2.0000      -0.492901       -13.4125
  27   2.0000      -0.483634       -13.1603
  28   2.0000      -0.482071       -13.1178
  29   2.0000      -0.469145       -12.7661
  30   2.0000      -0.444407       -12.0929
  31   2.0000      -0.431619       -11.7450
  32   2.0000      -0.421407       -11.4671
  33   2.0000      -0.402684       -10.9576
  34   2.0000      -0.396240       -10.7822
  35   2.0000      -0.381143       -10.3714
  36   2.0000      -0.369853       -10.0642
  37   2.0000      -0.362186        -9.8556
  38   2.0000      -0.350162        -9.5284
  39   2.0000      -0.340280        -9.2595
  40   2.0000      -0.332258        -9.0412
  41   2.0000      -0.324773        -8.8375
  42   2.0000      -0.316558        -8.6140
  43   2.0000      -0.313839        -8.5400
  44   2.0000      -0.302198        -8.2232
  45   2.0000      -0.291042        -7.9197
  46   2.0000      -0.282653        -7.6914
  47   2.0000      -0.280057        -7.6207
  48   2.0000      -0.240579        -6.5465
  49   2.0000      -0.204621        -5.5680
  50   2.0000      -0.135254        -3.6805
  51   0.0000      -0.077654        -2.1131
  52   0.0000      -0.023608        -0.6424
  53   0.0000      -0.008104        -0.2205
  54   0.0000      -0.004068        -0.1107
  55   0.0000       0.007888         0.2147

MULLIKEN ATOMIC CHARGES
-----------------------
   0 C :   -0.453600
   1 N :   -0.018414
   2 C :   -0.311049
   3 C :   -0.258023
   4 H :    0.244428
   5 H :    0.147264
   6 C :    0.498068
   7 C :    0.012866
   8 C :   -1.495255
   9 N :   -0.326695
  10 H :    0.188704
  11 H :    0.228830
  12 H :    0.197923
  13 H :    0.499892
  14 H :    0.745535
  15 F :   -0.266746
  16 O :   -0.491218
  17 C :   -0.350119
  18 H :    0.095084
  19 H :    0.217192
  20 C :   -0.136339
  21 H :    0.156066
  22 H :    0.142438
  23 C :   -0.208881
  24 H :    0.154652
  25 H :    0.208727
  26 H :    0.114133
  27 H :    0.138140
  28 H :    0.112410
  29 H :    0.213984
Sum of atomic charges:    0.0000000

LOEWDIN ATOMIC CHARGES
----------------------
   0 C :   -0.194191
   1 N :    0.041994
   2 C :   -0.189973
   3 C :   -0.103599
   4 H :    0.112767
   5 H :    0.126861
   6 C :   -0.488807
   7 C :   -0.568981
   8 C :    0.017868
   9 N :    0.132446
  10 H :    0.094035
  11 H :    0.074068
  12 H :    0.125093
  13 H :    0.029261
  14 H :   -0.016643
  15 F :    0.210687
  16 O :    0.094956
  17 C :   -0.185599
  18 H :    0.112875
  19 H :    0.105359
  20 C :   -0.204132
  21 H :    0.110777
  22 H :    0.107261
  23 C :   -0.203218
  24 H :    0.098373
  25 H :    0.116457
  26 H :    0.095679
  27 H :    0.119436
  28 H :    0.114365
  29 H :    0.114524

  Mayer bond orders larger than 0.100000
B(  0-C ,  1-N ) :   0.8822 B(  0-C ,  7-C ) :   0.1109 B(  0-C , 17-C ) :   0.8582
B(  0-C , 18-H ) :   1.0222 B(  0-C , 19-H ) :   0.9114 B(  0-C , 23-C ) :   0.1650
B(  1-N ,  7-C ) :   1.0986 B(  1-N ,  9-N ) :   0.1136 B(  1-N , 12-H ) :   0.8300
B(  2-C ,  3-C ) :   0.9912 B(  2-C ,  6-C ) :   0.1088 B(  2-C , 20-C ) :   0.2128
B(  2-C , 23-C ) :   1.0759 B(  2-C , 26-H ) :   0.1364 B(  2-C , 28-H ) :   0.9430
B(  2-C , 29-H ) :   0.8500 B(  3-C ,  4-H ) :   0.9141 B(  3-C ,  5-H ) :   0.8947
B(  3-C ,  6-C ) :   1.0047 B(  3-C , 20-C ) :   0.1935 B(  6-C , 15-F ) :   0.8226
B(  6-C , 16-O ) :   1.7575 B(  6-C , 23-C ) :   0.1118 B(  7-C ,  8-C ) :   1.6926
B(  7-C ,  9-N ) :   0.9405 B(  7-C , 14-H ) :  -0.1849 B(  7-C , 20-C ) :   0.1113
B(  8-C , 13-H ) :   0.8294 B(  8-C , 14-H ) :   0.4506 B(  9-N , 10-H ) :   0.8799
B(  9-N , 11-H ) :   0.7920 B( 13-H , 14-H ) :   0.2467 B( 14-H , 16-O ) :  -0.1078
B( 15-F , 16-O ) :   0.1010 B( 17-C , 20-C ) :   1.1002 B( 17-C , 21-H ) :   0.9377
B( 17-C , 22-H ) :   0.9463 B( 17-C , 23-C ) :   0.3037 B( 17-C , 24-H ) :   0.1327
B( 20-C , 23-C ) :   0.5970 B( 20-C , 24-H ) :   1.0742 B( 20-C , 25-H ) :   0.7878
B( 23-C , 26-H ) :   1.1293 B( 23-C , 27-H ) :   0.8398

Dispersion correction           -0.035266291
FINAL SINGLE POINT ENERGY      -637.192362022468

DIPOLE MOMENT
-------------
                                X             Y             Z
Electronic contribution:     -1.50231       2.08389     -13.58374
Nuclear contribution   :      2.00823      -0.28769      14.57028
                        -----------------------------------------
Total Dipole Moment    :      0.50592       1.79620       0.98654
                        -----------------------------------------
Magnitude (a.u.)       :      2.11082
Magnitude (Debye)      :      5.36527

Rotational constants in cm-1:     0.033070     0.023715     0.016943
Rotational constants in MHz :   991.423248   710.957140   507.940500

                             ****ORCA TERMINATED NORMALLY****
TOTAL RUN TIME: 0 days 0 hours 1 minutes 24 seconds 208 msec
