                         Program Version 5.0.0 -  RELEASE  -
|  1> !PBE D3BJ RIJCOSX def2-TZVPD def2/J TightSCF xyzfile
|  2>
|  3> *xyzfile 0 1 D3.xyz
|  4>
|  5> %MaxCore 64000
|  6>
|  7> %pal nprocs 4
|  8> end
|  9>
| 10> %scf
| 11>   MaxIter 150
| 12> end
| 13>
| 14>
| 15>                          ****END OF INPUT****

CARTESIAN COORDINATES (ANGSTROEM)
---------------------------------
  C      2.234473   -2.989754   -2.397622
  N      2.756799   -2.945553   -3.765029
  C     -1.104325    0.251374   -2.860056
  C     -0.711893    0.842517   -4.218344
  H      0.154626    1.499800   -4.130909
  H     -1.538134    1.459222   -4.582671
  C     -0.397624   -0.205875   -5.288018
  C      1.987208   -2.590451   -4.818975
  N      0.743221   -3.017493   -4.913524
  C      2.499636   -1.848598   -5.803241
  H      3.309780   -1.292818   -5.558947
  H      1.801025   -1.304298   -6.289129
  H      3.716116   -2.628797   -3.829533
  H      0.395828   -3.627747   -4.185024
  H      0.039201   -2.454383   -5.371367
  F      0.617165   -0.005348   -5.998273
  O     -1.133173   -1.221380   -5.341465
  C      2.191199   -1.619503   -1.715492
  H      2.872783   -3.666368   -1.828014
  H      1.246188   -3.447444   -2.407842
  C      1.298729   -0.554314   -2.359773
  H      1.872917   -1.787955   -0.681310
  H      3.216809   -1.238432   -1.654428
  C     -0.196255   -0.863365   -2.325763
  H      1.612531   -0.371346   -3.393065
  H      1.480944    0.388638   -1.834444
  H     -0.404105   -1.761825   -2.909448
  H     -0.490439   -1.087880   -1.294131
  H     -1.143842    1.066711   -2.129680
  H     -2.114401   -0.156834   -2.930323

 Total Charge           Charge          ....    0
 Multiplicity           Mult            ....    1
 Number of Electrons    NEL             ....  102
 Basis Dimension        Dim             ....  640

ORBITAL ENERGIES
----------------

  NO   OCC          E(Eh)            E(eV)
   0   2.0000     -24.338194      -662.2759
   1   2.0000     -18.775435      -510.9056
   2   2.0000     -13.981187      -380.4474
   3   2.0000     -13.962457      -379.9378
   4   2.0000     -10.066337      -273.9189
   5   2.0000      -9.920352      -269.9465
   6   2.0000      -9.915791      -269.8224
   7   2.0000      -9.912560      -269.7345
   8   2.0000      -9.901776      -269.4410
   9   2.0000      -9.886797      -269.0334
  10   2.0000      -9.886656      -269.0296
  11   2.0000      -9.886114      -269.0148
  12   2.0000      -9.783272      -266.2164
  13   2.0000      -1.230911       -33.4948
  14   2.0000      -0.972659       -26.4674
  15   2.0000      -0.877175       -23.8691
  16   2.0000      -0.800330       -21.7781
  17   2.0000      -0.756054       -20.5733
  18   2.0000      -0.719402       -19.5759
  19   2.0000      -0.676792       -18.4165
  20   2.0000      -0.643337       -17.5061
  21   2.0000      -0.623521       -16.9669
  22   2.0000      -0.591094       -16.0845
  23   2.0000      -0.558154       -15.1881
  24   2.0000      -0.539013       -14.6673
  25   2.0000      -0.523118       -14.2348
  26   2.0000      -0.501278       -13.6405
  27   2.0000      -0.481002       -13.0887
  28   2.0000      -0.476931       -12.9779
  29   2.0000      -0.474421       -12.9097
  30   2.0000      -0.442802       -12.0492
  31   2.0000      -0.433023       -11.7832
  32   2.0000      -0.425756       -11.5854
  33   2.0000      -0.415101       -11.2955
  34   2.0000      -0.400776       -10.9057
  35   2.0000      -0.390038       -10.6135
  36   2.0000      -0.368081       -10.0160
  37   2.0000      -0.364869        -9.9286
  38   2.0000      -0.347973        -9.4688
  39   2.0000      -0.338363        -9.2073
  40   2.0000      -0.334809        -9.1106
  41   2.0000      -0.327330        -8.9071
  42   2.0000      -0.320592        -8.7237
  43   2.0000      -0.315422        -8.5831
  44   2.0000      -0.303951        -8.2709
  45   2.0000      -0.295052        -8.0288
  46   2.0000      -0.290848        -7.9144
  47   2.0000      -0.286711        -7.8018
  48   2.0000      -0.264645        -7.2014
  49   2.0000      -0.202178        -5.5015
  50   2.0000      -0.132340        -3.6012
  51   0.0000      -0.086612        -2.3568
  52   0.0000      -0.020700        -0.5633
  53   0.0000      -0.008667        -0.2358
  54   0.0000      -0.005664        -0.1541
  55   0.0000       0.003134         0.0853

MULLIKEN ATOMIC CHARGES
-----------------------
   0 C :   -0.502589
   1 N :   -0.044119
   2 C :   -0.257059
   3 C :   -0.247207
   4 H :    0.244970
   5 H :    0.141808
   6 C :    0.496108
   7 C :    0.060690
   8 N :   -0.226523
   9 C :   -1.118845
  10 H :    0.253759
  11 H :    0.442060
  12 H :    0.216539
  13 H :    0.236073
  14 H :    0.222629
  15 F :   -0.197002
  16 O :   -0.560756
  17 C :   -0.370373
  18 H :    0.107046
  19 H :    0.229314
  20 C :   -0.148948
  21 H :    0.170019
  22 H :    0.144246
  23 C :   -0.259551
  24 H :    0.189128
  25 H :    0.185339
  26 H :    0.134394
  27 H :    0.139414
  28 H :    0.114360
  29 H :    0.205078
Sum of atomic charges:   -0.0000000

LOEWDIN ATOMIC CHARGES
----------------------
   0 C :   -0.199411
   1 N :    0.046836
   2 C :   -0.190294
   3 C :   -0.099414
   4 H :    0.116457
   5 H :    0.128564
   6 C :   -0.480887
   7 C :   -0.575389
   8 N :    0.157426
   9 C :   -0.003046
  10 H :    0.014384
  11 H :   -0.007501
  12 H :    0.133468
  13 H :    0.099631
  14 H :    0.049952
  15 F :    0.214676
  16 O :    0.094785
  17 C :   -0.185312
  18 H :    0.111841
  19 H :    0.100616
  20 C :   -0.200972
  21 H :    0.109461
  22 H :    0.110477
  23 C :   -0.207179
  24 H :    0.102262
  25 H :    0.117763
  26 H :    0.091712
  27 H :    0.119135
  28 H :    0.115906
  29 H :    0.114051

  Mayer bond orders larger than 0.100000
B(  0-C ,  1-N ) :   0.9719 B(  0-C ,  8-N ) :   0.1325 B(  0-C , 17-C ) :   0.8393
B(  0-C , 18-H ) :   1.0385 B(  0-C , 19-H ) :   0.9064 B(  0-C , 23-C ) :   0.1590
B(  1-N ,  7-C ) :   1.1228 B(  1-N , 12-H ) :   0.7956 B(  2-C ,  3-C ) :   0.9799
B(  2-C , 20-C ) :   0.2014 B(  2-C , 23-C ) :   1.0642 B(  2-C , 26-H ) :   0.1083
B(  2-C , 28-H ) :   0.9334 B(  2-C , 29-H ) :   0.8568 B(  3-C ,  4-H ) :   0.9032
B(  3-C ,  5-H ) :   0.8905 B(  3-C ,  6-C ) :   1.0179 B(  3-C , 20-C ) :   0.1732
B(  6-C , 15-F ) :   0.9230 B(  6-C , 16-O ) :   1.6098 B(  6-C , 23-C ) :   0.1037
B(  7-C ,  8-N ) :   0.9846 B(  7-C ,  9-C ) :   1.4221 B(  7-C , 10-H ) :  -0.1504
B(  8-N , 13-H ) :   0.7964 B(  8-N , 14-H ) :   0.7327 B(  9-C , 10-H ) :   1.1946
B(  9-C , 11-H ) :   0.7749 B( 15-F , 16-O ) :   0.1050 B( 17-C , 20-C ) :   1.1278
B( 17-C , 21-H ) :   0.9535 B( 17-C , 22-H ) :   0.9273 B( 17-C , 23-C ) :   0.3062
B( 17-C , 24-H ) :   0.1375 B( 20-C , 23-C ) :   0.5752 B( 20-C , 24-H ) :   1.0428
B( 20-C , 25-H ) :   0.7967 B( 20-C , 26-H ) :  -0.1035 B( 23-C , 26-H ) :   1.1128
B( 23-C , 27-H ) :   0.8504

Dispersion correction           -0.035152445
FINAL SINGLE POINT ENERGY      -637.197816839775

DIPOLE MOMENT
-------------
                                X             Y             Z
Electronic contribution:     -2.86321       1.29184     -12.80270
Nuclear contribution   :      2.27881      -0.10762      14.43322
                        -----------------------------------------
Total Dipole Moment    :     -0.58440       1.18422       1.63052
                        -----------------------------------------
Magnitude (a.u.)       :      2.09821
Magnitude (Debye)      :      5.33324

Rotational constants in cm-1:     0.033336     0.023673     0.017062
Rotational constants in MHz :   999.388459   709.685364   511.514310

                             ****ORCA TERMINATED NORMALLY****
TOTAL RUN TIME: 0 days 0 hours 1 minutes 29 seconds 490 msec
