                         Program Version 5.0.0 -  RELEASE  -
|  1> !PBE D3BJ RIJCOSX def2-TZVPD def2/J TightSCF xyzfile
|  2>
|  3> *xyzfile 0 1 D4.xyz
|  4>
|  5> %MaxCore 64000
|  6>
|  7> %pal nprocs 4
|  8> end
|  9>
| 10> %scf
| 11>   MaxIter 150
| 12> end
| 13>
| 14>
| 15>                          ****END OF INPUT****

CARTESIAN COORDINATES (ANGSTROEM)
---------------------------------
  C      2.234473   -2.989754   -2.397622
  C      2.756799   -2.945553   -3.765029
  C     -1.104325    0.251374   -2.860056
  C     -0.711893    0.842517   -4.218344
  H      0.154626    1.499800   -4.130909
  H     -1.538134    1.459222   -4.582671
  C     -0.397624   -0.205875   -5.288018
  C      1.987208   -2.590451   -4.818975
  N      0.743221   -3.017493   -4.913524
  N      2.499636   -1.848598   -5.803241
  H      3.309780   -1.292818   -5.558947
  H      1.801025   -1.304298   -6.289129
  H      3.716116   -2.628797   -3.829533
  H      0.395828   -3.627747   -4.185024
  H      0.039201   -2.454383   -5.371367
  O      0.617165   -0.005348   -5.998273
  F     -1.133173   -1.221380   -5.341465
  C      2.191199   -1.619503   -1.715492
  H      2.872783   -3.666368   -1.828014
  H      1.246188   -3.447444   -2.407842
  C      1.298729   -0.554314   -2.359773
  H      1.872917   -1.787955   -0.681310
  H      3.216809   -1.238432   -1.654428
  C     -0.196255   -0.863365   -2.325763
  H      1.612531   -0.371346   -3.393065
  H      1.480944    0.388638   -1.834444
  H     -0.404105   -1.761825   -2.909448
  H     -0.490439   -1.087880   -1.294131
  H     -1.143842    1.066711   -2.129680
  H     -2.114401   -0.156834   -2.930323

 Total Charge           Charge          ....    0
 Multiplicity           Mult            ....    1
 Number of Electrons    NEL             ....  102
 Basis Dimension        Dim             ....  640

ORBITAL ENERGIES
----------------

  NO   OCC          E(Eh)            E(eV)
   0   2.0000     -24.357876      -662.8115
   1   2.0000     -18.781435      -511.0688
   2   2.0000     -13.977597      -380.3498
   3   2.0000     -13.963589      -379.9686
   4   2.0000     -10.069464      -274.0041
   5   2.0000      -9.921769      -269.9851
   6   2.0000      -9.913697      -269.7654
   7   2.0000      -9.903204      -269.4799
   8   2.0000      -9.885915      -269.0094
   9   2.0000      -9.876142      -268.7435
  10   2.0000      -9.866366      -268.4775
  11   2.0000      -9.857415      -268.2339
  12   2.0000      -9.802956      -266.7520
  13   2.0000      -1.250220       -34.0202
  14   2.0000      -0.976486       -26.5715
  15   2.0000      -0.877069       -23.8663
  16   2.0000      -0.790302       -21.5052
  17   2.0000      -0.758632       -20.6434
  18   2.0000      -0.718669       -19.5560
  19   2.0000      -0.683404       -18.5964
  20   2.0000      -0.639707       -17.4073
  21   2.0000      -0.623746       -16.9730
  22   2.0000      -0.593693       -16.1552
  23   2.0000      -0.555331       -15.1113
  24   2.0000      -0.535081       -14.5603
  25   2.0000      -0.524192       -14.2640
  26   2.0000      -0.510151       -13.8819
  27   2.0000      -0.505592       -13.7579
  28   2.0000      -0.471869       -12.8402
  29   2.0000      -0.464815       -12.6483
  30   2.0000      -0.439269       -11.9531
  31   2.0000      -0.433656       -11.8004
  32   2.0000      -0.425605       -11.5813
  33   2.0000      -0.407483       -11.0882
  34   2.0000      -0.393365       -10.7040
  35   2.0000      -0.389575       -10.6009
  36   2.0000      -0.381008       -10.3678
  37   2.0000      -0.358457        -9.7541
  38   2.0000      -0.353147        -9.6096
  39   2.0000      -0.348041        -9.4707
  40   2.0000      -0.342449        -9.3185
  41   2.0000      -0.321014        -8.7352
  42   2.0000      -0.318124        -8.6566
  43   2.0000      -0.305413        -8.3107
  44   2.0000      -0.297899        -8.1062
  45   2.0000      -0.285191        -7.7604
  46   2.0000      -0.275530        -7.4975
  47   2.0000      -0.268148        -7.2967
  48   2.0000      -0.263966        -7.1829
  49   2.0000      -0.218858        -5.9554
  50   2.0000      -0.125010        -3.4017
  51   0.0000      -0.089800        -2.4436
  52   0.0000      -0.025494        -0.6937
  53   0.0000      -0.005681        -0.1546
  54   0.0000       0.000906         0.0246
  55   0.0000       0.001681         0.0457

MULLIKEN ATOMIC CHARGES
-----------------------
   0 C :   -0.141087
   1 C :   -0.699267
   2 C :   -0.297760
   3 C :   -0.145056
   4 H :    0.192093
   5 H :    0.148478
   6 C :    0.495822
   7 C :   -0.220982
   8 N :   -0.267693
   9 N :   -0.353421
  10 H :    0.185515
  11 H :    0.320829
  12 H :    0.338266
  13 H :    0.229866
  14 H :    0.278156
  15 O :   -0.552459
  16 F :   -0.266711
  17 C :   -0.441759
  18 H :    0.026105
  19 H :    0.317454
  20 C :   -0.249279
  21 H :    0.129340
  22 H :    0.185089
  23 C :   -0.229920
  24 H :    0.264984
  25 H :    0.185646
  26 H :    0.101701
  27 H :    0.145083
  28 H :    0.117402
  29 H :    0.203564
Sum of atomic charges:   -0.0000000

LOEWDIN ATOMIC CHARGES
----------------------
   0 C :   -0.242147
   1 C :   -0.119144
   2 C :   -0.198070
   3 C :   -0.097461
   4 H :    0.123600
   5 H :    0.126414
   6 C :   -0.492092
   7 C :   -0.557064
   8 N :    0.162432
   9 N :    0.143461
  10 H :    0.110191
  11 H :    0.049422
  12 H :    0.061987
  13 H :    0.108090
  14 H :    0.063683
  15 O :    0.087469
  16 F :    0.212293
  17 C :   -0.197438
  18 H :    0.102147
  19 H :    0.090111
  20 C :   -0.202387
  21 H :    0.105846
  22 H :    0.111648
  23 C :   -0.208251
  24 H :    0.102462
  25 H :    0.116945
  26 H :    0.090085
  27 H :    0.119880
  28 H :    0.115912
  29 H :    0.109977

  Mayer bond orders larger than 0.100000
B(  0-C ,  1-C ) :   0.8944 B(  0-C ,  7-C ) :   0.1282 B(  0-C , 17-C ) :   0.7934
B(  0-C , 18-H ) :   1.1071 B(  0-C , 19-H ) :   0.8002 B(  0-C , 23-C ) :   0.1482
B(  1-C ,  7-C ) :   1.5794 B(  1-C , 12-H ) :   0.9687 B(  1-C , 17-C ) :   0.1331
B(  2-C ,  3-C ) :   0.9308 B(  2-C , 20-C ) :   0.1960 B(  2-C , 23-C ) :   0.9974
B(  2-C , 28-H ) :   0.9238 B(  2-C , 29-H ) :   0.9046 B(  3-C ,  4-H ) :   0.9371
B(  3-C ,  5-H ) :   0.9050 B(  3-C ,  6-C ) :   1.0134 B(  3-C , 20-C ) :   0.1699
B(  6-C , 15-O ) :   1.5471 B(  6-C , 16-F ) :   0.8876 B(  7-C ,  8-N ) :   1.1603
B(  7-C ,  9-N ) :   1.0826 B(  7-C , 12-H ) :  -0.1037 B(  7-C , 20-C ) :   0.1418
B(  8-N , 13-H ) :   0.8288 B(  8-N , 14-H ) :   0.7056 B(  9-N , 10-H ) :   0.8941
B(  9-N , 11-H ) :   0.7130 B( 17-C , 20-C ) :   1.1685 B( 17-C , 21-H ) :   0.9195
B( 17-C , 22-H ) :   0.9188 B( 17-C , 23-C ) :   0.3384 B( 17-C , 24-H ) :   0.1350
B( 20-C , 23-C ) :   0.6075 B( 20-C , 24-H ) :   1.0077 B( 20-C , 25-H ) :   0.8163
B( 23-C , 26-H ) :   1.1237 B( 23-C , 27-H ) :   0.8576

Dispersion correction           -0.035199260
FINAL SINGLE POINT ENERGY      -637.213623851341

DIPOLE MOMENT
-------------
                                X             Y             Z
Electronic contribution:     -5.86229       0.08319     -13.45304
Nuclear contribution   :      4.38568       1.15960      13.97148
                        -----------------------------------------
Total Dipole Moment    :     -1.47661       1.24280       0.51844
                        -----------------------------------------
Magnitude (a.u.)       :      1.99843
Magnitude (Debye)      :      5.07960

Rotational constants in cm-1:     0.032892     0.023844     0.017123
Rotational constants in MHz :   986.091711   714.821905   513.334630

                             ****ORCA TERMINATED NORMALLY****
TOTAL RUN TIME: 0 days 0 hours 1 minutes 33 seconds 47 msec
