                         Program Version 5.0.0 -  RELEASE  -
|  1> !PBE D3BJ RIJCOSX def2-TZVPD def2/J TightSCF xyzfile
|  2>
|  3> *xyzfile 0 1 D5.xyz
|  4>
|  5> %MaxCore 64000
|  6>
|  7> %pal nprocs 4
|  8> end
|  9>
| 10> %scf
| 11>   MaxIter 150
| 12> end
| 13>
| 14>
| 15>                          ****END OF INPUT****

CARTESIAN COORDINATES (ANGSTROEM)
---------------------------------
  C      2.234473   -2.989754   -2.397622
  N      2.756799   -2.945553   -3.765029
  C     -1.104325    0.251374   -2.860056
  C     -0.711893    0.842517   -4.218344
  H      0.154626    1.499800   -4.130909
  H     -1.538134    1.459222   -4.582671
  C     -0.397624   -0.205875   -5.288018
  C      1.987208   -2.590451   -4.818975
  C      0.743221   -3.017493   -4.913524
  N      2.499636   -1.848598   -5.803241
  H      3.309780   -1.292818   -5.558947
  H      1.801025   -1.304298   -6.289129
  H      3.716116   -2.628797   -3.829533
  H      0.395828   -3.627747   -4.185024
  H      0.039201   -2.454383   -5.371367
  O      0.617165   -0.005348   -5.998273
  F     -1.133173   -1.221380   -5.341465
  C      2.191199   -1.619503   -1.715492
  H      2.872783   -3.666368   -1.828014
  H      1.246188   -3.447444   -2.407842
  C      1.298729   -0.554314   -2.359773
  H      1.872917   -1.787955   -0.681310
  H      3.216809   -1.238432   -1.654428
  C     -0.196255   -0.863365   -2.325763
  H      1.612531   -0.371346   -3.393065
  H      1.480944    0.388638   -1.834444
  H     -0.404105   -1.761825   -2.909448
  H     -0.490439   -1.087880   -1.294131
  H     -1.143842    1.066711   -2.129680
  H     -2.114401   -0.156834   -2.930323

 Total Charge           Charge          ....    0
 Multiplicity           Mult            ....    1
 Number of Electrons    NEL             ....  102
 Basis Dimension        Dim             ....  640

ORBITAL ENERGIES
----------------

  NO   OCC          E(Eh)            E(eV)
   0   2.0000     -24.331985      -662.1070
   1   2.0000     -18.766849      -510.6719
   2   2.0000     -13.982801      -380.4914
   3   2.0000     -13.961763      -379.9189
   4   2.0000     -10.057536      -273.6795
   5   2.0000      -9.914024      -269.7743
   6   2.0000      -9.910809      -269.6868
   7   2.0000      -9.910281      -269.6725
   8   2.0000      -9.898346      -269.3477
   9   2.0000      -9.883813      -268.9522
  10   2.0000      -9.882510      -268.9168
  11   2.0000      -9.881888      -268.8998
  12   2.0000      -9.788048      -266.3463
  13   2.0000      -1.225876       -33.3578
  14   2.0000      -0.962217       -26.1833
  15   2.0000      -0.875561       -23.8252
  16   2.0000      -0.800293       -21.7771
  17   2.0000      -0.752820       -20.4853
  18   2.0000      -0.713958       -19.4278
  19   2.0000      -0.666858       -18.1461
  20   2.0000      -0.639404       -17.3991
  21   2.0000      -0.622707       -16.9447
  22   2.0000      -0.598327       -16.2813
  23   2.0000      -0.559030       -15.2120
  24   2.0000      -0.528025       -14.3683
  25   2.0000      -0.511779       -13.9262
  26   2.0000      -0.491206       -13.3664
  27   2.0000      -0.487116       -13.2551
  28   2.0000      -0.478261       -13.0141
  29   2.0000      -0.462906       -12.5963
  30   2.0000      -0.437357       -11.9011
  31   2.0000      -0.431831       -11.7507
  32   2.0000      -0.423823       -11.5328
  33   2.0000      -0.403177       -10.9710
  34   2.0000      -0.396625       -10.7927
  35   2.0000      -0.374558       -10.1922
  36   2.0000      -0.369605       -10.0575
  37   2.0000      -0.365519        -9.9463
  38   2.0000      -0.347534        -9.4569
  39   2.0000      -0.341075        -9.2811
  40   2.0000      -0.333791        -9.0829
  41   2.0000      -0.328632        -8.9425
  42   2.0000      -0.317645        -8.6436
  43   2.0000      -0.316015        -8.5992
  44   2.0000      -0.299791        -8.1577
  45   2.0000      -0.290322        -7.9001
  46   2.0000      -0.288652        -7.8546
  47   2.0000      -0.281647        -7.6640
  48   2.0000      -0.253844        -6.9074
  49   2.0000      -0.200867        -5.4659
  50   2.0000      -0.139112        -3.7854
  51   0.0000      -0.076019        -2.0686
  52   0.0000      -0.020521        -0.5584
  53   0.0000      -0.009863        -0.2684
  54   0.0000      -0.000967        -0.0263
  55   0.0000       0.007442         0.2025

MULLIKEN ATOMIC CHARGES
-----------------------
   0 C :   -0.461527
   1 N :   -0.011036
   2 C :   -0.343683
   3 C :   -0.189223
   4 H :    0.185320
   5 H :    0.165585
   6 C :    0.479414
   7 C :    0.012018
   8 C :   -1.406012
   9 N :   -0.297940
  10 H :    0.182878
  11 H :    0.249263
  12 H :    0.199261
  13 H :    0.538133
  14 H :    0.586857
  15 O :   -0.564840
  16 F :   -0.221834
  17 C :   -0.338937
  18 H :    0.093683
  19 H :    0.209898
  20 C :   -0.142463
  21 H :    0.153835
  22 H :    0.142464
  23 C :   -0.197417
  24 H :    0.196687
  25 H :    0.212873
  26 H :    0.092925
  27 H :    0.141986
  28 H :    0.115392
  29 H :    0.216442
Sum of atomic charges:   -0.0000000

LOEWDIN ATOMIC CHARGES
----------------------
   0 C :   -0.194719
   1 N :    0.044917
   2 C :   -0.196214
   3 C :   -0.097010
   4 H :    0.121679
   5 H :    0.125721
   6 C :   -0.487962
   7 C :   -0.563721
   8 C :    0.016353
   9 N :    0.139809
  10 H :    0.097074
  11 H :    0.057056
  12 H :    0.126952
  13 H :    0.025749
  14 H :   -0.001844
  15 O :    0.082908
  16 F :    0.206342
  17 C :   -0.185459
  18 H :    0.112818
  19 H :    0.104383
  20 C :   -0.202269
  21 H :    0.110227
  22 H :    0.108027
  23 C :   -0.207131
  24 H :    0.101543
  25 H :    0.117296
  26 H :    0.093224
  27 H :    0.118716
  28 H :    0.114345
  29 H :    0.111191

  Mayer bond orders larger than 0.100000
B(  0-C ,  1-N ) :   0.8845 B(  0-C ,  7-C ) :   0.1098 B(  0-C , 17-C ) :   0.8547
B(  0-C , 18-H ) :   1.0259 B(  0-C , 19-H ) :   0.9110 B(  0-C , 23-C ) :   0.1597
B(  1-N ,  7-C ) :   1.1036 B(  1-N ,  9-N ) :   0.1155 B(  1-N , 12-H ) :   0.8261
B(  2-C ,  3-C ) :   0.9395 B(  2-C , 20-C ) :   0.2208 B(  2-C , 23-C ) :   1.0129
B(  2-C , 26-H ) :   0.1215 B(  2-C , 28-H ) :   0.9419 B(  2-C , 29-H ) :   0.8878
B(  3-C ,  4-H ) :   0.9574 B(  3-C ,  5-H ) :   0.8951 B(  3-C ,  6-C ) :   1.0158
B(  3-C , 20-C ) :   0.1647 B(  6-C , 15-O ) :   1.5227 B(  6-C , 16-F ) :   0.9841
B(  7-C ,  8-C ) :   1.6750 B(  7-C ,  9-N ) :   0.9967 B(  7-C , 14-H ) :  -0.1220
B(  7-C , 15-O ) :   0.1015 B(  7-C , 20-C ) :   0.1157 B(  8-C , 13-H ) :   0.7653
B(  8-C , 14-H ) :   0.5632 B(  9-N , 10-H ) :   0.8738 B(  9-N , 11-H ) :   0.7729
B( 13-H , 14-H ) :   0.2069 B( 17-C , 20-C ) :   1.0973 B( 17-C , 21-H ) :   0.9403
B( 17-C , 22-H ) :   0.9447 B( 17-C , 23-C ) :   0.3141 B( 17-C , 24-H ) :   0.1216
B( 20-C , 23-C ) :   0.5852 B( 20-C , 24-H ) :   1.0598 B( 20-C , 25-H ) :   0.7786
B( 23-C , 26-H ) :   1.1324 B( 23-C , 27-H ) :   0.8491

Dispersion correction           -0.035246701
FINAL SINGLE POINT ENERGY      -637.202401268229

DIPOLE MOMENT
-------------
                                X             Y             Z
Electronic contribution:     -4.30957       0.09695     -12.47649
Nuclear contribution   :      4.07548       1.14852      13.79455
                        -----------------------------------------
Total Dipole Moment    :     -0.23408       1.24547       1.31806
                        -----------------------------------------
Magnitude (a.u.)       :      1.82846
Magnitude (Debye)      :      4.64757

Rotational constants in cm-1:     0.033274     0.023559     0.016968
Rotational constants in MHz :   997.539108   706.293545   508.690532

                             ****ORCA TERMINATED NORMALLY****
TOTAL RUN TIME: 0 days 0 hours 1 minutes 27 seconds 783 msec
