                         Program Version 5.0.0 -  RELEASE  -
|  1> !PBE D3BJ RIJCOSX def2-TZVPD def2/J TightSCF xyzfile
|  2>
|  3> *xyzfile 0 1 D6.xyz
|  4>
|  5> %MaxCore 64000
|  6>
|  7> %pal nprocs 4
|  8> end
|  9>
| 10> %scf
| 11>   MaxIter 150
| 12> end
| 13>
| 14>
| 15>                          ****END OF INPUT****

CARTESIAN COORDINATES (ANGSTROEM)
---------------------------------
  C      2.234473   -2.989754   -2.397622
  N      2.756799   -2.945553   -3.765029
  C     -1.104325    0.251374   -2.860056
  C     -0.711893    0.842517   -4.218344
  H      0.154626    1.499800   -4.130909
  H     -1.538134    1.459222   -4.582671
  C     -0.397624   -0.205875   -5.288018
  C      1.987208   -2.590451   -4.818975
  N      0.743221   -3.017493   -4.913524
  C      2.499636   -1.848598   -5.803241
  H      3.309780   -1.292818   -5.558947
  H      1.801025   -1.304298   -6.289129
  H      3.716116   -2.628797   -3.829533
  H      0.395828   -3.627747   -4.185024
  H      0.039201   -2.454383   -5.371367
  O      0.617165   -0.005348   -5.998273
  F     -1.133173   -1.221380   -5.341465
  C      2.191199   -1.619503   -1.715492
  H      2.872783   -3.666368   -1.828014
  H      1.246188   -3.447444   -2.407842
  C      1.298729   -0.554314   -2.359773
  H      1.872917   -1.787955   -0.681310
  H      3.216809   -1.238432   -1.654428
  C     -0.196255   -0.863365   -2.325763
  H      1.612531   -0.371346   -3.393065
  H      1.480944    0.388638   -1.834444
  H     -0.404105   -1.761825   -2.909448
  H     -0.490439   -1.087880   -1.294131
  H     -1.143842    1.066711   -2.129680
  H     -2.114401   -0.156834   -2.930323

 Total Charge           Charge          ....    0
 Multiplicity           Mult            ....    1
 Number of Electrons    NEL             ....  102
 Basis Dimension        Dim             ....  640

ORBITAL ENERGIES
----------------

  NO   OCC          E(Eh)            E(eV)
   0   2.0000     -24.345000      -662.4611
   1   2.0000     -18.763217      -510.5731
   2   2.0000     -13.981538      -380.4570
   3   2.0000     -13.975708      -380.2983
   4   2.0000     -10.053352      -273.5656
   5   2.0000      -9.916556      -269.8432
   6   2.0000      -9.914944      -269.7993
   7   2.0000      -9.911446      -269.7041
   8   2.0000      -9.902021      -269.4477
   9   2.0000      -9.890325      -269.1294
  10   2.0000      -9.886478      -269.0247
  11   2.0000      -9.884415      -268.9686
  12   2.0000      -9.776912      -266.0433
  13   2.0000      -1.238213       -33.6935
  14   2.0000      -0.957785       -26.0627
  15   2.0000      -0.880613       -23.9627
  16   2.0000      -0.806122       -21.9357
  17   2.0000      -0.757058       -20.6006
  18   2.0000      -0.718657       -19.5557
  19   2.0000      -0.674493       -18.3539
  20   2.0000      -0.643566       -17.5123
  21   2.0000      -0.618081       -16.8188
  22   2.0000      -0.599392       -16.3103
  23   2.0000      -0.557337       -15.1659
  24   2.0000      -0.546947       -14.8832
  25   2.0000      -0.524236       -14.2652
  26   2.0000      -0.505836       -13.7645
  27   2.0000      -0.496382       -13.5072
  28   2.0000      -0.479909       -13.0590
  29   2.0000      -0.454062       -12.3556
  30   2.0000      -0.442586       -12.0434
  31   2.0000      -0.432396       -11.7661
  32   2.0000      -0.423478       -11.5234
  33   2.0000      -0.413394       -11.2490
  34   2.0000      -0.398476       -10.8431
  35   2.0000      -0.391102       -10.6424
  36   2.0000      -0.368291       -10.0217
  37   2.0000      -0.362625        -9.8675
  38   2.0000      -0.344845        -9.3837
  39   2.0000      -0.340646        -9.2695
  40   2.0000      -0.337373        -9.1804
  41   2.0000      -0.329242        -8.9591
  42   2.0000      -0.324424        -8.8280
  43   2.0000      -0.315855        -8.5949
  44   2.0000      -0.295265        -8.0346
  45   2.0000      -0.293929        -7.9982
  46   2.0000      -0.292952        -7.9716
  47   2.0000      -0.286172        -7.7871
  48   2.0000      -0.240742        -6.5509
  49   2.0000      -0.207238        -5.6392
  50   2.0000      -0.130262        -3.5446
  51   0.0000      -0.075371        -2.0510
  52   0.0000      -0.024324        -0.6619
  53   0.0000      -0.009716        -0.2644
  54   0.0000      -0.008096        -0.2203
  55   0.0000       0.003501         0.0953

MULLIKEN ATOMIC CHARGES
-----------------------
   0 C :   -0.501266
   1 N :   -0.041307
   2 C :   -0.297435
   3 C :   -0.176975
   4 H :    0.181213
   5 H :    0.151828
   6 C :    0.430230
   7 C :   -0.039838
   8 N :   -0.241223
   9 C :   -1.105509
  10 H :    0.228129
  11 H :    0.550184
  12 H :    0.223684
  13 H :    0.253822
  14 H :    0.256676
  15 O :   -0.471709
  16 F :   -0.279128
  17 C :   -0.365807
  18 H :    0.105793
  19 H :    0.222708
  20 C :   -0.133552
  21 H :    0.168566
  22 H :    0.144769
  23 C :   -0.254696
  24 H :    0.216034
  25 H :    0.198294
  26 H :    0.104207
  27 H :    0.144437
  28 H :    0.117323
  29 H :    0.210551
Sum of atomic charges:   -0.0000000

LOEWDIN ATOMIC CHARGES
----------------------
   0 C :   -0.200503
   1 N :    0.046901
   2 C :   -0.198577
   3 C :   -0.097681
   4 H :    0.123497
   5 H :    0.125217
   6 C :   -0.494820
   7 C :   -0.571161
   8 N :    0.160643
   9 C :    0.004889
  10 H :    0.019813
  11 H :   -0.018416
  12 H :    0.134532
  13 H :    0.099001
  14 H :    0.072271
  15 O :    0.093466
  16 F :    0.206957
  17 C :   -0.185474
  18 H :    0.111713
  19 H :    0.099299
  20 C :   -0.198541
  21 H :    0.108932
  22 H :    0.111148
  23 C :   -0.210795
  24 H :    0.106088
  25 H :    0.118890
  26 H :    0.089262
  27 H :    0.118306
  28 H :    0.115033
  29 H :    0.110109

  Mayer bond orders larger than 0.100000
B(  0-C ,  1-N ) :   0.9774 B(  0-C ,  8-N ) :   0.1237 B(  0-C , 17-C ) :   0.8382
B(  0-C , 18-H ) :   1.0421 B(  0-C , 19-H ) :   0.9060 B(  0-C , 23-C ) :   0.1527
B(  1-N ,  7-C ) :   1.1223 B(  1-N , 12-H ) :   0.7888 B(  2-C ,  3-C ) :   0.9358
B(  2-C , 20-C ) :   0.2095 B(  2-C , 23-C ) :   0.9989 B(  2-C , 28-H ) :   0.9308
B(  2-C , 29-H ) :   0.8988 B(  3-C ,  4-H ) :   0.9405 B(  3-C ,  5-H ) :   0.9053
B(  3-C ,  6-C ) :   1.0287 B(  3-C , 20-C ) :   0.1539 B(  6-C , 15-O ) :   1.6517
B(  6-C , 16-F ) :   0.8600 B(  7-C ,  8-N ) :   1.0226 B(  7-C ,  9-C ) :   1.4900
B(  7-C , 10-H ) :  -0.1302 B(  7-C , 14-H ) :   0.1163 B(  8-N , 13-H ) :   0.7898
B(  8-N , 14-H ) :   0.7107 B(  9-C , 10-H ) :   1.1943 B(  9-C , 11-H ) :   0.6976
B( 11-H , 15-O ) :  -0.1066 B( 17-C , 20-C ) :   1.1269 B( 17-C , 21-H ) :   0.9544
B( 17-C , 22-H ) :   0.9263 B( 17-C , 23-C ) :   0.3218 B( 17-C , 24-H ) :   0.1275
B( 20-C , 23-C ) :   0.5744 B( 20-C , 24-H ) :   1.0367 B( 20-C , 25-H ) :   0.7855
B( 20-C , 26-H ) :  -0.1113 B( 23-C , 26-H ) :   1.1158 B( 23-C , 27-H ) :   0.8673

Dispersion correction           -0.035139198
FINAL SINGLE POINT ENERGY      -637.188318428729

DIPOLE MOMENT
-------------
                                X             Y             Z
Electronic contribution:     -5.60080      -0.79717     -11.77222
Nuclear contribution   :      4.34606       1.32859      13.65749
                        -----------------------------------------
Total Dipole Moment    :     -1.25473       0.53142       1.88527
                        -----------------------------------------
Magnitude (a.u.)       :      2.32615
Magnitude (Debye)      :      5.91261

Rotational constants in cm-1:     0.033551     0.023540     0.017085
Rotational constants in MHz :  1005.818710   705.725032   512.192443

                             ****ORCA TERMINATED NORMALLY****
TOTAL RUN TIME: 0 days 0 hours 1 minutes 23 seconds 145 msec
