                         Program Version 5.0.0 -  RELEASE  -
|  1> !PBE D3BJ RIJCOSX def2-SVPD def2/J TightSCF
|  2> *xyz -1 1
|  3> C         -0.05915        1.50352        3.41058
|  4> C          1.08303        0.74964        4.08571
|  5> O          2.22817        1.26348        4.01983
|  6> O          0.81003       -0.34541        4.63627
|  7> H          0.31461        2.41205        2.98658
|  8> H         -0.81316        1.73160        4.13470
|  9> H         -0.47977        0.89552        2.63708
| 10> *
| 11>
| 12> %MaxCore 64000
| 13>
| 14> %pal nprocs 4
| 15> end
| 16>
| 17> %scf
| 18>   MaxIter 150
| 19> end
| 20>
| 21>
| 22>                          ****END OF INPUT****

CARTESIAN COORDINATES (ANGSTROEM)
---------------------------------
  C     -0.059150    1.503520    3.410580
  C      1.083030    0.749640    4.085710
  O      2.228170    1.263480    4.019830
  O      0.810030   -0.345410    4.636270
  H      0.314610    2.412050    2.986580
  H     -0.813160    1.731600    4.134700
  H     -0.479770    0.895520    2.637080

 Total Charge           Charge          ....   -1
 Multiplicity           Mult            ....    1
 Number of Electrons    NEL             ....   32
 Basis Dimension        Dim             ....  110

ORBITAL ENERGIES
----------------

  NO   OCC          E(Eh)            E(eV)
   0   2.0000     -18.501821      -503.4601
   1   2.0000     -18.501388      -503.4484
   2   2.0000      -9.770887      -265.8793
   3   2.0000      -9.706607      -264.1302
   4   2.0000      -0.721492       -19.6328
   5   2.0000      -0.632648       -17.2152
   6   2.0000      -0.468324       -12.7438
   7   2.0000      -0.245709        -6.6861
   8   2.0000      -0.212226        -5.7750
   9   2.0000      -0.196130        -5.3370
  10   2.0000      -0.170320        -4.6346
  11   2.0000      -0.133801        -3.6409
  12   2.0000      -0.121402        -3.3035
  13   2.0000      -0.010861        -0.2956
  14   2.0000       0.002592         0.0705
  15   2.0000       0.021505         0.5852
  16   0.0000       0.156593         4.2611
  17   0.0000       0.197779         5.3818
  18   0.0000       0.199654         5.4329
  19   0.0000       0.224792         6.1169
  20   0.0000       0.242291         6.5931

MULLIKEN ATOMIC CHARGES
-----------------------
   0 C :    0.468682
   1 C :   -0.043095
   2 O :   -0.606278
   3 O :   -0.626661
   4 H :   -0.076665
   5 H :   -0.057572
   6 H :   -0.058409
Sum of atomic charges:   -1.0000000

LOEWDIN ATOMIC CHARGES
----------------------
   0 C :    0.139285
   1 C :   -0.358548
   2 O :   -0.324756
   3 O :   -0.325951
   4 H :   -0.048255
   5 H :   -0.041375
   6 H :   -0.040400

  Mayer bond orders larger than 0.100000
B(  0-C ,  1-C ) :   1.2793 B(  0-C ,  4-H ) :   0.8740 B(  0-C ,  5-H ) :   0.8204
B(  0-C ,  6-H ) :   0.8242 B(  1-C ,  2-O ) :   1.4721 B(  1-C ,  3-O ) :   1.4995
B(  1-C ,  4-H ) :   0.2537 B(  1-C ,  5-H ) :   0.1760 B(  1-C ,  6-H ) :   0.1720

Dispersion correction           -0.003679838
FINAL SINGLE POINT ENERGY      -228.123779874515

DIPOLE MOMENT
-------------
                                X             Y             Z
Electronic contribution:      2.75877      -1.81662       1.61782
Nuclear contribution   :     -3.75920       2.48542      -2.19871
                        -----------------------------------------
Total Dipole Moment    :     -1.00044       0.66880      -0.58090
                        -----------------------------------------
Magnitude (a.u.)       :      1.33627
Magnitude (Debye)      :      3.39652

Rotational constants in cm-1:     0.392838     0.334689     0.186890
Rotational constants in MHz : 11776.984954 10033.729666  5602.815156

                             ****ORCA TERMINATED NORMALLY****
TOTAL RUN TIME: 0 days 0 hours 0 minutes 3 seconds 377 msec
