                         Program Version 5.0.0 -  RELEASE  -
|  1> !PBE D3BJ RIJCOSX def2-SVPD def2/J TightSCF
|  2> *xyz 1 1
|  3> C          4.60295       -2.44010        2.63478
|  4> C          3.86085       -1.59157        3.62289
|  5> N          2.75650       -2.04616        4.16633
|  6> N          4.25433       -0.36291        3.86046
|  7> H          3.56526        0.31099        4.16898
|  8> H          5.05429       -0.01606        3.33784
|  9> H          2.43970       -2.97389        3.89740
| 10> H          2.06687       -1.41253        4.54981
| 11> H          5.47239       -1.91604        2.29664
| 12> H          3.96816       -2.65362        1.80030
| 13> H          4.89801       -3.35632        3.10209
| 14> *
| 15>
| 16> %MaxCore 64000
| 17>
| 18> %pal nprocs 4
| 19> end
| 20>
| 21> %scf
| 22>   MaxIter 150
| 23> end
| 24>
| 25>
| 26>                          ****END OF INPUT****

CARTESIAN COORDINATES (ANGSTROEM)
---------------------------------
  C      4.602950   -2.440100    2.634780
  C      3.860850   -1.591570    3.622890
  N      2.756500   -2.046160    4.166330
  N      4.254330   -0.362910    3.860460
  H      3.565260    0.310990    4.168980
  H      5.054290   -0.016060    3.337840
  H      2.439700   -2.973890    3.897400
  H      2.066870   -1.412530    4.549810
  H      5.472390   -1.916040    2.296640
  H      3.968160   -2.653620    1.800300
  H      4.898010   -3.356320    3.102090

 Total Charge           Charge          ....    1
 Multiplicity           Mult            ....    1
 Number of Electrons    NEL             ....   32
 Basis Dimension        Dim             ....  136

ORBITAL ENERGIES
----------------

  NO   OCC          E(Eh)            E(eV)
   0   2.0000     -14.252859      -387.8400
   1   2.0000     -14.252123      -387.8200
   2   2.0000     -10.220559      -278.1156
   3   2.0000     -10.097436      -274.7652
   4   2.0000      -1.125988       -30.6397
   5   2.0000      -1.034021       -28.1372
   6   2.0000      -0.883404       -24.0386
   7   2.0000      -0.785852       -21.3841
   8   2.0000      -0.729471       -19.8499
   9   2.0000      -0.721238       -19.6259
  10   2.0000      -0.657719       -17.8974
  11   2.0000      -0.619227       -16.8500
  12   2.0000      -0.578103       -15.7310
  13   2.0000      -0.560115       -15.2415
  14   2.0000      -0.534028       -14.5316
  15   2.0000      -0.466300       -12.6887
  16   0.0000      -0.260538        -7.0896
  17   0.0000      -0.187269        -5.0958
  18   0.0000      -0.144438        -3.9303
  19   0.0000      -0.138819        -3.7775
  20   0.0000      -0.118607        -3.2274

MULLIKEN ATOMIC CHARGES
-----------------------
   0 C :    0.628659
   1 C :    0.238642
   2 N :    0.136744
   3 N :    0.055193
   4 H :   -0.064467
   5 H :    0.059991
   6 H :    0.038416
   7 H :   -0.140003
   8 H :    0.005856
   9 H :   -0.000249
  10 H :    0.041217
Sum of atomic charges:    1.0000000

LOEWDIN ATOMIC CHARGES
----------------------
   0 C :    0.237666
   1 C :   -0.088023
   2 N :    0.289885
   3 N :    0.293185
   4 H :    0.049841
   5 H :    0.052972
   6 H :    0.058747
   7 H :    0.049459
   8 H :    0.006994
   9 H :    0.026506
  10 H :    0.022769

  Mayer bond orders larger than 0.100000
B(  0-C ,  1-C ) :   1.3384 B(  0-C ,  8-H ) :   0.7845 B(  0-C ,  9-H ) :   0.8204
B(  0-C , 10-H ) :   0.6799 B(  1-C ,  2-N ) :   1.1600 B(  1-C ,  3-N ) :   1.0860
B(  1-C ,  4-H ) :  -0.1438 B(  1-C ,  7-H ) :  -0.1586 B(  1-C ,  8-H ) :   0.2488
B(  1-C ,  9-H ) :   0.1332 B(  1-C , 10-H ) :   0.2427 B(  2-N ,  3-N ) :   0.2065
B(  2-N ,  6-H ) :   1.0485 B(  2-N ,  7-H ) :   1.2504 B(  3-N ,  4-H ) :   1.2311
B(  3-N ,  5-H ) :   1.0077 B(  4-H ,  5-H ) :  -0.1388 B(  6-H ,  7-H ) :  -0.1520
B(  8-H , 10-H ) :   0.1077

Dispersion correction           -0.006941165
FINAL SINGLE POINT ENERGY      -189.352628663493

DIPOLE MOMENT
-------------
                                X             Y             Z
Electronic contribution:     -0.95987       1.15481       1.63162
Nuclear contribution   :      0.47466      -0.79212      -1.71537
                        -----------------------------------------
Total Dipole Moment    :     -0.48521       0.36270      -0.08375
                        -----------------------------------------
Magnitude (a.u.)       :      0.61155
Magnitude (Debye)      :      1.55444

Rotational constants in cm-1:     0.335502     0.299428     0.163704
Rotational constants in MHz : 10058.111638  8976.630214  4907.722182

                             ****ORCA TERMINATED NORMALLY****
TOTAL RUN TIME: 0 days 0 hours 0 minutes 4 seconds 699 msec
