                         Program Version 5.0.0 -  RELEASE  -
|  1> !PBE D3BJ RIJCOSX def2-SVPD def2/J TightSCF xyzfile
|  2>
|  3> *xyzfile 0 1 B.xyz
|  4>
|  5> %MaxCore 64000
|  6>
|  7> %pal nprocs 4
|  8> end
|  9>
| 10> %scf
| 11>   MaxIter 150
| 12> end
| 13>
| 14>
| 15>                          ****END OF INPUT****

CARTESIAN COORDINATES (ANGSTROEM)
---------------------------------
  C      4.602954   -2.440100    2.634780
  C     -0.914947    0.615112    2.505538
  C     -0.059146    1.503524    3.410578
  H      0.365364    2.344315    2.861161
  H     -0.692261    1.920207    4.198985
  C      1.083027    0.749640    4.085705
  C      3.860851   -1.591565    3.622893
  N      2.756502   -2.046159    4.166333
  N      4.254325   -0.362905    3.860455
  H      3.565256    0.310994    4.168983
  H      5.054292   -0.016059    3.337838
  H      2.439696   -2.973894    3.897395
  H      2.066869   -1.412532    4.549813
  O      2.228167    1.263475    4.019826
  O      0.810034   -0.345411    4.636269
  C      3.744685   -2.580557    1.361882
  C      0.772139    0.636882    0.562129
  C     -0.130740   -0.193985    1.470763
  H     -0.840563   -0.760165    0.856377
  H      0.466691   -0.938942    2.006959
  H     -1.647961    1.245963    1.991076
  H     -1.478180   -0.081046    3.130424
  C      3.203721   -1.256004    0.826211
  H      2.898939   -3.239289    1.583074
  H      4.334962   -3.095523    0.600188
  C      2.107815   -1.442385   -0.216865
  H      2.786775   -0.672760    1.650711
  H      4.021008   -0.652993    0.414046
  C      1.390662   -0.145912   -0.602422
  H      1.372179   -2.152184    0.176151
  H      2.523302   -1.906787   -1.117115
  H      1.561361    1.100094    1.161831
  H      0.195516    1.468325    0.142758
  H      0.602893   -0.398214   -1.319716
  H      2.087247    0.508272   -1.137335
  H      5.561557   -1.971347    2.407084
  H      4.810498   -3.422552    3.063099

 Total Charge           Charge          ....    0
 Multiplicity           Mult            ....    1
 Number of Electrons    NEL             ....  118
 Basis Dimension        Dim             ....  482

ORBITAL ENERGIES
----------------

  NO   OCC          E(Eh)            E(eV)
   0   2.0000     -18.695001      -508.7168
   1   2.0000     -18.693343      -508.6717
   2   2.0000     -14.041800      -382.0968
   3   2.0000     -14.041635      -382.0923
   4   2.0000     -10.023593      -272.7558
   5   2.0000      -9.953957      -270.8609
   6   2.0000      -9.945762      -270.6379
   7   2.0000      -9.928872      -270.1784
   8   2.0000      -9.905873      -269.5525
   9   2.0000      -9.897257      -269.3181
  10   2.0000      -9.889450      -269.1056
  11   2.0000      -9.879305      -268.8296
  12   2.0000      -9.876179      -268.7445
  13   2.0000      -9.872064      -268.6325
  14   2.0000      -9.862640      -268.3761
  15   2.0000      -0.930021       -25.3072
  16   2.0000      -0.914342       -24.8805
  17   2.0000      -0.838814       -22.8253
  18   2.0000      -0.823202       -22.4005
  19   2.0000      -0.758623       -20.6432
  20   2.0000      -0.725666       -19.7464
  21   2.0000      -0.697255       -18.9733
  22   2.0000      -0.660255       -17.9665
  23   2.0000      -0.625150       -17.0112
  24   2.0000      -0.594448       -16.1757
  25   2.0000      -0.577929       -15.7262
  26   2.0000      -0.557797       -15.1784
  27   2.0000      -0.528793       -14.3892
  28   2.0000      -0.520843       -14.1729
  29   2.0000      -0.514443       -13.9987
  30   2.0000      -0.486372       -13.2349
  31   2.0000      -0.464107       -12.6290
  32   2.0000      -0.459342       -12.4993
  33   2.0000      -0.436322       -11.8729
  34   2.0000      -0.422063       -11.4849
  35   2.0000      -0.413738       -11.2584
  36   2.0000      -0.406382       -11.0582
  37   2.0000      -0.397547       -10.8178
  38   2.0000      -0.385453       -10.4887
  39   2.0000      -0.373823       -10.1722
  40   2.0000      -0.365210        -9.9379
  41   2.0000      -0.362409        -9.8617
  42   2.0000      -0.354752        -9.6533
  43   2.0000      -0.349728        -9.5166
  44   2.0000      -0.333612        -9.0781
  45   2.0000      -0.329817        -8.9748
  46   2.0000      -0.325368        -8.8537
  47   2.0000      -0.319380        -8.6908
  48   2.0000      -0.309411        -8.4195
  49   2.0000      -0.294902        -8.0247
  50   2.0000      -0.290720        -7.9109
  51   2.0000      -0.283986        -7.7276
  52   2.0000      -0.270665        -7.3652
  53   2.0000      -0.266412        -7.2495
  54   2.0000      -0.264472        -7.1966
  55   2.0000      -0.256714        -6.9855
  56   2.0000      -0.202409        -5.5078
  57   2.0000      -0.187073        -5.0905
  58   2.0000      -0.176337        -4.7984
  59   0.0000      -0.069705        -1.8968
  60   0.0000      -0.026368        -0.7175
  61   0.0000      -0.006760        -0.1839
  62   0.0000       0.006068         0.1651
  63   0.0000       0.013561         0.3690

MULLIKEN ATOMIC CHARGES
-----------------------
   0 C :    0.584759
   1 C :    0.517687
   2 C :    0.164561
   3 H :    0.168986
   4 H :   -0.195289
   5 C :    0.425275
   6 C :    0.295128
   7 N :    0.399349
   8 N :    0.383489
   9 H :   -0.415756
  10 H :    0.080403
  11 H :    0.072826
  12 H :   -0.500675
  13 O :   -0.646987
  14 O :   -0.711068
  15 C :    0.187910
  16 C :   -0.228826
  17 C :   -0.203769
  18 H :   -0.187595
  19 H :   -0.009936
  20 H :   -0.100169
  21 H :    0.061041
  22 C :    0.112051
  23 H :    0.039440
  24 H :   -0.282536
  25 C :   -0.042480
  26 H :   -0.301032
  27 H :   -0.003932
  28 C :    0.823083
  29 H :    0.203035
  30 H :   -0.379623
  31 H :    0.219267
  32 H :   -0.531043
  33 H :    0.081354
  34 H :   -0.019410
  35 H :   -0.000176
  36 H :   -0.059340
Sum of atomic charges:   -0.0000000

LOEWDIN ATOMIC CHARGES
----------------------
   0 C :    0.037118
   1 C :   -0.028279
   2 C :    0.030025
   3 H :    0.015256
   4 H :    0.031128
   5 C :   -0.213473
   6 C :   -0.092457
   7 N :    0.318260
   8 N :    0.307506
   9 H :   -0.097292
  10 H :    0.034366
  11 H :    0.035874
  12 H :   -0.098391
  13 O :   -0.220061
  14 O :   -0.215686
  15 C :   -0.016607
  16 C :   -0.034017
  17 C :   -0.036657
  18 H :    0.025865
  19 H :    0.006836
  20 H :    0.019605
  21 H :    0.022599
  22 C :   -0.030054
  23 H :    0.019594
  24 H :    0.030721
  25 C :   -0.038812
  26 H :   -0.005777
  27 H :    0.038744
  28 C :   -0.031187
  29 H :    0.018001
  30 H :    0.024434
  31 H :    0.013102
  32 H :    0.025826
  33 H :    0.022466
  34 H :    0.022150
  35 H :    0.026033
  36 H :    0.033243

  Mayer bond orders larger than 0.100000
B(  0-C ,  6-C ) :   1.1436 B(  0-C ,  8-N ) :   0.1197 B(  0-C , 15-C ) :   1.1465
B(  0-C , 35-H ) :   0.6973 B(  0-C , 36-H ) :   0.6213 B(  1-C ,  2-C ) :   1.2177
B(  1-C ,  3-H ) :   0.1046 B(  1-C ,  4-H ) :   0.1692 B(  1-C , 17-C ) :   1.2578
B(  1-C , 19-H ) :   0.1174 B(  1-C , 20-H ) :   0.7304 B(  1-C , 21-H ) :   0.5868
B(  2-C ,  3-H ) :   0.8036 B(  2-C ,  4-H ) :   0.6902 B(  2-C ,  5-C ) :   1.1236
B(  2-C , 17-C ) :   0.1522 B(  2-C , 20-H ) :   0.1710 B(  2-C , 21-H ) :   0.1328
B(  3-H ,  5-C ) :   0.1980 B(  4-H ,  5-C ) :   0.2252 B(  5-C , 13-O ) :   1.3402
B(  5-C , 14-O ) :   1.2658 B(  6-C ,  7-N ) :   1.0459 B(  6-C ,  8-N ) :   1.0727
B(  6-C , 12-H ) :  -0.1196 B(  6-C , 35-H ) :   0.2318 B(  6-C , 36-H ) :   0.2207
B(  7-N ,  8-N ) :   0.2161 B(  7-N , 11-H ) :   0.9888 B(  7-N , 12-H ) :   1.1274
B(  8-N ,  9-H ) :   1.0922 B(  8-N , 10-H ) :   0.9887 B(  9-H , 10-H ) :  -0.2466
B(  9-H , 13-O ) :   0.1770 B( 11-H , 12-H ) :  -0.2655 B( 12-H , 14-O ) :   0.2336
B( 13-O , 14-O ) :   0.1469 B( 15-C , 22-C ) :   1.1845 B( 15-C , 23-H ) :   0.8407
B( 15-C , 24-H ) :   0.8743 B( 15-C , 25-C ) :   0.1146 B( 15-C , 26-H ) :   0.1320
B( 15-C , 27-H ) :   0.1197 B( 15-C , 35-H ) :   0.1398 B( 15-C , 36-H ) :   0.1784
B( 16-C , 17-C ) :   1.3083 B( 16-C , 18-H ) :   0.1925 B( 16-C , 19-H ) :   0.1284
B( 16-C , 25-C ) :   0.2001 B( 16-C , 28-C ) :   1.0675 B( 16-C , 31-H ) :   0.7826
B( 16-C , 32-H ) :   1.1242 B( 16-C , 33-H ) :   0.1622 B( 16-C , 34-H ) :   0.2977
B( 17-C , 18-H ) :   0.8486 B( 17-C , 19-H ) :   0.8874 B( 17-C , 20-H ) :   0.2162
B( 17-C , 21-H ) :   0.2675 B( 17-C , 32-H ) :   0.1313 B( 20-H , 21-H ) :  -0.1273
B( 22-C , 23-H ) :   0.1491 B( 22-C , 24-H ) :   0.2510 B( 22-C , 25-C ) :   1.2235
B( 22-C , 26-H ) :   0.9212 B( 22-C , 27-H ) :   0.6989 B( 22-C , 29-H ) :   0.1372
B( 22-C , 30-H ) :   0.2427 B( 25-C , 27-H ) :   0.1188 B( 25-C , 28-C ) :   1.1671
B( 25-C , 29-H ) :   0.7781 B( 25-C , 30-H ) :   0.9469 B( 25-C , 33-H ) :   0.2338
B( 25-C , 34-H ) :   0.1696 B( 26-H , 27-H ) :   0.1738 B( 26-H , 31-H ) :   0.2063
B( 26-H , 32-H ) :  -0.1431 B( 28-C , 29-H ) :   0.1134 B( 28-C , 33-H ) :   0.6052
B( 28-C , 34-H ) :   0.5801 B( 33-H , 34-H ) :  -0.1192

Dispersion correction           -0.043205529
FINAL SINGLE POINT ENERGY      -691.137100996023

DIPOLE MOMENT
-------------
                                X             Y             Z
Electronic contribution:      3.38514       1.67007      13.05987
Nuclear contribution   :     -1.50655      -3.48027     -14.35034
                        -----------------------------------------
Total Dipole Moment    :      1.87859      -1.81021      -1.29047
                        -----------------------------------------
Magnitude (a.u.)       :      2.91054
Magnitude (Debye)      :      7.39801

Rotational constants in cm-1:     0.021781     0.017296     0.011403
Rotational constants in MHz :   652.971749   518.510612   341.853154

                             ****ORCA TERMINATED NORMALLY****
TOTAL RUN TIME: 0 days 0 hours 1 minutes 0 seconds 500 msec
