                         Program Version 5.0.0 -  RELEASE  -
|  1> !PBE D3BJ RIJCOSX def2-SVPD def2/J TightSCF
|  2> *xyz 0 1
|  3> C         -0.05915        1.50352        3.41058
|  4> C          1.08303        0.74964        4.08571
|  5> F          2.22817        1.26348        4.01983
|  6> O          0.81003       -0.34541        4.63627
|  7> H          0.31461        2.41205        2.98658
|  8> H         -0.81316        1.73160        4.13470
|  9> H         -0.47977        0.89552        2.63708
| 10> *
| 11>
| 12> %MaxCore 64000
| 13>
| 14> %pal nprocs 4
| 15> end
| 16>
| 17> %scf
| 18>   MaxIter 150
| 19> end
| 20>
| 21>
| 22>                          ****END OF INPUT****

CARTESIAN COORDINATES (ANGSTROEM)
---------------------------------
  C     -0.059150    1.503520    3.410580
  C      1.083030    0.749640    4.085710
  F      2.228170    1.263480    4.019830
  O      0.810030   -0.345410    4.636270
  H      0.314610    2.412050    2.986580
  H     -0.813160    1.731600    4.134700
  H     -0.479770    0.895520    2.637080

 Total Charge           Charge          ....    0
 Multiplicity           Mult            ....    1
 Number of Electrons    NEL             ....   32
 Basis Dimension        Dim             ....  110

ORBITAL ENERGIES
----------------

  NO   OCC          E(Eh)            E(eV)
   0   2.0000     -24.347304      -662.5238
   1   2.0000     -18.774593      -510.8826
   2   2.0000     -10.072568      -274.0885
   3   2.0000      -9.922873      -270.0151
   4   2.0000      -1.206771       -32.8379
   5   2.0000      -0.941098       -25.6086
   6   2.0000      -0.698493       -19.0070
   7   2.0000      -0.596252       -16.2249
   8   2.0000      -0.493721       -13.4348
   9   2.0000      -0.486977       -13.2513
  10   2.0000      -0.447553       -12.1785
  11   2.0000      -0.400404       -10.8955
  12   2.0000      -0.387260       -10.5379
  13   2.0000      -0.353669        -9.6238
  14   2.0000      -0.317378        -8.6363
  15   2.0000      -0.249884        -6.7997
  16   0.0000      -0.073422        -1.9979
  17   0.0000      -0.005608        -0.1526
  18   0.0000       0.043350         1.1796
  19   0.0000       0.066705         1.8151
  20   0.0000       0.070776         1.9259

MULLIKEN ATOMIC CHARGES
-----------------------
   0 C :    0.430551
   1 C :    0.336144
   2 F :   -0.301709
   3 O :   -0.447205
   4 H :   -0.043194
   5 H :    0.011942
   6 H :    0.013471
Sum of atomic charges:    0.0000000

LOEWDIN ATOMIC CHARGES
----------------------
   0 C :    0.212746
   1 C :   -0.063828
   2 F :   -0.020093
   3 O :   -0.121664
   4 H :   -0.015316
   5 H :    0.003816
   6 H :    0.004339

  Mayer bond orders larger than 0.100000
B(  0-C ,  1-C ) :   1.2852 B(  0-C ,  4-H ) :   0.8769 B(  0-C ,  5-H ) :   0.7985
B(  0-C ,  6-H ) :   0.8022 B(  1-C ,  2-F ) :   0.8343 B(  1-C ,  3-O ) :   1.8055
B(  1-C ,  4-H ) :   0.1664 B(  1-C ,  5-H ) :   0.1515 B(  1-C ,  6-H ) :   0.1465

Dispersion correction           -0.003401094
FINAL SINGLE POINT ENERGY      -252.641869744319

DIPOLE MOMENT
-------------
                                X             Y             Z
Electronic contribution:      4.69854      -1.06780       1.59372
Nuclear contribution   :     -5.01294       1.99942      -2.18092
                        -----------------------------------------
Total Dipole Moment    :     -0.31440       0.93162      -0.58721
                        -----------------------------------------
Magnitude (a.u.)       :      1.14524
Magnitude (Debye)      :      2.91098

Rotational constants in cm-1:     0.368501     0.321908     0.177384
Rotational constants in MHz : 11047.396090  9650.552559  5317.833075

                             ****ORCA TERMINATED NORMALLY****
TOTAL RUN TIME: 0 days 0 hours 0 minutes 3 seconds 461 msec
