                         Program Version 5.0.0 -  RELEASE  -
|  1> !PBE D3BJ RIJCOSX def2-SVPD def2/J TightSCF
|  2> *xyz 0 1
|  3> C          4.60295       -2.44010        2.63478
|  4> C          3.86085       -1.59157        3.62289
|  5> C          2.75650       -2.04616        4.16633
|  6> N          4.25433       -0.36291        3.86046
|  7> H          3.56526        0.31099        4.16898
|  8> H          5.05429       -0.01606        3.33784
|  9> H          2.43970       -2.97389        3.89740
| 10> H          2.06687       -1.41253        4.54981
| 11> H          5.47239       -1.91604        2.29664
| 12> H          3.96816       -2.65362        1.80030
| 13> H          4.89801       -3.35632        3.10209
| 14> *
| 15>
| 16> %MaxCore 64000
| 17>
| 18> %pal nprocs 4
| 19> end
| 20>
| 21> %scf
| 22>   MaxIter 150
| 23> end
| 24>
| 25>
| 26>                          ****END OF INPUT****

CARTESIAN COORDINATES (ANGSTROEM)
---------------------------------
  C      4.602950   -2.440100    2.634780
  C      3.860850   -1.591570    3.622890
  C      2.756500   -2.046160    4.166330
  N      4.254330   -0.362910    3.860460
  H      3.565260    0.310990    4.168980
  H      5.054290   -0.016060    3.337840
  H      2.439700   -2.973890    3.897400
  H      2.066870   -1.412530    4.549810
  H      5.472390   -1.916040    2.296640
  H      3.968160   -2.653620    1.800300
  H      4.898010   -3.356320    3.102090

 Total Charge           Charge          ....    0
 Multiplicity           Mult            ....    1
 Number of Electrons    NEL             ....   32
 Basis Dimension        Dim             ....  136

ORBITAL ENERGIES
----------------

  NO   OCC          E(Eh)            E(eV)
   0   2.0000     -14.003621      -381.0579
   1   2.0000      -9.912784      -269.7406
   2   2.0000      -9.888343      -269.0755
   3   2.0000      -9.825656      -267.3697
   4   2.0000      -0.847181       -23.0530
   5   2.0000      -0.681691       -18.5498
   6   2.0000      -0.618207       -16.8223
   7   2.0000      -0.514429       -13.9983
   8   2.0000      -0.476122       -12.9559
   9   2.0000      -0.422473       -11.4961
  10   2.0000      -0.385894       -10.5007
  11   2.0000      -0.355001        -9.6601
  12   2.0000      -0.341947        -9.3049
  13   2.0000      -0.318222        -8.6593
  14   2.0000      -0.288341        -7.8462
  15   2.0000      -0.159981        -4.3533
  16   0.0000      -0.004255        -0.1158
  17   0.0000       0.010776         0.2932
  18   0.0000       0.037906         1.0315
  19   0.0000       0.044763         1.2181
  20   0.0000       0.069853         1.9008

MULLIKEN ATOMIC CHARGES
-----------------------
   0 C :    0.807466
   1 C :   -0.467347
   2 C :    0.332048
   3 N :    0.161814
   4 H :   -0.093571
   5 H :   -0.086774
   6 H :   -0.105390
   7 H :   -0.408387
   8 H :   -0.122389
   9 H :   -0.044107
  10 H :    0.026638
Sum of atomic charges:    0.0000000

LOEWDIN ATOMIC CHARGES
----------------------
   0 C :    0.169177
   1 C :   -0.301509
   2 C :    0.158256
   3 N :    0.175868
   4 H :    0.006287
   5 H :   -0.005376
   6 H :   -0.076674
   7 H :   -0.085975
   8 H :   -0.028681
   9 H :   -0.004898
  10 H :   -0.006475

  Mayer bond orders larger than 0.100000
B(  0-C ,  1-C ) :   1.2249 B(  0-C ,  8-H ) :   0.7010 B(  0-C ,  9-H ) :   0.8099
B(  0-C , 10-H ) :   0.6791 B(  1-C ,  2-C ) :   1.8008 B(  1-C ,  3-N ) :   1.0677
B(  1-C ,  6-H ) :   0.1567 B(  1-C ,  7-H ) :   0.1580 B(  1-C ,  8-H ) :   0.2982
B(  1-C ,  9-H ) :   0.1371 B(  1-C , 10-H ) :   0.2569 B(  2-C ,  3-N ) :   0.2912
B(  2-C ,  6-H ) :   0.7573 B(  2-C ,  7-H ) :   0.8612 B(  3-N ,  4-H ) :   1.1498
B(  3-N ,  5-H ) :   1.0382 B(  4-H ,  5-H ) :  -0.1224 B(  6-H ,  7-H ) :   0.1135

Dispersion correction           -0.007260259
FINAL SINGLE POINT ENERGY      -172.899508672142

DIPOLE MOMENT
-------------
                                X             Y             Z
Electronic contribution:      0.12809       1.46818       1.09069
Nuclear contribution   :      0.22927      -0.89318      -1.58153
                        -----------------------------------------
Total Dipole Moment    :      0.35736       0.57500      -0.49084
                        -----------------------------------------
Magnitude (a.u.)       :      0.83621
Magnitude (Debye)      :      2.12548

Rotational constants in cm-1:     0.356805     0.302813     0.169682
Rotational constants in MHz : 10696.748191  9078.116910  5086.926242

                             ****ORCA TERMINATED NORMALLY****
TOTAL RUN TIME: 0 days 0 hours 0 minutes 4 seconds 901 msec
