                         Program Version 5.0.0 -  RELEASE  -
|  1> !PBE D3BJ RIJCOSX def2-SVPD def2/J TightSCF
|  2> *xyz 0 1
|  3> C         -0.05915        1.50352        3.41058
|  4> C          1.08303        0.74964        4.08571
|  5> O          2.22817        1.26348        4.01983
|  6> F          0.81003       -0.34541        4.63627
|  7> H          0.31461        2.41205        2.98658
|  8> H         -0.81316        1.73160        4.13470
|  9> H         -0.47977        0.89552        2.63708
| 10> *
| 11>
| 12> %MaxCore 64000
| 13>
| 14> %pal nprocs 4
| 15> end
| 16>
| 17> %scf
| 18>   MaxIter 150
| 19> end
| 20>
| 21>
| 22>                          ****END OF INPUT****

CARTESIAN COORDINATES (ANGSTROEM)
---------------------------------
  C     -0.059150    1.503520    3.410580
  C      1.083030    0.749640    4.085710
  O      2.228170    1.263480    4.019830
  F      0.810030   -0.345410    4.636270
  H      0.314610    2.412050    2.986580
  H     -0.813160    1.731600    4.134700
  H     -0.479770    0.895520    2.637080

 Total Charge           Charge          ....    0
 Multiplicity           Mult            ....    1
 Number of Electrons    NEL             ....   32
 Basis Dimension        Dim             ....  110

ORBITAL ENERGIES
----------------

  NO   OCC          E(Eh)            E(eV)
   0   2.0000     -24.348023      -662.5434
   1   2.0000     -18.774241      -510.8731
   2   2.0000     -10.072440      -274.0850
   3   2.0000      -9.922656      -270.0092
   4   2.0000      -1.207628       -32.8612
   5   2.0000      -0.940461       -25.5912
   6   2.0000      -0.698421       -19.0050
   7   2.0000      -0.596547       -16.2329
   8   2.0000      -0.494698       -13.4614
   9   2.0000      -0.487003       -13.2520
  10   2.0000      -0.446864       -12.1598
  11   2.0000      -0.399571       -10.8729
  12   2.0000      -0.387860       -10.5542
  13   2.0000      -0.353526        -9.6199
  14   2.0000      -0.319884        -8.7045
  15   2.0000      -0.247505        -6.7349
  16   0.0000      -0.070973        -1.9313
  17   0.0000      -0.005529        -0.1505
  18   0.0000       0.043244         1.1767
  19   0.0000       0.066153         1.8001
  20   0.0000       0.073623         2.0034

MULLIKEN ATOMIC CHARGES
-----------------------
   0 C :    0.443206
   1 C :    0.354675
   2 O :   -0.431608
   3 F :   -0.323047
   4 H :   -0.061504
   5 H :    0.008583
   6 H :    0.009695
Sum of atomic charges:   -0.0000000

LOEWDIN ATOMIC CHARGES
----------------------
   0 C :    0.212122
   1 C :   -0.065186
   2 O :   -0.122306
   3 F :   -0.017811
   4 H :   -0.001599
   5 H :   -0.003155
   6 H :   -0.002065

  Mayer bond orders larger than 0.100000
B(  0-C ,  1-C ) :   1.2687 B(  0-C ,  4-H ) :   0.8804 B(  0-C ,  5-H ) :   0.8003
B(  0-C ,  6-H ) :   0.8025 B(  1-C ,  2-O ) :   1.8199 B(  1-C ,  3-F ) :   0.7969
B(  1-C ,  4-H ) :   0.2172 B(  1-C ,  5-H ) :   0.1375 B(  1-C ,  6-H ) :   0.1349

Dispersion correction           -0.003400756
FINAL SINGLE POINT ENERGY      -252.641797646083

DIPOLE MOMENT
-------------
                                X             Y             Z
Electronic contribution:      2.41284      -3.65850       2.58554
Nuclear contribution   :     -3.54758       3.66189      -2.81789
                        -----------------------------------------
Total Dipole Moment    :     -1.13474       0.00339      -0.23235
                        -----------------------------------------
Magnitude (a.u.)       :      1.15829
Magnitude (Debye)      :      2.94413

Rotational constants in cm-1:     0.369278     0.321254     0.177365
Rotational constants in MHz : 11070.686557  9630.951649  5317.254673

                             ****ORCA TERMINATED NORMALLY****
TOTAL RUN TIME: 0 days 0 hours 0 minutes 3 seconds 413 msec
