                         Program Version 5.0.0 -  RELEASE  -
|  1> !PBE D3BJ RIJCOSX def2-SVPD def2/J TightSCF
|  2> *xyz 0 1
|  3> C          4.60295       -2.44010        2.63478
|  4> C          3.86085       -1.59157        3.62289
|  5> N          2.75650       -2.04616        4.16633
|  6> C          4.25433       -0.36291        3.86046
|  7> H          3.56526        0.31099        4.16898
|  8> H          5.05429       -0.01606        3.33784
|  9> H          2.43970       -2.97389        3.89740
| 10> H          2.06687       -1.41253        4.54981
| 11> H          5.47239       -1.91604        2.29664
| 12> H          3.96816       -2.65362        1.80030
| 13> H          4.89801       -3.35632        3.10209
| 14> *
| 15>
| 16> %MaxCore 64000
| 17>
| 18> %pal nprocs 4
| 19> end
| 20>
| 21> %scf
| 22>   MaxIter 150
| 23> end
| 24>
| 25>
| 26>                          ****END OF INPUT****

CARTESIAN COORDINATES (ANGSTROEM)
---------------------------------
  C      4.602950   -2.440100    2.634780
  C      3.860850   -1.591570    3.622890
  N      2.756500   -2.046160    4.166330
  C      4.254330   -0.362910    3.860460
  H      3.565260    0.310990    4.168980
  H      5.054290   -0.016060    3.337840
  H      2.439700   -2.973890    3.897400
  H      2.066870   -1.412530    4.549810
  H      5.472390   -1.916040    2.296640
  H      3.968160   -2.653620    1.800300
  H      4.898010   -3.356320    3.102090

 Total Charge           Charge          ....    0
 Multiplicity           Mult            ....    1
 Number of Electrons    NEL             ....   32
 Basis Dimension        Dim             ....  136

ORBITAL ENERGIES
----------------

  NO   OCC          E(Eh)            E(eV)
   0   2.0000     -14.003734      -381.0610
   1   2.0000      -9.914214      -269.7795
   2   2.0000      -9.887929      -269.0642
   3   2.0000      -9.827879      -267.4302
   4   2.0000      -0.846449       -23.0330
   5   2.0000      -0.682357       -18.5679
   6   2.0000      -0.619337       -16.8530
   7   2.0000      -0.517513       -14.0822
   8   2.0000      -0.474962       -12.9244
   9   2.0000      -0.421548       -11.4709
  10   2.0000      -0.387353       -10.5404
  11   2.0000      -0.354147        -9.6368
  12   2.0000      -0.343795        -9.3551
  13   2.0000      -0.316854        -8.6220
  14   2.0000      -0.286572        -7.7980
  15   2.0000      -0.163156        -4.4397
  16   0.0000      -0.003082        -0.0839
  17   0.0000       0.012133         0.3301
  18   0.0000       0.037022         1.0074
  19   0.0000       0.046960         1.2778
  20   0.0000       0.070152         1.9089

MULLIKEN ATOMIC CHARGES
-----------------------
   0 C :    0.780559
   1 C :   -0.524802
   2 N :    0.249775
   3 C :    0.362598
   4 H :   -0.415283
   5 H :   -0.064025
   6 H :   -0.133809
   7 H :   -0.176911
   8 H :   -0.000397
   9 H :   -0.047857
  10 H :   -0.029848
Sum of atomic charges:   -0.0000000

LOEWDIN ATOMIC CHARGES
----------------------
   0 C :    0.167474
   1 C :   -0.305593
   2 N :    0.174913
   3 C :    0.164269
   4 H :   -0.084281
   5 H :   -0.083191
   6 H :    0.000409
   7 H :    0.005705
   8 H :   -0.014724
   9 H :   -0.008720
  10 H :   -0.016260

  Mayer bond orders larger than 0.100000
B(  0-C ,  1-C ) :   1.3607 B(  0-C ,  8-H ) :   0.7978 B(  0-C ,  9-H ) :   0.7159
B(  0-C , 10-H ) :   0.6368 B(  1-C ,  2-N ) :   1.1604 B(  1-C ,  3-C ) :   1.7947
B(  1-C ,  4-H ) :   0.2038 B(  1-C ,  8-H ) :   0.2465 B(  1-C ,  9-H ) :   0.2610
B(  1-C , 10-H ) :   0.2960 B(  2-N ,  3-C ) :   0.2928 B(  2-N ,  6-H ) :   1.0992
B(  2-N ,  7-H ) :   1.1840 B(  3-C ,  4-H ) :   0.7985 B(  3-C ,  5-H ) :   0.8519
B(  4-H ,  5-H ) :   0.1160 B(  6-H ,  7-H ) :  -0.1303

Dispersion correction           -0.007259944
FINAL SINGLE POINT ENERGY      -172.900439515067

DIPOLE MOMENT
-------------
                                X             Y             Z
Electronic contribution:     -1.19881      -0.00583       1.39241
Nuclear contribution   :      0.56519      -0.51568      -1.65012
                        -----------------------------------------
Total Dipole Moment    :     -0.63362      -0.52151      -0.25771
                        -----------------------------------------
Magnitude (a.u.)       :      0.86016
Magnitude (Debye)      :      2.18634

Rotational constants in cm-1:     0.356673     0.303029     0.169717
Rotational constants in MHz : 10692.789749  9084.577259  5087.998414

                             ****ORCA TERMINATED NORMALLY****
TOTAL RUN TIME: 0 days 0 hours 0 minutes 4 seconds 900 msec
