                         Program Version 5.0.0 -  RELEASE  -
|  1> !PBE D3BJ RIJCOSX def2-SVPD def2/J TightSCF xyzfile
|  2>
|  3> *xyzfile 0 1 D1.xyz
|  4>
|  5> %MaxCore 64000
|  6>
|  7> %pal nprocs 4
|  8> end
|  9>
| 10> %scf
| 11>   MaxIter 150
| 12> end
| 13>
| 14>
| 15>                          ****END OF INPUT****

CARTESIAN COORDINATES (ANGSTROEM)
---------------------------------
  C      4.602954   -2.440100    2.634780
  C     -0.914947    0.615112    2.505538
  C     -0.059146    1.503524    3.410578
  H      0.365364    2.344315    2.861161
  H     -0.692261    1.920207    4.198985
  C      1.083027    0.749640    4.085705
  C      3.860851   -1.591565    3.622893
  C      2.756502   -2.046159    4.166333
  N      4.254325   -0.362905    3.860455
  H      3.565256    0.310994    4.168983
  H      5.054292   -0.016059    3.337838
  H      2.439696   -2.973894    3.897395
  H      2.066869   -1.412532    4.549813
  F      2.228167    1.263475    4.019826
  O      0.810034   -0.345411    4.636269
  C      3.744685   -2.580557    1.361882
  C      0.772139    0.636882    0.562129
  C     -0.130740   -0.193985    1.470763
  H     -0.840563   -0.760165    0.856377
  H      0.466691   -0.938942    2.006959
  H     -1.647961    1.245963    1.991076
  H     -1.478180   -0.081046    3.130424
  C      3.203721   -1.256004    0.826211
  H      2.898939   -3.239289    1.583074
  H      4.334962   -3.095523    0.600188
  C      2.107815   -1.442385   -0.216865
  H      2.786775   -0.672760    1.650711
  H      4.021008   -0.652993    0.414046
  C      1.390662   -0.145912   -0.602422
  H      1.372179   -2.152184    0.176151
  H      2.523302   -1.906787   -1.117115
  H      1.561361    1.100094    1.161831
  H      0.195516    1.468325    0.142758
  H      0.602893   -0.398214   -1.319716
  H      2.087247    0.508272   -1.137335
  H      5.561557   -1.971347    2.407084
  H      4.810498   -3.422552    3.063099

 Total Charge           Charge          ....    0
 Multiplicity           Mult            ....    1
 Number of Electrons    NEL             ....  118
 Basis Dimension        Dim             ....  482

ORBITAL ENERGIES
----------------

  NO   OCC          E(Eh)            E(eV)
   0   2.0000     -24.370529      -663.1558
   1   2.0000     -18.785941      -511.1915
   2   2.0000     -13.981390      -380.4530
   3   2.0000     -10.080687      -274.3094
   4   2.0000      -9.932993      -270.2905
   5   2.0000      -9.912897      -269.7436
   6   2.0000      -9.897885      -269.3351
   7   2.0000      -9.897783      -269.3324
   8   2.0000      -9.892815      -269.1972
   9   2.0000      -9.891914      -269.1727
  10   2.0000      -9.886687      -269.0304
  11   2.0000      -9.884973      -268.9838
  12   2.0000      -9.884235      -268.9637
  13   2.0000      -9.882968      -268.9292
  14   2.0000      -9.796738      -266.5828
  15   2.0000      -1.231333       -33.5063
  16   2.0000      -0.957845       -26.0643
  17   2.0000      -0.830875       -22.6093
  18   2.0000      -0.751890       -20.4600
  19   2.0000      -0.727825       -19.8051
  20   2.0000      -0.704722       -19.1765
  21   2.0000      -0.670105       -18.2345
  22   2.0000      -0.649212       -17.6660
  23   2.0000      -0.620964       -16.8973
  24   2.0000      -0.609542       -16.5865
  25   2.0000      -0.580631       -15.7998
  26   2.0000      -0.549811       -14.9611
  27   2.0000      -0.528924       -14.3927
  28   2.0000      -0.516776       -14.0622
  29   2.0000      -0.506121       -13.7722
  30   2.0000      -0.493031       -13.4161
  31   2.0000      -0.483205       -13.1487
  32   2.0000      -0.470427       -12.8010
  33   2.0000      -0.448511       -12.2046
  34   2.0000      -0.432992       -11.7823
  35   2.0000      -0.430545       -11.7157
  36   2.0000      -0.421138       -11.4597
  37   2.0000      -0.403873       -10.9899
  38   2.0000      -0.395987       -10.7753
  39   2.0000      -0.382643       -10.4123
  40   2.0000      -0.379423       -10.3246
  41   2.0000      -0.363960        -9.9038
  42   2.0000      -0.358919        -9.7667
  43   2.0000      -0.348577        -9.4853
  44   2.0000      -0.344787        -9.3821
  45   2.0000      -0.330618        -8.9966
  46   2.0000      -0.327119        -8.9014
  47   2.0000      -0.317573        -8.6416
  48   2.0000      -0.313066        -8.5190
  49   2.0000      -0.303984        -8.2718
  50   2.0000      -0.301184        -8.1956
  51   2.0000      -0.293281        -7.9806
  52   2.0000      -0.283938        -7.7263
  53   2.0000      -0.281058        -7.6480
  54   2.0000      -0.273704        -7.4479
  55   2.0000      -0.270452        -7.3594
  56   2.0000      -0.264920        -7.2088
  57   2.0000      -0.234020        -6.3680
  58   2.0000      -0.142019        -3.8645
  59   0.0000      -0.087320        -2.3761
  60   0.0000      -0.010182        -0.2771
  61   0.0000       0.007562         0.2058
  62   0.0000       0.009253         0.2518
  63   0.0000       0.013852         0.3769

MULLIKEN ATOMIC CHARGES
-----------------------
   0 C :    0.858984
   1 C :    0.534171
   2 C :    0.138638
   3 H :    0.213541
   4 H :   -0.185727
   5 C :    0.553877
   6 C :   -0.492849
   7 C :    0.926501
   8 N :    0.427706
   9 H :   -0.372916
  10 H :    0.051233
  11 H :   -0.181261
  12 H :   -0.846637
  13 F :   -0.426653
  14 O :   -0.515627
  15 C :    0.049056
  16 C :   -0.229542
  17 C :   -0.197094
  18 H :   -0.180056
  19 H :    0.005203
  20 H :   -0.080618
  21 H :    0.077948
  22 C :    0.055360
  23 H :    0.091208
  24 H :   -0.273004
  25 C :   -0.025049
  26 H :   -0.273949
  27 H :    0.009536
  28 C :    0.813527
  29 H :    0.207969
  30 H :   -0.369072
  31 H :    0.201797
  32 H :   -0.545532
  33 H :    0.077866
  34 H :   -0.018674
  35 H :   -0.067284
  36 H :   -0.012577
Sum of atomic charges:    0.0000000

LOEWDIN ATOMIC CHARGES
----------------------
   0 C :    0.016312
   1 C :   -0.015908
   2 C :    0.050709
   3 H :    0.022268
   4 H :    0.044304
   5 C :    0.021399
   6 C :   -0.265597
   7 C :    0.201510
   8 N :    0.207653
   9 H :   -0.071764
  10 H :    0.000400
  11 H :   -0.068998
  12 H :   -0.169967
  13 F :   -0.011619
  14 O :   -0.090066
  15 C :   -0.021987
  16 C :   -0.040173
  17 C :   -0.029064
  18 H :    0.033685
  19 H :    0.015608
  20 H :    0.029346
  21 H :    0.030916
  22 C :   -0.035737
  23 H :    0.019459
  24 H :    0.020540
  25 C :   -0.039633
  26 H :   -0.014415
  27 H :    0.033110
  28 C :   -0.030934
  29 H :    0.018481
  30 H :    0.025072
  31 H :    0.007484
  32 H :    0.023882
  33 H :    0.022389
  34 H :    0.022969
  35 H :    0.011427
  36 H :    0.026939

  Mayer bond orders larger than 0.100000
B(  0-C ,  6-C ) :   1.1939 B(  0-C ,  8-N ) :   0.1381 B(  0-C , 15-C ) :   1.1120
B(  0-C , 35-H ) :   0.4618 B(  0-C , 36-H ) :   0.6096 B(  1-C ,  2-C ) :   1.2135
B(  1-C ,  3-H ) :   0.1040 B(  1-C ,  4-H ) :   0.1864 B(  1-C , 17-C ) :   1.2658
B(  1-C , 19-H ) :   0.1123 B(  1-C , 20-H ) :   0.7274 B(  1-C , 21-H ) :   0.5891
B(  2-C ,  3-H ) :   0.7904 B(  2-C ,  4-H ) :   0.6662 B(  2-C ,  5-C ) :   1.2168
B(  2-C , 17-C ) :   0.1594 B(  2-C , 20-H ) :   0.1645 B(  2-C , 21-H ) :   0.1215
B(  3-H ,  5-C ) :   0.1435 B(  4-H ,  5-C ) :   0.2628 B(  5-C , 13-F ) :   0.6500
B(  5-C , 14-O ) :   1.7518 B(  6-C ,  7-C ) :   1.8973 B(  6-C ,  8-N ) :   0.8988
B(  6-C , 10-H ) :   0.1445 B(  6-C , 12-H ) :   0.3482 B(  6-C , 15-C ) :   0.1593
B(  6-C , 35-H ) :   0.3681 B(  6-C , 36-H ) :   0.2540 B(  7-C ,  8-N ) :   0.4620
B(  7-C , 11-H ) :   0.6315 B(  8-N ,  9-H ) :   1.0062 B(  8-N , 10-H ) :   0.9217
B(  8-N , 11-H ) :   0.2592 B(  8-N , 12-H ) :  -0.2225 B(  9-H , 10-H ) :  -0.2308
B(  9-H , 13-F ) :   0.1163 B( 12-H , 14-O ) :   0.2263 B( 13-F , 14-O ) :   0.1229
B( 15-C , 22-C ) :   1.1672 B( 15-C , 23-H ) :   0.8329 B( 15-C , 24-H ) :   0.9125
B( 15-C , 25-C ) :   0.1126 B( 15-C , 26-H ) :   0.1809 B( 15-C , 27-H ) :   0.1142
B( 15-C , 35-H ) :   0.2221 B( 15-C , 36-H ) :   0.1725 B( 16-C , 17-C ) :   1.2978
B( 16-C , 18-H ) :   0.1984 B( 16-C , 19-H ) :   0.1243 B( 16-C , 25-C ) :   0.1897
B( 16-C , 28-C ) :   1.0708 B( 16-C , 31-H ) :   0.7755 B( 16-C , 32-H ) :   1.1323
B( 16-C , 33-H ) :   0.1615 B( 16-C , 34-H ) :   0.2957 B( 17-C , 18-H ) :   0.8361
B( 17-C , 19-H ) :   0.8916 B( 17-C , 20-H ) :   0.2187 B( 17-C , 21-H ) :   0.2644
B( 17-C , 32-H ) :   0.1348 B( 20-H , 21-H ) :  -0.1312 B( 22-C , 23-H ) :   0.1513
B( 22-C , 24-H ) :   0.2653 B( 22-C , 25-C ) :   1.2219 B( 22-C , 26-H ) :   1.0110
B( 22-C , 27-H ) :   0.6996 B( 22-C , 29-H ) :   0.1257 B( 22-C , 30-H ) :   0.2627
B( 23-H , 30-H ) :  -0.1110 B( 25-C , 27-H ) :   0.1154 B( 25-C , 28-C ) :   1.1581
B( 25-C , 29-H ) :   0.7822 B( 25-C , 30-H ) :   0.9409 B( 25-C , 33-H ) :   0.2324
B( 25-C , 34-H ) :   0.1744 B( 26-H , 27-H ) :   0.1531 B( 26-H , 31-H ) :   0.1884
B( 26-H , 32-H ) :  -0.1379 B( 28-C , 29-H ) :   0.1113 B( 28-C , 33-H ) :   0.6129
B( 28-C , 34-H ) :   0.5822 B( 33-H , 34-H ) :  -0.1192

Dispersion correction           -0.043108638
FINAL SINGLE POINT ENERGY      -698.973102666873

DIPOLE MOMENT
-------------
                                X             Y             Z
Electronic contribution:      1.21074       7.35676      15.00931
Nuclear contribution   :     -1.66567      -5.90236     -15.95042
                        -----------------------------------------
Total Dipole Moment    :     -0.45492       1.45440      -0.94112
                        -----------------------------------------
Magnitude (a.u.)       :      1.79107
Magnitude (Debye)      :      4.55254

Rotational constants in cm-1:     0.021600     0.017292     0.011381
Rotational constants in MHz :   647.565282   518.410024   341.193038

                             ****ORCA TERMINATED NORMALLY****
TOTAL RUN TIME: 0 days 0 hours 1 minutes 1 seconds 159 msec
