                         Program Version 5.0.0 -  RELEASE  -
|  1> !PBE D3BJ RIJCOSX def2-SVPD def2/J TightSCF
|  2> *xyz -1 1
|  3> C         -0.15102        0.25496       -4.09426
|  4> C         -0.72184       -0.99951       -3.43931
|  5> H         -1.08340       -1.69755       -4.20566
|  6> H         -1.58106       -0.72385       -2.82049
|  7> C          0.28725       -1.71177       -2.52740
|  8> H          1.13178       -2.06738       -3.15940
|  9> H         -0.20414       -2.63733       -2.17048
| 10> O          0.71050       -0.92751       -1.48177
| 11> H         -0.89787        0.70479       -4.71455
| 12> H          0.69695       -0.00870       -4.69119
| 13> H          0.14812        0.94842       -3.33628
| 14> *
| 15> %MaxCore 64000
| 16>
| 17> %pal nprocs 4
| 18> end
| 19>
| 20> %scf
| 21>   MaxIter 150
| 22> end
| 23>
| 24>
| 25>                          ****END OF INPUT****

CARTESIAN COORDINATES (ANGSTROEM)
---------------------------------
  C     -0.151020    0.254960   -4.094260
  C     -0.721840   -0.999510   -3.439310
  H     -1.083400   -1.697550   -4.205660
  H     -1.581060   -0.723850   -2.820490
  C      0.287250   -1.711770   -2.527400
  H      1.131780   -2.067380   -3.159400
  H     -0.204140   -2.637330   -2.170480
  O      0.710500   -0.927510   -1.481770
  H     -0.897870    0.704790   -4.714550
  H      0.696950   -0.008700   -4.691190
  H      0.148120    0.948420   -3.336280

 Total Charge           Charge          ....   -1
 Multiplicity           Mult            ....    1
 Number of Electrons    NEL             ....   34
 Basis Dimension        Dim             ....  139

ORBITAL ENERGIES
----------------

  NO   OCC          E(Eh)            E(eV)
   0   2.0000     -18.447468      -501.9811
   1   2.0000      -9.713835      -264.3269
   2   2.0000      -9.712806      -264.2989
   3   2.0000      -9.705975      -264.1130
   4   2.0000      -0.598851       -16.2956
   5   2.0000      -0.507624       -13.8131
   6   2.0000      -0.399216       -10.8632
   7   2.0000      -0.304926        -8.2975
   8   2.0000      -0.226676        -6.1682
   9   2.0000      -0.219666        -5.9774
  10   2.0000      -0.175635        -4.7793
  11   2.0000      -0.144580        -3.9342
  12   2.0000      -0.121561        -3.3078
  13   2.0000      -0.112063        -3.0494
  14   2.0000      -0.073985        -2.0132
  15   2.0000       0.061175         1.6647
  16   2.0000       0.066320         1.8047
  17   0.0000       0.149177         4.0593
  18   0.0000       0.174301         4.7430
  19   0.0000       0.188867         5.1393
  20   0.0000       0.215048         5.8517
  21   0.0000       0.230457         6.2710

MULLIKEN ATOMIC CHARGES
-----------------------
   0 C :    0.603720
   1 C :   -0.620552
   2 H :   -0.044049
   3 H :   -0.038252
   4 C :    0.406053
   5 H :   -0.103069
   6 H :   -0.164293
   7 O :   -0.857963
   8 H :   -0.091808
   9 H :   -0.065625
  10 H :   -0.024161
Sum of atomic charges:   -1.0000000

LOEWDIN ATOMIC CHARGES
----------------------
   0 C :    0.081880
   1 C :   -0.123422
   2 H :   -0.015370
   3 H :    0.001306
   4 C :   -0.228548
   5 H :   -0.031597
   6 H :   -0.039182
   7 O :   -0.524800
   8 H :   -0.050156
   9 H :   -0.036454
  10 H :   -0.033658

  Mayer bond orders larger than 0.100000
B(  0-C ,  1-C ) :   1.2945 B(  0-C ,  8-H ) :   0.7903 B(  0-C ,  9-H ) :   0.8273
B(  0-C , 10-H ) :   0.8276 B(  1-C ,  2-H ) :   1.0246 B(  1-C ,  3-H ) :   0.9773
B(  1-C ,  4-C ) :   1.0648 B(  1-C ,  5-H ) :   0.1486 B(  1-C ,  6-H ) :   0.1697
B(  1-C ,  7-O ) :   0.2298 B(  1-C ,  8-H ) :   0.2116 B(  1-C ,  9-H ) :   0.2108
B(  1-C , 10-H ) :   0.2197 B(  2-H ,  4-C ) :   0.1092 B(  3-H ,  4-C ) :   0.1452
B(  4-C ,  5-H ) :   0.9513 B(  4-C ,  6-H ) :   0.9487 B(  4-C ,  7-O ) :   1.0986

Dispersion correction           -0.006627073
FINAL SINGLE POINT ENERGY      -193.369967782558

DIPOLE MOMENT
-------------
                                X             Y             Z
Electronic contribution:      1.11342      -0.15833       2.91725
Nuclear contribution   :     -1.95025       0.39850      -4.64834
                        -----------------------------------------
Total Dipole Moment    :     -0.83683       0.24017      -1.73109
                        -----------------------------------------
Magnitude (a.u.)       :      1.93769
Magnitude (Debye)      :      4.92521

Rotational constants in cm-1:     0.507767     0.175836     0.148827
Rotational constants in MHz : 15222.471408  5271.439482  4461.706759

                             ****ORCA TERMINATED NORMALLY****
TOTAL RUN TIME: 0 days 0 hours 0 minutes 4 seconds 506 msec
