                         Program Version 5.0.0 -  RELEASE  -
|  1> !PBE D3BJ RIJCOSX def2-SVPD def2/J TightSCF
|  2> *xyz 1 1
|  3> C          3.48828        1.60092       -1.52204
|  4> C          4.34297        1.31342       -2.75683
|  5> N          2.81029        0.42878       -1.01420
|  6> H          5.13203        0.60499       -2.48447
|  7> C          3.53590        0.74925       -3.92460
|  8> H          4.84125        2.24214       -3.05408
|  9> H          2.71455        2.33145       -1.76030
| 10> H          4.09099        2.06315       -0.73338
| 11> C          3.29098       -0.41802       -0.12908
| 12> N          2.51754       -1.43202        0.23936
| 13> N          4.53549       -0.28441        0.39580
| 14> H          5.04363        0.57189        0.22290
| 15> H          4.72335       -0.73327        1.28180
| 16> H          1.93479        0.10230       -1.40379
| 17> H          1.67464       -1.50562       -0.31610
| 18> H          2.92850       -2.21850        0.72549
| 19> H          4.18704        0.56990       -4.75451
| 20> H          2.78096        1.45217       -4.20898
| 21> H          3.07436       -0.16949       -3.62832
| 22> *
| 23> %MaxCore 64000
| 24>
| 25> %pal nprocs 4
| 26> end
| 27>
| 28> %scf
| 29>   MaxIter 150
| 30> end
| 31>
| 32>
| 33>                          ****END OF INPUT****

CARTESIAN COORDINATES (ANGSTROEM)
---------------------------------
  C      3.488280    1.600920   -1.522040
  C      4.342970    1.313420   -2.756830
  N      2.810290    0.428780   -1.014200
  H      5.132030    0.604990   -2.484470
  C      3.535900    0.749250   -3.924600
  H      4.841250    2.242140   -3.054080
  H      2.714550    2.331450   -1.760300
  H      4.090990    2.063150   -0.733380
  C      3.290980   -0.418020   -0.129080
  N      2.517540   -1.432020    0.239360
  N      4.535490   -0.284410    0.395800
  H      5.043630    0.571890    0.222900
  H      4.723350   -0.733270    1.281800
  H      1.934790    0.102300   -1.403790
  H      1.674640   -1.505620   -0.316100
  H      2.928500   -2.218500    0.725490
  H      4.187040    0.569900   -4.754510
  H      2.780960    1.452170   -4.208980
  H      3.074360   -0.169490   -3.628320

 Total Charge           Charge          ....    1
 Multiplicity           Mult            ....    1
 Number of Electrons    NEL             ....   56
 Basis Dimension        Dim             ....  236

ORBITAL ENERGIES
----------------

  NO   OCC          E(Eh)            E(eV)
   0   2.0000     -14.227230      -387.1426
   1   2.0000     -14.221607      -386.9896
   2   2.0000     -14.219254      -386.9256
   3   2.0000     -10.215932      -277.9897
   4   2.0000     -10.101334      -274.8713
   5   2.0000     -10.040965      -273.2285
   6   2.0000     -10.012345      -272.4497
   7   2.0000      -1.126417       -30.6514
   8   2.0000      -1.021036       -27.7838
   9   2.0000      -1.008041       -27.4302
  10   2.0000      -0.867923       -23.6174
  11   2.0000      -0.794481       -21.6189
  12   2.0000      -0.764176       -20.7943
  13   2.0000      -0.727227       -19.7888
  14   2.0000      -0.710687       -19.3388
  15   2.0000      -0.672406       -18.2971
  16   2.0000      -0.643383       -17.5073
  17   2.0000      -0.634286       -17.2598
  18   2.0000      -0.606924       -16.5152
  19   2.0000      -0.588230       -16.0066
  20   2.0000      -0.552637       -15.0380
  21   2.0000      -0.536565       -14.6007
  22   2.0000      -0.507644       -13.8137
  23   2.0000      -0.462235       -12.5781
  24   2.0000      -0.451290       -12.2802
  25   2.0000      -0.442509       -12.0413
  26   2.0000      -0.434608       -11.8263
  27   2.0000      -0.410849       -11.1798
  28   0.0000      -0.203759        -5.5446
  29   0.0000      -0.179784        -4.8922
  30   0.0000      -0.149432        -4.0662
  31   0.0000      -0.131040        -3.5658
  32   0.0000      -0.108231        -2.9451

MULLIKEN ATOMIC CHARGES
-----------------------
   0 C :    0.831647
   1 C :   -0.341145
   2 N :   -0.523126
   3 H :   -0.013175
   4 C :    0.749244
   5 H :   -0.092421
   6 H :   -0.263231
   7 H :   -0.092940
   8 C :    1.342975
   9 N :    0.032823
  10 N :    0.065788
  11 H :   -0.060206
  12 H :   -0.161940
  13 H :   -0.219820
  14 H :   -0.002127
  15 H :   -0.090959
  16 H :   -0.077261
  17 H :    0.025048
  18 H :   -0.109174
Sum of atomic charges:    1.0000000

LOEWDIN ATOMIC CHARGES
----------------------
   0 C :    0.070429
   1 C :   -0.053614
   2 N :    0.055458
   3 H :    0.023414
   4 C :    0.137830
   5 H :    0.039914
   6 H :    0.045563
   7 H :    0.029395
   8 C :   -0.053703
   9 N :    0.275242
  10 N :    0.295892
  11 H :    0.006224
  12 H :    0.032596
  13 H :    0.053700
  14 H :    0.031202
  15 H :    0.043061
  16 H :   -0.000873
  17 H :   -0.005429
  18 H :   -0.026301

  Mayer bond orders larger than 0.100000
B(  0-C ,  1-C ) :   1.1061 B(  0-C ,  2-N ) :   0.9225 B(  0-C ,  3-H ) :   0.1116
B(  0-C ,  6-H ) :   0.7604 B(  0-C ,  7-H ) :   0.8480 B(  0-C , 13-H ) :  -0.2437
B(  1-C ,  3-H ) :   0.9030 B(  1-C ,  4-C ) :   1.3580 B(  1-C ,  5-H ) :   0.9772
B(  1-C ,  6-H ) :   0.1352 B(  1-C , 16-H ) :   0.2242 B(  1-C , 17-H ) :   0.2104
B(  1-C , 18-H ) :   0.2059 B(  2-N ,  6-H ) :   0.2386 B(  2-N ,  7-H ) :   0.1268
B(  2-N ,  8-C ) :   0.9429 B(  2-N ,  9-N ) :   0.3262 B(  2-N , 10-N ) :   0.2493
B(  2-N , 13-H ) :   1.3244 B(  4-C , 16-H ) :   0.7924 B(  4-C , 17-H ) :   0.7606
B(  4-C , 18-H ) :   0.8205 B(  6-H ,  7-H ) :  -0.1100 B(  8-C ,  9-N ) :   0.8773
B(  8-C , 10-N ) :   0.9251 B(  8-C , 11-H ) :  -0.1168 B(  8-C , 12-H ) :  -0.1302
B(  8-C , 13-H ) :  -0.2790 B(  8-C , 14-H ) :  -0.1129 B(  9-N , 10-N ) :   0.1637
B(  9-N , 14-H ) :   1.0645 B(  9-N , 15-H ) :   1.1946 B( 10-N , 11-H ) :   1.0355
B( 10-N , 12-H ) :   1.2529 B( 11-H , 12-H ) :  -0.1665 B( 14-H , 15-H ) :  -0.1456

Dispersion correction           -0.015795898
FINAL SINGLE POINT ENERGY      -323.097133310491

DIPOLE MOMENT
-------------
                                X             Y             Z
Electronic contribution:     -1.33442      -2.87385       6.34402
Nuclear contribution   :      1.03951       2.07316      -5.00363
                        -----------------------------------------
Total Dipole Moment    :     -0.29491      -0.80069       1.34039
                        -----------------------------------------
Magnitude (a.u.)       :      1.58894
Magnitude (Debye)      :      4.03876

Rotational constants in cm-1:     0.160664     0.048801     0.043832
Rotational constants in MHz :  4816.589604  1463.007061  1314.037102

                             ****ORCA TERMINATED NORMALLY****
TOTAL RUN TIME: 0 days 0 hours 0 minutes 10 seconds 122 msec
