                         Program Version 5.0.0 -  RELEASE  -
|  1> !PBE D3BJ RIJCOSX def2-SVPD def2/J TightSCF
|  2> *xyz 0 1
|  3> C         -0.15102        0.25496       -4.09426
|  4> C         -0.72184       -0.99951       -3.43931
|  5> H         -1.08340       -1.69755       -4.20566
|  6> H         -1.58106       -0.72385       -2.82049
|  7> C          0.28725       -1.71177       -2.52740
|  8> H          1.13178       -2.06738       -3.15940
|  9> H         -0.20414       -2.63733       -2.17048
| 10> F          0.71050       -0.92751       -1.48177
| 11> H         -0.89787        0.70479       -4.71455
| 12> H          0.69695       -0.00870       -4.69119
| 13> H          0.14812        0.94842       -3.33628
| 14> *
| 15> %MaxCore 64000
| 16>
| 17> %pal nprocs 4
| 18> end
| 19>
| 20> %scf
| 21>   MaxIter 150
| 22> end
| 23>
| 24>
| 25>                          ****END OF INPUT****

CARTESIAN COORDINATES (ANGSTROEM)
---------------------------------
  C     -0.151020    0.254960   -4.094260
  C     -0.721840   -0.999510   -3.439310
  H     -1.083400   -1.697550   -4.205660
  H     -1.581060   -0.723850   -2.820490
  C      0.287250   -1.711770   -2.527400
  H      1.131780   -2.067380   -3.159400
  H     -0.204140   -2.637330   -2.170480
  F      0.710500   -0.927510   -1.481770
  H     -0.897870    0.704790   -4.714550
  H      0.696950   -0.008700   -4.691190
  H      0.148120    0.948420   -3.336280

 Total Charge           Charge          ....    0
 Multiplicity           Mult            ....    1
 Number of Electrons    NEL             ....   34
 Basis Dimension        Dim             ....  139

ORBITAL ENERGIES
----------------

  NO   OCC          E(Eh)            E(eV)
   0   2.0000     -24.264982      -660.2837
   1   2.0000      -9.971174      -271.3294
   2   2.0000      -9.903323      -269.4831
   3   2.0000      -9.883337      -268.9393
   4   2.0000      -1.084759       -29.5178
   5   2.0000      -0.712700       -19.3936
   6   2.0000      -0.618956       -16.8427
   7   2.0000      -0.533570       -14.5192
   8   2.0000      -0.458780       -12.4840
   9   2.0000      -0.437769       -11.9123
  10   2.0000      -0.418339       -11.3836
  11   2.0000      -0.387835       -10.5535
  12   2.0000      -0.350817        -9.5462
  13   2.0000      -0.331148        -9.0110
  14   2.0000      -0.310852        -8.4587
  15   2.0000      -0.282349        -7.6831
  16   2.0000      -0.281649        -7.6641
  17   0.0000       0.003237         0.0881
  18   0.0000       0.030271         0.8237
  19   0.0000       0.038392         1.0447
  20   0.0000       0.044824         1.2197
  21   0.0000       0.067608         1.8397

MULLIKEN ATOMIC CHARGES
-----------------------
   0 C :    0.652807
   1 C :   -0.520866
   2 H :   -0.065495
   3 H :   -0.064932
   4 C :    0.722137
   5 H :   -0.042641
   6 H :   -0.093025
   7 F :   -0.416751
   8 H :   -0.076471
   9 H :   -0.059883
  10 H :   -0.034880
Sum of atomic charges:    0.0000000

LOEWDIN ATOMIC CHARGES
----------------------
   0 C :    0.120831
   1 C :   -0.073176
   2 H :    0.028814
   3 H :    0.024162
   4 C :    0.080750
   5 H :    0.034212
   6 H :    0.027453
   7 F :   -0.191279
   8 H :   -0.018866
   9 H :   -0.017151
  10 H :   -0.015749

  Mayer bond orders larger than 0.100000
B(  0-C ,  1-C ) :   1.3443 B(  0-C ,  8-H ) :   0.8017 B(  0-C ,  9-H ) :   0.8121
B(  0-C , 10-H ) :   0.8171 B(  1-C ,  2-H ) :   0.9567 B(  1-C ,  3-H ) :   0.9466
B(  1-C ,  4-C ) :   1.2100 B(  1-C ,  5-H ) :   0.1085 B(  1-C ,  6-H ) :   0.1271
B(  1-C ,  8-H ) :   0.1994 B(  1-C ,  9-H ) :   0.1878 B(  1-C , 10-H ) :   0.1983
B(  4-C ,  5-H ) :   0.8976 B(  4-C ,  6-H ) :   0.8932 B(  4-C ,  7-F ) :   0.7532

Dispersion correction           -0.006266583
FINAL SINGLE POINT ENERGY      -217.960868847308

DIPOLE MOMENT
-------------
                                X             Y             Z
Electronic contribution:      2.47973      -0.79872       5.78355
Nuclear contribution   :     -2.76068       0.49992      -6.33880
                        -----------------------------------------
Total Dipole Moment    :     -0.28096      -0.29880      -0.55526
                        -----------------------------------------
Magnitude (a.u.)       :      0.69031
Magnitude (Debye)      :      1.75463

Rotational constants in cm-1:     0.493380     0.165620     0.140427
Rotational constants in MHz : 14791.174622  4965.163858  4209.902284

                             ****ORCA TERMINATED NORMALLY****
TOTAL RUN TIME: 0 days 0 hours 0 minutes 3 seconds 813 msec
