                         Program Version 5.0.0 -  RELEASE  -
|  1> !PBE D3BJ RIJCOSX def2-SVPD def2/J TightSCF
|  2> *xyz 0 1
|  3> C          3.48828        1.60092       -1.52204
|  4> C          4.34297        1.31342       -2.75683
|  5> C          2.81029        0.42878       -1.01420
|  6> H          5.13203        0.60499       -2.48447
|  7> C          3.53590        0.74925       -3.92460
|  8> H          4.84125        2.24214       -3.05408
|  9> H          2.71455        2.33145       -1.76030
| 10> H          4.09099        2.06315       -0.73338
| 11> C          3.29098       -0.41802       -0.12908
| 12> N          2.51754       -1.43202        0.23936
| 13> N          4.53549       -0.28441        0.39580
| 14> H          5.04363        0.57189        0.22290
| 15> H          4.72335       -0.73327        1.28180
| 16> H          1.93479        0.10230       -1.40379
| 17> H          1.67464       -1.50562       -0.31610
| 18> H          2.92850       -2.21850        0.72549
| 19> H          4.18704        0.56990       -4.75451
| 20> H          2.78096        1.45217       -4.20898
| 21> H          3.07436       -0.16949       -3.62832
| 22> *
| 23> %MaxCore 64000
| 24>
| 25> %pal nprocs 4
| 26> end
| 27>
| 28> %scf
| 29>   MaxIter 150
| 30> end
| 31>
| 32>
| 33>                          ****END OF INPUT****

CARTESIAN COORDINATES (ANGSTROEM)
---------------------------------
  C      3.488280    1.600920   -1.522040
  C      4.342970    1.313420   -2.756830
  C      2.810290    0.428780   -1.014200
  H      5.132030    0.604990   -2.484470
  C      3.535900    0.749250   -3.924600
  H      4.841250    2.242140   -3.054080
  H      2.714550    2.331450   -1.760300
  H      4.090990    2.063150   -0.733380
  C      3.290980   -0.418020   -0.129080
  N      2.517540   -1.432020    0.239360
  N      4.535490   -0.284410    0.395800
  H      5.043630    0.571890    0.222900
  H      4.723350   -0.733270    1.281800
  H      1.934790    0.102300   -1.403790
  H      1.674640   -1.505620   -0.316100
  H      2.928500   -2.218500    0.725490
  H      4.187040    0.569900   -4.754510
  H      2.780960    1.452170   -4.208980
  H      3.074360   -0.169490   -3.628320

 Total Charge           Charge          ....    0
 Multiplicity           Mult            ....    1
 Number of Electrons    NEL             ....   56
 Basis Dimension        Dim             ....  236

ORBITAL ENERGIES
----------------

  NO   OCC          E(Eh)            E(eV)
   0   2.0000     -14.002926      -381.0390
   1   2.0000     -13.998798      -380.9267
   2   2.0000      -9.931450      -270.2485
   3   2.0000      -9.874595      -268.7014
   4   2.0000      -9.873457      -268.6704
   5   2.0000      -9.863845      -268.4089
   6   2.0000      -9.823653      -267.3152
   7   2.0000      -0.871484       -23.7143
   8   2.0000      -0.788768       -21.4635
   9   2.0000      -0.709056       -19.2944
  10   2.0000      -0.648020       -17.6335
  11   2.0000      -0.589981       -16.0542
  12   2.0000      -0.535409       -14.5692
  13   2.0000      -0.512474       -13.9451
  14   2.0000      -0.488308       -13.2875
  15   2.0000      -0.453988       -12.3536
  16   2.0000      -0.421929       -11.4813
  17   2.0000      -0.394622       -10.7382
  18   2.0000      -0.391632       -10.6569
  19   2.0000      -0.361835        -9.8460
  20   2.0000      -0.345583        -9.4038
  21   2.0000      -0.330265        -8.9870
  22   2.0000      -0.317327        -8.6349
  23   2.0000      -0.289626        -7.8811
  24   2.0000      -0.275347        -7.4926
  25   2.0000      -0.272087        -7.4039
  26   2.0000      -0.224724        -6.1150
  27   2.0000      -0.135372        -3.6837
  28   0.0000      -0.006581        -0.1791
  29   0.0000       0.019444         0.5291
  30   0.0000       0.021378         0.5817
  31   0.0000       0.037375         1.0170
  32   0.0000       0.048449         1.3184

MULLIKEN ATOMIC CHARGES
-----------------------
   0 C :    0.292342
   1 C :   -0.332977
   2 C :   -0.256644
   3 H :   -0.070701
   4 C :    0.732178
   5 H :   -0.069734
   6 H :   -0.044367
   7 H :   -0.074935
   8 C :    0.669950
   9 N :   -0.005605
  10 N :   -0.008720
  11 H :   -0.032319
  12 H :   -0.260897
  13 H :   -0.235438
  14 H :    0.065945
  15 H :   -0.209284
  16 H :   -0.071129
  17 H :    0.007724
  18 H :   -0.095387
Sum of atomic charges:   -0.0000000

LOEWDIN ATOMIC CHARGES
----------------------
   0 C :   -0.064071
   1 C :   -0.081419
   2 C :   -0.036406
   3 H :    0.016869
   4 C :    0.118009
   5 H :    0.013722
   6 H :    0.017540
   7 H :    0.006132
   8 C :   -0.230435
   9 N :    0.187335
  10 N :    0.218380
  11 H :   -0.024013
  12 H :   -0.018024
  13 H :   -0.046027
  14 H :   -0.000860
  15 H :   -0.009625
  16 H :   -0.022592
  17 H :   -0.017882
  18 H :   -0.026633

  Mayer bond orders larger than 0.100000
B(  0-C ,  1-C ) :   1.1295 B(  0-C ,  2-C ) :   1.1513 B(  0-C ,  3-H ) :   0.1500
B(  0-C ,  5-H ) :   0.1208 B(  0-C ,  6-H ) :   0.7814 B(  0-C ,  7-H ) :   0.8301
B(  0-C , 13-H ) :   0.2783 B(  1-C ,  3-H ) :   0.9372 B(  1-C ,  4-C ) :   1.3586
B(  1-C ,  5-H ) :   0.9199 B(  1-C ,  6-H ) :   0.1080 B(  1-C , 16-H ) :   0.2434
B(  1-C , 17-H ) :   0.2308 B(  1-C , 18-H ) :   0.2358 B(  2-C ,  6-H ) :   0.2112
B(  2-C ,  7-H ) :   0.2818 B(  2-C ,  8-C ) :   1.6309 B(  2-C ,  9-N ) :   0.3735
B(  2-C , 10-N ) :   0.2098 B(  2-C , 11-H ) :  -0.1103 B(  2-C , 13-H ) :   0.8636
B(  4-C , 16-H ) :   0.7432 B(  4-C , 17-H ) :   0.7684 B(  4-C , 18-H ) :   0.8076
B(  7-H ,  8-C ) :  -0.1016 B(  8-C ,  9-N ) :   0.8304 B(  8-C , 10-N ) :   0.9102
B(  8-C , 12-H ) :  -0.1014 B(  8-C , 13-H ) :   0.2294 B(  9-N , 10-N ) :   0.1443
B(  9-N , 14-H ) :   1.0137 B(  9-N , 15-H ) :   1.2150 B( 10-N , 11-H ) :   0.9939
B( 10-N , 12-H ) :   1.2694 B( 11-H , 12-H ) :  -0.1414 B( 14-H , 15-H ) :  -0.1429

Dispersion correction           -0.016319076
FINAL SINGLE POINT ENERGY      -306.634295852590

DIPOLE MOMENT
-------------
                                X             Y             Z
Electronic contribution:     -0.69642      -2.67566       5.57576
Nuclear contribution   :      0.88816       2.11069      -4.95634
                        -----------------------------------------
Total Dipole Moment    :      0.19174      -0.56496       0.61942
                        -----------------------------------------
Magnitude (a.u.)       :      0.86002
Magnitude (Debye)      :      2.18599

Rotational constants in cm-1:     0.162296     0.048922     0.043870
Rotational constants in MHz :  4865.524396  1466.649652  1315.198467

                             ****ORCA TERMINATED NORMALLY****
TOTAL RUN TIME: 0 days 0 hours 0 minutes 10 seconds 131 msec
