                         Program Version 5.0.0 -  RELEASE  -
|  1> !PBE D3BJ RIJCOSX def2-SVPD def2/J TightSCF
|  2> *xyz 0 1
|  3> C          3.48828        1.60092       -1.52204
|  4> C          4.34297        1.31342       -2.75683
|  5> N          2.81029        0.42878       -1.01420
|  6> H          5.13203        0.60499       -2.48447
|  7> C          3.53590        0.74925       -3.92460
|  8> H          4.84125        2.24214       -3.05408
|  9> H          2.71455        2.33145       -1.76030
| 10> H          4.09099        2.06315       -0.73338
| 11> C          3.29098       -0.41802       -0.12908
| 12> C          2.51754       -1.43202        0.23936
| 13> N          4.53549       -0.28441        0.39580
| 14> H          5.04363        0.57189        0.22290
| 15> H          4.72335       -0.73327        1.28180
| 16> H          1.93479        0.10230       -1.40379
| 17> H          1.67464       -1.50562       -0.31610
| 18> H          2.92850       -2.21850        0.72549
| 19> H          4.18704        0.56990       -4.75451
| 20> H          2.78096        1.45217       -4.20898
| 21> H          3.07436       -0.16949       -3.62832
| 22> *
| 23> %MaxCore 64000
| 24>
| 25> %pal nprocs 4
| 26> end
| 27>
| 28> %scf
| 29>   MaxIter 150
| 30> end
| 31>
| 32>
| 33>                          ****END OF INPUT****

CARTESIAN COORDINATES (ANGSTROEM)
---------------------------------
  C      3.488280    1.600920   -1.522040
  C      4.342970    1.313420   -2.756830
  N      2.810290    0.428780   -1.014200
  H      5.132030    0.604990   -2.484470
  C      3.535900    0.749250   -3.924600
  H      4.841250    2.242140   -3.054080
  H      2.714550    2.331450   -1.760300
  H      4.090990    2.063150   -0.733380
  C      3.290980   -0.418020   -0.129080
  C      2.517540   -1.432020    0.239360
  N      4.535490   -0.284410    0.395800
  H      5.043630    0.571890    0.222900
  H      4.723350   -0.733270    1.281800
  H      1.934790    0.102300   -1.403790
  H      1.674640   -1.505620   -0.316100
  H      2.928500   -2.218500    0.725490
  H      4.187040    0.569900   -4.754510
  H      2.780960    1.452170   -4.208980
  H      3.074360   -0.169490   -3.628320

 Total Charge           Charge          ....    0
 Multiplicity           Mult            ....    1
 Number of Electrons    NEL             ....   56
 Basis Dimension        Dim             ....  236

ORBITAL ENERGIES
----------------

  NO   OCC          E(Eh)            E(eV)
   0   2.0000     -14.003892      -381.0653
   1   2.0000     -14.001124      -380.9900
   2   2.0000      -9.935964      -270.3713
   3   2.0000      -9.933309      -270.2991
   4   2.0000      -9.898228      -269.3445
   5   2.0000      -9.884869      -268.9810
   6   2.0000      -9.807521      -266.8762
   7   2.0000      -0.881277       -23.9808
   8   2.0000      -0.800529       -21.7835
   9   2.0000      -0.715706       -19.4754
  10   2.0000      -0.654711       -17.8156
  11   2.0000      -0.600217       -16.3327
  12   2.0000      -0.548196       -14.9172
  13   2.0000      -0.531807       -14.4712
  14   2.0000      -0.482091       -13.1184
  15   2.0000      -0.451744       -12.2926
  16   2.0000      -0.433431       -11.7943
  17   2.0000      -0.408385       -11.1127
  18   2.0000      -0.397243       -10.8095
  19   2.0000      -0.367912       -10.0114
  20   2.0000      -0.343371        -9.3436
  21   2.0000      -0.340021        -9.2525
  22   2.0000      -0.332322        -9.0430
  23   2.0000      -0.311087        -8.4651
  24   2.0000      -0.308082        -8.3833
  25   2.0000      -0.300879        -8.1873
  26   2.0000      -0.217936        -5.9303
  27   2.0000      -0.132220        -3.5979
  28   0.0000      -0.008028        -0.2185
  29   0.0000       0.009342         0.2542
  30   0.0000       0.020537         0.5588
  31   0.0000       0.031201         0.8490
  32   0.0000       0.042891         1.1671

MULLIKEN ATOMIC CHARGES
-----------------------
   0 C :    0.833471
   1 C :   -0.376949
   2 N :   -0.346033
   3 H :   -0.016403
   4 C :    0.745116
   5 H :   -0.127461
   6 H :   -0.328231
   7 H :   -0.128636
   8 C :    0.601228
   9 C :    0.467039
  10 N :    0.111676
  11 H :   -0.188470
  12 H :   -0.158900
  13 H :   -0.275294
  14 H :   -0.198838
  15 H :   -0.429701
  16 H :   -0.098101
  17 H :    0.016220
  18 H :   -0.101734
Sum of atomic charges:    0.0000000

LOEWDIN ATOMIC CHARGES
----------------------
   0 C :    0.040845
   1 C :   -0.072279
   2 N :   -0.004824
   3 H :    0.018228
   4 C :    0.120863
   5 H :    0.018913
   6 H :    0.021430
   7 H :    0.011544
   8 C :   -0.242374
   9 C :    0.139808
  10 N :    0.216111
  11 H :   -0.038341
  12 H :    0.000696
  13 H :    0.029493
  14 H :   -0.103652
  15 H :   -0.096802
  16 H :   -0.018136
  17 H :   -0.017694
  18 H :   -0.023831

  Mayer bond orders larger than 0.100000
B(  0-C ,  1-C ) :   1.0967 B(  0-C ,  2-N ) :   0.9226 B(  0-C ,  3-H ) :   0.1192
B(  0-C ,  5-H ) :   0.1048 B(  0-C ,  6-H ) :   0.7558 B(  0-C ,  7-H ) :   0.8582
B(  0-C , 13-H ) :  -0.2734 B(  1-C ,  3-H ) :   0.9100 B(  1-C ,  4-C ) :   1.3347
B(  1-C ,  5-H ) :   0.9921 B(  1-C ,  6-H ) :   0.1483 B(  1-C , 16-H ) :   0.2322
B(  1-C , 17-H ) :   0.2172 B(  1-C , 18-H ) :   0.2214 B(  2-N ,  6-H ) :   0.2478
B(  2-N ,  7-H ) :   0.1386 B(  2-N ,  8-C ) :   1.0357 B(  2-N ,  9-C ) :   0.3026
B(  2-N , 10-N ) :   0.1595 B(  2-N , 13-H ) :   1.2687 B(  4-C , 16-H ) :   0.7835
B(  4-C , 17-H ) :   0.7623 B(  4-C , 18-H ) :   0.8207 B(  6-H ,  7-H ) :  -0.1148
B(  8-C ,  9-C ) :   1.5643 B(  8-C , 10-N ) :   0.8640 B(  8-C , 13-H ) :  -0.2143
B(  8-C , 14-H ) :   0.2615 B(  8-C , 15-H ) :   0.2275 B(  9-C , 10-N ) :   0.2290
B(  9-C , 14-H ) :   0.7847 B(  9-C , 15-H ) :   0.7093 B( 10-N , 11-H ) :   1.0321
B( 10-N , 12-H ) :   1.2119 B( 11-H , 12-H ) :  -0.1527

Dispersion correction           -0.016159500
FINAL SINGLE POINT ENERGY      -306.621170327959

DIPOLE MOMENT
-------------
                                X             Y             Z
Electronic contribution:     -0.29674      -0.81902       4.29185
Nuclear contribution   :      0.82404       1.70307      -4.68174
                        -----------------------------------------
Total Dipole Moment    :      0.52729       0.88406      -0.38989
                        -----------------------------------------
Magnitude (a.u.)       :      1.10073
Magnitude (Debye)      :      2.79784

Rotational constants in cm-1:     0.164049     0.050262     0.045260
Rotational constants in MHz :  4918.051182  1506.829450  1356.872102

                             ****ORCA TERMINATED NORMALLY****
TOTAL RUN TIME: 0 days 0 hours 0 minutes 10 seconds 786 msec
