                         Program Version 5.0.0 -  RELEASE  -
|  1> !PBE D3BJ RIJCOSX def2-SVPD def2/J TightSCF
|  2> *xyz 0 1
|  3> C          3.48828        1.60092       -1.52204
|  4> C          4.34297        1.31342       -2.75683
|  5> N          2.81029        0.42878       -1.01420
|  6> H          5.13203        0.60499       -2.48447
|  7> C          3.53590        0.74925       -3.92460
|  8> H          4.84125        2.24214       -3.05408
|  9> H          2.71455        2.33145       -1.76030
| 10> H          4.09099        2.06315       -0.73338
| 11> C          3.29098       -0.41802       -0.12908
| 12> N          2.51754       -1.43202        0.23936
| 13> C          4.53549       -0.28441        0.39580
| 14> H          5.04363        0.57189        0.22290
| 15> H          4.72335       -0.73327        1.28180
| 16> H          1.93479        0.10230       -1.40379
| 17> H          1.67464       -1.50562       -0.31610
| 18> H          2.92850       -2.21850        0.72549
| 19> H          4.18704        0.56990       -4.75451
| 20> H          2.78096        1.45217       -4.20898
| 21> H          3.07436       -0.16949       -3.62832
| 22> *
| 23> %MaxCore 64000
| 24>
| 25> %pal nprocs 4
| 26> end
| 27>
| 28> %scf
| 29>   MaxIter 150
| 30> end
| 31>
| 32>
| 33>                          ****END OF INPUT****

CARTESIAN COORDINATES (ANGSTROEM)
---------------------------------
  C      3.488280    1.600920   -1.522040
  C      4.342970    1.313420   -2.756830
  N      2.810290    0.428780   -1.014200
  H      5.132030    0.604990   -2.484470
  C      3.535900    0.749250   -3.924600
  H      4.841250    2.242140   -3.054080
  H      2.714550    2.331450   -1.760300
  H      4.090990    2.063150   -0.733380
  C      3.290980   -0.418020   -0.129080
  N      2.517540   -1.432020    0.239360
  C      4.535490   -0.284410    0.395800
  H      5.043630    0.571890    0.222900
  H      4.723350   -0.733270    1.281800
  H      1.934790    0.102300   -1.403790
  H      1.674640   -1.505620   -0.316100
  H      2.928500   -2.218500    0.725490
  H      4.187040    0.569900   -4.754510
  H      2.780960    1.452170   -4.208980
  H      3.074360   -0.169490   -3.628320

 Total Charge           Charge          ....    0
 Multiplicity           Mult            ....    1
 Number of Electrons    NEL             ....   56
 Basis Dimension        Dim             ....  236

ORBITAL ENERGIES
----------------

  NO   OCC          E(Eh)            E(eV)
   0   2.0000     -14.009915      -381.2292
   1   2.0000     -14.003649      -381.0587
   2   2.0000      -9.935901      -270.3696
   3   2.0000      -9.928916      -270.1795
   4   2.0000      -9.891293      -269.1558
   5   2.0000      -9.881551      -268.8907
   6   2.0000      -9.809561      -266.9317
   7   2.0000      -0.890192       -24.2234
   8   2.0000      -0.806217       -21.9383
   9   2.0000      -0.703910       -19.1544
  10   2.0000      -0.635904       -17.3038
  11   2.0000      -0.625145       -17.0111
  12   2.0000      -0.547215       -14.8905
  13   2.0000      -0.499308       -13.5869
  14   2.0000      -0.493504       -13.4289
  15   2.0000      -0.477129       -12.9833
  16   2.0000      -0.427249       -11.6260
  17   2.0000      -0.404503       -11.0071
  18   2.0000      -0.393934       -10.7195
  19   2.0000      -0.359195        -9.7742
  20   2.0000      -0.354598        -9.6491
  21   2.0000      -0.335071        -9.1177
  22   2.0000      -0.324245        -8.8232
  23   2.0000      -0.306695        -8.3456
  24   2.0000      -0.303001        -8.2451
  25   2.0000      -0.294737        -8.0202
  26   2.0000      -0.213117        -5.7992
  27   2.0000      -0.136229        -3.7070
  28   0.0000      -0.015114        -0.4113
  29   0.0000       0.015061         0.4098
  30   0.0000       0.023762         0.6466
  31   0.0000       0.031286         0.8513
  32   0.0000       0.044217         1.2032

MULLIKEN ATOMIC CHARGES
-----------------------
   0 C :    0.797846
   1 C :   -0.338771
   2 N :   -0.534199
   3 H :   -0.034749
   4 C :    0.725639
   5 H :   -0.120315
   6 H :   -0.319342
   7 H :    0.010738
   8 C :    0.666438
   9 N :    0.093519
  10 C :    0.481043
  11 H :   -0.112409
  12 H :   -0.573795
  13 H :   -0.325083
  14 H :   -0.133490
  15 H :   -0.091718
  16 H :   -0.097362
  17 H :    0.008985
  18 H :   -0.102972
Sum of atomic charges:    0.0000000

LOEWDIN ATOMIC CHARGES
----------------------
   0 C :    0.049678
   1 C :   -0.063795
   2 N :   -0.006566
   3 H :    0.020905
   4 C :    0.116813
   5 H :    0.021462
   6 H :    0.021376
   7 H :    0.019694
   8 C :   -0.249958
   9 N :    0.198532
  10 C :    0.162948
  11 H :   -0.126310
  12 H :   -0.107696
  13 H :    0.016698
  14 H :   -0.017151
  15 H :    0.011093
  16 H :   -0.018888
  17 H :   -0.019802
  18 H :   -0.029033

  Mayer bond orders larger than 0.100000
B(  0-C ,  1-C ) :   1.0894 B(  0-C ,  2-N ) :   0.8967 B(  0-C ,  3-H ) :   0.1365
B(  0-C ,  6-H ) :   0.8145 B(  0-C ,  7-H ) :   0.8298 B(  0-C , 13-H ) :  -0.2411
B(  1-C ,  3-H ) :   0.9153 B(  1-C ,  4-C ) :   1.3323 B(  1-C ,  5-H ) :   0.9920
B(  1-C ,  6-H ) :   0.1317 B(  1-C , 16-H ) :   0.2302 B(  1-C , 17-H ) :   0.2128
B(  1-C , 18-H ) :   0.2119 B(  2-N ,  6-H ) :   0.2039 B(  2-N ,  7-H ) :   0.1151
B(  2-N ,  8-C ) :   0.7960 B(  2-N ,  9-N ) :   0.2194 B(  2-N , 10-C ) :   0.4407
B(  2-N , 13-H ) :   1.3842 B(  4-C , 16-H ) :   0.7860 B(  4-C , 17-H ) :   0.7671
B(  4-C , 18-H ) :   0.8306 B(  6-H ,  7-H ) :  -0.1409 B(  8-C ,  9-N ) :   0.8538
B(  8-C , 10-C ) :   1.6639 B(  8-C , 11-H ) :   0.3191 B(  8-C , 12-H ) :   0.2299
B(  8-C , 13-H ) :  -0.2946 B(  9-N , 10-C ) :   0.2856 B(  9-N , 14-H ) :   1.0632
B(  9-N , 15-H ) :   1.1864 B( 10-C , 11-H ) :   0.6348 B( 10-C , 12-H ) :   0.7329
B( 14-H , 15-H ) :  -0.1350

Dispersion correction           -0.016232977
FINAL SINGLE POINT ENERGY      -306.621464127991

DIPOLE MOMENT
-------------
                                X             Y             Z
Electronic contribution:     -2.19701      -2.03448       4.09097
Nuclear contribution   :      1.26608       1.95446      -4.64747
                        -----------------------------------------
Total Dipole Moment    :     -0.93093      -0.08002      -0.55651
                        -----------------------------------------
Magnitude (a.u.)       :      1.08754
Magnitude (Debye)      :      2.76430

Rotational constants in cm-1:     0.166109     0.049557     0.044716
Rotational constants in MHz :  4979.835529  1485.675017  1340.540851

                             ****ORCA TERMINATED NORMALLY****
TOTAL RUN TIME: 0 days 0 hours 0 minutes 9 seconds 788 msec
