                         Program Version 5.0.0 -  RELEASE  -
|  1> !PBE D3BJ RIJCOSX def2-SVPD def2/J TightSCF xyzfile
|  2>
|  3> *xyzfile 0 1 D1.xyz
|  4>
|  5> %MaxCore 64000
|  6>
|  7> %pal nprocs 4
|  8> end
|  9>
| 10> %scf
| 11>   MaxIter 150
| 12> end
| 13>
| 14>
| 15>                          ****END OF INPUT****

CARTESIAN COORDINATES (ANGSTROEM)
---------------------------------
  C      3.488276    1.600919   -1.522040
  C      4.342970    1.313419   -2.756826
  C      2.810285    0.428783   -1.014196
  H      5.132033    0.604994   -2.484466
  C      3.535896    0.749253   -3.924604
  H      4.841247    2.242136   -3.054083
  H      2.991617   -0.132199   -3.574137
  H      4.225505    0.392784   -4.695962
  C      2.564776    1.750890   -4.544523
  H      1.918749    2.171679   -3.769419
  C      1.686235    1.161657   -5.650111
  H      3.132494    2.594775   -4.951604
  C      0.839616   -0.037582   -5.220473
  H      2.323886    0.866395   -6.490796
  H      1.029518    1.951850   -6.029329
  C     -0.151019    0.254955   -4.094256
  H      1.499442   -0.857141   -4.922958
  H      0.290097   -0.410143   -6.091131
  H      0.328265    0.833022   -3.299125
  C     -0.721843   -0.999513   -3.439309
  H     -0.957367    0.884951   -4.485450
  H     -1.083403   -1.697555   -4.205656
  H     -1.581056   -0.723848   -2.820490
  C      0.287250   -1.711771   -2.527405
  H      1.131780   -2.067380   -3.159396
  H     -0.204137   -2.637326   -2.170480
  F      0.710505   -0.927506   -1.481767
  H      2.714548    2.331455   -1.760302
  H      4.090991    2.063151   -0.733382
  C      3.290978   -0.418021   -0.129083
  N      2.517536   -1.432017    0.239360
  N      4.535490   -0.284410    0.395800
  H      5.043627    0.571888    0.222899
  H      4.723346   -0.733273    1.281800
  H      1.934787    0.102305   -1.403788
  H      1.674638   -1.505616   -0.316095
  H      2.928503   -2.218502    0.725494

 Total Charge           Charge          ....    0
 Multiplicity           Mult            ....    1
 Number of Electrons    NEL             ....  112
 Basis Dimension        Dim             ....  467

ORBITAL ENERGIES
----------------

  NO   OCC          E(Eh)            E(eV)
   0   2.0000     -24.295409      -661.1117
   1   2.0000     -13.988467      -380.6455
   2   2.0000     -13.972575      -380.2131
   3   2.0000      -9.984588      -271.6945
   4   2.0000      -9.913607      -269.7629
   5   2.0000      -9.908874      -269.6342
   6   2.0000      -9.894361      -269.2393
   7   2.0000      -9.890205      -269.1262
   8   2.0000      -9.885413      -268.9958
   9   2.0000      -9.877959      -268.7929
  10   2.0000      -9.872437      -268.6427
  11   2.0000      -9.867218      -268.5006
  12   2.0000      -9.861386      -268.3420
  13   2.0000      -9.797065      -266.5917
  14   2.0000      -1.122376       -30.5414
  15   2.0000      -0.853378       -23.2216
  16   2.0000      -0.771677       -20.9984
  17   2.0000      -0.740106       -20.1393
  18   2.0000      -0.716360       -19.4932
  19   2.0000      -0.688830       -18.7440
  20   2.0000      -0.657434       -17.8897
  21   2.0000      -0.621421       -16.9097
  22   2.0000      -0.598300       -16.2806
  23   2.0000      -0.566998       -15.4288
  24   2.0000      -0.541768       -14.7423
  25   2.0000      -0.529641       -14.4123
  26   2.0000      -0.505575       -13.7574
  27   2.0000      -0.490028       -13.3343
  28   2.0000      -0.479826       -13.0567
  29   2.0000      -0.468312       -12.7434
  30   2.0000      -0.463173       -12.6036
  31   2.0000      -0.442873       -12.0512
  32   2.0000      -0.435476       -11.8499
  33   2.0000      -0.414288       -11.2733
  34   2.0000      -0.407586       -11.0910
  35   2.0000      -0.397254       -10.8098
  36   2.0000      -0.390231       -10.6187
  37   2.0000      -0.377433       -10.2705
  38   2.0000      -0.367394        -9.9973
  39   2.0000      -0.357562        -9.7298
  40   2.0000      -0.350345        -9.5334
  41   2.0000      -0.332414        -9.0454
  42   2.0000      -0.329839        -8.9754
  43   2.0000      -0.319671        -8.6987
  44   2.0000      -0.318039        -8.6543
  45   2.0000      -0.315548        -8.5865
  46   2.0000      -0.297004        -8.0819
  47   2.0000      -0.289312        -7.8726
  48   2.0000      -0.280922        -7.6443
  49   2.0000      -0.278545        -7.5796
  50   2.0000      -0.276757        -7.5309
  51   2.0000      -0.262381        -7.1397
  52   2.0000      -0.255603        -6.9553
  53   2.0000      -0.249482        -6.7887
  54   2.0000      -0.207820        -5.6551
  55   2.0000      -0.118387        -3.2215
  56   0.0000      -0.003253        -0.0885
  57   0.0000       0.007252         0.1973
  58   0.0000       0.010999         0.2993
  59   0.0000       0.017716         0.4821
  60   0.0000       0.028450         0.7742

MULLIKEN ATOMIC CHARGES
-----------------------
   0 C :    0.486015
   1 C :    0.499315
   2 C :    0.149605
   3 H :   -0.087036
   4 C :    0.219536
   5 H :   -0.078828
   6 H :   -0.326274
   7 H :   -0.108317
   8 C :   -0.035366
   9 H :    0.046557
  10 C :    0.659375
  11 H :   -0.258061
  12 C :   -0.006693
  13 H :   -0.029765
  14 H :   -0.140919
  15 C :    0.206067
  16 H :   -0.032151
  17 H :   -0.246586
  18 H :   -0.266343
  19 C :    0.291103
  20 H :   -0.135289
  21 H :   -0.064327
  22 H :   -0.055713
  23 C :    0.888251
  24 H :   -0.094652
  25 H :   -0.263718
  26 F :   -0.537214
  27 H :    0.000885
  28 H :   -0.229906
  29 C :    0.486433
  30 N :    0.273704
  31 N :    0.019510
  32 H :   -0.060168
  33 H :   -0.267974
  34 H :   -0.514662
  35 H :   -0.119547
  36 H :   -0.266849
Sum of atomic charges:    0.0000000

LOEWDIN ATOMIC CHARGES
----------------------
   0 C :   -0.048867
   1 C :   -0.029910
   2 C :   -0.013695
   3 H :    0.019216
   4 C :   -0.031817
   5 H :    0.015957
   6 H :   -0.001541
   7 H :    0.025618
   8 C :   -0.034491
   9 H :    0.000971
  10 C :   -0.032360
  11 H :    0.026141
  12 C :   -0.036389
  13 H :    0.023098
  14 H :    0.022299
  15 C :   -0.025011
  16 H :   -0.001498
  17 H :    0.024111
  18 H :    0.009385
  19 C :   -0.013141
  20 H :    0.030626
  21 H :    0.036529
  22 H :    0.028794
  23 C :    0.147938
  24 H :    0.033888
  25 H :    0.036135
  26 F :   -0.193554
  27 H :    0.005091
  28 H :    0.004604
  29 C :   -0.207573
  30 N :    0.207312
  31 N :    0.215037
  32 H :   -0.027644
  33 H :   -0.021760
  34 H :   -0.105798
  35 H :   -0.074761
  36 H :   -0.012940

  Mayer bond orders larger than 0.100000
B(  0-C ,  1-C ) :   1.0816 B(  0-C ,  2-C ) :   0.9600 B(  0-C ,  3-H ) :   0.1607
B(  0-C ,  5-H ) :   0.2134 B(  0-C , 27-H ) :   0.7704 B(  0-C , 28-H ) :   0.6350
B(  0-C , 34-H ) :   0.5998 B(  1-C ,  3-H ) :   0.6946 B(  1-C ,  4-C ) :   1.2637
B(  1-C ,  5-H ) :   0.7559 B(  1-C ,  6-H ) :   0.1491 B(  1-C ,  7-H ) :   0.1149
B(  2-C , 27-H ) :   0.2824 B(  2-C , 28-H ) :   0.3586 B(  2-C , 29-C ) :   1.8473
B(  2-C , 30-N ) :   0.3504 B(  2-C , 31-N ) :   0.2302 B(  2-C , 32-H ) :  -0.1841
B(  3-H ,  4-C ) :   0.2435 B(  4-C ,  5-H ) :   0.1473 B(  4-C ,  6-H ) :   0.8422
B(  4-C ,  7-H ) :   0.7202 B(  4-C ,  8-C ) :   1.2059 B(  4-C , 11-H ) :   0.1715
B(  6-H ,  8-C ) :   0.1695 B(  7-H ,  8-C ) :   0.1686 B(  8-C ,  9-H ) :   0.8121
B(  8-C , 10-C ) :   1.1654 B(  8-C , 11-H ) :   0.9063 B(  8-C , 12-C ) :   0.1403
B(  8-C , 13-H ) :   0.1293 B(  8-C , 14-H ) :   0.3181 B( 10-C , 12-C ) :   1.2091
B( 10-C , 13-H ) :   0.6597 B( 10-C , 14-H ) :   0.6440 B( 10-C , 17-H ) :   0.1027
B( 12-C , 13-H ) :   0.2571 B( 12-C , 14-H ) :   0.1287 B( 12-C , 15-C ) :   1.2114
B( 12-C , 16-H ) :   0.8610 B( 12-C , 17-H ) :   0.8544 B( 12-C , 18-H ) :   0.1695
B( 12-C , 20-H ) :   0.2045 B( 13-H , 14-H ) :  -0.1373 B( 15-C , 16-H ) :   0.1164
B( 15-C , 17-H ) :   0.2472 B( 15-C , 18-H ) :   0.8437 B( 15-C , 19-C ) :   1.2007
B( 15-C , 20-H ) :   0.7863 B( 15-C , 21-H ) :   0.1263 B( 15-C , 22-H ) :   0.2343
B( 18-H , 19-C ) :   0.1641 B( 19-C , 21-H ) :   0.7616 B( 19-C , 22-H ) :   0.7043
B( 19-C , 23-C ) :   1.2254 B( 19-C , 24-H ) :   0.1279 B( 19-C , 25-H ) :   0.1574
B( 19-C , 26-F ) :   0.1178 B( 21-H , 23-C ) :   0.1746 B( 22-H , 23-C ) :   0.1566
B( 23-C , 24-H ) :   0.8026 B( 23-C , 25-H ) :   0.8654 B( 23-C , 26-F ) :   0.6290
B( 24-H , 26-F ) :   0.1278 B( 26-F , 34-H ) :  -0.1220 B( 26-F , 35-H ) :   0.1175
B( 27-H , 34-H ) :  -0.1728 B( 28-H , 34-H ) :   0.1173 B( 29-C , 30-N ) :   0.7386
B( 29-C , 31-N ) :   0.8583 B( 29-C , 34-H ) :   0.3906 B( 30-N , 31-N ) :   0.1323
B( 30-N , 35-H ) :   1.0682 B( 30-N , 36-H ) :   1.2143 B( 31-N , 32-H ) :   1.0189
B( 31-N , 33-H ) :   1.2525 B( 31-N , 34-H ) :  -0.1028 B( 32-H , 33-H ) :  -0.1438
B( 35-H , 36-H ) :  -0.1542

Dispersion correction           -0.040408352
FINAL SINGLE POINT ENERGY      -641.096158347477

DIPOLE MOMENT
-------------
                                X             Y             Z
Electronic contribution:     -1.59116      -4.84514      10.72722
Nuclear contribution   :      1.15699       3.94991     -10.89335
                        -----------------------------------------
Total Dipole Moment    :     -0.43418      -0.89523      -0.16613
                        -----------------------------------------
Magnitude (a.u.)       :      1.00874
Magnitude (Debye)      :      2.56400

Rotational constants in cm-1:     0.026548     0.016177     0.010851
Rotational constants in MHz :   795.884848   484.988695   325.313537

                             ****ORCA TERMINATED NORMALLY****
TOTAL RUN TIME: 0 days 0 hours 0 minutes 52 seconds 328 msec
