                         Program Version 5.0.0 -  RELEASE  -
|  1> !PBE D3BJ RIJCOSX def2-SVPD def2/J TightSCF xyzfile
|  2>
|  3> *xyzfile 0 1 D2.xyz
|  4>
|  5> %MaxCore 64000
|  6>
|  7> %pal nprocs 4
|  8> end
|  9>
| 10> %scf
| 11>   MaxIter 150
| 12> end
| 13>
| 14>
| 15>                          ****END OF INPUT****

CARTESIAN COORDINATES (ANGSTROEM)
---------------------------------
  C      3.488276    1.600919   -1.522040
  C      4.342970    1.313419   -2.756826
  N      2.810285    0.428783   -1.014196
  H      5.132033    0.604994   -2.484466
  C      3.535896    0.749253   -3.924604
  H      4.841247    2.242136   -3.054083
  H      2.991617   -0.132199   -3.574137
  H      4.225505    0.392784   -4.695962
  C      2.564776    1.750890   -4.544523
  H      1.918749    2.171679   -3.769419
  C      1.686235    1.161657   -5.650111
  H      3.132494    2.594775   -4.951604
  C      0.839616   -0.037582   -5.220473
  H      2.323886    0.866395   -6.490796
  H      1.029518    1.951850   -6.029329
  C     -0.151019    0.254955   -4.094256
  H      1.499442   -0.857141   -4.922958
  H      0.290097   -0.410143   -6.091131
  H      0.328265    0.833022   -3.299125
  C     -0.721843   -0.999513   -3.439309
  H     -0.957367    0.884951   -4.485450
  H     -1.083403   -1.697555   -4.205656
  H     -1.581056   -0.723848   -2.820490
  C      0.287250   -1.711771   -2.527405
  H      1.131780   -2.067380   -3.159396
  H     -0.204137   -2.637326   -2.170480
  F      0.710505   -0.927506   -1.481767
  H      2.714548    2.331455   -1.760302
  H      4.090991    2.063151   -0.733382
  C      3.290978   -0.418021   -0.129083
  C      2.517536   -1.432017    0.239360
  N      4.535490   -0.284410    0.395800
  H      5.043627    0.571888    0.222899
  H      4.723346   -0.733273    1.281800
  H      1.934787    0.102305   -1.403788
  H      1.674638   -1.505616   -0.316095
  H      2.928503   -2.218502    0.725494

 Total Charge           Charge          ....    0
 Multiplicity           Mult            ....    1
 Number of Electrons    NEL             ....  112
 Basis Dimension        Dim             ....  467

ORBITAL ENERGIES
----------------

  NO   OCC          E(Eh)            E(eV)
   0   2.0000     -24.293056      -661.0477
   1   2.0000     -13.985760      -380.5719
   2   2.0000     -13.977090      -380.3359
   3   2.0000      -9.983634      -271.6685
   4   2.0000      -9.922231      -269.9976
   5   2.0000      -9.914405      -269.7847
   6   2.0000      -9.910766      -269.6857
   7   2.0000      -9.901274      -269.4274
   8   2.0000      -9.897654      -269.3288
   9   2.0000      -9.895355      -269.2663
  10   2.0000      -9.892444      -269.1871
  11   2.0000      -9.890354      -269.1302
  12   2.0000      -9.888786      -269.0876
  13   2.0000      -9.780788      -266.1488
  14   2.0000      -1.120148       -30.4808
  15   2.0000      -0.862712       -23.4756
  16   2.0000      -0.784405       -21.3447
  17   2.0000      -0.747726       -20.3467
  18   2.0000      -0.722004       -19.6467
  19   2.0000      -0.697365       -18.9763
  20   2.0000      -0.654748       -17.8166
  21   2.0000      -0.633086       -17.2272
  22   2.0000      -0.600030       -16.3277
  23   2.0000      -0.576149       -15.6778
  24   2.0000      -0.548989       -14.9388
  25   2.0000      -0.537317       -14.6211
  26   2.0000      -0.517186       -14.0734
  27   2.0000      -0.501232       -13.6392
  28   2.0000      -0.480327       -13.0704
  29   2.0000      -0.469017       -12.7626
  30   2.0000      -0.459663       -12.5081
  31   2.0000      -0.444523       -12.0961
  32   2.0000      -0.434197       -11.8151
  33   2.0000      -0.424627       -11.5547
  34   2.0000      -0.418425       -11.3859
  35   2.0000      -0.406358       -11.0576
  36   2.0000      -0.390611       -10.6291
  37   2.0000      -0.385166       -10.4809
  38   2.0000      -0.382367       -10.4047
  39   2.0000      -0.368654       -10.0316
  40   2.0000      -0.350175        -9.5287
  41   2.0000      -0.339159        -9.2290
  42   2.0000      -0.330127        -8.9832
  43   2.0000      -0.329063        -8.9543
  44   2.0000      -0.321195        -8.7402
  45   2.0000      -0.316799        -8.6206
  46   2.0000      -0.304454        -8.2846
  47   2.0000      -0.302105        -8.2207
  48   2.0000      -0.295807        -8.0493
  49   2.0000      -0.288534        -7.8514
  50   2.0000      -0.279173        -7.5967
  51   2.0000      -0.276725        -7.5301
  52   2.0000      -0.275131        -7.4867
  53   2.0000      -0.271327        -7.3832
  54   2.0000      -0.201280        -5.4771
  55   2.0000      -0.113921        -3.0999
  56   0.0000      -0.003334        -0.0907
  57   0.0000       0.001530         0.0416
  58   0.0000       0.007829         0.2130
  59   0.0000       0.012901         0.3511
  60   0.0000       0.024370         0.6631

MULLIKEN ATOMIC CHARGES
-----------------------
   0 C :    1.180874
   1 C :    0.303641
   2 N :    0.292968
   3 H :   -0.056345
   4 C :    0.348861
   5 H :   -0.148314
   6 H :   -0.341882
   7 H :   -0.159513
   8 C :   -0.094033
   9 H :    0.079244
  10 C :    0.644485
  11 H :   -0.238018
  12 C :   -0.011664
  13 H :   -0.030351
  14 H :   -0.144115
  15 C :    0.196038
  16 H :   -0.009220
  17 H :   -0.243596
  18 H :   -0.278181
  19 C :    0.278743
  20 H :   -0.111588
  21 H :   -0.061844
  22 H :   -0.059584
  23 C :    0.868892
  24 H :   -0.111509
  25 H :   -0.255559
  26 F :   -0.608492
  27 H :   -0.337915
  28 H :   -0.319438
  29 C :    0.563565
  30 C :    0.765585
  31 N :    0.155856
  32 H :   -0.161995
  33 H :   -0.181193
  34 H :   -0.871973
  35 H :   -0.522905
  36 H :   -0.319524
Sum of atomic charges:    0.0000000

LOEWDIN ATOMIC CHARGES
----------------------
   0 C :    0.055538
   1 C :   -0.021878
   2 N :    0.018085
   3 H :    0.019730
   4 C :   -0.031385
   5 H :    0.020740
   6 H :    0.000173
   7 H :    0.028802
   8 C :   -0.037024
   9 H :   -0.001506
  10 C :   -0.030427
  11 H :    0.027343
  12 C :   -0.035419
  13 H :    0.024568
  14 H :    0.023848
  15 C :   -0.027514
  16 H :   -0.000876
  17 H :    0.026062
  18 H :    0.005106
  19 C :   -0.013388
  20 H :    0.031147
  21 H :    0.036919
  22 H :    0.029509
  23 C :    0.150630
  24 H :    0.033560
  25 H :    0.041594
  26 F :   -0.195173
  27 H :    0.009903
  28 H :    0.010126
  29 C :   -0.221401
  30 C :    0.162206
  31 N :    0.212437
  32 H :   -0.042064
  33 H :   -0.002860
  34 H :   -0.051023
  35 H :   -0.157615
  36 H :   -0.098470

  Mayer bond orders larger than 0.100000
B(  0-C ,  1-C ) :   1.0542 B(  0-C ,  2-N ) :   1.0292 B(  0-C ,  4-C ) :   0.1303
B(  0-C ,  5-H ) :   0.1383 B(  0-C , 27-H ) :   0.6144 B(  0-C , 28-H ) :   0.7714
B(  0-C , 34-H ) :  -0.6346 B(  1-C ,  3-H ) :   0.7239 B(  1-C ,  4-C ) :   1.2190
B(  1-C ,  5-H ) :   0.8892 B(  1-C ,  6-H ) :   0.1460 B(  1-C ,  7-H ) :   0.1051
B(  1-C , 27-H ) :   0.1241 B(  1-C , 28-H ) :   0.1344 B(  2-N , 27-H ) :   0.1693
B(  2-N , 29-C ) :   1.0612 B(  2-N , 30-C ) :   0.2525 B(  2-N , 31-N ) :   0.2215
B(  2-N , 34-H ) :   0.8728 B(  3-H ,  4-C ) :   0.2115 B(  3-H , 34-H ) :   0.1089
B(  4-C ,  6-H ) :   0.8197 B(  4-C ,  7-H ) :   0.7333 B(  4-C ,  8-C ) :   1.1982
B(  4-C , 11-H ) :   0.1748 B(  6-H ,  8-C ) :   0.1772 B(  7-H ,  8-C ) :   0.1583
B(  8-C ,  9-H ) :   0.8051 B(  8-C , 10-C ) :   1.1835 B(  8-C , 11-H ) :   0.9040
B(  8-C , 12-C ) :   0.1355 B(  8-C , 13-H ) :   0.1270 B(  8-C , 14-H ) :   0.3140
B(  9-H , 18-H ) :   0.1007 B( 10-C , 12-C ) :   1.2127 B( 10-C , 13-H ) :   0.6689
B( 10-C , 14-H ) :   0.6424 B( 10-C , 17-H ) :   0.1086 B( 12-C , 13-H ) :   0.2495
B( 12-C , 14-H ) :   0.1351 B( 12-C , 15-C ) :   1.2214 B( 12-C , 16-H ) :   0.8515
B( 12-C , 17-H ) :   0.8440 B( 12-C , 18-H ) :   0.1699 B( 12-C , 20-H ) :   0.2095
B( 13-H , 14-H ) :  -0.1383 B( 15-C , 16-H ) :   0.1164 B( 15-C , 17-H ) :   0.2579
B( 15-C , 18-H ) :   0.8425 B( 15-C , 19-C ) :   1.1928 B( 15-C , 20-H ) :   0.7934
B( 15-C , 21-H ) :   0.1102 B( 15-C , 22-H ) :   0.2252 B( 18-H , 19-C ) :   0.1607
B( 19-C , 21-H ) :   0.7790 B( 19-C , 22-H ) :   0.7018 B( 19-C , 23-C ) :   1.2339
B( 19-C , 24-H ) :   0.1277 B( 19-C , 25-H ) :   0.1552 B( 19-C , 26-F ) :   0.1049
B( 21-H , 23-C ) :   0.1663 B( 22-H , 23-C ) :   0.1708 B( 23-C , 24-H ) :   0.8228
B( 23-C , 25-H ) :   0.8758 B( 23-C , 26-F ) :   0.6200 B( 24-H , 26-F ) :   0.1053
B( 26-F , 35-H ) :   0.1913 B( 27-H , 28-H ) :  -0.1191 B( 27-H , 34-H ) :   0.1956
B( 29-C , 30-C ) :   1.6225 B( 29-C , 31-N ) :   0.8400 B( 29-C , 34-H ) :  -0.6648
B( 29-C , 35-H ) :   0.2559 B( 29-C , 36-H ) :   0.4341 B( 30-C , 31-N ) :   0.2882
B( 30-C , 35-H ) :   0.3853 B( 30-C , 36-H ) :   0.4366 B( 31-N , 32-H ) :   0.9837
B( 31-N , 33-H ) :   1.2082 B( 32-H , 33-H ) :  -0.1487 B( 34-H , 35-H ) :  -0.1182
B( 35-H , 36-H ) :   0.2477

Dispersion correction           -0.040180185
FINAL SINGLE POINT ENERGY      -641.082467398647

DIPOLE MOMENT
-------------
                                X             Y             Z
Electronic contribution:     -1.28672      -3.14887       9.46671
Nuclear contribution   :      1.09892       3.58083     -10.64472
                        -----------------------------------------
Total Dipole Moment    :     -0.18780       0.43197      -1.17801
                        -----------------------------------------
Magnitude (a.u.)       :      1.26869
Magnitude (Debye)      :      3.22475

Rotational constants in cm-1:     0.026768     0.016312     0.010954
Rotational constants in MHz :   802.489946   489.033275   328.388904

                             ****ORCA TERMINATED NORMALLY****
TOTAL RUN TIME: 0 days 0 hours 0 minutes 49 seconds 327 msec
