                         Program Version 5.0.0 -  RELEASE  -
|  1> !PBE D3BJ RIJCOSX def2-SVPD def2/J TightSCF xyzfile
|  2>
|  3> *xyzfile 0 1 D3.xyz
|  4>
|  5> %MaxCore 64000
|  6>
|  7> %pal nprocs 4
|  8> end
|  9>
| 10> %scf
| 11>   MaxIter 150
| 12> end
| 13>
| 14>
| 15>                          ****END OF INPUT****

CARTESIAN COORDINATES (ANGSTROEM)
---------------------------------
  C      3.488276    1.600919   -1.522040
  C      4.342970    1.313419   -2.756826
  N      2.810285    0.428783   -1.014196
  H      5.132033    0.604994   -2.484466
  C      3.535896    0.749253   -3.924604
  H      4.841247    2.242136   -3.054083
  H      2.991617   -0.132199   -3.574137
  H      4.225505    0.392784   -4.695962
  C      2.564776    1.750890   -4.544523
  H      1.918749    2.171679   -3.769419
  C      1.686235    1.161657   -5.650111
  H      3.132494    2.594775   -4.951604
  C      0.839616   -0.037582   -5.220473
  H      2.323886    0.866395   -6.490796
  H      1.029518    1.951850   -6.029329
  C     -0.151019    0.254955   -4.094256
  H      1.499442   -0.857141   -4.922958
  H      0.290097   -0.410143   -6.091131
  H      0.328265    0.833022   -3.299125
  C     -0.721843   -0.999513   -3.439309
  H     -0.957367    0.884951   -4.485450
  H     -1.083403   -1.697555   -4.205656
  H     -1.581056   -0.723848   -2.820490
  C      0.287250   -1.711771   -2.527405
  H      1.131780   -2.067380   -3.159396
  H     -0.204137   -2.637326   -2.170480
  F      0.710505   -0.927506   -1.481767
  H      2.714548    2.331455   -1.760302
  H      4.090991    2.063151   -0.733382
  C      3.290978   -0.418021   -0.129083
  N      2.517536   -1.432017    0.239360
  C      4.535490   -0.284410    0.395800
  H      5.043627    0.571888    0.222899
  H      4.723346   -0.733273    1.281800
  H      1.934787    0.102305   -1.403788
  H      1.674638   -1.505616   -0.316095
  H      2.928503   -2.218502    0.725494

 Total Charge           Charge          ....    0
 Multiplicity           Mult            ....    1
 Number of Electrons    NEL             ....  112
 Basis Dimension        Dim             ....  467

ORBITAL ENERGIES
----------------

  NO   OCC          E(Eh)            E(eV)
   0   2.0000     -24.321816      -661.8303
   1   2.0000     -13.980584      -380.4310
   2   2.0000     -13.973883      -380.2487
   3   2.0000     -10.001336      -272.1502
   4   2.0000      -9.922586      -270.0073
   5   2.0000      -9.915908      -269.8256
   6   2.0000      -9.914238      -269.7801
   7   2.0000      -9.908595      -269.6266
   8   2.0000      -9.902537      -269.4617
   9   2.0000      -9.897286      -269.3189
  10   2.0000      -9.891949      -269.1736
  11   2.0000      -9.888107      -269.0691
  12   2.0000      -9.881935      -268.9011
  13   2.0000      -9.791282      -266.4343
  14   2.0000      -1.147608       -31.2280
  15   2.0000      -0.867935       -23.6177
  16   2.0000      -0.784777       -21.3549
  17   2.0000      -0.753970       -20.5166
  18   2.0000      -0.725442       -19.7403
  19   2.0000      -0.693905       -18.8821
  20   2.0000      -0.655234       -17.8298
  21   2.0000      -0.626105       -17.0372
  22   2.0000      -0.615291       -16.7429
  23   2.0000      -0.587445       -15.9852
  24   2.0000      -0.558615       -15.2007
  25   2.0000      -0.534086       -14.5332
  26   2.0000      -0.517414       -14.0795
  27   2.0000      -0.502348       -13.6696
  28   2.0000      -0.497881       -13.5480
  29   2.0000      -0.472454       -12.8561
  30   2.0000      -0.467710       -12.7270
  31   2.0000      -0.457997       -12.4627
  32   2.0000      -0.442697       -12.0464
  33   2.0000      -0.427159       -11.6236
  34   2.0000      -0.415000       -11.2927
  35   2.0000      -0.408353       -11.1119
  36   2.0000      -0.395238       -10.7550
  37   2.0000      -0.390319       -10.6211
  38   2.0000      -0.382760       -10.4154
  39   2.0000      -0.366883        -9.9834
  40   2.0000      -0.355671        -9.6783
  41   2.0000      -0.341737        -9.2991
  42   2.0000      -0.336509        -9.1569
  43   2.0000      -0.328961        -8.9515
  44   2.0000      -0.326404        -8.8819
  45   2.0000      -0.318429        -8.6649
  46   2.0000      -0.310060        -8.4372
  47   2.0000      -0.305158        -8.3038
  48   2.0000      -0.298948        -8.1348
  49   2.0000      -0.295623        -8.0443
  50   2.0000      -0.291164        -7.9230
  51   2.0000      -0.278832        -7.5874
  52   2.0000      -0.276579        -7.5261
  53   2.0000      -0.270475        -7.3600
  54   2.0000      -0.191875        -5.2212
  55   2.0000      -0.118019        -3.2114
  56   0.0000      -0.012164        -0.3310
  57   0.0000      -0.001740        -0.0473
  58   0.0000       0.008771         0.2387
  59   0.0000       0.010665         0.2902
  60   0.0000       0.019919         0.5420

MULLIKEN ATOMIC CHARGES
-----------------------
   0 C :    1.158517
   1 C :    0.325815
   2 N :    0.308633
   3 H :   -0.082389
   4 C :    0.304766
   5 H :   -0.127863
   6 H :   -0.346559
   7 H :   -0.147459
   8 C :   -0.095196
   9 H :    0.080094
  10 C :    0.648758
  11 H :   -0.233937
  12 C :   -0.014804
  13 H :   -0.027653
  14 H :   -0.142974
  15 C :    0.191685
  16 H :   -0.007988
  17 H :   -0.249129
  18 H :   -0.285059
  19 C :    0.287673
  20 H :   -0.112733
  21 H :   -0.059263
  22 H :   -0.055226
  23 C :    0.870400
  24 H :   -0.102133
  25 H :   -0.241397
  26 F :   -0.668706
  27 H :   -0.324923
  28 H :   -0.205608
  29 C :    0.610466
  30 N :    0.445838
  31 C :    0.572398
  32 H :   -0.019781
  33 H :   -0.658321
  34 H :   -1.101626
  35 H :   -0.330381
  36 H :   -0.163932
Sum of atomic charges:    0.0000000

LOEWDIN ATOMIC CHARGES
----------------------
   0 C :    0.063514
   1 C :   -0.013604
   2 N :    0.017380
   3 H :    0.022626
   4 C :   -0.033681
   5 H :    0.023318
   6 H :   -0.003386
   7 H :    0.028573
   8 C :   -0.037186
   9 H :   -0.001859
  10 C :   -0.030128
  11 H :    0.028205
  12 C :   -0.035412
  13 H :    0.025144
  14 H :    0.023889
  15 C :   -0.026109
  16 H :   -0.001216
  17 H :    0.026221
  18 H :    0.005886
  19 C :   -0.010835
  20 H :    0.032698
  21 H :    0.039307
  22 H :    0.030396
  23 C :    0.150303
  24 H :    0.035753
  25 H :    0.041042
  26 F :   -0.185449
  27 H :    0.009736
  28 H :    0.017764
  29 C :   -0.231643
  30 N :    0.217480
  31 C :    0.155573
  32 H :   -0.131689
  33 H :   -0.112870
  34 H :   -0.060251
  35 H :   -0.087018
  36 H :    0.007527

  Mayer bond orders larger than 0.100000
B(  0-C ,  1-C ) :   1.0474 B(  0-C ,  2-N ) :   1.0367 B(  0-C ,  4-C ) :   0.1061
B(  0-C ,  5-H ) :   0.1117 B(  0-C , 27-H ) :   0.6627 B(  0-C , 28-H ) :   0.7768
B(  0-C , 34-H ) :  -0.6774 B(  1-C ,  3-H ) :   0.7437 B(  1-C ,  4-C ) :   1.2220
B(  1-C ,  5-H ) :   0.8807 B(  1-C ,  6-H ) :   0.1439 B(  1-C , 27-H ) :   0.1088
B(  1-C , 28-H ) :   0.1182 B(  2-N , 27-H ) :   0.2191 B(  2-N , 29-C ) :   0.9672
B(  2-N , 31-C ) :   0.5508 B(  2-N , 33-H ) :   0.1443 B(  2-N , 34-H ) :   0.5945
B(  3-H ,  4-C ) :   0.2186 B(  4-C ,  5-H ) :   0.1007 B(  4-C ,  6-H ) :   0.8219
B(  4-C ,  7-H ) :   0.7453 B(  4-C ,  8-C ) :   1.2009 B(  4-C , 11-H ) :   0.1785
B(  6-H ,  8-C ) :   0.1771 B(  7-H ,  8-C ) :   0.1636 B(  8-C ,  9-H ) :   0.8090
B(  8-C , 10-C ) :   1.1858 B(  8-C , 11-H ) :   0.8991 B(  8-C , 12-C ) :   0.1358
B(  8-C , 13-H ) :   0.1295 B(  8-C , 14-H ) :   0.3169 B( 10-C , 12-C ) :   1.2112
B( 10-C , 13-H ) :   0.6683 B( 10-C , 14-H ) :   0.6412 B( 10-C , 17-H ) :   0.1094
B( 12-C , 13-H ) :   0.2487 B( 12-C , 14-H ) :   0.1326 B( 12-C , 15-C ) :   1.2200
B( 12-C , 16-H ) :   0.8494 B( 12-C , 17-H ) :   0.8527 B( 12-C , 18-H ) :   0.1688
B( 12-C , 20-H ) :   0.2082 B( 13-H , 14-H ) :  -0.1376 B( 15-C , 16-H ) :   0.1173
B( 15-C , 17-H ) :   0.2526 B( 15-C , 18-H ) :   0.8454 B( 15-C , 19-C ) :   1.1990
B( 15-C , 20-H ) :   0.7970 B( 15-C , 21-H ) :   0.1136 B( 15-C , 22-H ) :   0.2250
B( 18-H , 19-C ) :   0.1582 B( 19-C , 21-H ) :   0.7707 B( 19-C , 22-H ) :   0.7009
B( 19-C , 23-C ) :   1.2339 B( 19-C , 24-H ) :   0.1251 B( 19-C , 25-H ) :   0.1549
B( 19-C , 26-F ) :   0.1169 B( 21-H , 23-C ) :   0.1735 B( 22-H , 23-C ) :   0.1575
B( 23-C , 24-H ) :   0.8173 B( 23-C , 25-H ) :   0.8628 B( 23-C , 26-F ) :   0.5880
B( 24-H , 26-F ) :   0.1214 B( 26-F , 34-H ) :   0.1750 B( 26-F , 35-H ) :   0.2085
B( 27-H , 28-H ) :  -0.1554 B( 27-H , 34-H ) :   0.1202 B( 29-C , 30-N ) :   0.8349
B( 29-C , 31-C ) :   1.5632 B( 29-C , 32-H ) :   0.3954 B( 29-C , 33-H ) :   0.3859
B( 29-C , 34-H ) :  -0.6860 B( 30-N , 31-C ) :   0.3036 B( 30-N , 35-H ) :   0.9296
B( 30-N , 36-H ) :   1.2090 B( 31-C , 32-H ) :   0.5533 B( 31-C , 33-H ) :   0.5798
B( 31-C , 34-H ) :  -0.1106 B( 35-H , 36-H ) :  -0.1546

Dispersion correction           -0.040171719
FINAL SINGLE POINT ENERGY      -641.094856145856

DIPOLE MOMENT
-------------
                                X             Y             Z
Electronic contribution:     -3.21897      -4.29692       9.11217
Nuclear contribution   :      1.49917       3.80845     -10.61369
                        -----------------------------------------
Total Dipole Moment    :     -1.71980      -0.48846      -1.50152
                        -----------------------------------------
Magnitude (a.u.)       :      2.33471
Magnitude (Debye)      :      5.93437

Rotational constants in cm-1:     0.026547     0.016542     0.011018
Rotational constants in MHz :   795.873737   495.912559   330.323979

                             ****ORCA TERMINATED NORMALLY****
TOTAL RUN TIME: 0 days 0 hours 0 minutes 49 seconds 718 msec
