                         Program Version 5.0.0 -  RELEASE  -
|  1> !B3LYP D3BJ RIJCOSX def2-SVPD def2/J TightSCF
|  2> *xyz -1 1
|  3> C         -0.77894        0.17197        1.80496
|  4> C         -0.60249       -0.63071        0.49224
|  5> H          0.31389       -1.24035        0.60350
|  6> H         -0.36383        0.11332       -0.30117
|  7> O         -1.71206       -1.37684        0.20253
|  8> H         -1.65864        0.77733        1.73736
|  9> H          0.07466        0.79896        1.95712
| 10> H         -0.87474       -0.50584        2.62734
| 11> *
| 12> %MaxCore 64000
| 13>
| 14> %pal nprocs 4
| 15> end
| 16>
| 17> %scf
| 18>   MaxIter 150
| 19> end
| 20>
| 21>
| 22>                          ****END OF INPUT****

CARTESIAN COORDINATES (ANGSTROEM)
---------------------------------
  C     -0.778940    0.171970    1.804960
  C     -0.602490   -0.630710    0.492240
  H      0.313890   -1.240350    0.603500
  H     -0.363830    0.113320   -0.301170
  O     -1.712060   -1.376840    0.202530
  H     -1.658640    0.777330    1.737360
  H      0.074660    0.798960    1.957120
  H     -0.874740   -0.505840    2.627340

 Total Charge           Charge          ....   -1
 Multiplicity           Mult            ....    1
 Number of Electrons    NEL             ....   26
 Basis Dimension        Dim             ....  103

ORBITAL ENERGIES
----------------

  NO   OCC          E(Eh)            E(eV)
   0   2.0000     -18.809524      -511.8332
   1   2.0000      -9.999233      -272.0930
   2   2.0000      -9.974948      -271.4321
   3   2.0000      -0.670621       -18.2485
   4   2.0000      -0.516647       -14.0587
   5   2.0000      -0.367322        -9.9953
   6   2.0000      -0.249450        -6.7879
   7   2.0000      -0.225967        -6.1489
   8   2.0000      -0.172874        -4.7041
   9   2.0000      -0.158781        -4.3207
  10   2.0000      -0.113955        -3.1009
  11   2.0000       0.029354         0.7988
  12   2.0000       0.030438         0.8283
  13   0.0000       0.178310         4.8521
  14   0.0000       0.208298         5.6681
  15   0.0000       0.241794         6.5795
  16   0.0000       0.254644         6.9292
  17   0.0000       0.273540         7.4434

MULLIKEN ATOMIC CHARGES
-----------------------
   0 C :    0.476844
   1 C :    0.312984
   2 H :   -0.241884
   3 H :   -0.215586
   4 O :   -0.888507
   5 H :   -0.159579
   6 H :   -0.127761
   7 H :   -0.156511
Sum of atomic charges:   -1.0000000

LOEWDIN ATOMIC CHARGES
----------------------
   0 C :    0.071458
   1 C :   -0.249766
   2 H :   -0.040658
   3 H :   -0.038884
   4 O :   -0.575581
   5 H :   -0.047869
   6 H :   -0.068913
   7 H :   -0.049787

  Mayer bond orders larger than 0.100000
B(  0-C ,  1-C ) :   1.1562 B(  0-C ,  2-H ) :   0.1460 B(  0-C ,  3-H ) :   0.1499
B(  0-C ,  4-O ) :   0.2049 B(  0-C ,  5-H ) :   0.8804 B(  0-C ,  6-H ) :   0.8915
B(  0-C ,  7-H ) :   0.8832 B(  1-C ,  2-H ) :   0.9500 B(  1-C ,  3-H ) :   0.9425
B(  1-C ,  4-O ) :   1.1301 B(  1-C ,  5-H ) :   0.1980 B(  1-C ,  6-H ) :   0.1423
B(  1-C ,  7-H ) :   0.1846

Dispersion correction           -0.006236048
FINAL SINGLE POINT ENERGY      -154.236716322865

DIPOLE MOMENT
-------------
                                X             Y             Z
Electronic contribution:     -1.60135      -1.83877      -1.50333
Nuclear contribution   :      2.47835       2.80827       2.30058
                        -----------------------------------------
Total Dipole Moment    :      0.87700       0.96950       0.79725
                        -----------------------------------------
Magnitude (a.u.)       :      1.53123
Magnitude (Debye)      :      3.89208

Rotational constants in cm-1:     1.255775     0.327783     0.287473
Rotational constants in MHz : 37647.186859  9826.677683  8618.224821

                             ****ORCA TERMINATED NORMALLY****
TOTAL RUN TIME: 0 days 0 hours 0 minutes 9 seconds 544 msec
