                         Program Version 5.0.0 -  RELEASE  -
|  1> !B3LYP D3BJ RIJCOSX def2-SVPD def2/J TightSCF
|  2> *xyz 1 1
|  3> C         -2.12050        0.88520        1.78951
|  4> C         -0.77894        0.17197        1.80496
|  5> H         -2.32419        1.47265        2.68608
|  6> H         -2.18770        1.54127        0.91948
|  7> N         -3.17690       -0.15948        1.61070
|  8> H         -4.06474        0.23127        1.28675
|  9> H         -3.34407       -0.67151        2.48493
| 10> H         -2.71686       -0.78189        0.93588
| 11> H         -0.65708       -0.37837        0.89547
| 12> H         -0.74207       -0.50050        2.63642
| 13> H          0.00707        0.89251        1.89389
| 14> *
| 15> %MaxCore 64000
| 16>
| 17> %pal nprocs 4
| 18> end
| 19>
| 20> %scf
| 21>   MaxIter 150
| 22> end
| 23>
| 24>
| 25>                          ****END OF INPUT****

CARTESIAN COORDINATES (ANGSTROEM)
---------------------------------
  C     -2.120500    0.885200    1.789510
  C     -0.778940    0.171970    1.804960
  H     -2.324190    1.472650    2.686080
  H     -2.187700    1.541270    0.919480
  N     -3.176900   -0.159480    1.610700
  H     -4.064740    0.231270    1.286750
  H     -3.344070   -0.671510    2.484930
  H     -2.716860   -0.781890    0.935880
  H     -0.657080   -0.378370    0.895470
  H     -0.742070   -0.500500    2.636420
  H      0.007070    0.892510    1.893890

 Total Charge           Charge          ....    1
 Multiplicity           Mult            ....    1
 Number of Electrons    NEL             ....   26
 Basis Dimension        Dim             ....  124

ORBITAL ENERGIES
----------------

  NO   OCC          E(Eh)            E(eV)
   0   2.0000     -14.663760      -399.0212
   1   2.0000     -10.440124      -284.0902
   2   2.0000     -10.365474      -282.0589
   3   2.0000      -1.208728       -32.8912
   4   2.0000      -0.962158       -26.1817
   5   2.0000      -0.842401       -22.9229
   6   2.0000      -0.805730       -21.9250
   7   2.0000      -0.794685       -21.6245
   8   2.0000      -0.693218       -18.8634
   9   2.0000      -0.645539       -17.5660
  10   2.0000      -0.586766       -15.9667
  11   2.0000      -0.579612       -15.7721
  12   2.0000      -0.558590       -15.2000
  13   0.0000      -0.195307        -5.3146
  14   0.0000      -0.136449        -3.7130
  15   0.0000      -0.135172        -3.6782
  16   0.0000      -0.124702        -3.3933
  17   0.0000      -0.094764        -2.5786

MULLIKEN ATOMIC CHARGES
-----------------------
   0 C :    0.402742
   1 C :    0.786348
   2 H :   -0.203222
   3 H :   -0.114633
   4 N :   -0.642846
   5 H :    0.286526
   6 H :    0.333751
   7 H :    0.416712
   8 H :   -0.086036
   9 H :   -0.030177
  10 H :   -0.149165
Sum of atomic charges:    1.0000000

LOEWDIN ATOMIC CHARGES
----------------------
   0 C :    0.063939
   1 C :    0.178100
   2 H :    0.051830
   3 H :    0.052536
   4 N :    0.337112
   5 H :    0.105173
   6 H :    0.108413
   7 H :    0.087247
   8 H :   -0.001665
   9 H :    0.002696
  10 H :    0.014620

  Mayer bond orders larger than 0.100000
B(  0-C ,  1-C ) :   1.2815 B(  0-C ,  2-H ) :   0.9244 B(  0-C ,  3-H ) :   0.8709
B(  0-C ,  4-N ) :   0.8333 B(  0-C ,  8-H ) :   0.1577 B(  0-C ,  9-H ) :   0.1397
B(  0-C , 10-H ) :   0.1959 B(  1-C ,  8-H ) :   0.8197 B(  1-C ,  9-H ) :   0.7964
B(  1-C , 10-H ) :   0.8288 B(  2-H ,  4-N ) :   0.1048 B(  4-N ,  5-H ) :   0.8414
B(  4-N ,  6-H ) :   0.8327 B(  4-N ,  7-H ) :   0.6788

Dispersion correction           -0.010176617
FINAL SINGLE POINT ENERGY      -135.356922535010

DIPOLE MOMENT
-------------
                                X             Y             Z
Electronic contribution:     -1.81996      -0.15300      -0.05771
Nuclear contribution   :      0.50278      -0.30871      -0.06979
                        -----------------------------------------
Total Dipole Moment    :     -1.31718      -0.46171      -0.12750
                        -----------------------------------------
Magnitude (a.u.)       :      1.40157
Magnitude (Debye)      :      3.56250

Rotational constants in cm-1:     0.963746     0.295157     0.256910
Rotational constants in MHz : 28892.375247  8848.576767  7701.963879

                             ****ORCA TERMINATED NORMALLY****
TOTAL RUN TIME: 0 days 0 hours 0 minutes 11 seconds 725 msec
