                         Program Version 5.0.0 -  RELEASE  -
|  1> !B3LYP D3BJ RIJCOSX def2-SVPD def2/J TightSCF xyzfile
|  2>
|  3> *xyzfile 0 1 B.xyz
|  4>
|  5> %MaxCore 64000
|  6>
|  7> %pal nprocs 4
|  8> end
|  9>
| 10> %scf
| 11>   MaxIter 150
| 12> end
| 13>
| 14>
| 15>                          ****END OF INPUT****

CARTESIAN COORDINATES (ANGSTROEM)
---------------------------------
  C     -2.120502    0.885196    1.789506
  C     -0.778939    0.171966    1.804965
  H     -2.324193    1.472649    2.686078
  H     -2.187698    1.541272    0.919482
  N     -3.176900   -0.159484    1.610700
  H      0.015695    0.910767    1.939153
  H     -0.743553   -0.506827    2.665420
  C     -0.602493   -0.630712    0.492240
  H      0.313894   -1.240346    0.603498
  H     -0.363829    0.113322   -0.301169
  O     -1.712061   -1.376836    0.202535
  H     -4.064736    0.231272    1.286754
  H     -3.344073   -0.671511    2.484928
  H     -2.716861   -0.781886    0.935880

 Total Charge           Charge          ....    0
 Multiplicity           Mult            ....    1
 Number of Electrons    NEL             ....   42
 Basis Dimension        Dim             ....  175

ORBITAL ENERGIES
----------------

  NO   OCC          E(Eh)            E(eV)
   0   2.0000     -19.012962      -517.3690
   1   2.0000     -14.410721      -392.1357
   2   2.0000     -10.248261      -278.8694
   3   2.0000     -10.182612      -277.0830
   4   2.0000     -10.178245      -276.9641
   5   2.0000      -0.984549       -26.7909
   6   2.0000      -0.885426       -24.0937
   7   2.0000      -0.765675       -20.8351
   8   2.0000      -0.650741       -17.7076
   9   2.0000      -0.592648       -16.1268
  10   2.0000      -0.573676       -15.6105
  11   2.0000      -0.542936       -14.7741
  12   2.0000      -0.488018       -13.2797
  13   2.0000      -0.439114       -11.9489
  14   2.0000      -0.405994       -11.0477
  15   2.0000      -0.404158       -10.9977
  16   2.0000      -0.361720        -9.8429
  17   2.0000      -0.342736        -9.3263
  18   2.0000      -0.319189        -8.6856
  19   2.0000      -0.186940        -5.0869
  20   2.0000      -0.178093        -4.8461
  21   0.0000      -0.015295        -0.4162
  22   0.0000       0.026102         0.7103
  23   0.0000       0.027606         0.7512
  24   0.0000       0.053128         1.4457
  25   0.0000       0.075042         2.0420

MULLIKEN ATOMIC CHARGES
-----------------------
   0 C :    0.768435
   1 C :    0.178653
   2 H :   -0.350375
   3 H :   -0.097551
   4 N :   -0.307274
   5 H :   -0.205217
   6 H :   -0.070123
   7 C :    0.747776
   8 H :   -0.249744
   9 H :   -0.101519
  10 O :   -0.774120
  11 H :    0.202387
  12 H :    0.330036
  13 H :   -0.071362
Sum of atomic charges:    0.0000000

LOEWDIN ATOMIC CHARGES
----------------------
   0 C :    0.079845
   1 C :   -0.014215
   2 H :    0.019596
   3 H :    0.039046
   4 N :    0.309197
   5 H :    0.018801
   6 H :    0.020540
   7 C :   -0.066742
   8 H :    0.005459
   9 H :    0.005832
  10 O :   -0.390549
  11 H :    0.075623
  12 H :    0.082968
  13 H :   -0.185402

  Mayer bond orders larger than 0.100000
B(  0-C ,  1-C ) :   1.1545 B(  0-C ,  2-H ) :   0.8490 B(  0-C ,  3-H ) :   0.8109
B(  0-C ,  4-N ) :   0.8516 B(  0-C ,  5-H ) :   0.1182 B(  1-C ,  5-H ) :   0.8857
B(  1-C ,  6-H ) :   0.8534 B(  1-C ,  7-C ) :   1.1275 B(  1-C ,  8-H ) :   0.1505
B(  1-C ,  9-H ) :   0.1273 B(  2-H ,  4-N ) :   0.1542 B(  4-N , 11-H ) :   0.9028
B(  4-N , 12-H ) :   0.8197 B(  4-N , 13-H ) :   1.0104 B(  5-H ,  7-C ) :   0.1264
B(  7-C ,  8-H ) :   0.8680 B(  7-C ,  9-H ) :   0.8747 B(  7-C , 10-O ) :   1.0339
B( 10-O , 13-H ) :   0.5336

Dispersion correction           -0.017123868
FINAL SINGLE POINT ENERGY      -249.357374155604

DIPOLE MOMENT
-------------
                                X             Y             Z
Electronic contribution:     -1.49485      -1.43898      -0.78970
Nuclear contribution   :      0.08650       3.01678       2.47433
                        -----------------------------------------
Total Dipole Moment    :     -1.40835       1.57780       1.68464
                        -----------------------------------------
Magnitude (a.u.)       :      2.70387
Magnitude (Debye)      :      6.87268

Rotational constants in cm-1:     0.238796     0.156489     0.106146
Rotational constants in MHz :  7158.916762  4691.413084  3182.185740

                             ****ORCA TERMINATED NORMALLY****
TOTAL RUN TIME: 0 days 0 hours 0 minutes 21 seconds 520 msec
