                         Program Version 5.0.0 -  RELEASE  -
|  1> !B3LYP D3BJ RIJCOSX def2-SVPD def2/J TightSCF
|  2> *xyz 0 1
|  3> C         -0.77894        0.17197        1.80496
|  4> C         -0.60249       -0.63071        0.49224
|  5> H          0.31389       -1.24035        0.60350
|  6> H         -0.36383        0.11332       -0.30117
|  7> F         -1.71206       -1.37684        0.20253
|  8> H         -1.65864        0.77733        1.73736
|  9> H          0.07466        0.79896        1.95712
| 10> H         -0.87474       -0.50584        2.62734
| 11> *
| 12> %MaxCore 64000
| 13>
| 14> %pal nprocs 4
| 15> end
| 16>
| 17> %scf
| 18>   MaxIter 150
| 19> end
| 20>
| 21>
| 22>                          ****END OF INPUT****

CARTESIAN COORDINATES (ANGSTROEM)
---------------------------------
  C     -0.778940    0.171970    1.804960
  C     -0.602490   -0.630710    0.492240
  H      0.313890   -1.240350    0.603500
  H     -0.363830    0.113320   -0.301170
  F     -1.712060   -1.376840    0.202530
  H     -1.658640    0.777330    1.737360
  H      0.074660    0.798960    1.957120
  H     -0.874740   -0.505840    2.627340

 Total Charge           Charge          ....    0
 Multiplicity           Mult            ....    1
 Number of Electrons    NEL             ....   26
 Basis Dimension        Dim             ....  103

ORBITAL ENERGIES
----------------

  NO   OCC          E(Eh)            E(eV)
   0   2.0000     -24.687208      -671.7731
   1   2.0000     -10.266119      -279.3553
   2   2.0000     -10.181248      -277.0458
   3   2.0000      -1.185849       -32.2686
   4   2.0000      -0.756512       -20.5857
   5   2.0000      -0.627994       -17.0886
   6   2.0000      -0.512744       -13.9525
   7   2.0000      -0.498088       -13.5537
   8   2.0000      -0.461338       -12.5536
   9   2.0000      -0.407396       -11.0858
  10   2.0000      -0.402981       -10.9657
  11   2.0000      -0.338542        -9.2122
  12   2.0000      -0.335630        -9.1330
  13   0.0000       0.020911         0.5690
  14   0.0000       0.052131         1.4185
  15   0.0000       0.072273         1.9666
  16   0.0000       0.079464         2.1623
  17   0.0000       0.105661         2.8752

MULLIKEN ATOMIC CHARGES
-----------------------
   0 C :    0.545814
   1 C :    0.571032
   2 H :   -0.149151
   3 H :   -0.123703
   4 F :   -0.443196
   5 H :   -0.142565
   6 H :   -0.120224
   7 H :   -0.138007
Sum of atomic charges:   -0.0000000

LOEWDIN ATOMIC CHARGES
----------------------
   0 C :    0.146870
   1 C :    0.071862
   2 H :    0.025503
   3 H :    0.028472
   4 F :   -0.215377
   5 H :   -0.018689
   6 H :   -0.018622
   7 H :   -0.020020

  Mayer bond orders larger than 0.100000
B(  0-C ,  1-C ) :   1.3179 B(  0-C ,  5-H ) :   0.8588 B(  0-C ,  6-H ) :   0.8326
B(  0-C ,  7-H ) :   0.8625 B(  1-C ,  2-H ) :   0.9148 B(  1-C ,  3-H ) :   0.9099
B(  1-C ,  4-F ) :   0.7516 B(  1-C ,  5-H ) :   0.1571 B(  1-C ,  6-H ) :   0.1306
B(  1-C ,  7-H ) :   0.1462

Dispersion correction           -0.005741384
FINAL SINGLE POINT ENERGY      -178.847661181264

DIPOLE MOMENT
-------------
                                X             Y             Z
Electronic contribution:     -2.71943      -3.27950      -2.81961
Nuclear contribution   :      3.27800       3.70743       3.04146
                        -----------------------------------------
Total Dipole Moment    :      0.55858       0.42793       0.22185
                        -----------------------------------------
Magnitude (a.u.)       :      0.73780
Magnitude (Debye)      :      1.87534

Rotational constants in cm-1:     1.234437     0.305084     0.268865
Rotational constants in MHz : 37007.496448  9146.194083  8060.380630

                             ****ORCA TERMINATED NORMALLY****
TOTAL RUN TIME: 0 days 0 hours 0 minutes 8 seconds 961 msec
