                         Program Version 5.0.0 -  RELEASE  -
|  1> !B3LYP D3BJ RIJCOSX def2-SVPD def2/J TightSCF
|  2> *xyz 0 1
|  3> C         -2.12050        0.88520        1.78951
|  4> C         -0.77894        0.17197        1.80496
|  5> H         -2.32419        1.47265        2.68608
|  6> H         -2.18770        1.54127        0.91948
|  7> C         -3.17690       -0.15948        1.61070
|  8> H         -4.06474        0.23127        1.28675
|  9> H         -3.34407       -0.67151        2.48493
| 10> H         -2.71686       -0.78189        0.93588
| 11> H         -0.65708       -0.37837        0.89547
| 12> H         -0.74207       -0.50050        2.63642
| 13> H          0.00707        0.89251        1.89389
| 14> *
| 15> %MaxCore 64000
| 16>
| 17> %pal nprocs 4
| 18> end
| 19>
| 20> %scf
| 21>   MaxIter 150
| 22> end
| 23>
| 24>
| 25>                          ****END OF INPUT****

CARTESIAN COORDINATES (ANGSTROEM)
---------------------------------
  C     -2.120500    0.885200    1.789510
  C     -0.778940    0.171970    1.804960
  H     -2.324190    1.472650    2.686080
  H     -2.187700    1.541270    0.919480
  C     -3.176900   -0.159480    1.610700
  H     -4.064740    0.231270    1.286750
  H     -3.344070   -0.671510    2.484930
  H     -2.716860   -0.781890    0.935880
  H     -0.657080   -0.378370    0.895470
  H     -0.742070   -0.500500    2.636420
  H      0.007070    0.892510    1.893890

 Total Charge           Charge          ....    0
 Multiplicity           Mult            ....    1
 Number of Electrons    NEL             ....   26
 Basis Dimension        Dim             ....  124

ORBITAL ENERGIES
----------------

  NO   OCC          E(Eh)            E(eV)
   0   2.0000     -10.169940      -276.7381
   1   2.0000     -10.162981      -276.5488
   2   2.0000     -10.144429      -276.0440
   3   2.0000      -0.788841       -21.4655
   4   2.0000      -0.679383       -18.4870
   5   2.0000      -0.580266       -15.7898
   6   2.0000      -0.471248       -12.8233
   7   2.0000      -0.452800       -12.3213
   8   2.0000      -0.400138       -10.8883
   9   2.0000      -0.385292       -10.4843
  10   2.0000      -0.341482        -9.2922
  11   2.0000      -0.332797        -9.0559
  12   2.0000      -0.328977        -8.9519
  13   0.0000       0.026226         0.7136
  14   0.0000       0.054221         1.4754
  15   0.0000       0.060001         1.6327
  16   0.0000       0.081984         2.2309
  17   0.0000       0.101074         2.7504

MULLIKEN ATOMIC CHARGES
-----------------------
   0 C :   -0.349172
   1 C :    0.787889
   2 H :   -0.244408
   3 H :   -0.122703
   4 C :    1.207680
   5 H :   -0.365645
   6 H :   -0.241269
   7 H :   -0.256629
   8 H :   -0.086376
   9 H :   -0.097654
  10 H :   -0.231713
Sum of atomic charges:    0.0000000

LOEWDIN ATOMIC CHARGES
----------------------
   0 C :   -0.108670
   1 C :    0.117694
   2 H :    0.016801
   3 H :    0.019249
   4 C :    0.126410
   5 H :   -0.036999
   6 H :   -0.030447
   7 H :   -0.044499
   8 H :   -0.019611
   9 H :   -0.014572
  10 H :   -0.025357

  Mayer bond orders larger than 0.100000
B(  0-C ,  1-C ) :   1.2420 B(  0-C ,  2-H ) :   0.9545 B(  0-C ,  3-H ) :   0.8724
B(  0-C ,  4-C ) :   1.2133 B(  0-C ,  5-H ) :   0.2037 B(  0-C ,  6-H ) :   0.2308
B(  0-C ,  7-H ) :   0.2869 B(  0-C ,  8-H ) :   0.1644 B(  0-C ,  9-H ) :   0.1743
B(  0-C , 10-H ) :   0.1955 B(  1-C ,  8-H ) :   0.8199 B(  1-C ,  9-H ) :   0.7929
B(  1-C , 10-H ) :   0.8112 B(  4-C ,  5-H ) :   0.6746 B(  4-C ,  6-H ) :   0.6381
B(  4-C ,  7-H ) :   0.6723 B(  6-H ,  7-H ) :   0.1007

Dispersion correction           -0.010251687
FINAL SINGLE POINT ENERGY      -118.958637242639

DIPOLE MOMENT
-------------
                                X             Y             Z
Electronic contribution:     -0.14442       0.47219       0.11273
Nuclear contribution   :      0.13334      -0.45108      -0.10852
                        -----------------------------------------
Total Dipole Moment    :     -0.01108       0.02110       0.00422
                        -----------------------------------------
Magnitude (a.u.)       :      0.02420
Magnitude (Debye)      :      0.06152

Rotational constants in cm-1:     0.972269     0.310387     0.269029
Rotational constants in MHz : 29147.878530  9305.178981  8065.286472

                             ****ORCA TERMINATED NORMALLY****
TOTAL RUN TIME: 0 days 0 hours 0 minutes 13 seconds 67 msec
