                         Program Version 5.0.0 -  RELEASE  -
|  1> !B3LYP D3BJ RIJCOSX def2-SVPD def2/J TightSCF xyzfile
|  2>
|  3> *xyzfile 0 1 D.xyz
|  4>
|  5> %MaxCore 64000
|  6>
|  7> %pal nprocs 4
|  8> end
|  9>
| 10> %scf
| 11>   MaxIter 150
| 12> end
| 13>
| 14>
| 15>                          ****END OF INPUT****

CARTESIAN COORDINATES (ANGSTROEM)
---------------------------------
  C     -2.120502    0.885196    1.789506
  C     -0.778939    0.171966    1.804965
  H     -2.324193    1.472649    2.686078
  H     -2.187698    1.541272    0.919482
  C     -3.176900   -0.159484    1.610700
  H      0.015695    0.910767    1.939153
  H     -0.743553   -0.506827    2.665420
  C     -0.602493   -0.630712    0.492240
  H      0.313894   -1.240346    0.603498
  H     -0.363829    0.113322   -0.301169
  F     -1.712061   -1.376836    0.202535
  H     -4.064736    0.231272    1.286754
  H     -3.344073   -0.671511    2.484928
  H     -2.716861   -0.781886    0.935880

 Total Charge           Charge          ....    0
 Multiplicity           Mult            ....    1
 Number of Electrons    NEL             ....   42
 Basis Dimension        Dim             ....  175

ORBITAL ENERGIES
----------------

  NO   OCC          E(Eh)            E(eV)
   0   2.0000     -24.704237      -672.2365
   1   2.0000     -10.272777      -279.5365
   2   2.0000     -10.188461      -277.2421
   3   2.0000     -10.167982      -276.6849
   4   2.0000     -10.107957      -275.0515
   5   2.0000      -1.218070       -33.1454
   6   2.0000      -0.799650       -21.7596
   7   2.0000      -0.729015       -19.8375
   8   2.0000      -0.632140       -17.2014
   9   2.0000      -0.589401       -16.0384
  10   2.0000      -0.531281       -14.4569
  11   2.0000      -0.528958       -14.3937
  12   2.0000      -0.490283       -13.3413
  13   2.0000      -0.440367       -11.9830
  14   2.0000      -0.414858       -11.2889
  15   2.0000      -0.405670       -11.0388
  16   2.0000      -0.380627       -10.3574
  17   2.0000      -0.348333        -9.4786
  18   2.0000      -0.329628        -8.9696
  19   2.0000      -0.325104        -8.8465
  20   2.0000      -0.277853        -7.5608
  21   0.0000       0.019264         0.5242
  22   0.0000       0.045857         1.2478
  23   0.0000       0.049771         1.3543
  24   0.0000       0.053478         1.4552
  25   0.0000       0.079286         2.1575

MULLIKEN ATOMIC CHARGES
-----------------------
   0 C :   -0.064307
   1 C :    0.180839
   2 H :   -0.369535
   3 H :   -0.074988
   4 C :    2.133934
   5 H :   -0.249045
   6 H :   -0.055014
   7 C :    0.950956
   8 H :   -0.162513
   9 H :   -0.073928
  10 F :   -0.633620
  11 H :   -0.247969
  12 H :   -0.166949
  13 H :   -1.167859
Sum of atomic charges:    0.0000000

LOEWDIN ATOMIC CHARGES
----------------------
   0 C :   -0.054260
   1 C :   -0.011818
   2 H :    0.013854
   3 H :    0.022588
   4 C :    0.154210
   5 H :    0.021517
   6 H :    0.027817
   7 C :    0.161400
   8 H :    0.030526
   9 H :    0.039848
  10 F :   -0.185714
  11 H :   -0.033140
  12 H :   -0.025733
  13 H :   -0.161095

  Mayer bond orders larger than 0.100000
B(  0-C ,  1-C ) :   1.1309 B(  0-C ,  2-H ) :   0.9708 B(  0-C ,  3-H ) :   0.8249
B(  0-C ,  4-C ) :   0.9836 B(  0-C ,  5-H ) :   0.1089 B(  0-C , 11-H ) :   0.2019
B(  0-C , 12-H ) :   0.2722 B(  0-C , 13-H ) :   0.4668 B(  1-C ,  5-H ) :   0.9013
B(  1-C ,  6-H ) :   0.8397 B(  1-C ,  7-C ) :   1.2038 B(  1-C ,  8-H ) :   0.1338
B(  1-C ,  9-H ) :   0.1298 B(  1-C , 10-F ) :   0.1183 B(  2-H ,  3-H ) :  -0.1079
B(  2-H , 13-H ) :   0.1006 B(  3-H ,  4-C ) :   0.1145 B(  4-C , 10-F ) :  -0.1809
B(  4-C , 11-H ) :   0.3877 B(  4-C , 12-H ) :   0.2119 B(  4-C , 13-H ) :  -0.7163
B(  5-H ,  7-C ) :   0.1173 B(  7-C ,  8-H ) :   0.8301 B(  7-C ,  9-H ) :   0.8415
B(  7-C , 10-F ) :   0.6537 B(  9-H , 10-F ) :   0.1005 B( 10-F , 13-H ) :   0.3542
B( 11-H , 12-H ) :  -0.1442 B( 11-H , 13-H ) :   0.2856 B( 12-H , 13-H ) :   0.5148

Dispersion correction           -0.016405813
FINAL SINGLE POINT ENERGY      -257.310793877280

DIPOLE MOMENT
-------------
                                X             Y             Z
Electronic contribution:      0.89964      -4.19421      -3.73467
Nuclear contribution   :     -0.20666       4.43855       3.76066
                        -----------------------------------------
Total Dipole Moment    :      0.69298       0.24434       0.02599
                        -----------------------------------------
Magnitude (a.u.)       :      0.73525
Magnitude (Debye)      :      1.86886

Rotational constants in cm-1:     0.236353     0.155239     0.105045
Rotational constants in MHz :  7085.692869  4653.957069  3149.180346

                             ****ORCA TERMINATED NORMALLY****
TOTAL RUN TIME: 0 days 0 hours 0 minutes 21 seconds 618 msec
