                         Program Version 5.0.0 -  RELEASE  -
|  1> !CAM-B3LYP RIJCOSX def2-SVP def2/J TightSCF
|  2> *xyz -1 1
|  3> C         -0.77455        2.78833       -0.54394
|  4> C          0.69721        3.22791       -0.52513
|  5> O          1.48929        2.37470        0.19919
|  6> H          0.71600        4.26403       -0.13077
|  7> H          1.03615        3.33092       -1.58367
|  8> H         -1.34746        3.48478       -1.11982
|  9> H         -1.15078        2.75876        0.45729
| 10> H         -0.85058        1.81526       -0.98241
| 11> *
| 12>
| 13> %MaxCore 64000
| 14> %pal nprocs 4
| 15> end
| 16>
| 17> %scf
| 18>   MaxIter 150
| 19> end
| 20>
| 21>
| 22>                          ****END OF INPUT****

CARTESIAN COORDINATES (ANGSTROEM)
---------------------------------
  C     -0.774550    2.788330   -0.543940
  C      0.697210    3.227910   -0.525130
  O      1.489290    2.374700    0.199190
  H      0.716000    4.264030   -0.130770
  H      1.036150    3.330920   -1.583670
  H     -1.347460    3.484780   -1.119820
  H     -1.150780    2.758760    0.457290
  H     -0.850580    1.815260   -0.982410

 Total Charge           Charge          ....   -1
 Multiplicity           Mult            ....    1
 Number of Electrons    NEL             ....   26
 Basis Dimension        Dim             ....   67

ORBITAL ENERGIES
----------------

  NO   OCC          E(Eh)            E(eV)
   0   2.0000     -18.813871      -511.9515
   1   2.0000     -10.046482      -273.3787
   2   2.0000     -10.034526      -273.0533
   3   2.0000      -0.704033       -19.1577
   4   2.0000      -0.577934       -15.7264
   5   2.0000      -0.419487       -11.4148
   6   2.0000      -0.301797        -8.2123
   7   2.0000      -0.278185        -7.5698
   8   2.0000      -0.219373        -5.9694
   9   2.0000      -0.200633        -5.4595
  10   2.0000      -0.131242        -3.5713
  11   2.0000       0.016945         0.4611
  12   2.0000       0.019092         0.5195
  13   0.0000       0.294228         8.0063
  14   0.0000       0.339241         9.2312
  15   0.0000       0.353596         9.6218
  16   0.0000       0.361557         9.8385
  17   0.0000       0.406152        11.0520

MULLIKEN ATOMIC CHARGES
-----------------------
   0 C :    0.074128
   1 C :    0.264118
   2 O :   -0.708023
   3 H :   -0.182268
   4 H :   -0.182523
   5 H :   -0.124796
   6 H :   -0.069819
   7 H :   -0.070817
Sum of atomic charges:   -1.0000000

LOEWDIN ATOMIC CHARGES
----------------------
   0 C :   -0.106556
   1 C :    0.010386
   2 O :   -0.671448
   3 H :   -0.083398
   4 H :   -0.084175
   5 H :   -0.035447
   6 H :   -0.014385
   7 H :   -0.014977

  Mayer bond orders larger than 0.100000
B(  0-C ,  1-C ) :   1.0062 B(  0-C ,  5-H ) :   0.9183 B(  0-C ,  6-H ) :   0.9569
B(  0-C ,  7-H ) :   0.9563 B(  1-C ,  2-O ) :   1.5164 B(  1-C ,  3-H ) :   0.8664
B(  1-C ,  4-H ) :   0.8659

FINAL SINGLE POINT ENERGY      -154.198487783422

DIPOLE MOMENT
-------------
                                X             Y             Z
Electronic contribution:      2.57160      -1.23662       1.34658
Nuclear contribution   :     -3.69910       1.55962      -1.78699
                        -----------------------------------------
Total Dipole Moment    :     -1.12750       0.32300      -0.44041
                        -----------------------------------------
Magnitude (a.u.)       :      1.25281
Magnitude (Debye)      :      3.18440

Rotational constants in cm-1:     1.268893     0.327436     0.287754
Rotational constants in MHz : 38040.440181  9816.269339  8626.646564

                             ****ORCA TERMINATED NORMALLY****
TOTAL RUN TIME: 0 days 0 hours 0 minutes 9 seconds 250 msec
