                         Program Version 5.0.0 -  RELEASE  -
|  1> !CAM-B3LYP RIJCOSX def2-SVP def2/J TightSCF
|  2> *xyz 1 1
|  3> C          3.95643        0.50147       -0.37910
|  4> H          3.16840        0.02920        0.20738
|  5> N          3.80389        1.96157       -0.15675
|  6> C          3.84232        0.14849       -1.85406
|  7> H          4.92323        0.17798        0.00937
|  8> H          4.20643        2.24441        0.74536
|  9> H          2.80827        2.21132       -0.09610
| 10> H          4.28076        2.50155       -0.89104
| 11> H          4.62951        0.62800       -2.39748
| 12> H          2.89665        0.48102       -2.22825
| 13> H          3.92053       -0.91187       -1.97413
| 14> *
| 15>
| 16> %MaxCore 64000
| 17> %pal nprocs 4
| 18> end
| 19>
| 20> %scf
| 21>   MaxIter 150
| 22> end
| 23>
| 24>
| 25>                          ****END OF INPUT****

CARTESIAN COORDINATES (ANGSTROEM)
---------------------------------
  C      3.956430    0.501470   -0.379100
  H      3.168400    0.029200    0.207380
  N      3.803890    1.961570   -0.156750
  C      3.842320    0.148490   -1.854060
  H      4.923230    0.177980    0.009370
  H      4.206430    2.244410    0.745360
  H      2.808270    2.211320   -0.096100
  H      4.280760    2.501550   -0.891040
  H      4.629510    0.628000   -2.397480
  H      2.896650    0.481020   -2.228250
  H      3.920530   -0.911870   -1.974130

 Total Charge           Charge          ....    1
 Multiplicity           Mult            ....    1
 Number of Electrons    NEL             ....   26
 Basis Dimension        Dim             ....   82

ORBITAL ENERGIES
----------------

  NO   OCC          E(Eh)            E(eV)
   0   2.0000     -14.743893      -401.2017
   1   2.0000     -10.512614      -286.0628
   2   2.0000     -10.434276      -283.9311
   3   2.0000      -1.293872       -35.2080
   4   2.0000      -1.042137       -28.3580
   5   2.0000      -0.918818       -25.0023
   6   2.0000      -0.878432       -23.9033
   7   2.0000      -0.859552       -23.3896
   8   2.0000      -0.768141       -20.9022
   9   2.0000      -0.712766       -19.3954
  10   2.0000      -0.649568       -17.6756
  11   2.0000      -0.634574       -17.2676
  12   2.0000      -0.616326       -16.7711
  13   0.0000      -0.142928        -3.8893
  14   0.0000      -0.083638        -2.2759
  15   0.0000      -0.077506        -2.1090
  16   0.0000      -0.048362        -1.3160
  17   0.0000      -0.005225        -0.1422

MULLIKEN ATOMIC CHARGES
-----------------------
   0 C :   -0.037240
   1 H :    0.094884
   2 N :    0.008762
   3 C :   -0.018316
   4 H :    0.101851
   5 H :    0.215563
   6 H :    0.218335
   7 H :    0.213832
   8 H :    0.057221
   9 H :    0.052970
  10 H :    0.092138
Sum of atomic charges:    1.0000000

LOEWDIN ATOMIC CHARGES
----------------------
   0 C :    0.050118
   1 H :    0.053767
   2 N :    0.293635
   3 C :   -0.040053
   4 H :    0.055851
   5 H :    0.149579
   6 H :    0.149498
   7 H :    0.145240
   8 H :    0.039561
   9 H :    0.038781
  10 H :    0.064022

  Mayer bond orders larger than 0.100000
B(  0-C ,  1-H ) :   0.9547 B(  0-C ,  2-N ) :   0.9260 B(  0-C ,  3-C ) :   1.0998
B(  0-C ,  4-H ) :   0.9559 B(  2-N ,  5-H ) :   0.9340 B(  2-N ,  6-H ) :   0.9361
B(  2-N ,  7-H ) :   0.9326 B(  3-C ,  8-H ) :   0.9676 B(  3-C ,  9-H ) :   0.9720
B(  3-C , 10-H ) :   0.9584

FINAL SINGLE POINT ENERGY      -135.351274095333

DIPOLE MOMENT
-------------
                                X             Y             Z
Electronic contribution:     -0.01489       1.39854       1.28457
Nuclear contribution   :     -0.06214      -0.04120      -0.39947
                        -----------------------------------------
Total Dipole Moment    :     -0.07703       1.35734       0.88510
                        -----------------------------------------
Magnitude (a.u.)       :      1.62225
Magnitude (Debye)      :      4.12344

Rotational constants in cm-1:     1.011771     0.281435     0.249812
Rotational constants in MHz : 30332.138762  8437.210602  7489.166323

                             ****ORCA TERMINATED NORMALLY****
TOTAL RUN TIME: 0 days 0 hours 0 minutes 11 seconds 821 msec
