                         Program Version 5.0.0 -  RELEASE  -
|  1> !CAM-B3LYP RIJCOSX def2-SVP def2/J TightSCF
|  2> *xyz 0 1
|  3> C         -0.77455        2.78833       -0.54394
|  4> C          0.69721        3.22791       -0.52513
|  5> F          1.48929        2.37470        0.19919
|  6> H          0.71600        4.26403       -0.13077
|  7> H          1.03615        3.33092       -1.58367
|  8> H         -1.34746        3.48478       -1.11982
|  9> H         -1.15078        2.75876        0.45729
| 10> H         -0.85058        1.81526       -0.98241
| 11> *
| 12>
| 13> %MaxCore 64000
| 14> %pal nprocs 4
| 15> end
| 16>
| 17> %scf
| 18>   MaxIter 150
| 19> end
| 20>
| 21>
| 22>                          ****END OF INPUT****

CARTESIAN COORDINATES (ANGSTROEM)
---------------------------------
  C     -0.774550    2.788330   -0.543940
  C      0.697210    3.227910   -0.525130
  F      1.489290    2.374700    0.199190
  H      0.716000    4.264030   -0.130770
  H      1.036150    3.330920   -1.583670
  H     -1.347460    3.484780   -1.119820
  H     -1.150780    2.758760    0.457290
  H     -0.850580    1.815260   -0.982410

 Total Charge           Charge          ....    0
 Multiplicity           Mult            ....    1
 Number of Electrons    NEL             ....   26
 Basis Dimension        Dim             ....   67

ORBITAL ENERGIES
----------------

  NO   OCC          E(Eh)            E(eV)
   0   2.0000     -24.737268      -673.1353
   1   2.0000     -10.333706      -281.1944
   2   2.0000     -10.253007      -278.9985
   3   2.0000      -1.247662       -33.9506
   4   2.0000      -0.836195       -22.7540
   5   2.0000      -0.697685       -18.9850
   6   2.0000      -0.570928       -15.5357
   7   2.0000      -0.561673       -15.2839
   8   2.0000      -0.520960       -14.1760
   9   2.0000      -0.467680       -12.7262
  10   2.0000      -0.465109       -12.6563
  11   2.0000      -0.395933       -10.7739
  12   2.0000      -0.390180       -10.6173
  13   0.0000       0.105346         2.8666
  14   0.0000       0.151568         4.1244
  15   0.0000       0.160183         4.3588
  16   0.0000       0.179454         4.8832
  17   0.0000       0.198839         5.4107

MULLIKEN ATOMIC CHARGES
-----------------------
   0 C :   -0.032169
   1 C :    0.224024
   2 F :   -0.262456
   3 H :    0.004834
   4 H :    0.006666
   5 H :    0.011975
   6 H :    0.023699
   7 H :    0.023427
Sum of atomic charges:   -0.0000000

LOEWDIN ATOMIC CHARGES
----------------------
   0 C :   -0.071809
   1 C :    0.108790
   2 F :   -0.136701
   3 H :    0.009615
   4 H :    0.010684
   5 H :    0.029085
   6 H :    0.025321
   7 H :    0.025017

  Mayer bond orders larger than 0.100000
B(  0-C ,  1-C ) :   1.0963 B(  0-C ,  5-H ) :   0.9613 B(  0-C ,  6-H ) :   0.9719
B(  0-C ,  7-H ) :   0.9720 B(  1-C ,  2-F ) :   1.0089 B(  1-C ,  3-H ) :   0.9592
B(  1-C ,  4-H ) :   0.9592

FINAL SINGLE POINT ENERGY      -178.844308864297

DIPOLE MOMENT
-------------
                                X             Y             Z
Electronic contribution:      4.44434      -1.66773       2.01616
Nuclear contribution   :     -4.89513       2.05627      -2.36166
                        -----------------------------------------
Total Dipole Moment    :     -0.45079       0.38854      -0.34550
                        -----------------------------------------
Magnitude (a.u.)       :      0.68815
Magnitude (Debye)      :      1.74914

Rotational constants in cm-1:     1.247826     0.304622     0.269019
Rotational constants in MHz : 37408.889506  9132.346906  8064.979146

                             ****ORCA TERMINATED NORMALLY****
TOTAL RUN TIME: 0 days 0 hours 0 minutes 9 seconds 345 msec
