                         Program Version 5.0.0 -  RELEASE  -
|  1> !CAM-B3LYP RIJCOSX def2-SVP def2/J TightSCF
|  2> *xyz 0 1
|  3> C          3.95643        0.50147       -0.37910
|  4> H          3.16840        0.02920        0.20738
|  5> C          3.80389        1.96157       -0.15675
|  6> C          3.84232        0.14849       -1.85406
|  7> H          4.92323        0.17798        0.00937
|  8> H          4.20643        2.24441        0.74536
|  9> H          2.80827        2.21132       -0.09610
| 10> H          4.28076        2.50155       -0.89104
| 11> H          4.62951        0.62800       -2.39748
| 12> H          2.89665        0.48102       -2.22825
| 13> H          3.92053       -0.91187       -1.97413
| 14> *
| 15>
| 16> %MaxCore 64000
| 17> %pal nprocs 4
| 18> end
| 19>
| 20> %scf
| 21>   MaxIter 150
| 22> end
| 23>
| 24>
| 25>                          ****END OF INPUT****

CARTESIAN COORDINATES (ANGSTROEM)
---------------------------------
  C      3.956430    0.501470   -0.379100
  H      3.168400    0.029200    0.207380
  C      3.803890    1.961570   -0.156750
  C      3.842320    0.148490   -1.854060
  H      4.923230    0.177980    0.009370
  H      4.206430    2.244410    0.745360
  H      2.808270    2.211320   -0.096100
  H      4.280760    2.501550   -0.891040
  H      4.629510    0.628000   -2.397480
  H      2.896650    0.481020   -2.228250
  H      3.920530   -0.911870   -1.974130

 Total Charge           Charge          ....    0
 Multiplicity           Mult            ....    1
 Number of Electrons    NEL             ....   26
 Basis Dimension        Dim             ....   82

ORBITAL ENERGIES
----------------

  NO   OCC          E(Eh)            E(eV)
   0   2.0000     -10.242638      -278.7164
   1   2.0000     -10.236399      -278.5466
   2   2.0000     -10.219872      -278.0969
   3   2.0000      -0.866838       -23.5879
   4   2.0000      -0.762087       -20.7374
   5   2.0000      -0.654610       -17.8128
   6   2.0000      -0.538331       -14.6487
   7   2.0000      -0.513827       -13.9820
   8   2.0000      -0.468114       -12.7380
   9   2.0000      -0.456112       -12.4114
  10   2.0000      -0.400742       -10.9047
  11   2.0000      -0.397978       -10.8295
  12   2.0000      -0.388106       -10.5609
  13   0.0000       0.105285         2.8649
  14   0.0000       0.153038         4.1644
  15   0.0000       0.156423         4.2565
  16   0.0000       0.159891         4.3509
  17   0.0000       0.190083         5.1724

MULLIKEN ATOMIC CHARGES
-----------------------
   0 C :   -0.062177
   1 H :   -0.000900
   2 C :    0.081640
   3 C :    0.020439
   4 H :    0.000445
   5 H :   -0.019885
   6 H :   -0.013647
   7 H :   -0.017551
   8 H :    0.004952
   9 H :    0.002497
  10 H :    0.004186
Sum of atomic charges:    0.0000000

LOEWDIN ATOMIC CHARGES
----------------------
   0 C :   -0.038342
   1 H :    0.018838
   2 C :   -0.044884
   3 C :   -0.051131
   4 H :    0.017088
   5 H :    0.015413
   6 H :    0.014675
   7 H :    0.011640
   8 H :    0.018685
   9 H :    0.018584
  10 H :    0.019435

  Mayer bond orders larger than 0.100000
B(  0-C ,  1-H ) :   0.9570 B(  0-C ,  2-C ) :   1.1066 B(  0-C ,  3-C ) :   1.1040
B(  0-C ,  4-H ) :   0.9589 B(  2-C ,  5-H ) :   0.9590 B(  2-C ,  6-H ) :   0.9678
B(  2-C ,  7-H ) :   0.9695 B(  3-C ,  8-H ) :   0.9728 B(  3-C ,  9-H ) :   0.9756
B(  3-C , 10-H ) :   0.9703

FINAL SINGLE POINT ENERGY      -118.954927822961

DIPOLE MOMENT
-------------
                                X             Y             Z
Electronic contribution:      0.07903      -0.29086       0.22441
Nuclear contribution   :     -0.08172       0.30475      -0.19303
                        -----------------------------------------
Total Dipole Moment    :     -0.00269       0.01389       0.03137
                        -----------------------------------------
Magnitude (a.u.)       :      0.03442
Magnitude (Debye)      :      0.08748

Rotational constants in cm-1:     1.020248     0.295755     0.261591
Rotational constants in MHz : 30586.266829  8866.511639  7842.297953

                             ****ORCA TERMINATED NORMALLY****
TOTAL RUN TIME: 0 days 0 hours 0 minutes 11 seconds 31 msec
