                         Program Version 5.0.0 -  RELEASE  -
|  1> !CAM-B3LYP RIJCOSX def2-TZVP def2/J TightSCF xyzfile
|  2>
|  3> *xyzfile 0 1 D.xyz
|  4>
|  5> %MaxCore 64000
|  6>
|  7> %pal nprocs 18
|  8> end
|  9>
| 10> %scf
| 11>   MaxIter 150
| 12> end
| 13>
| 14>
| 15>                          ****END OF INPUT****

CARTESIAN COORDINATES (ANGSTROEM)
---------------------------------
  C      3.956426    0.501466   -0.379100
  H      3.168398    0.029201    0.207383
  C      3.803893    1.961572   -0.156747
  C      3.842322    0.148490   -1.854058
  H      4.923231    0.177982    0.009371
  H      4.620021    0.694502   -2.402150
  H      4.096015   -0.910930   -1.955103
  C      2.475619    0.412708   -2.485377
  H      2.174689    1.445076   -2.287971
  C      1.383931   -0.532740   -1.995203
  H      2.575613    0.318574   -3.571460
  H      1.264698   -0.412309   -0.915491
  H      1.705223   -1.566885   -2.164984
  C      0.031398   -0.317260   -2.677791
  C     -0.587292    1.060853   -2.436460
  H     -0.662815   -1.089530   -2.329985
  H      0.149465   -0.478040   -3.755648
  H      0.104376    1.828590   -2.793130
  C     -0.951213    1.334978   -0.972500
  H     -1.478832    1.161355   -3.062484
  H     -0.317007    0.741648   -0.311389
  H     -1.980916    1.012842   -0.788958
  C     -0.774550    2.788332   -0.543943
  H     -1.352609    3.459372   -1.192585
  H     -1.171014    2.902331    0.469968
  C      0.697208    3.227911   -0.525126
  F      1.489294    2.374703    0.199189
  H      0.715998    4.264030   -0.130774
  H      1.036148    3.330920   -1.583669
  H      4.206425    2.244406    0.745359
  H      2.808269    2.211323   -0.096097
  H      4.280757    2.501552   -0.891037

 Total Charge           Charge          ....    0
 Multiplicity           Mult            ....    1
 Number of Electrons    NEL             ....   90
 Basis Dimension        Dim             ....  467

ORBITAL ENERGIES
----------------

  NO   OCC          E(Eh)            E(eV)
   0   2.0000     -24.763785      -673.8568
   1   2.0000     -10.332126      -281.1514
   2   2.0000     -10.254080      -279.0277
   3   2.0000     -10.240095      -278.6472
   4   2.0000     -10.236710      -278.5550
   5   2.0000     -10.233494      -278.4675
   6   2.0000     -10.227443      -278.3029
   7   2.0000     -10.225337      -278.2456
   8   2.0000     -10.219356      -278.0828
   9   2.0000     -10.208340      -277.7830
  10   2.0000     -10.154853      -276.3276
  11   2.0000      -1.314723       -35.7754
  12   2.0000      -0.904864       -24.6226
  13   2.0000      -0.884768       -24.0758
  14   2.0000      -0.850994       -23.1567
  15   2.0000      -0.819144       -22.2900
  16   2.0000      -0.770531       -20.9672
  17   2.0000      -0.744273       -20.2527
  18   2.0000      -0.702012       -19.1027
  19   2.0000      -0.677688       -18.4408
  20   2.0000      -0.641043       -17.4437
  21   2.0000      -0.627355       -17.0712
  22   2.0000      -0.603987       -16.4353
  23   2.0000      -0.589634       -16.0448
  24   2.0000      -0.567712       -15.4482
  25   2.0000      -0.541120       -14.7246
  26   2.0000      -0.529609       -14.4114
  27   2.0000      -0.519354       -14.1323
  28   2.0000      -0.499068       -13.5803
  29   2.0000      -0.496162       -13.5013
  30   2.0000      -0.478847       -13.0301
  31   2.0000      -0.461115       -12.5476
  32   2.0000      -0.453957       -12.3528
  33   2.0000      -0.440831       -11.9956
  34   2.0000      -0.432296       -11.7634
  35   2.0000      -0.421785       -11.4774
  36   2.0000      -0.414284       -11.2732
  37   2.0000      -0.407506       -11.0888
  38   2.0000      -0.388469       -10.5708
  39   2.0000      -0.383762       -10.4427
  40   2.0000      -0.376776       -10.2526
  41   2.0000      -0.375683       -10.2229
  42   2.0000      -0.360501        -9.8097
  43   2.0000      -0.359357        -9.7786
  44   2.0000      -0.337638        -9.1876
  45   0.0000       0.068961         1.8765
  46   0.0000       0.079678         2.1681
  47   0.0000       0.086099         2.3429
  48   0.0000       0.095419         2.5965
  49   0.0000       0.107340         2.9209

MULLIKEN ATOMIC CHARGES
-----------------------
   0 C :   -0.166892
   1 H :    0.086530
   2 C :   -0.426087
   3 C :   -0.180071
   4 H :    0.088287
   5 H :    0.102164
   6 H :    0.086962
   7 C :   -0.188401
   8 H :    0.084517
   9 C :   -0.233186
  10 H :    0.096855
  11 H :    0.107672
  12 H :    0.102482
  13 C :   -0.165396
  14 C :   -0.246419
  15 H :    0.100980
  16 H :    0.102415
  17 H :    0.107252
  18 C :   -0.182792
  19 H :    0.106748
  20 H :    0.114581
  21 H :    0.110857
  22 C :   -0.207005
  23 H :    0.109875
  24 H :    0.112779
  25 C :   -0.027137
  26 F :   -0.193719
  27 H :    0.121346
  28 H :    0.115881
  29 H :    0.101594
  30 H :    0.166383
  31 H :    0.090944
Sum of atomic charges:    0.0000000

LOEWDIN ATOMIC CHARGES
----------------------
   0 C :   -0.302798
   1 H :    0.130931
   2 C :   -0.324182
   3 C :   -0.269279
   4 H :    0.129332
   5 H :    0.134166
   6 H :    0.132606
   7 C :   -0.264882
   8 H :    0.131086
   9 C :   -0.268238
  10 H :    0.134285
  11 H :    0.131393
  12 H :    0.136361
  13 C :   -0.268056
  14 C :   -0.265101
  15 H :    0.135552
  16 H :    0.135267
  17 H :    0.131757
  18 C :   -0.266523
  19 H :    0.133932
  20 H :    0.139586
  21 H :    0.135945
  22 C :   -0.276008
  23 H :    0.142472
  24 H :    0.138515
  25 C :   -0.341457
  26 F :    0.173163
  27 H :    0.126768
  28 H :    0.123561
  29 H :    0.103366
  30 H :    0.064227
  31 H :    0.102253

  Mayer bond orders larger than 0.100000
B(  0-C ,  1-H ) :   0.9909 B(  0-C ,  2-C ) :   0.9044 B(  0-C ,  3-C ) :   0.9576
B(  0-C ,  4-H ) :   0.9843 B(  2-C , 29-H ) :   0.9941 B(  2-C , 30-H ) :   0.9750
B(  2-C , 31-H ) :   0.9780 B(  3-C ,  5-H ) :   0.9894 B(  3-C ,  6-H ) :   0.9806
B(  3-C ,  7-C ) :   0.9613 B(  7-C ,  8-H ) :   0.9834 B(  7-C ,  9-C ) :   0.9250
B(  7-C , 10-H ) :   0.9751 B(  9-C , 11-H ) :   0.9895 B(  9-C , 12-H ) :   0.9774
B(  9-C , 13-C ) :   0.9579 B( 13-C , 14-C ) :   0.9438 B( 13-C , 15-H ) :   0.9827
B( 13-C , 16-H ) :   0.9820 B( 14-C , 17-H ) :   0.9986 B( 14-C , 18-C ) :   0.9089
B( 14-C , 19-H ) :   0.9746 B( 18-C , 20-H ) :   0.9852 B( 18-C , 21-H ) :   0.9749
B( 18-C , 22-C ) :   0.9522 B( 22-C , 23-H ) :   0.9603 B( 22-C , 24-H ) :   0.9763
B( 22-C , 25-C ) :   0.9785 B( 25-C , 26-F ) :   0.9172 B( 25-C , 27-H ) :   0.9800
B( 25-C , 28-H ) :   0.9770

FINAL SINGLE POINT ENERGY      -493.421464669874

DIPOLE MOMENT
-------------
                                X             Y             Z
Electronic contribution:     -1.97358       3.29523       4.27334
Nuclear contribution   :      1.09293      -2.80761      -4.51228
                        -----------------------------------------
Total Dipole Moment    :     -0.88066       0.48761      -0.23894
                        -----------------------------------------
Magnitude (a.u.)       :      1.03461
Magnitude (Debye)      :      2.62976

Rotational constants in cm-1:     0.040502     0.027818     0.018259
Rotational constants in MHz :  1214.218058   833.972871   547.398614

                             ****ORCA TERMINATED NORMALLY****
TOTAL RUN TIME: 0 days 0 hours 1 minutes 20 seconds 41 msec
