                         Program Version 5.0.0 -  RELEASE  -
|  1> !LC-BLYP RIJCOSX def2-SVPD def2/J TightSCF
|  2> *xyz -1 1
|  3> C         -0.01741        0.08059       -2.77841
|  4> C         -0.90349       -0.87394       -1.98739
|  5> H         -0.50255       -1.89210       -2.08120
|  6> H         -1.91704       -0.89543       -2.40628
|  7> C         -0.96015       -0.52236       -0.48987
|  8> H         -1.69039       -1.20813       -0.02168
|  9> H         -1.41449        0.48633       -0.40668
| 10> O          0.26170       -0.58031        0.13861
| 11> H         -0.01329       -0.20776       -3.80881
| 12> H          0.98025        0.04284       -2.39348
| 13> H         -0.39697        1.07694       -2.68836
| 14> *
| 15>
| 16> %MaxCore 64000
| 17>
| 18> %pal nprocs 4
| 19> end
| 20>
| 21> %scf
| 22>   MaxIter 150
| 23> end
| 24>
| 25>
| 26>                          ****END OF INPUT****

CARTESIAN COORDINATES (ANGSTROEM)
---------------------------------
  C     -0.017410    0.080590   -2.778410
  C     -0.903490   -0.873940   -1.987390
  H     -0.502550   -1.892100   -2.081200
  H     -1.917040   -0.895430   -2.406280
  C     -0.960150   -0.522360   -0.489870
  H     -1.690390   -1.208130   -0.021680
  H     -1.414490    0.486330   -0.406680
  O      0.261700   -0.580310    0.138610
  H     -0.013290   -0.207760   -3.808810
  H      0.980250    0.042840   -2.393480
  H     -0.396970    1.076940   -2.688360

 Total Charge           Charge          ....   -1
 Multiplicity           Mult            ....    1
 Number of Electrons    NEL             ....   34
 Basis Dimension        Dim             ....  139

ORBITAL ENERGIES
----------------

  NO   OCC          E(Eh)            E(eV)
   0   2.0000     -18.626288      -506.8471
   1   2.0000      -9.903495      -269.4878
   2   2.0000      -9.902003      -269.4472
   3   2.0000      -9.895486      -269.2699
   4   2.0000      -0.771798       -21.0017
   5   2.0000      -0.687391       -18.7049
   6   2.0000      -0.570763       -15.5313
   7   2.0000      -0.469932       -12.7875
   8   2.0000      -0.381816       -10.3898
   9   2.0000      -0.374637       -10.1944
  10   2.0000      -0.323875        -8.8131
  11   2.0000      -0.288360        -7.8467
  12   2.0000      -0.263025        -7.1573
  13   2.0000      -0.253200        -6.8899
  14   2.0000      -0.211137        -5.7453
  15   2.0000      -0.070777        -1.9259
  16   2.0000      -0.066640        -1.8134
  17   0.0000       0.215450         5.8627
  18   0.0000       0.240577         6.5464
  19   0.0000       0.257618         7.0102
  20   0.0000       0.290715         7.9108
  21   0.0000       0.307737         8.3740

MULLIKEN ATOMIC CHARGES
-----------------------
   0 C :    0.811428
   1 C :   -0.322104
   2 H :   -0.119349
   3 H :   -0.161089
   4 C :    0.414149
   5 H :   -0.229228
   6 H :   -0.161101
   7 O :   -0.804334
   8 H :   -0.180988
   9 H :   -0.099922
  10 H :   -0.147462
Sum of atomic charges:   -1.0000000

LOEWDIN ATOMIC CHARGES
----------------------
   0 C :    0.074433
   1 C :   -0.127828
   2 H :    0.009439
   3 H :   -0.005014
   4 C :   -0.243267
   5 H :   -0.026640
   6 H :   -0.021098
   7 O :   -0.557932
   8 H :   -0.044261
   9 H :   -0.027604
  10 H :   -0.030227

  Mayer bond orders larger than 0.100000
B(  0-C ,  1-C ) :   1.2811 B(  0-C ,  8-H ) :   0.7342 B(  0-C ,  9-H ) :   0.7860
B(  0-C , 10-H ) :   0.7765 B(  1-C ,  2-H ) :   0.9335 B(  1-C ,  3-H ) :   0.9695
B(  1-C ,  4-C ) :   1.0469 B(  1-C ,  5-H ) :   0.1601 B(  1-C ,  6-H ) :   0.1308
B(  1-C ,  8-H ) :   0.2378 B(  1-C ,  9-H ) :   0.2265 B(  1-C , 10-H ) :   0.2032
B(  2-H ,  4-C ) :   0.1388 B(  4-C ,  5-H ) :   0.9353 B(  4-C ,  6-H ) :   0.9284
B(  4-C ,  7-O ) :   1.2791

FINAL SINGLE POINT ENERGY      -193.110691485771

DIPOLE MOMENT
-------------
                                X             Y             Z
Electronic contribution:      1.11982      -0.48755       2.60355
Nuclear contribution   :     -2.03764       0.64089      -4.61583
                        -----------------------------------------
Total Dipole Moment    :     -0.91782       0.15334      -2.01228
                        -----------------------------------------
Magnitude (a.u.)       :      2.21702
Magnitude (Debye)      :      5.63521

Rotational constants in cm-1:     0.508897     0.174909     0.148249
Rotational constants in MHz : 15256.351998  5243.652192  4444.387232

                             ****ORCA TERMINATED NORMALLY****
TOTAL RUN TIME: 0 days 0 hours 0 minutes 11 seconds 431 msec
