                         Program Version 5.0.0 -  RELEASE  -
|  1> !LC-BLYP RIJCOSX def2-SVPD def2/J TightSCF
|  2> *xyz 1 1
|  3> C          4.36645       -0.13321       -1.41606
|  4> C          4.50829       -0.93187       -2.72425
|  5> H          4.75372       -1.97205       -2.48841
|  6> C          3.29416       -0.91821       -3.65657
|  7> H          5.38564       -0.53624       -3.24264
|  8> C          3.05650       -0.32080       -0.70738
|  9> N          2.38983        0.71129       -0.24391
| 10> N          2.51600       -1.50772       -0.55023
| 11> H          2.96768       -2.32291       -0.95631
| 12> H          1.54987       -1.49063       -0.24988
| 13> H          2.74307        1.64947       -0.41280
| 14> H          1.44036        0.50278        0.03703
| 15> H          4.48784        0.93300       -1.61157
| 16> H          5.16967       -0.41443       -0.72982
| 17> H          3.50670       -1.50229       -4.52754
| 18> H          3.07837        0.08892       -3.94644
| 19> H          2.44880       -1.33173       -3.14739
| 20> *
| 21>
| 22> %MaxCore 64000
| 23>
| 24> %pal nprocs 4
| 25> end
| 26>
| 27> %scf
| 28>   MaxIter 150
| 29> end
| 30>
| 31>
| 32>                          ****END OF INPUT****

CARTESIAN COORDINATES (ANGSTROEM)
---------------------------------
  C      4.366450   -0.133210   -1.416060
  C      4.508290   -0.931870   -2.724250
  H      4.753720   -1.972050   -2.488410
  C      3.294160   -0.918210   -3.656570
  H      5.385640   -0.536240   -3.242640
  C      3.056500   -0.320800   -0.707380
  N      2.389830    0.711290   -0.243910
  N      2.516000   -1.507720   -0.550230
  H      2.967680   -2.322910   -0.956310
  H      1.549870   -1.490630   -0.249880
  H      2.743070    1.649470   -0.412800
  H      1.440360    0.502780    0.037030
  H      4.487840    0.933000   -1.611570
  H      5.169670   -0.414430   -0.729820
  H      3.506700   -1.502290   -4.527540
  H      3.078370    0.088920   -3.946440
  H      2.448800   -1.331730   -3.147390

 Total Charge           Charge          ....    1
 Multiplicity           Mult            ....    1
 Number of Electrons    NEL             ....   48
 Basis Dimension        Dim             ....  208

ORBITAL ENERGIES
----------------

  NO   OCC          E(Eh)            E(eV)
   0   2.0000     -14.433666      -392.7600
   1   2.0000     -14.432149      -392.7187
   2   2.0000     -10.407861      -283.2123
   3   2.0000     -10.281969      -279.7866
   4   2.0000     -10.248693      -278.8811
   5   2.0000     -10.215066      -277.9661
   6   2.0000      -1.305597       -35.5271
   7   2.0000      -1.198096       -32.6019
   8   2.0000      -1.079662       -29.3791
   9   2.0000      -0.993180       -27.0258
  10   2.0000      -0.934443       -25.4275
  11   2.0000      -0.897406       -24.4197
  12   2.0000      -0.870978       -23.7005
  13   2.0000      -0.836563       -22.7640
  14   2.0000      -0.803703       -21.8699
  15   2.0000      -0.770687       -20.9715
  16   2.0000      -0.737076       -20.0568
  17   2.0000      -0.698627       -19.0106
  18   2.0000      -0.683637       -18.6027
  19   2.0000      -0.663059       -18.0427
  20   2.0000      -0.607966       -16.5436
  21   2.0000      -0.602909       -16.4060
  22   2.0000      -0.594290       -16.1715
  23   2.0000      -0.584365       -15.9014
  24   0.0000      -0.133421        -3.6306
  25   0.0000      -0.099578        -2.7096
  26   0.0000      -0.059749        -1.6259
  27   0.0000      -0.056986        -1.5507
  28   0.0000      -0.027213        -0.7405

MULLIKEN ATOMIC CHARGES
-----------------------
   0 C :    0.414624
   1 C :   -0.225227
   2 H :   -0.096843
   3 C :    1.001827
   4 H :   -0.253264
   5 C :    0.138912
   6 N :    0.311019
   7 N :    0.301400
   8 H :    0.013717
   9 H :   -0.113590
  10 H :   -0.016013
  11 H :   -0.101653
  12 H :    0.087119
  13 H :   -0.093581
  14 H :   -0.122550
  15 H :   -0.083864
  16 H :   -0.162037
Sum of atomic charges:    1.0000000

LOEWDIN ATOMIC CHARGES
----------------------
   0 C :    0.042949
   1 C :   -0.058458
   2 H :    0.029791
   3 C :    0.132739
   4 H :    0.044937
   5 C :   -0.070481
   6 N :    0.294751
   7 N :    0.298110
   8 H :    0.056137
   9 H :    0.047309
  10 H :    0.059383
  11 H :    0.044948
  12 H :    0.043307
  13 H :    0.061715
  14 H :    0.006572
  15 H :   -0.000542
  16 H :   -0.033169

  Mayer bond orders larger than 0.100000
B(  0-C ,  1-C ) :   1.2113 B(  0-C ,  2-H ) :   0.1286 B(  0-C ,  4-H ) :   0.1544
B(  0-C ,  5-C ) :   1.2114 B(  0-C , 12-H ) :   0.7352 B(  0-C , 13-H ) :   0.7130
B(  1-C ,  2-H ) :   0.8686 B(  1-C ,  3-C ) :   1.3531 B(  1-C ,  4-H ) :   0.9133
B(  1-C ,  5-C ) :   0.1016 B(  1-C , 12-H ) :   0.1804 B(  1-C , 13-H ) :   0.1194
B(  1-C , 14-H ) :   0.2634 B(  1-C , 15-H ) :   0.2344 B(  1-C , 16-H ) :   0.2508
B(  3-C , 14-H ) :   0.6823 B(  3-C , 15-H ) :   0.7227 B(  3-C , 16-H ) :   0.7495
B(  5-C ,  6-N ) :   1.2057 B(  5-C ,  7-N ) :   1.2725 B(  5-C ,  9-H ) :  -0.1285
B(  5-C , 12-H ) :   0.1954 B(  5-C , 13-H ) :   0.2067 B(  6-N ,  7-N ) :   0.2045
B(  6-N , 10-H ) :   1.1311 B(  6-N , 11-H ) :   1.1621 B(  7-N ,  8-H ) :   1.0401
B(  7-N ,  9-H ) :   1.2333 B(  8-H ,  9-H ) :  -0.1854 B( 10-H , 11-H ) :  -0.1544

FINAL SINGLE POINT ENERGY      -267.427579071146

DIPOLE MOMENT
-------------
                                X             Y             Z
Electronic contribution:     -1.79330       0.89575       5.04102
Nuclear contribution   :      0.92830      -0.63755      -3.99475
                        -----------------------------------------
Total Dipole Moment    :     -0.86500       0.25820       1.04627
                        -----------------------------------------
Magnitude (a.u.)       :      1.38187
Magnitude (Debye)      :      3.51244

Rotational constants in cm-1:     0.183706     0.077449     0.071296
Rotational constants in MHz :  5507.368439  2321.870034  2137.394204

                             ****ORCA TERMINATED NORMALLY****
TOTAL RUN TIME: 0 days 0 hours 0 minutes 26 seconds 502 msec
