                         Program Version 5.0.0 -  RELEASE  -
|  1> !LC-BLYP RIJCOSX def2-SVPD def2/J TightSCF
|  2> *xyz 0 1
|  3> C         -0.01741        0.08059       -2.77841
|  4> C         -0.90349       -0.87394       -1.98739
|  5> H         -0.50255       -1.89210       -2.08120
|  6> H         -1.91704       -0.89543       -2.40628
|  7> C         -0.96015       -0.52236       -0.48987
|  8> H         -1.69039       -1.20813       -0.02168
|  9> H         -1.41449        0.48633       -0.40668
| 10> F          0.26170       -0.58031        0.13861
| 11> H         -0.01329       -0.20776       -3.80881
| 12> H          0.98025        0.04284       -2.39348
| 13> H         -0.39697        1.07694       -2.68836
| 14> *
| 15>
| 16> %MaxCore 64000
| 17>
| 18> %pal nprocs 4
| 19> end
| 20>
| 21> %scf
| 22>   MaxIter 150
| 23> end
| 24>
| 25>
| 26>                          ****END OF INPUT****

CARTESIAN COORDINATES (ANGSTROEM)
---------------------------------
  C     -0.017410    0.080590   -2.778410
  C     -0.903490   -0.873940   -1.987390
  H     -0.502550   -1.892100   -2.081200
  H     -1.917040   -0.895430   -2.406280
  C     -0.960150   -0.522360   -0.489870
  H     -1.690390   -1.208130   -0.021680
  H     -1.414490    0.486330   -0.406680
  F      0.261700   -0.580310    0.138610
  H     -0.013290   -0.207760   -3.808810
  H      0.980250    0.042840   -2.393480
  H     -0.396970    1.076940   -2.688360

 Total Charge           Charge          ....    0
 Multiplicity           Mult            ....    1
 Number of Electrons    NEL             ....   34
 Basis Dimension        Dim             ....  139

ORBITAL ENERGIES
----------------

  NO   OCC          E(Eh)            E(eV)
   0   2.0000     -24.464294      -665.7073
   1   2.0000     -10.163662      -276.5673
   2   2.0000     -10.093368      -274.6545
   3   2.0000     -10.072395      -274.0838
   4   2.0000      -1.263701       -34.3871
   5   2.0000      -0.895474       -24.3671
   6   2.0000      -0.793743       -21.5988
   7   2.0000      -0.701683       -19.0938
   8   2.0000      -0.616754       -16.7827
   9   2.0000      -0.601448       -16.3662
  10   2.0000      -0.575986       -15.6734
  11   2.0000      -0.541232       -14.7277
  12   2.0000      -0.503125       -13.6907
  13   2.0000      -0.478559       -13.0222
  14   2.0000      -0.451824       -12.2948
  15   2.0000      -0.426219       -11.5980
  16   2.0000      -0.425673       -11.5831
  17   0.0000       0.073660         2.0044
  18   0.0000       0.098910         2.6915
  19   0.0000       0.107573         2.9272
  20   0.0000       0.126302         3.4369
  21   0.0000       0.151236         4.1153

MULLIKEN ATOMIC CHARGES
-----------------------
   0 C :    0.848769
   1 C :   -0.280961
   2 H :   -0.132369
   3 H :   -0.149210
   4 C :    0.752066
   5 H :   -0.165588
   6 H :   -0.101845
   7 F :   -0.369224
   8 H :   -0.156837
   9 H :   -0.109018
  10 H :   -0.135784
Sum of atomic charges:    0.0000000

LOEWDIN ATOMIC CHARGES
----------------------
   0 C :    0.108040
   1 C :   -0.079995
   2 H :    0.030703
   3 H :    0.032407
   4 C :    0.067629
   5 H :    0.034296
   6 H :    0.038914
   7 F :   -0.193189
   8 H :   -0.014472
   9 H :   -0.011108
  10 H :   -0.013225

  Mayer bond orders larger than 0.100000
B(  0-C ,  1-C ) :   1.3137 B(  0-C ,  8-H ) :   0.7561 B(  0-C ,  9-H ) :   0.7719
B(  0-C , 10-H ) :   0.7686 B(  1-C ,  2-H ) :   0.9193 B(  1-C ,  3-H ) :   0.9361
B(  1-C ,  4-C ) :   1.1812 B(  1-C ,  5-H ) :   0.1320 B(  1-C ,  6-H ) :   0.1069
B(  1-C ,  8-H ) :   0.2254 B(  1-C ,  9-H ) :   0.2092 B(  1-C , 10-H ) :   0.1912
B(  4-C ,  5-H ) :   0.8851 B(  4-C ,  6-H ) :   0.8841 B(  4-C ,  7-F ) :   0.8472

FINAL SINGLE POINT ENERGY      -217.707461869444

DIPOLE MOMENT
-------------
                                X             Y             Z
Electronic contribution:      2.21987      -0.77768       5.87367
Nuclear contribution   :     -2.83598       0.77614      -6.32113
                        -----------------------------------------
Total Dipole Moment    :     -0.61611      -0.00154      -0.44747
                        -----------------------------------------
Magnitude (a.u.)       :      0.76146
Magnitude (Debye)      :      1.93548

Rotational constants in cm-1:     0.494803     0.164634     0.139827
Rotational constants in MHz : 14833.819345  4935.593559  4191.919783

                             ****ORCA TERMINATED NORMALLY****
TOTAL RUN TIME: 0 days 0 hours 0 minutes 9 seconds 477 msec
