                         Program Version 5.0.0 -  RELEASE  -
|  1> !LC-BLYP RIJCOSX def2-SVPD def2/J TightSCF
|  2> *xyz 0 1
|  3> C          4.36645       -0.13321       -1.41606
|  4> C          4.50829       -0.93187       -2.72425
|  5> H          4.75372       -1.97205       -2.48841
|  6> C          3.29416       -0.91821       -3.65657
|  7> H          5.38564       -0.53624       -3.24264
|  8> C          3.05650       -0.32080       -0.70738
|  9> C          2.38983        0.71129       -0.24391
| 10> N          2.51600       -1.50772       -0.55023
| 11> H          2.96768       -2.32291       -0.95631
| 12> H          1.54987       -1.49063       -0.24988
| 13> H          2.74307        1.64947       -0.41280
| 14> H          1.44036        0.50278        0.03703
| 15> H          4.48784        0.93300       -1.61157
| 16> H          5.16967       -0.41443       -0.72982
| 17> H          3.50670       -1.50229       -4.52754
| 18> H          3.07837        0.08892       -3.94644
| 19> H          2.44880       -1.33173       -3.14739
| 20> *
| 21>
| 22> %MaxCore 64000
| 23>
| 24> %pal nprocs 4
| 25> end
| 26>
| 27> %scf
| 28>   MaxIter 150
| 29> end
| 30>
| 31>
| 32>                          ****END OF INPUT****

CARTESIAN COORDINATES (ANGSTROEM)
---------------------------------
  C      4.366450   -0.133210   -1.416060
  C      4.508290   -0.931870   -2.724250
  H      4.753720   -1.972050   -2.488410
  C      3.294160   -0.918210   -3.656570
  H      5.385640   -0.536240   -3.242640
  C      3.056500   -0.320800   -0.707380
  C      2.389830    0.711290   -0.243910
  N      2.516000   -1.507720   -0.550230
  H      2.967680   -2.322910   -0.956310
  H      1.549870   -1.490630   -0.249880
  H      2.743070    1.649470   -0.412800
  H      1.440360    0.502780    0.037030
  H      4.487840    0.933000   -1.611570
  H      5.169670   -0.414430   -0.729820
  H      3.506700   -1.502290   -4.527540
  H      3.078370    0.088920   -3.946440
  H      2.448800   -1.331730   -3.147390

 Total Charge           Charge          ....    0
 Multiplicity           Mult            ....    1
 Number of Electrons    NEL             ....   48
 Basis Dimension        Dim             ....  208

ORBITAL ENERGIES
----------------

  NO   OCC          E(Eh)            E(eV)
   0   2.0000     -14.187848      -386.0710
   1   2.0000     -10.105271      -274.9784
   2   2.0000     -10.087314      -274.4898
   3   2.0000     -10.084809      -274.4216
   4   2.0000     -10.067789      -273.9585
   5   2.0000     -10.018088      -272.6060
   6   2.0000      -1.029108       -28.0035
   7   2.0000      -0.896802       -24.4032
   8   2.0000      -0.839313       -22.8389
   9   2.0000      -0.789537       -21.4844
  10   2.0000      -0.707320       -19.2472
  11   2.0000      -0.663881       -18.0651
  12   2.0000      -0.637610       -17.3502
  13   2.0000      -0.567073       -15.4308
  14   2.0000      -0.561078       -15.2677
  15   2.0000      -0.560114       -15.2415
  16   2.0000      -0.497137       -13.5278
  17   2.0000      -0.495609       -13.4862
  18   2.0000      -0.482199       -13.1213
  19   2.0000      -0.466900       -12.7050
  20   2.0000      -0.433908       -11.8072
  21   2.0000      -0.430596       -11.7171
  22   2.0000      -0.419900       -11.4261
  23   2.0000      -0.286235        -7.7889
  24   0.0000       0.068391         1.8610
  25   0.0000       0.092524         2.5177
  26   0.0000       0.101005         2.7485
  27   0.0000       0.105467         2.8699
  28   0.0000       0.123362         3.3569

MULLIKEN ATOMIC CHARGES
-----------------------
   0 C :    0.554369
   1 C :   -0.242478
   2 H :   -0.123460
   3 C :    1.005803
   4 H :   -0.262723
   5 C :   -0.555194
   6 C :    0.540512
   7 N :    0.476211
   8 H :   -0.095658
   9 H :   -0.134014
  10 H :   -0.266766
  11 H :   -0.463212
  12 H :    0.154014
  13 H :   -0.175141
  14 H :   -0.118713
  15 H :   -0.112856
  16 H :   -0.180694
Sum of atomic charges:    0.0000000

LOEWDIN ATOMIC CHARGES
----------------------
   0 C :    0.003221
   1 C :   -0.082965
   2 H :    0.014476
   3 C :    0.115034
   4 H :    0.022020
   5 C :   -0.280304
   6 C :    0.168394
   7 N :    0.183076
   8 H :    0.004358
   9 H :    0.007164
  10 H :   -0.075110
  11 H :   -0.081460
  12 H :    0.028027
  13 H :    0.032107
  14 H :   -0.014841
  15 H :   -0.009570
  16 H :   -0.033626

  Mayer bond orders larger than 0.100000
B(  0-C ,  1-C ) :   1.1793 B(  0-C ,  2-H ) :   0.1685 B(  0-C ,  4-H ) :   0.1859
B(  0-C ,  5-C ) :   1.2657 B(  0-C ,  6-C ) :   0.1012 B(  0-C , 10-H ) :  -0.1178
B(  0-C , 12-H ) :   0.7440 B(  0-C , 13-H ) :   0.6355 B(  1-C ,  2-H ) :   0.8384
B(  1-C ,  3-C ) :   1.3293 B(  1-C ,  4-H ) :   0.8822 B(  1-C ,  5-C ) :   0.1699
B(  1-C , 12-H ) :   0.1932 B(  1-C , 13-H ) :   0.1156 B(  1-C , 14-H ) :   0.2697
B(  1-C , 15-H ) :   0.2431 B(  1-C , 16-H ) :   0.2502 B(  2-H ,  3-C ) :   0.1016
B(  3-C , 14-H ) :   0.6521 B(  3-C , 15-H ) :   0.7147 B(  3-C , 16-H ) :   0.7644
B(  5-C ,  6-C ) :   1.8187 B(  5-C ,  7-N ) :   1.2927 B(  5-C ,  8-H ) :   0.1077
B(  5-C , 11-H ) :   0.3789 B(  5-C , 12-H ) :   0.1088 B(  5-C , 13-H ) :   0.2896
B(  6-C ,  7-N ) :   0.3249 B(  6-C , 10-H ) :   0.9684 B(  6-C , 11-H ) :   0.4924
B(  7-N ,  8-H ) :   1.0065 B(  7-N ,  9-H ) :   1.0932 B(  8-H ,  9-H ) :  -0.1633
B( 15-H , 16-H ) :   0.1070

FINAL SINGLE POINT ENERGY      -250.973847104757

DIPOLE MOMENT
-------------
                                X             Y             Z
Electronic contribution:     -0.63187      -0.28834       3.29117
Nuclear contribution   :      0.70803      -0.34641      -3.68680
                        -----------------------------------------
Total Dipole Moment    :      0.07616      -0.63475      -0.39563
                        -----------------------------------------
Magnitude (a.u.)       :      0.75182
Magnitude (Debye)      :      1.91098

Rotational constants in cm-1:     0.186653     0.080341     0.073591
Rotational constants in MHz :  5595.710092  2408.571280  2206.200061

                             ****ORCA TERMINATED NORMALLY****
TOTAL RUN TIME: 0 days 0 hours 0 minutes 28 seconds 949 msec
