                         Program Version 5.0.0 -  RELEASE  -
|  1> !LC-BLYP RIJCOSX def2-SVPD def2/J TightSCF
|  2> *xyz 0 1
|  3> C          4.36645       -0.13321       -1.41606
|  4> C          4.50829       -0.93187       -2.72425
|  5> H          4.75372       -1.97205       -2.48841
|  6> C          3.29416       -0.91821       -3.65657
|  7> H          5.38564       -0.53624       -3.24264
|  8> C          3.05650       -0.32080       -0.70738
|  9> N          2.38983        0.71129       -0.24391
| 10> C          2.51600       -1.50772       -0.55023
| 11> H          2.96768       -2.32291       -0.95631
| 12> H          1.54987       -1.49063       -0.24988
| 13> H          2.74307        1.64947       -0.41280
| 14> H          1.44036        0.50278        0.03703
| 15> H          4.48784        0.93300       -1.61157
| 16> H          5.16967       -0.41443       -0.72982
| 17> H          3.50670       -1.50229       -4.52754
| 18> H          3.07837        0.08892       -3.94644
| 19> H          2.44880       -1.33173       -3.14739
| 20> *
| 21>
| 22> %MaxCore 64000
| 23>
| 24> %pal nprocs 4
| 25> end
| 26>
| 27> %scf
| 28>   MaxIter 150
| 29> end
| 30>
| 31>
| 32>                          ****END OF INPUT****

CARTESIAN COORDINATES (ANGSTROEM)
---------------------------------
  C      4.366450   -0.133210   -1.416060
  C      4.508290   -0.931870   -2.724250
  H      4.753720   -1.972050   -2.488410
  C      3.294160   -0.918210   -3.656570
  H      5.385640   -0.536240   -3.242640
  C      3.056500   -0.320800   -0.707380
  N      2.389830    0.711290   -0.243910
  C      2.516000   -1.507720   -0.550230
  H      2.967680   -2.322910   -0.956310
  H      1.549870   -1.490630   -0.249880
  H      2.743070    1.649470   -0.412800
  H      1.440360    0.502780    0.037030
  H      4.487840    0.933000   -1.611570
  H      5.169670   -0.414430   -0.729820
  H      3.506700   -1.502290   -4.527540
  H      3.078370    0.088920   -3.946440
  H      2.448800   -1.331730   -3.147390

 Total Charge           Charge          ....    0
 Multiplicity           Mult            ....    1
 Number of Electrons    NEL             ....   48
 Basis Dimension        Dim             ....  208

ORBITAL ENERGIES
----------------

  NO   OCC          E(Eh)            E(eV)
   0   2.0000     -14.188220      -386.0811
   1   2.0000     -10.105466      -274.9837
   2   2.0000     -10.086626      -274.4711
   3   2.0000     -10.082066      -274.3470
   4   2.0000     -10.060515      -273.7605
   5   2.0000     -10.016115      -272.5524
   6   2.0000      -1.028835       -27.9960
   7   2.0000      -0.897832       -24.4312
   8   2.0000      -0.826508       -22.4904
   9   2.0000      -0.794500       -21.6195
  10   2.0000      -0.711421       -19.3588
  11   2.0000      -0.653305       -17.7773
  12   2.0000      -0.631514       -17.1844
  13   2.0000      -0.588254       -16.0072
  14   2.0000      -0.561867       -15.2892
  15   2.0000      -0.534973       -14.5574
  16   2.0000      -0.505783       -13.7630
  17   2.0000      -0.491936       -13.3862
  18   2.0000      -0.471935       -12.8420
  19   2.0000      -0.463764       -12.6197
  20   2.0000      -0.435595       -11.8531
  21   2.0000      -0.423664       -11.5285
  22   2.0000      -0.421251       -11.4628
  23   2.0000      -0.283948        -7.7266
  24   0.0000       0.073363         1.9963
  25   0.0000       0.091945         2.5019
  26   0.0000       0.098065         2.6685
  27   0.0000       0.106217         2.8903
  28   0.0000       0.126900         3.4531

MULLIKEN ATOMIC CHARGES
-----------------------
   0 C :    0.722998
   1 C :   -0.262039
   2 H :   -0.078117
   3 C :    1.006098
   4 H :   -0.285356
   5 C :   -0.435861
   6 N :    0.410275
   7 C :    0.696737
   8 H :   -0.232325
   9 H :   -0.644052
  10 H :   -0.165031
  11 H :   -0.090216
  12 H :   -0.041356
  13 H :   -0.185971
  14 H :   -0.147779
  15 H :   -0.114927
  16 H :   -0.153078
Sum of atomic charges:   -0.0000000

LOEWDIN ATOMIC CHARGES
----------------------
   0 C :    0.003681
   1 C :   -0.077711
   2 H :    0.020945
   3 C :    0.116236
   4 H :    0.020697
   5 C :   -0.270139
   6 N :    0.179793
   7 C :    0.160825
   8 H :   -0.070557
   9 H :   -0.079920
  10 H :    0.001982
  11 H :    0.004408
  12 H :    0.016928
  13 H :    0.034513
  14 H :   -0.015119
  15 H :   -0.013256
  16 H :   -0.033306

  Mayer bond orders larger than 0.100000
B(  0-C ,  1-C ) :   1.1961 B(  0-C ,  2-H ) :   0.1265 B(  0-C ,  4-H ) :   0.1990
B(  0-C ,  5-C ) :   1.1049 B(  0-C , 12-H ) :   0.5441 B(  0-C , 13-H ) :   0.7270
B(  1-C ,  2-H ) :   0.8485 B(  1-C ,  3-C ) :   1.3384 B(  1-C ,  4-H ) :   0.8738
B(  1-C ,  5-C ) :   0.1180 B(  1-C , 12-H ) :   0.1756 B(  1-C , 13-H ) :   0.1453
B(  1-C , 14-H ) :   0.2802 B(  1-C , 15-H ) :   0.2487 B(  1-C , 16-H ) :   0.2739
B(  3-C , 14-H ) :   0.6516 B(  3-C , 15-H ) :   0.7177 B(  3-C , 16-H ) :   0.7502
B(  5-C ,  6-N ) :   1.2497 B(  5-C ,  7-C ) :   1.9066 B(  5-C ,  8-H ) :   0.1505
B(  5-C ,  9-H ) :   0.3157 B(  5-C , 12-H ) :   0.3002 B(  5-C , 13-H ) :   0.1860
B(  6-N ,  7-C ) :   0.2793 B(  6-N , 10-H ) :   1.1319 B(  6-N , 11-H ) :   1.0704
B(  7-C ,  8-H ) :   0.6755 B(  7-C ,  9-H ) :   0.5783 B(  8-H ,  9-H ) :  -0.1649
B( 10-H , 11-H ) :  -0.1314 B( 15-H , 16-H ) :   0.1057

FINAL SINGLE POINT ENERGY      -250.972081578794

DIPOLE MOMENT
-------------
                                X             Y             Z
Electronic contribution:     -0.74178       1.57190       3.57605
Nuclear contribution   :      0.73787      -0.87128      -3.75926
                        -----------------------------------------
Total Dipole Moment    :     -0.00391       0.70062      -0.18321
                        -----------------------------------------
Magnitude (a.u.)       :      0.72418
Magnitude (Debye)      :      1.84073

Rotational constants in cm-1:     0.191039     0.078358     0.072723
Rotational constants in MHz :  5727.202281  2349.118247  2180.181745

                             ****ORCA TERMINATED NORMALLY****
TOTAL RUN TIME: 0 days 0 hours 0 minutes 27 seconds 187 msec
