                         Program Version 5.0.0 -  RELEASE  -
|  1> !LC-BLYP RIJCOSX def2-SVPD def2/J TightSCF xyzfile
|  2>
|  3> *xyzfile 0 1 D1.xyz
|  4>
|  5> %MaxCore 64000
|  6>
|  7> %pal nprocs 4
|  8> end
|  9>
| 10> %scf
| 11>   MaxIter 150
| 12> end
| 13>
| 14>
| 15>                          ****END OF INPUT****

CARTESIAN COORDINATES (ANGSTROEM)
---------------------------------
  C      4.366454   -0.133215   -1.416062
  C      4.508292   -0.931872   -2.724249
  H      4.753716   -1.972051   -2.488408
  C      3.294164   -0.918214   -3.656570
  H      5.385637   -0.536236   -3.242640
  H      2.483463   -1.477378   -3.185764
  H      3.553092   -1.478495   -4.560331
  C      2.772335    0.460100   -4.051448
  H      2.608762    1.065107   -3.155194
  C      1.465354    0.410537   -4.853644
  H      3.532940    0.988848   -4.635671
  C      0.326171   -0.375613   -4.192580
  H      1.666704   -0.022269   -5.839323
  H      1.138198    1.439246   -5.035449
  C     -0.017405    0.080588   -2.778406
  H      0.585573   -1.439385   -4.168057
  H     -0.560005   -0.311425   -4.831461
  H      0.902090    0.201296   -2.206729
  C     -0.903495   -0.873945   -1.987388
  H     -0.479549    1.074657   -2.811915
  H     -0.502554   -1.892096   -2.081204
  H     -1.917039   -0.895427   -2.406277
  C     -0.960148   -0.522365   -0.489867
  H     -1.690392   -1.208130   -0.021677
  H     -1.414490    0.486329   -0.406677
  F      0.261703   -0.580307    0.138611
  C      3.056503   -0.320797   -0.707384
  C      2.389825    0.711285   -0.243909
  N      2.515999   -1.507721   -0.550229
  H      2.967683   -2.322915   -0.956305
  H      1.549872   -1.490634   -0.249876
  H      2.743071    1.649471   -0.412802
  H      1.440364    0.502778    0.037031
  H      4.487835    0.932997   -1.611569
  H      5.169672   -0.414432   -0.729817

 Total Charge           Charge          ....    0
 Multiplicity           Mult            ....    1
 Number of Electrons    NEL             ....  104
 Basis Dimension        Dim             ....  439

ORBITAL ENERGIES
----------------

  NO   OCC          E(Eh)            E(eV)
   0   2.0000     -24.494746      -666.5359
   1   2.0000     -14.162795      -385.3892
   2   2.0000     -10.178299      -276.9656
   3   2.0000     -10.098269      -274.7879
   4   2.0000     -10.087965      -274.5075
   5   2.0000     -10.077902      -274.2337
   6   2.0000     -10.077693      -274.2280
   7   2.0000     -10.075800      -274.1765
   8   2.0000     -10.075230      -274.1609
   9   2.0000     -10.072633      -274.0903
  10   2.0000     -10.070993      -274.0457
  11   2.0000     -10.069056      -273.9929
  12   2.0000      -9.991899      -271.8934
  13   2.0000      -1.302968       -35.4556
  14   2.0000      -1.010936       -27.5090
  15   2.0000      -0.924772       -25.1643
  16   2.0000      -0.901513       -24.5314
  17   2.0000      -0.875287       -23.8178
  18   2.0000      -0.835446       -22.7336
  19   2.0000      -0.808974       -22.0133
  20   2.0000      -0.790335       -21.5061
  21   2.0000      -0.741783       -20.1849
  22   2.0000      -0.721750       -19.6398
  23   2.0000      -0.692336       -18.8394
  24   2.0000      -0.662150       -18.0180
  25   2.0000      -0.647606       -17.6222
  26   2.0000      -0.641810       -17.4645
  27   2.0000      -0.631660       -17.1884
  28   2.0000      -0.621434       -16.9101
  29   2.0000      -0.596161       -16.2224
  30   2.0000      -0.579432       -15.7671
  31   2.0000      -0.566536       -15.4162
  32   2.0000      -0.548698       -14.9308
  33   2.0000      -0.543086       -14.7781
  34   2.0000      -0.532881       -14.5004
  35   2.0000      -0.527134       -14.3441
  36   2.0000      -0.500752       -13.6262
  37   2.0000      -0.491345       -13.3702
  38   2.0000      -0.481645       -13.1062
  39   2.0000      -0.474022       -12.8988
  40   2.0000      -0.466645       -12.6981
  41   2.0000      -0.456129       -12.4119
  42   2.0000      -0.451224       -12.2784
  43   2.0000      -0.441497       -12.0137
  44   2.0000      -0.437214       -11.8972
  45   2.0000      -0.429372       -11.6838
  46   2.0000      -0.411655       -11.2017
  47   2.0000      -0.410823       -11.1791
  48   2.0000      -0.401875       -10.9356
  49   2.0000      -0.398478       -10.8431
  50   2.0000      -0.395935       -10.7740
  51   2.0000      -0.267278        -7.2730
  52   0.0000       0.068606         1.8669
  53   0.0000       0.078401         2.1334
  54   0.0000       0.085168         2.3175
  55   0.0000       0.087224         2.3735
  56   0.0000       0.106423         2.8959

MULLIKEN ATOMIC CHARGES
-----------------------
   0 C :    0.695606
   1 C :    0.736715
   2 H :   -0.092793
   3 C :    0.061360
   4 H :   -0.213091
   5 H :   -0.113211
   6 H :   -0.293950
   7 C :    0.171854
   8 H :   -0.011150
   9 C :    0.876564
  10 H :   -0.479151
  11 C :    0.250184
  12 H :   -0.095564
  13 H :   -0.079554
  14 C :    0.763533
  15 H :    0.098419
  16 H :   -0.545209
  17 H :   -1.156115
  18 C :    0.275242
  19 H :   -0.065504
  20 H :   -0.058257
  21 H :   -0.263064
  22 C :    1.161327
  23 H :   -0.216543
  24 H :   -0.088655
  25 F :   -0.705581
  26 C :   -0.907450
  27 C :    1.011030
  28 N :    0.800961
  29 H :   -0.102315
  30 H :   -0.431288
  31 H :   -0.405647
  32 H :   -0.495846
  33 H :    0.350867
  34 H :   -0.433724
Sum of atomic charges:   -0.0000000

LOEWDIN ATOMIC CHARGES
----------------------
   0 C :    0.010021
   1 C :   -0.034106
   2 H :    0.017985
   3 C :   -0.041189
   4 H :    0.024640
   5 H :   -0.008271
   6 H :    0.031875
   7 C :   -0.037325
   8 H :    0.008262
   9 C :   -0.035882
  10 H :    0.030149
  11 C :   -0.045108
  12 H :    0.026230
  13 H :    0.027235
  14 C :   -0.036337
  15 H :    0.015951
  16 H :    0.026182
  17 H :   -0.024449
  18 C :   -0.023829
  19 H :    0.043982
  20 H :    0.033037
  21 H :    0.039529
  22 C :    0.141087
  23 H :    0.041090
  24 H :    0.050926
  25 F :   -0.202027
  26 C :   -0.254562
  27 C :    0.178044
  28 N :    0.211253
  29 H :    0.003923
  30 H :   -0.068679
  31 H :   -0.068188
  32 H :   -0.135753
  33 H :    0.024487
  34 H :    0.029821

  Mayer bond orders larger than 0.100000
B(  0-C ,  1-C ) :   1.1393 B(  0-C ,  2-H ) :   0.1687 B(  0-C ,  4-H ) :   0.2617
B(  0-C ,  6-H ) :  -0.1083 B(  0-C , 26-C ) :   1.2190 B(  0-C , 27-C ) :   0.1513
B(  0-C , 31-H ) :  -0.1684 B(  0-C , 33-H ) :   0.7451 B(  0-C , 34-H ) :   0.4522
B(  1-C ,  2-H ) :   0.5180 B(  1-C ,  3-C ) :   1.2214 B(  1-C ,  4-H ) :   0.6406
B(  1-C ,  5-H ) :   0.1117 B(  1-C , 26-C ) :   0.2792 B(  1-C , 33-H ) :   0.1925
B(  2-H ,  3-C ) :   0.3710 B(  2-H ,  4-H ) :  -0.2005 B(  3-C ,  4-H ) :   0.2122
B(  3-C ,  5-H ) :   0.8140 B(  3-C ,  6-H ) :   0.8074 B(  3-C ,  7-C ) :   1.2338
B(  3-C ,  8-H ) :   0.1588 B(  3-C , 10-H ) :   0.1924 B(  5-H ,  7-C ) :   0.1673
B(  5-H , 15-H ) :   0.1961 B(  5-H , 16-H ) :  -0.1339 B(  6-H ,  7-C ) :   0.1463
B(  7-C ,  8-H ) :   0.8360 B(  7-C ,  9-C ) :   1.1047 B(  7-C , 10-H ) :   0.8705
B(  7-C , 11-C ) :   0.2264 B(  7-C , 12-H ) :   0.1180 B(  7-C , 13-H ) :   0.3230
B(  8-H , 17-H ) :   0.2212 B(  9-C , 11-C ) :   1.1088 B(  9-C , 12-H ) :   0.6434
B(  9-C , 13-H ) :   0.5718 B( 11-C , 12-H ) :   0.2380 B( 11-C , 13-H ) :   0.1507
B( 11-C , 14-C ) :   1.1452 B( 11-C , 15-H ) :   0.7853 B( 11-C , 16-H ) :   0.9030
B( 11-C , 17-H ) :   0.2361 B( 11-C , 18-C ) :   0.1002 B( 11-C , 19-H ) :   0.1258
B( 12-H , 13-H ) :  -0.1538 B( 14-C , 15-H ) :   0.1617 B( 14-C , 16-H ) :   0.2736
B( 14-C , 17-H ) :  -0.1804 B( 14-C , 18-C ) :   1.1580 B( 14-C , 19-H ) :   0.5939
B( 14-C , 20-H ) :   0.1335 B( 14-C , 21-H ) :   0.2737 B( 14-C , 22-C ) :   0.1670
B( 14-C , 27-C ) :   0.2340 B( 15-H , 16-H ) :  -0.1234 B( 17-H , 18-C ) :   0.2189
B( 17-H , 19-H ) :   0.2684 B( 17-H , 26-C ) :   0.1479 B( 17-H , 27-C ) :  -0.1692
B( 17-H , 32-H ) :   0.1544 B( 18-C , 19-H ) :   0.1108 B( 18-C , 20-H ) :   0.8631
B( 18-C , 21-H ) :   0.7524 B( 18-C , 22-C ) :   1.1086 B( 18-C , 23-H ) :   0.2551
B( 18-C , 24-H ) :   0.1282 B( 18-C , 25-F ) :   0.1044 B( 20-H , 22-C ) :   0.1050
B( 22-C , 23-H ) :   0.6524 B( 22-C , 24-H ) :   0.7523 B( 22-C , 25-F ) :   0.7037
B( 24-H , 25-F ) :   0.1686 B( 25-F , 26-C ) :   0.1138 B( 25-F , 27-C ) :  -0.1636
B( 25-F , 30-H ) :   0.1683 B( 25-F , 32-H ) :   0.2275 B( 26-C , 27-C ) :   2.1232
B( 26-C , 28-N ) :   1.0377 B( 26-C , 31-H ) :   0.1624 B( 26-C , 32-H ) :   0.6988
B( 26-C , 34-H ) :   0.4576 B( 27-C , 28-N ) :   0.3892 B( 27-C , 31-H ) :   0.9080
B( 27-C , 32-H ) :  -0.1759 B( 28-N , 29-H ) :   1.0445 B( 28-N , 30-H ) :   1.0344
B( 28-N , 31-H ) :   0.2229 B( 29-H , 30-H ) :  -0.2504 B( 29-H , 32-H ) :  -0.1103
B( 30-H , 32-H ) :   0.1076 B( 31-H , 32-H ) :  -0.2737 B( 33-H , 34-H ) :  -0.1454

FINAL SINGLE POINT ENERGY      -585.004445136667

DIPOLE MOMENT
-------------
                                X             Y             Z
Electronic contribution:     -2.72447      -1.59826      10.42585
Nuclear contribution   :      1.82572       1.04089     -11.09065
                        -----------------------------------------
Total Dipole Moment    :     -0.89875      -0.55737      -0.66479
                        -----------------------------------------
Magnitude (a.u.)       :      1.24914
Magnitude (Debye)      :      3.17507

Rotational constants in cm-1:     0.028436     0.022359     0.014416
Rotational constants in MHz :   852.496561   670.291843   432.183951

                             ****ORCA TERMINATED NORMALLY****
TOTAL RUN TIME: 0 days 0 hours 3 minutes 21 seconds 882 msec
