                         Program Version 5.0.0 -  RELEASE  -
|  1> !M062X D3Zero RIJCOSX def2-SVP def2/J TightSCF
|  2> *xyz -1 1
|  3> C          0.96805        1.63064       -3.71575
|  4> C         -0.50835        1.72268       -4.12430
|  5> S         -1.32861        0.14674       -4.43578
|  6> H         -0.59151        2.29496       -5.04722
|  7> H         -1.11411        2.23561       -3.37436
|  8> O         -2.57135        0.47573       -5.06834
|  9> O         -1.51496       -0.40051       -3.06342
| 10> O         -0.37793       -0.62756       -5.20114
| 11> H          1.51840        1.12197       -4.47946
| 12> H          1.05062        1.08971       -2.79625
| 13> H          1.36450        2.61606       -3.58668
| 14> *
| 15> %MaxCore 64000
| 16>
| 17> %pal nprocs 4
| 18> end
| 19>
| 20> %scf
| 21>   MaxIter 150
| 22> end
| 23>
| 24>
| 25>                          ****END OF INPUT****

CARTESIAN COORDINATES (ANGSTROEM)
---------------------------------
  C      0.968050    1.630640   -3.715750
  C     -0.508350    1.722680   -4.124300
  S     -1.328610    0.146740   -4.435780
  H     -0.591510    2.294960   -5.047220
  H     -1.114110    2.235610   -3.374360
  O     -2.571350    0.475730   -5.068340
  O     -1.514960   -0.400510   -3.063420
  O     -0.377930   -0.627560   -5.201140
  H      1.518400    1.121970   -4.479460
  H      1.050620    1.089710   -2.796250
  H      1.364500    2.616060   -3.586680

 Total Charge           Charge          ....   -1
 Multiplicity           Mult            ....    1
 Number of Electrons    NEL             ....   58
 Basis Dimension        Dim             ....  113

ORBITAL ENERGIES
----------------

  NO   OCC          E(Eh)            E(eV)
   0   2.0000     -89.900919     -2446.3284
   1   2.0000     -19.388519      -527.5884
   2   2.0000     -19.385342      -527.5020
   3   2.0000     -19.366414      -526.9869
   4   2.0000     -10.400973      -283.0249
   5   2.0000     -10.394374      -282.8453
   6   2.0000      -8.231246      -223.9836
   7   2.0000      -6.155967      -167.5124
   8   2.0000      -6.155692      -167.5049
   9   2.0000      -6.155590      -167.5021
  10   2.0000      -1.026645       -27.9364
  11   2.0000      -0.885458       -24.0945
  12   2.0000      -0.851132       -23.1605
  13   2.0000      -0.708791       -19.2872
  14   2.0000      -0.576809       -15.6958
  15   2.0000      -0.442771       -12.0484
  16   2.0000      -0.377663       -10.2767
  17   2.0000      -0.376569       -10.2470
  18   2.0000      -0.334928        -9.1138
  19   2.0000      -0.321633        -8.7521
  20   2.0000      -0.314212        -8.5501
  21   2.0000      -0.281824        -7.6688
  22   2.0000      -0.267146        -7.2694
  23   2.0000      -0.201370        -5.4796
  24   2.0000      -0.199217        -5.4210
  25   2.0000      -0.166420        -4.5285
  26   2.0000      -0.151167        -4.1135
  27   2.0000      -0.137806        -3.7499
  28   2.0000      -0.110087        -2.9956
  29   0.0000       0.242392         6.5958
  30   0.0000       0.294538         8.0148
  31   0.0000       0.302047         8.2191
  32   0.0000       0.307772         8.3749
  33   0.0000       0.335398         9.1266

MULLIKEN ATOMIC CHARGES
-----------------------
   0 C :   -0.031217
   1 C :   -0.158318
   2 S :    0.955745
   3 H :    0.013664
   4 H :    0.025895
   5 O :   -0.593543
   6 O :   -0.656379
   7 O :   -0.607210
   8 H :    0.031974
   9 H :    0.029659
  10 H :   -0.010271
Sum of atomic charges:   -1.0000000

LOEWDIN ATOMIC CHARGES
----------------------
   0 C :   -0.077267
   1 C :   -0.199060
   2 S :    1.130853
   3 H :    0.004552
   4 H :    0.011421
   5 O :   -0.611589
   6 O :   -0.678177
   7 O :   -0.624633
   8 H :    0.019750
   9 H :    0.019875
  10 H :    0.004275

  Mayer bond orders larger than 0.100000
B(  0-C ,  1-C ) :   1.0543 B(  0-C ,  8-H ) :   0.9694 B(  0-C ,  9-H ) :   0.9707
B(  0-C , 10-H ) :   0.9669 B(  1-C ,  2-S ) :   0.8931 B(  1-C ,  3-H ) :   0.9446
B(  1-C ,  4-H ) :   0.9475 B(  2-S ,  5-O ) :   1.6357 B(  2-S ,  6-O ) :   1.5613
B(  2-S ,  7-O ) :   1.6105

Dispersion correction           -0.000146042
FINAL SINGLE POINT ENERGY      -702.570419469211

DIPOLE MOMENT
-------------
                                X             Y             Z
Electronic contribution:     -5.65167      -5.37614      -1.96550
Nuclear contribution   :      6.64523       6.80157       2.07300
                        -----------------------------------------
Total Dipole Moment    :      0.99356       1.42543       0.10750
                        -----------------------------------------
Magnitude (a.u.)       :      1.74085
Magnitude (Debye)      :      4.42489

Rotational constants in cm-1:     0.163070     0.082807     0.081541
Rotational constants in MHz :  4888.719902  2482.497026  2444.541148

                             ****ORCA TERMINATED NORMALLY****
TOTAL RUN TIME: 0 days 0 hours 0 minutes 13 seconds 651 msec
