                         Program Version 5.0.0 -  RELEASE  -
|  1> !M062X D3Zero RIJCOSX def2-SVP def2/J TightSCF
|  2> *xyz 1 1
|  3> C          1.36401        0.46874       -2.81376
|  4> N          0.42884        0.32140       -1.65531
|  5> C          0.96805        1.63064       -3.71575
|  6> H          0.74858       -0.40054       -1.00134
|  7> H         -0.46105        0.02333       -2.07773
|  8> H          0.31026        1.20137       -1.13495
|  9> H          1.29485       -0.46874       -3.36468
| 10> H          2.37622        0.59740       -2.43149
| 11> H          1.65923        1.70213       -4.52942
| 12> H          0.98421        2.54058       -3.15304
| 13> H         -0.01744        1.46536       -4.09838
| 14> *
| 15> %MaxCore 64000
| 16>
| 17> %pal nprocs 4
| 18> end
| 19>
| 20> %scf
| 21>   MaxIter 150
| 22> end
| 23>
| 24>
| 25>                          ****END OF INPUT****

CARTESIAN COORDINATES (ANGSTROEM)
---------------------------------
  C      1.364010    0.468740   -2.813760
  N      0.428840    0.321400   -1.655310
  C      0.968050    1.630640   -3.715750
  H      0.748580   -0.400540   -1.001340
  H     -0.461050    0.023330   -2.077730
  H      0.310260    1.201370   -1.134950
  H      1.294850   -0.468740   -3.364680
  H      2.376220    0.597400   -2.431490
  H      1.659230    1.702130   -4.529420
  H      0.984210    2.540580   -3.153040
  H     -0.017440    1.465360   -4.098380

 Total Charge           Charge          ....    1
 Multiplicity           Mult            ....    1
 Number of Electrons    NEL             ....   26
 Basis Dimension        Dim             ....   82

ORBITAL ENERGIES
----------------

  NO   OCC          E(Eh)            E(eV)
   0   2.0000     -15.098943      -410.8631
   1   2.0000     -10.806209      -294.0519
   2   2.0000     -10.727386      -291.9070
   3   2.0000      -1.314125       -35.7592
   4   2.0000      -1.053654       -28.6714
   5   2.0000      -0.923380       -25.1265
   6   2.0000      -0.881058       -23.9748
   7   2.0000      -0.863928       -23.5087
   8   2.0000      -0.763643       -20.7798
   9   2.0000      -0.713084       -19.4040
  10   2.0000      -0.647773       -17.6268
  11   2.0000      -0.630300       -17.1513
  12   2.0000      -0.615675       -16.7534
  13   0.0000      -0.147364        -4.0100
  14   0.0000      -0.085692        -2.3318
  15   0.0000      -0.081120        -2.2074
  16   0.0000      -0.050187        -1.3657
  17   0.0000      -0.009837        -0.2677

MULLIKEN ATOMIC CHARGES
-----------------------
   0 C :   -0.087081
   1 N :   -0.054473
   2 C :   -0.078736
   3 H :    0.234352
   4 H :    0.231278
   5 H :    0.231304
   6 H :    0.121338
   7 H :    0.127333
   8 H :    0.117799
   9 H :    0.080498
  10 H :    0.076387
Sum of atomic charges:    1.0000000

LOEWDIN ATOMIC CHARGES
----------------------
   0 C :    0.051781
   1 N :    0.281632
   2 C :   -0.044220
   3 H :    0.150046
   4 H :    0.150050
   5 H :    0.147829
   6 H :    0.055879
   7 H :    0.056906
   8 H :    0.067130
   9 H :    0.042014
  10 H :    0.040953

  Mayer bond orders larger than 0.100000
B(  0-C ,  1-N ) :   0.9054 B(  0-C ,  2-C ) :   1.0889 B(  0-C ,  6-H ) :   0.9521
B(  0-C ,  7-H ) :   0.9512 B(  1-N ,  3-H ) :   0.9259 B(  1-N ,  4-H ) :   0.9317
B(  1-N ,  5-H ) :   0.9256 B(  2-C ,  8-H ) :   0.9577 B(  2-C ,  9-H ) :   0.9685
B(  2-C , 10-H ) :   0.9687

Dispersion correction           -0.000052849
FINAL SINGLE POINT ENERGY      -135.349445218281

DIPOLE MOMENT
-------------
                                X             Y             Z
Electronic contribution:     -0.36716      -0.96307       1.60787
Nuclear contribution   :     -0.20470       0.31427      -0.31587
                        -----------------------------------------
Total Dipole Moment    :     -0.57186      -0.64880       1.29200
                        -----------------------------------------
Magnitude (a.u.)       :      1.55475
Magnitude (Debye)      :      3.95185

Rotational constants in cm-1:     1.011480     0.279280     0.248378
Rotational constants in MHz : 30323.408050  8372.602834  7446.185305

                             ****ORCA TERMINATED NORMALLY****
TOTAL RUN TIME: 0 days 0 hours 0 minutes 10 seconds 15 msec
