                         Program Version 5.0.0 -  RELEASE  -
|  1> !M062X D3Zero RIJCOSX def2-TZVP def2/J TightSCF xyzfile
|  2>
|  3> *xyzfile 0 1 B.xyz
|  4>
|  5> %MaxCore 64000
|  6>
|  7> %pal nprocs 18
|  8> end
|  9>
| 10> %scf
| 11>   MaxIter 150
| 12> end
| 13>
| 14>
| 15>                          ****END OF INPUT****

CARTESIAN COORDINATES (ANGSTROEM)
---------------------------------
  C      1.364014    0.468742   -2.813764
  N      0.428844    0.321402   -1.655312
  C      0.968045    1.630639   -3.715749
  C     -0.508347    1.722679   -4.124300
  S     -1.328608    0.146737   -4.435781
  H     -0.591511    2.294958   -5.047219
  H     -1.114114    2.235610   -3.374362
  H      0.748578   -0.400542   -1.001345
  H     -0.461053    0.023332   -2.077731
  H      0.310258    1.201375   -1.134948
  O     -2.571347    0.475733   -5.068341
  O     -1.514963   -0.400512   -3.063420
  H      1.294847   -0.468742   -3.364684
  H      2.376216    0.597400   -2.431495
  H      1.578688    1.520652   -4.612733
  H      1.266653    2.575988   -3.250448
  O     -0.377928   -0.627558   -5.201141

 Total Charge           Charge          ....    0
 Multiplicity           Mult            ....    1
 Number of Electrons    NEL             ....   74
 Basis Dimension        Dim             ....  308

ORBITAL ENERGIES
----------------

  NO   OCC          E(Eh)            E(eV)
   0   2.0000     -90.055931     -2450.5465
   1   2.0000     -19.581211      -532.8318
   2   2.0000     -19.564955      -532.3895
   3   2.0000     -19.562046      -532.3103
   4   2.0000     -14.881023      -404.9332
   5   2.0000     -10.629949      -289.2556
   6   2.0000     -10.579130      -287.8728
   7   2.0000     -10.557060      -287.2722
   8   2.0000      -8.380700      -228.0504
   9   2.0000      -6.303692      -171.5322
  10   2.0000      -6.302595      -171.5023
  11   2.0000      -6.301372      -171.4691
  12   2.0000      -1.217284       -33.1240
  13   2.0000      -1.141458       -31.0606
  14   2.0000      -1.076040       -29.2805
  15   2.0000      -1.074702       -29.2441
  16   2.0000      -0.925008       -25.1708
  17   2.0000      -0.831870       -22.6363
  18   2.0000      -0.739835       -20.1319
  19   2.0000      -0.705080       -19.1862
  20   2.0000      -0.687954       -18.7202
  21   2.0000      -0.628818       -17.1110
  22   2.0000      -0.598397       -16.2832
  23   2.0000      -0.560594       -15.2545
  24   2.0000      -0.544328       -14.8119
  25   2.0000      -0.536721       -14.6049
  26   2.0000      -0.508524       -13.8376
  27   2.0000      -0.499911       -13.6033
  28   2.0000      -0.468436       -12.7468
  29   2.0000      -0.457006       -12.4358
  30   2.0000      -0.441337       -12.0094
  31   2.0000      -0.400514       -10.8986
  32   2.0000      -0.391539       -10.6543
  33   2.0000      -0.358743        -9.7619
  34   2.0000      -0.348694        -9.4884
  35   2.0000      -0.331351        -9.0165
  36   2.0000      -0.309961        -8.4345
  37   0.0000      -0.009062        -0.2466
  38   0.0000       0.039481         1.0743
  39   0.0000       0.057274         1.5585
  40   0.0000       0.086950         2.3660
  41   0.0000       0.096365         2.6222

MULLIKEN ATOMIC CHARGES
-----------------------
   0 C :   -0.287453
   1 N :   -0.371440
   2 C :   -0.292040
   3 C :   -0.401227
   4 S :    0.949118
   5 H :    0.177109
   6 H :    0.165090
   7 H :    0.300766
   8 H :    0.364786
   9 H :    0.294170
  10 O :   -0.511075
  11 O :   -0.607398
  12 H :    0.248573
  13 H :    0.169650
  14 H :    0.178075
  15 H :    0.161507
  16 O :   -0.538211
Sum of atomic charges:   -0.0000000

LOEWDIN ATOMIC CHARGES
----------------------
   0 C :   -0.274541
   1 N :    0.135782
   2 C :   -0.294685
   3 C :   -0.394092
   4 S :    0.457215
   5 H :    0.143604
   6 H :    0.130191
   7 H :    0.200327
   8 H :    0.145517
   9 H :    0.199381
  10 O :   -0.314257
  11 O :   -0.381450
  12 H :    0.155927
  13 H :    0.135230
  14 H :    0.160847
  15 H :    0.140654
  16 O :   -0.345649

  Mayer bond orders larger than 0.100000
B(  0-C ,  1-N ) :   0.8171 B(  0-C ,  2-C ) :   0.9245 B(  0-C , 12-H ) :   0.9513
B(  0-C , 13-H ) :   0.9728 B(  1-N ,  7-H ) :   0.8964 B(  1-N ,  8-H ) :   0.6986
B(  1-N ,  9-H ) :   0.8917 B(  2-C ,  3-C ) :   0.9065 B(  2-C , 14-H ) :   0.9635
B(  2-C , 15-H ) :   0.9700 B(  3-C ,  4-S ) :   0.8997 B(  3-C ,  5-H ) :   0.9592
B(  3-C ,  6-H ) :   0.9577 B(  4-S , 10-O ) :   1.8942 B(  4-S , 11-O ) :   1.4383
B(  4-S , 16-O ) :   1.7570 B(  8-H , 11-O ) :   0.2304

Dispersion correction           -0.000437281
FINAL SINGLE POINT ENERGY      -798.331581244051

DIPOLE MOMENT
-------------
                                X             Y             Z
Electronic contribution:     -6.88513      -4.12447      -4.27879
Nuclear contribution   :      9.95459       5.57517       7.68169
                        -----------------------------------------
Total Dipole Moment    :      3.06946       1.45070       3.40290
                        -----------------------------------------
Magnitude (a.u.)       :      4.80685
Magnitude (Debye)      :     12.21805

Rotational constants in cm-1:     0.102119     0.045768     0.041299
Rotational constants in MHz :  3061.441288  1372.093000  1238.124534

                             ****ORCA TERMINATED NORMALLY****
TOTAL RUN TIME: 0 days 0 hours 0 minutes 24 seconds 976 msec
