                         Program Version 5.0.0 -  RELEASE  -
|  1> !M062X D3Zero RIJCOSX def2-SVP def2/J TightSCF
|  2> *xyz 0 1
|  3> C          0.96805        1.63064       -3.71575
|  4> C         -0.50835        1.72268       -4.12430
|  5> S         -1.32861        0.14674       -4.43578
|  6> H         -0.59151        2.29496       -5.04722
|  7> H         -1.11411        2.23561       -3.37436
|  8> F         -2.57135        0.47573       -5.06834
|  9> O         -1.51496       -0.40051       -3.06342
| 10> O         -0.37793       -0.62756       -5.20114
| 11> H          1.51840        1.12197       -4.47946
| 12> H          1.05062        1.08971       -2.79625
| 13> H          1.36450        2.61606       -3.58668
| 14> *
| 15> %MaxCore 64000
| 16>
| 17> %pal nprocs 4
| 18> end
| 19>
| 20> %scf
| 21>   MaxIter 150
| 22> end
| 23>
| 24>
| 25>                          ****END OF INPUT****

CARTESIAN COORDINATES (ANGSTROEM)
---------------------------------
  C      0.968050    1.630640   -3.715750
  C     -0.508350    1.722680   -4.124300
  S     -1.328610    0.146740   -4.435780
  H     -0.591510    2.294960   -5.047220
  H     -1.114110    2.235610   -3.374360
  F     -2.571350    0.475730   -5.068340
  O     -1.514960   -0.400510   -3.063420
  O     -0.377930   -0.627560   -5.201140
  H      1.518400    1.121970   -4.479460
  H      1.050620    1.089710   -2.796250
  H      1.364500    2.616060   -3.586680

 Total Charge           Charge          ....    0
 Multiplicity           Mult            ....    1
 Number of Electrons    NEL             ....   58
 Basis Dimension        Dim             ....  113

ORBITAL ENERGIES
----------------

  NO   OCC          E(Eh)            E(eV)
   0   2.0000     -90.175982     -2453.8132
   1   2.0000     -25.371402      -690.3909
   2   2.0000     -19.637189      -534.3551
   3   2.0000     -19.619387      -533.8706
   4   2.0000     -10.607567      -288.6466
   5   2.0000     -10.569820      -287.6194
   6   2.0000      -8.508961      -231.5406
   7   2.0000      -6.436668      -175.1506
   8   2.0000      -6.431137      -175.0001
   9   2.0000      -6.430240      -174.9757
  10   2.0000      -1.521181       -41.3934
  11   2.0000      -1.215790       -33.0833
  12   2.0000      -1.103974       -30.0407
  13   2.0000      -0.909175       -24.7399
  14   2.0000      -0.832209       -22.6456
  15   2.0000      -0.763115       -20.7654
  16   2.0000      -0.689739       -18.7687
  17   2.0000      -0.682072       -18.5601
  18   2.0000      -0.632984       -17.2244
  19   2.0000      -0.562910       -15.3176
  20   2.0000      -0.555864       -15.1258
  21   2.0000      -0.509184       -13.8556
  22   2.0000      -0.496455       -13.5092
  23   2.0000      -0.471836       -12.8393
  24   2.0000      -0.450465       -12.2578
  25   2.0000      -0.448937       -12.2162
  26   2.0000      -0.395605       -10.7650
  27   2.0000      -0.376116       -10.2346
  28   2.0000      -0.366852        -9.9825
  29   0.0000       0.081723         2.2238
  30   0.0000       0.089588         2.4378
  31   0.0000       0.118069         3.2128
  32   0.0000       0.129251         3.5171
  33   0.0000       0.136959         3.7268

MULLIKEN ATOMIC CHARGES
-----------------------
   0 C :   -0.033986
   1 C :   -0.194932
   2 S :    1.020121
   3 H :    0.077807
   4 H :    0.093576
   5 F :   -0.185596
   6 O :   -0.513819
   7 O :   -0.467255
   8 H :    0.071275
   9 H :    0.072228
  10 H :    0.060581
Sum of atomic charges:    0.0000000

LOEWDIN ATOMIC CHARGES
----------------------
   0 C :   -0.048214
   1 C :   -0.162385
   2 S :    1.188171
   3 H :    0.030879
   4 H :    0.039790
   5 F :   -0.116614
   6 O :   -0.548835
   7 O :   -0.497602
   8 H :    0.037348
   9 H :    0.038668
  10 H :    0.038793

  Mayer bond orders larger than 0.100000
B(  0-C ,  1-C ) :   1.0642 B(  0-C ,  8-H ) :   0.9696 B(  0-C ,  9-H ) :   0.9727
B(  0-C , 10-H ) :   0.9656 B(  1-C ,  2-S ) :   0.9255 B(  1-C ,  3-H ) :   0.9321
B(  1-C ,  4-H ) :   0.9333 B(  2-S ,  5-F ) :   1.0115 B(  2-S ,  6-O ) :   1.7166
B(  2-S ,  7-O ) :   1.7646

Dispersion correction           -0.000141148
FINAL SINGLE POINT ENERGY      -727.060826657764

DIPOLE MOMENT
-------------
                                X             Y             Z
Electronic contribution:     -8.35113      -5.13359      -3.26370
Nuclear contribution   :      8.31000       6.74109       2.87442
                        -----------------------------------------
Total Dipole Moment    :     -0.04113       1.60750      -0.38927
                        -----------------------------------------
Magnitude (a.u.)       :      1.65447
Magnitude (Debye)      :      4.20533

Rotational constants in cm-1:     0.158705     0.080192     0.078179
Rotational constants in MHz :  4757.865601  2404.095079  2343.752507

                             ****ORCA TERMINATED NORMALLY****
TOTAL RUN TIME: 0 days 0 hours 0 minutes 14 seconds 114 msec
