                         Program Version 5.0.0 -  RELEASE  -
|  1> !M062X D3Zero RIJCOSX def2-SVP def2/J TightSCF
|  2> *xyz 0 1
|  3> C          1.36401        0.46874       -2.81376
|  4> C          0.42884        0.32140       -1.65531
|  5> C          0.96805        1.63064       -3.71575
|  6> H          0.74858       -0.40054       -1.00134
|  7> H         -0.46105        0.02333       -2.07773
|  8> H          0.31026        1.20137       -1.13495
|  9> H          1.29485       -0.46874       -3.36468
| 10> H          2.37622        0.59740       -2.43149
| 11> H          1.65923        1.70213       -4.52942
| 12> H          0.98421        2.54058       -3.15304
| 13> H         -0.01744        1.46536       -4.09838
| 14> *
| 15> %MaxCore 64000
| 16>
| 17> %pal nprocs 4
| 18> end
| 19>
| 20> %scf
| 21>   MaxIter 150
| 22> end
| 23>
| 24>
| 25>                          ****END OF INPUT****

CARTESIAN COORDINATES (ANGSTROEM)
---------------------------------
  C      1.364010    0.468740   -2.813760
  C      0.428840    0.321400   -1.655310
  C      0.968050    1.630640   -3.715750
  H      0.748580   -0.400540   -1.001340
  H     -0.461050    0.023330   -2.077730
  H      0.310260    1.201370   -1.134950
  H      1.294850   -0.468740   -3.364680
  H      2.376220    0.597400   -2.431490
  H      1.659230    1.702130   -4.529420
  H      0.984210    2.540580   -3.153040
  H     -0.017440    1.465360   -4.098380

 Total Charge           Charge          ....    0
 Multiplicity           Mult            ....    1
 Number of Electrons    NEL             ....   26
 Basis Dimension        Dim             ....   82

ORBITAL ENERGIES
----------------

  NO   OCC          E(Eh)            E(eV)
   0   2.0000     -10.535004      -286.6720
   1   2.0000     -10.528755      -286.5020
   2   2.0000     -10.512607      -286.0626
   3   2.0000      -0.880486       -23.9592
   4   2.0000      -0.772075       -21.0092
   5   2.0000      -0.658862       -17.9285
   6   2.0000      -0.539963       -14.6931
   7   2.0000      -0.511970       -13.9314
   8   2.0000      -0.466617       -12.6973
   9   2.0000      -0.454191       -12.3592
  10   2.0000      -0.395386       -10.7590
  11   2.0000      -0.391179       -10.6445
  12   2.0000      -0.387660       -10.5488
  13   0.0000       0.102158         2.7799
  14   0.0000       0.153554         4.1784
  15   0.0000       0.154011         4.1909
  16   0.0000       0.159053         4.3280
  17   0.0000       0.186541         5.0760

MULLIKEN ATOMIC CHARGES
-----------------------
   0 C :   -0.148401
   1 C :    0.009523
   2 C :   -0.052612
   3 H :    0.013877
   4 H :    0.009543
   5 H :    0.011845
   6 H :    0.031172
   7 H :    0.032491
   8 H :    0.034631
   9 H :    0.030082
  10 H :    0.027851
Sum of atomic charges:    0.0000000

LOEWDIN ATOMIC CHARGES
----------------------
   0 C :   -0.046999
   1 C :   -0.046816
   2 C :   -0.058403
   3 H :    0.015840
   4 H :    0.016237
   5 H :    0.013269
   6 H :    0.021882
   7 H :    0.019027
   8 H :    0.023285
   9 H :    0.021430
  10 H :    0.021248

  Mayer bond orders larger than 0.100000
B(  0-C ,  1-C ) :   1.0916 B(  0-C ,  2-C ) :   1.0902 B(  0-C ,  6-H ) :   0.9596
B(  0-C ,  7-H ) :   0.9596 B(  1-C ,  3-H ) :   0.9683 B(  1-C ,  4-H ) :   0.9744
B(  1-C ,  5-H ) :   0.9752 B(  2-C ,  8-H ) :   0.9728 B(  2-C ,  9-H ) :   0.9760
B(  2-C , 10-H ) :   0.9761

Dispersion correction           -0.000051421
FINAL SINGLE POINT ENERGY      -118.957277315626

DIPOLE MOMENT
-------------
                                X             Y             Z
Electronic contribution:      0.35600      -0.17567      -0.01854
Nuclear contribution   :     -0.35842       0.15752       0.02695
                        -----------------------------------------
Total Dipole Moment    :     -0.00242      -0.01815       0.00841
                        -----------------------------------------
Magnitude (a.u.)       :      0.02015
Magnitude (Debye)      :      0.05121

Rotational constants in cm-1:     1.019891     0.293671     0.260247
Rotational constants in MHz : 30575.551403  8804.039097  7802.009261

                             ****ORCA TERMINATED NORMALLY****
TOTAL RUN TIME: 0 days 0 hours 0 minutes 9 seconds 947 msec
