                         Program Version 5.0.0 -  RELEASE  -
|  1> !M062X D3Zero RIJCOSX def2-SVP def2/J TightSCF
|  2> *xyz 0 1
|  3> C          0.96805        1.63064       -3.71575
|  4> C         -0.50835        1.72268       -4.12430
|  5> S         -1.32861        0.14674       -4.43578
|  6> H         -0.59151        2.29496       -5.04722
|  7> H         -1.11411        2.23561       -3.37436
|  8> O         -2.57135        0.47573       -5.06834
|  9> O         -1.51496       -0.40051       -3.06342
| 10> F         -0.37793       -0.62756       -5.20114
| 11> H          1.51840        1.12197       -4.47946
| 12> H          1.05062        1.08971       -2.79625
| 13> H          1.36450        2.61606       -3.58668
| 14> *
| 15> %MaxCore 64000
| 16>
| 17> %pal nprocs 4
| 18> end
| 19>
| 20> %scf
| 21>   MaxIter 150
| 22> end
| 23>
| 24>
| 25>                          ****END OF INPUT****

CARTESIAN COORDINATES (ANGSTROEM)
---------------------------------
  C      0.968050    1.630640   -3.715750
  C     -0.508350    1.722680   -4.124300
  S     -1.328610    0.146740   -4.435780
  H     -0.591510    2.294960   -5.047220
  H     -1.114110    2.235610   -3.374360
  O     -2.571350    0.475730   -5.068340
  O     -1.514960   -0.400510   -3.063420
  F     -0.377930   -0.627560   -5.201140
  H      1.518400    1.121970   -4.479460
  H      1.050620    1.089710   -2.796250
  H      1.364500    2.616060   -3.586680

 Total Charge           Charge          ....    0
 Multiplicity           Mult            ....    1
 Number of Electrons    NEL             ....   58
 Basis Dimension        Dim             ....  113

ORBITAL ENERGIES
----------------

  NO   OCC          E(Eh)            E(eV)
   0   2.0000     -90.175415     -2453.7978
   1   2.0000     -25.365548      -690.2316
   2   2.0000     -19.641004      -534.4589
   3   2.0000     -19.619844      -533.8831
   4   2.0000     -10.607319      -288.6398
   5   2.0000     -10.575323      -287.7692
   6   2.0000      -8.508356      -231.5241
   7   2.0000      -6.436115      -175.1356
   8   2.0000      -6.430572      -174.9848
   9   2.0000      -6.429618      -174.9588
  10   2.0000      -1.509992       -41.0890
  11   2.0000      -1.222367       -33.2623
  12   2.0000      -1.107245       -30.1297
  13   2.0000      -0.913496       -24.8575
  14   2.0000      -0.824638       -22.4395
  15   2.0000      -0.764409       -20.8006
  16   2.0000      -0.689087       -18.7510
  17   2.0000      -0.681021       -18.5315
  18   2.0000      -0.623870       -16.9764
  19   2.0000      -0.564552       -15.3622
  20   2.0000      -0.551861       -15.0169
  21   2.0000      -0.521412       -14.1883
  22   2.0000      -0.504646       -13.7321
  23   2.0000      -0.476246       -12.9593
  24   2.0000      -0.459915       -12.5149
  25   2.0000      -0.447658       -12.1814
  26   2.0000      -0.397833       -10.8256
  27   2.0000      -0.377681       -10.2772
  28   2.0000      -0.369953       -10.0669
  29   0.0000       0.068443         1.8624
  30   0.0000       0.103909         2.8275
  31   0.0000       0.116279         3.1641
  32   0.0000       0.132566         3.6073
  33   0.0000       0.137801         3.7498

MULLIKEN ATOMIC CHARGES
-----------------------
   0 C :   -0.055035
   1 C :   -0.193971
   2 S :    1.021707
   3 H :    0.087025
   4 H :    0.117720
   5 O :   -0.450418
   6 O :   -0.513944
   7 F :   -0.200423
   8 H :    0.050726
   9 H :    0.071651
  10 H :    0.064963
Sum of atomic charges:    0.0000000

LOEWDIN ATOMIC CHARGES
----------------------
   0 C :   -0.064814
   1 C :   -0.158023
   2 S :    1.190105
   3 H :    0.035244
   4 H :    0.056104
   5 O :   -0.483201
   6 O :   -0.548989
   7 F :   -0.129948
   8 H :    0.027406
   9 H :    0.036024
  10 H :    0.040092

  Mayer bond orders larger than 0.100000
B(  0-C ,  1-C ) :   1.0422 B(  0-C ,  8-H ) :   0.9747 B(  0-C ,  9-H ) :   0.9714
B(  0-C , 10-H ) :   0.9647 B(  1-C ,  2-S ) :   0.9280 B(  1-C ,  3-H ) :   0.9366
B(  1-C ,  4-H ) :   0.9367 B(  2-S ,  5-O ) :   1.7887 B(  2-S ,  6-O ) :   1.7176
B(  2-S ,  7-F ) :   0.9898

Dispersion correction           -0.000152802
FINAL SINGLE POINT ENERGY      -727.066043865022

DIPOLE MOMENT
-------------
                                X             Y             Z
Electronic contribution:     -4.61661      -6.99959      -3.47280
Nuclear contribution   :      6.02439       7.89075       3.01280
                        -----------------------------------------
Total Dipole Moment    :      1.40778       0.89116      -0.46000
                        -----------------------------------------
Magnitude (a.u.)       :      1.72847
Magnitude (Debye)      :      4.39342

Rotational constants in cm-1:     0.153652     0.082400     0.079295
Rotational constants in MHz :  4606.361242  2470.285703  2377.214112

                             ****ORCA TERMINATED NORMALLY****
TOTAL RUN TIME: 0 days 0 hours 0 minutes 14 seconds 284 msec
