                         Program Version 5.0.0 -  RELEASE  -
|  1> !M062X D3Zero RIJCOSX def2-TZVP def2/J TightSCF xyzfile
|  2>
|  3> *xyzfile 0 1 D1.xyz
|  4>
|  5> %MaxCore 64000
|  6>
|  7> %pal nprocs 18
|  8> end
|  9>
| 10> %scf
| 11>   MaxIter 150
| 12> end
| 13>
| 14>
| 15>                          ****END OF INPUT****

CARTESIAN COORDINATES (ANGSTROEM)
---------------------------------
  C      1.364014    0.468742   -2.813764
  C      0.428844    0.321402   -1.655312
  C      0.968045    1.630639   -3.715749
  C     -0.508347    1.722679   -4.124300
  S     -1.328608    0.146737   -4.435781
  H     -0.591511    2.294958   -5.047219
  H     -1.114114    2.235610   -3.374362
  H      0.748578   -0.400542   -1.001345
  H     -0.461053    0.023332   -2.077731
  H      0.310258    1.201375   -1.134948
  F     -2.571347    0.475733   -5.068341
  O     -1.514963   -0.400512   -3.063420
  H      1.294847   -0.468742   -3.364684
  H      2.376216    0.597400   -2.431495
  H      1.578688    1.520652   -4.612733
  H      1.266653    2.575988   -3.250448
  O     -0.377928   -0.627558   -5.201141

 Total Charge           Charge          ....    0
 Multiplicity           Mult            ....    1
 Number of Electrons    NEL             ....   74
 Basis Dimension        Dim             ....  308

ORBITAL ENERGIES
----------------

  NO   OCC          E(Eh)            E(eV)
   0   2.0000     -90.159411     -2453.3623
   1   2.0000     -25.378823      -690.5929
   2   2.0000     -19.646721      -534.6145
   3   2.0000     -19.633363      -534.2510
   4   2.0000     -10.596891      -288.3561
   5   2.0000     -10.556636      -287.2607
   6   2.0000     -10.519535      -286.2511
   7   2.0000     -10.461275      -284.6658
   8   2.0000      -8.484752      -230.8818
   9   2.0000      -6.409499      -174.4113
  10   2.0000      -6.404465      -174.2743
  11   2.0000      -6.404207      -174.2673
  12   2.0000      -1.545334       -42.0507
  13   2.0000      -1.235986       -33.6329
  14   2.0000      -1.137028       -30.9401
  15   2.0000      -0.931010       -25.3341
  16   2.0000      -0.875580       -23.8257
  17   2.0000      -0.823064       -22.3967
  18   2.0000      -0.769765       -20.9464
  19   2.0000      -0.705727       -19.2038
  20   2.0000      -0.700608       -19.0645
  21   2.0000      -0.670622       -18.2485
  22   2.0000      -0.631567       -17.1858
  23   2.0000      -0.585274       -15.9261
  24   2.0000      -0.568614       -15.4728
  25   2.0000      -0.538978       -14.6663
  26   2.0000      -0.533468       -14.5164
  27   2.0000      -0.492057       -13.3896
  28   2.0000      -0.473182       -12.8759
  29   2.0000      -0.470162       -12.7938
  30   2.0000      -0.457833       -12.4583
  31   2.0000      -0.425701       -11.5839
  32   2.0000      -0.413759       -11.2590
  33   2.0000      -0.392767       -10.6877
  34   2.0000      -0.382305       -10.4030
  35   2.0000      -0.379884       -10.3372
  36   2.0000      -0.342253        -9.3132
  37   0.0000       0.052822         1.4373
  38   0.0000       0.064876         1.7654
  39   0.0000       0.090045         2.4503
  40   0.0000       0.093431         2.5424
  41   0.0000       0.107036         2.9126

MULLIKEN ATOMIC CHARGES
-----------------------
   0 C :   -0.304819
   1 C :   -0.457042
   2 C :   -0.277423
   3 C :   -0.372893
   4 S :    0.926002
   5 H :    0.181461
   6 H :    0.194628
   7 H :    0.126259
   8 H :    0.218525
   9 H :    0.119819
  10 F :   -0.096104
  11 O :   -0.455352
  12 H :    0.179617
  13 H :    0.128609
  14 H :    0.158769
  15 H :    0.161354
  16 O :   -0.431412
Sum of atomic charges:   -0.0000000

LOEWDIN ATOMIC CHARGES
----------------------
   0 C :   -0.307030
   1 C :   -0.318149
   2 C :   -0.278790
   3 C :   -0.367986
   4 S :    0.564695
   5 H :    0.139176
   6 H :    0.144515
   7 H :    0.105537
   8 H :    0.087993
   9 H :    0.101236
  10 F :    0.105639
  11 O :   -0.284564
  12 H :    0.143756
  13 H :    0.134880
  14 H :    0.146848
  15 H :    0.148374
  16 O :   -0.266129

  Mayer bond orders larger than 0.100000
B(  0-C ,  1-C ) :   0.8808 B(  0-C ,  2-C ) :   0.9197 B(  0-C , 12-H ) :   0.9845
B(  0-C , 13-H ) :   0.9804 B(  1-C ,  7-H ) :   0.9856 B(  1-C ,  8-H ) :   0.9346
B(  1-C ,  9-H ) :   0.9854 B(  2-C ,  3-C ) :   0.9145 B(  2-C , 14-H ) :   0.9788
B(  2-C , 15-H ) :   0.9645 B(  3-C ,  4-S ) :   0.9365 B(  3-C ,  5-H ) :   0.9445
B(  3-C ,  6-H ) :   0.9350 B(  4-S , 10-F ) :   1.1355 B(  4-S , 11-O ) :   1.7825
B(  4-S , 16-O ) :   1.8979

Dispersion correction           -0.000418383
FINAL SINGLE POINT ENERGY      -806.234801302554

DIPOLE MOMENT
-------------
                                X             Y             Z
Electronic contribution:    -12.47933      -4.05474      -9.74150
Nuclear contribution   :     12.25227       5.48563       9.26621
                        -----------------------------------------
Total Dipole Moment    :     -0.22706       1.43089      -0.47529
                        -----------------------------------------
Magnitude (a.u.)       :      1.52476
Magnitude (Debye)      :      3.87564

Rotational constants in cm-1:     0.103176     0.044975     0.040960
Rotational constants in MHz :  3093.138469  1348.317425  1227.945122

                             ****ORCA TERMINATED NORMALLY****
TOTAL RUN TIME: 0 days 0 hours 0 minutes 26 seconds 204 msec
