                         Program Version 5.0.0 -  RELEASE  -
|  1> !DLPNO-CCSD(T) aug-cc-pVTZ aug-cc-pVTZ/C TightSCF TightPNO RIJCOSX def2/J
|  2> *xyz -1 1
|  3> C         -0.01741        0.08059       -2.77841
|  4> C         -0.90349       -0.87394       -1.98739
|  5> H         -0.50255       -1.89210       -2.08120
|  6> H         -1.91704       -0.89543       -2.40628
|  7> C         -0.96015       -0.52236       -0.48987
|  8> H         -1.69039       -1.20813       -0.02168
|  9> H         -1.41449        0.48633       -0.40668
| 10> O          0.26170       -0.58031        0.13861
| 11> H         -0.01329       -0.20776       -3.80881
| 12> H          0.98025        0.04284       -2.39348
| 13> H         -0.39697        1.07694       -2.68836
| 14> *
| 15>
| 16> %MaxCore 64000
| 17>
| 18> %pal nprocs 8
| 19> end
| 20>
| 21> %scf
| 22>   MaxIter 150
| 23> end
| 24>
| 25>
| 26>                          ****END OF INPUT****

CARTESIAN COORDINATES (ANGSTROEM)
---------------------------------
  C     -0.017410    0.080590   -2.778410
  C     -0.903490   -0.873940   -1.987390
  H     -0.502550   -1.892100   -2.081200
  H     -1.917040   -0.895430   -2.406280
  C     -0.960150   -0.522360   -0.489870
  H     -1.690390   -1.208130   -0.021680
  H     -1.414490    0.486330   -0.406680
  O      0.261700   -0.580310    0.138610
  H     -0.013290   -0.207760   -3.808810
  H      0.980250    0.042840   -2.393480
  H     -0.396970    1.076940   -2.688360

 Total Charge           Charge          ....   -1
 Multiplicity           Mult            ....    1
 Number of Electrons    NEL             ....   34
 Basis Dimension        Dim             ....  345

ORBITAL ENERGIES
----------------

  NO   OCC          E(Eh)            E(eV)
   0   2.0000     -20.206420      -549.8447
   1   2.0000     -11.038640      -300.3767
   2   2.0000     -11.037805      -300.3539
   3   2.0000     -11.030987      -300.1684
   4   2.0000      -0.995366       -27.0853
   5   2.0000      -0.853425       -23.2229
   6   2.0000      -0.705826       -19.2065
   7   2.0000      -0.576203       -15.6793
   8   2.0000      -0.439421       -11.9572
   9   2.0000      -0.428534       -11.6610
  10   2.0000      -0.373085       -10.1522
  11   2.0000      -0.336995        -9.1701
  12   2.0000      -0.303228        -8.2513
  13   2.0000      -0.295148        -8.0314
  14   2.0000      -0.256326        -6.9750
  15   2.0000      -0.115571        -3.1448
  16   2.0000      -0.113031        -3.0757
  17   0.0000       0.121990         3.3195
  18   0.0000       0.134119         3.6496
  19   0.0000       0.137395         3.7387
  20   0.0000       0.148687         4.0460
  21   0.0000       0.155383         4.2282

MULLIKEN ATOMIC CHARGES
-----------------------
   0 C :   -0.930624
   1 C :   -0.497853
   2 H :    0.262482
   3 H :    0.228985
   4 C :   -0.192686
   5 H :    0.199252
   6 H :    0.188579
   7 O :   -1.131080
   8 H :    0.258256
   9 H :    0.326630
  10 H :    0.288060
Sum of atomic charges:   -1.0000000

LOEWDIN ATOMIC CHARGES
----------------------
   0 C :    0.540205
   1 C :    0.177797
   2 H :   -0.175680
   3 H :   -0.184022
   4 C :   -0.388657
   5 H :   -0.234657
   6 H :   -0.228251
   7 O :    0.112986
   8 H :   -0.214800
   9 H :   -0.203423
  10 H :   -0.201500

  Mayer bond orders larger than 0.100000
B(  0-C ,  1-C ) :   0.8011 B(  0-C ,  8-H ) :   0.9856 B(  0-C ,  9-H ) :   0.9044
B(  0-C , 10-H ) :   0.9314 B(  1-C ,  2-H ) :   0.9362 B(  1-C ,  3-H ) :   0.9600
B(  1-C ,  4-C ) :   0.8695 B(  4-C ,  5-H ) :   1.0372 B(  4-C ,  6-H ) :   0.9939
B(  4-C ,  7-O ) :   1.1097

E(0)                                       ...   -192.559138370
E(0)                                       ...   -192.559138370
E(CORR)(strong-pairs)                      ...     -0.838566729
E(CORR)(weak-pairs)                        ...     -0.000682009
E(CORR)(corrected)                         ...     -0.839248738
E(TOT)                                     ...   -193.398387108
E(CCSD(T))                                 ...   -193.432451239
FINAL SINGLE POINT ENERGY      -193.432451238840

DIPOLE MOMENT
-------------
                                X             Y             Z
Electronic contribution:      1.14325      -0.48696       2.57991
Nuclear contribution   :     -2.03764       0.64089      -4.61583
                        -----------------------------------------
Total Dipole Moment    :     -0.89439       0.15393      -2.03592
                        -----------------------------------------
Magnitude (a.u.)       :      2.22904
Magnitude (Debye)      :      5.66576

Rotational constants in cm-1:     0.508897     0.174909     0.148249
Rotational constants in MHz : 15256.351998  5243.652192  4444.387232

                             ****ORCA TERMINATED NORMALLY****
TOTAL RUN TIME: 0 days 0 hours 5 minutes 32 seconds 180 msec
