                         Program Version 5.0.0 -  RELEASE  -
|  1> !DLPNO-CCSD(T) aug-cc-pVTZ aug-cc-pVTZ/C TightSCF TightPNO RIJCOSX def2/J
|  2> *xyz 1 1
|  3> C          4.36645       -0.13321       -1.41606
|  4> C          4.50829       -0.93187       -2.72425
|  5> H          4.75372       -1.97205       -2.48841
|  6> C          3.29416       -0.91821       -3.65657
|  7> H          5.38564       -0.53624       -3.24264
|  8> C          3.05650       -0.32080       -0.70738
|  9> N          2.38983        0.71129       -0.24391
| 10> N          2.51600       -1.50772       -0.55023
| 11> H          2.96768       -2.32291       -0.95631
| 12> H          1.54987       -1.49063       -0.24988
| 13> H          2.74307        1.64947       -0.41280
| 14> H          1.44036        0.50278        0.03703
| 15> H          4.48784        0.93300       -1.61157
| 16> H          5.16967       -0.41443       -0.72982
| 17> H          3.50670       -1.50229       -4.52754
| 18> H          3.07837        0.08892       -3.94644
| 19> H          2.44880       -1.33173       -3.14739
| 20> *
| 21>
| 22> %MaxCore 64000
| 23>
| 24> %pal nprocs 8
| 25> end
| 26>
| 27> %scf
| 28>   MaxIter 150
| 29> end
| 30>
| 31>
| 32>                          ****END OF INPUT****

CARTESIAN COORDINATES (ANGSTROEM)
---------------------------------
  C      4.366450   -0.133210   -1.416060
  C      4.508290   -0.931870   -2.724250
  H      4.753720   -1.972050   -2.488410
  C      3.294160   -0.918210   -3.656570
  H      5.385640   -0.536240   -3.242640
  C      3.056500   -0.320800   -0.707380
  N      2.389830    0.711290   -0.243910
  N      2.516000   -1.507720   -0.550230
  H      2.967680   -2.322910   -0.956310
  H      1.549870   -1.490630   -0.249880
  H      2.743070    1.649470   -0.412800
  H      1.440360    0.502780    0.037030
  H      4.487840    0.933000   -1.611570
  H      5.169670   -0.414430   -0.729820
  H      3.506700   -1.502290   -4.527540
  H      3.078370    0.088920   -3.946440
  H      2.448800   -1.331730   -3.147390

 Total Charge           Charge          ....    1
 Multiplicity           Mult            ....    1
 Number of Electrons    NEL             ....   48
 Basis Dimension        Dim             ....  529

ORBITAL ENERGIES
----------------

  NO   OCC          E(Eh)            E(eV)
   0   2.0000     -15.804697      -430.0677
   1   2.0000     -15.801740      -429.9872
   2   2.0000     -11.564912      -314.6973
   3   2.0000     -11.423580      -310.8514
   4   2.0000     -11.388056      -309.8848
   5   2.0000     -11.352397      -308.9144
   6   2.0000      -1.529215       -41.6121
   7   2.0000      -1.399235       -38.0751
   8   2.0000      -1.248252       -33.9667
   9   2.0000      -1.141628       -31.0653
  10   2.0000      -1.045167       -28.4404
  11   2.0000      -0.996669       -27.1207
  12   2.0000      -0.948406       -25.8074
  13   2.0000      -0.929670       -25.2976
  14   2.0000      -0.870346       -23.6833
  15   2.0000      -0.821599       -22.3569
  16   2.0000      -0.797427       -21.6991
  17   2.0000      -0.750143       -20.4124
  18   2.0000      -0.736214       -20.0334
  19   2.0000      -0.716844       -19.5063
  20   2.0000      -0.651282       -17.7223
  21   2.0000      -0.646222       -17.5846
  22   2.0000      -0.637377       -17.3439
  23   2.0000      -0.623402       -16.9636
  24   0.0000      -0.095312        -2.5936
  25   0.0000      -0.074285        -2.0214
  26   0.0000      -0.073305        -1.9947
  27   0.0000      -0.063390        -1.7249
  28   0.0000      -0.048270        -1.3135

MULLIKEN ATOMIC CHARGES
-----------------------
   0 C :   -0.107776
   1 C :   -0.474775
   2 H :    0.213332
   3 C :   -0.926808
   4 H :    0.368022
   5 C :    0.773439
   6 N :   -0.486316
   7 N :   -0.374850
   8 H :    0.149121
   9 H :    0.139666
  10 H :    0.113561
  11 H :    0.141176
  12 H :    0.259182
  13 H :    0.343426
  14 H :    0.274603
  15 H :    0.270715
  16 H :    0.324282
Sum of atomic charges:    1.0000000

LOEWDIN ATOMIC CHARGES
----------------------
   0 C :    0.370999
   1 C :    0.304105
   2 H :   -0.141824
   3 C :    0.625366
   4 H :   -0.126543
   5 C :   -0.224950
   6 N :    0.955798
   7 N :    0.948906
   8 H :   -0.225204
   9 H :   -0.237632
  10 H :   -0.221165
  11 H :   -0.243118
  12 H :   -0.138943
  13 H :   -0.116991
  14 H :   -0.160110
  15 H :   -0.167915
  16 H :   -0.200779

  Mayer bond orders larger than 0.100000
B(  0-C ,  1-C ) :   0.8873 B(  0-C ,  5-C ) :   0.4817 B(  0-C ,  6-N ) :  -0.1018
B(  0-C , 12-H ) :   0.9527 B(  0-C , 13-H ) :   0.9179 B(  1-C ,  2-H ) :   0.9778
B(  1-C ,  3-C ) :   0.8067 B(  1-C ,  4-H ) :   0.8840 B(  1-C ,  5-C ) :   0.1550
B(  3-C , 14-H ) :   1.0078 B(  3-C , 15-H ) :   0.9620 B(  3-C , 16-H ) :   0.8999
B(  5-C ,  6-N ) :   0.9104 B(  5-C ,  7-N ) :   0.9751 B(  5-C , 11-H ) :  -0.1029
B(  6-N ,  7-N ) :  -0.1194 B(  6-N , 10-H ) :   1.1238 B(  6-N , 11-H ) :   1.1037
B(  7-N ,  8-H ) :   1.0784 B(  7-N ,  9-H ) :   1.0944

E(0)                                       ...   -266.683785191
E(0)                                       ...   -266.683785191
E(CORR)(strong-pairs)                      ...     -1.157633253
E(CORR)(weak-pairs)                        ...     -0.001208670
E(CORR)(corrected)                         ...     -1.158841923
E(TOT)                                     ...   -267.842627115
E(CCSD(T))                                 ...   -267.888827104
FINAL SINGLE POINT ENERGY      -267.888827104190

DIPOLE MOMENT
-------------
                                X             Y             Z
Electronic contribution:     -1.74785       0.90375       4.99168
Nuclear contribution   :      0.92830      -0.63755      -3.99475
                        -----------------------------------------
Total Dipole Moment    :     -0.81955       0.26621       0.99693
                        -----------------------------------------
Magnitude (a.u.)       :      1.31772
Magnitude (Debye)      :      3.34939

Rotational constants in cm-1:     0.183706     0.077449     0.071296
Rotational constants in MHz :  5507.368439  2321.870034  2137.394204

                             ****ORCA TERMINATED NORMALLY****
TOTAL RUN TIME: 0 days 0 hours 20 minutes 30 seconds 967 msec
