                         Program Version 5.0.0 -  RELEASE  -
|  1> !DLPNO-CCSD(T) aug-cc-pVTZ aug-cc-pVTZ/C TightSCF TightPNO RIJCOSX def2/J
|  2>
|  3> *xyzfile 0 1 B.xyz
|  4>
|  5> %MaxCore 64000
|  6>
|  7> %pal nprocs 18
|  8> end
|  9>
| 10> %scf
| 11>   MaxIter 150
| 12> end
| 13>
| 14>
| 15>                          ****END OF INPUT****

CARTESIAN COORDINATES (ANGSTROEM)
---------------------------------
  C      4.366454   -0.133215   -1.416062
  C      4.508292   -0.931872   -2.724249
  H      4.753716   -1.972051   -2.488408
  C      3.294164   -0.918214   -3.656570
  H      5.385637   -0.536236   -3.242640
  H      2.483463   -1.477378   -3.185764
  H      3.553092   -1.478495   -4.560331
  C      2.772335    0.460100   -4.051448
  H      2.608762    1.065107   -3.155194
  C      1.465354    0.410537   -4.853644
  H      3.532940    0.988848   -4.635671
  C      0.326171   -0.375613   -4.192580
  H      1.666704   -0.022269   -5.839323
  H      1.138198    1.439246   -5.035449
  C     -0.017405    0.080588   -2.778406
  H      0.585573   -1.439385   -4.168057
  H     -0.560005   -0.311425   -4.831461
  H      0.902090    0.201296   -2.206729
  C     -0.903495   -0.873945   -1.987388
  H     -0.479549    1.074657   -2.811915
  H     -0.502554   -1.892096   -2.081204
  H     -1.917039   -0.895427   -2.406277
  C     -0.960148   -0.522365   -0.489867
  H     -1.690392   -1.208130   -0.021677
  H     -1.414490    0.486329   -0.406677
  O      0.261703   -0.580307    0.138611
  C      3.056503   -0.320797   -0.707384
  N      2.389825    0.711285   -0.243909
  N      2.515999   -1.507721   -0.550229
  H      2.967683   -2.322915   -0.956305
  H      1.549872   -1.490634   -0.249876
  H      2.743071    1.649471   -0.412802
  H      1.440364    0.502778    0.037031
  H      4.487835    0.932997   -1.611569
  H      5.169672   -0.414432   -0.729817

 Total Charge           Charge          ....    0
 Multiplicity           Mult            ....    1
 Number of Electrons    NEL             ....  104
 Basis Dimension        Dim             .... 1104

ORBITAL ENERGIES
----------------

  NO   OCC          E(Eh)            E(eV)
   0   2.0000     -20.406327      -555.2844
   1   2.0000     -15.588851      -424.1942
   2   2.0000     -15.587989      -424.1707
   3   2.0000     -11.372983      -309.4746
   4   2.0000     -11.275474      -306.8212
   5   2.0000     -11.257721      -306.3382
   6   2.0000     -11.233956      -305.6915
   7   2.0000     -11.227027      -305.5029
   8   2.0000     -11.217501      -305.2437
   9   2.0000     -11.205354      -304.9132
  10   2.0000     -11.201713      -304.8141
  11   2.0000     -11.190309      -304.5038
  12   2.0000     -11.176273      -304.1218
  13   2.0000      -1.329299       -36.1721
  14   2.0000      -1.206396       -32.8277
  15   2.0000      -1.197069       -32.5739
  16   2.0000      -1.117197       -30.4005
  17   2.0000      -1.074484       -29.2382
  18   2.0000      -1.026879       -27.9428
  19   2.0000      -0.975981       -26.5578
  20   2.0000      -0.927360       -25.2347
  21   2.0000      -0.866023       -23.5657
  22   2.0000      -0.844411       -22.9776
  23   2.0000      -0.819374       -22.2963
  24   2.0000      -0.767414       -20.8824
  25   2.0000      -0.760796       -20.7023
  26   2.0000      -0.741552       -20.1787
  27   2.0000      -0.727391       -19.7933
  28   2.0000      -0.673759       -18.3339
  29   2.0000      -0.672209       -18.2917
  30   2.0000      -0.654430       -17.8079
  31   2.0000      -0.630303       -17.1514
  32   2.0000      -0.611917       -16.6511
  33   2.0000      -0.589005       -16.0276
  34   2.0000      -0.575472       -15.6594
  35   2.0000      -0.570186       -15.5156
  36   2.0000      -0.563563       -15.3353
  37   2.0000      -0.556811       -15.1516
  38   2.0000      -0.532839       -14.4993
  39   2.0000      -0.520544       -14.1647
  40   2.0000      -0.509096       -13.8532
  41   2.0000      -0.497805       -13.5460
  42   2.0000      -0.486358       -13.2345
  43   2.0000      -0.481064       -13.0904
  44   2.0000      -0.460921       -12.5423
  45   2.0000      -0.451511       -12.2862
  46   2.0000      -0.439622       -11.9627
  47   2.0000      -0.435085       -11.8393
  48   2.0000      -0.432942       -11.7809
  49   2.0000      -0.415241       -11.2993
  50   2.0000      -0.322004        -8.7622
  51   2.0000      -0.319940        -8.7060
  52   0.0000       0.015782         0.4294
  53   0.0000       0.024749         0.6735
  54   0.0000       0.028210         0.7676
  55   0.0000       0.034273         0.9326
  56   0.0000       0.041209         1.1214

MULLIKEN ATOMIC CHARGES
-----------------------
   0 C :   -0.349020
   1 C :   -0.671908
   2 H :    0.112466
   3 C :   -0.429219
   4 H :    0.326913
   5 H :    0.232653
   6 H :    0.399560
   7 C :   -0.341825
   8 H :    0.152277
   9 C :   -0.778027
  10 H :    0.477110
  11 C :   -0.247961
  12 H :    0.135976
  13 H :    0.081633
  14 C :   -0.733740
  15 H :    0.046919
  16 H :    0.481856
  17 H :    0.691211
  18 C :   -0.535909
  19 H :    0.314779
  20 H :    0.218391
  21 H :    0.298130
  22 C :   -0.468907
  23 H :    0.274093
  24 H :    0.224467
  25 O :   -0.911861
  26 C :    1.011662
  27 N :   -0.672799
  28 N :   -0.621801
  29 H :   -0.027688
  30 H :    0.453743
  31 H :   -0.050432
  32 H :    0.336108
  33 H :    0.101998
  34 H :    0.469152
Sum of atomic charges:   -0.0000000

LOEWDIN ATOMIC CHARGES
----------------------
   0 C :    0.350888
   1 C :    0.315736
   2 H :   -0.142988
   3 C :    0.292414
   4 H :   -0.134813
   5 H :   -0.185770
   6 H :   -0.123684
   7 C :    0.291461
   8 H :   -0.173693
   9 C :    0.309046
  10 H :   -0.130798
  11 C :    0.290857
  12 H :   -0.141905
  13 H :   -0.140067
  14 C :    0.266061
  15 H :   -0.160221
  16 H :   -0.135583
  17 H :   -0.232437
  18 C :    0.256446
  19 H :   -0.122876
  20 H :   -0.154890
  21 H :   -0.147861
  22 C :   -0.148981
  23 H :   -0.186416
  24 H :   -0.180369
  25 O :    0.527085
  26 C :   -0.239125
  27 N :    0.934731
  28 N :    0.938837
  29 H :   -0.238659
  30 H :   -0.562418
  31 H :   -0.231038
  32 H :   -0.581594
  33 H :   -0.151605
  34 H :   -0.125770

  Mayer bond orders larger than 0.100000
B(  0-C ,  1-C ) :   1.0165 B(  0-C , 26-C ) :   0.6921 B(  0-C , 27-N ) :  -0.1908
B(  0-C , 33-H ) :   1.1812 B(  0-C , 34-H ) :   0.8074 B(  1-C ,  2-H ) :   1.0516
B(  1-C ,  3-C ) :   0.9407 B(  1-C ,  4-H ) :   0.9261 B(  1-C , 33-H ) :   0.1043
B(  3-C ,  5-H ) :   1.0675 B(  3-C ,  6-H ) :   0.8121 B(  3-C ,  7-C ) :   0.7966
B(  7-C ,  8-H ) :   1.0991 B(  7-C ,  9-C ) :   0.8214 B(  7-C , 10-H ) :   0.7721
B(  9-C , 11-C ) :   0.8524 B(  9-C , 12-H ) :   1.1003 B(  9-C , 13-H ) :   1.1798
B(  9-C , 14-C ) :   0.1586 B( 11-C , 14-C ) :   0.8264 B( 11-C , 15-H ) :   1.1425
B( 11-C , 16-H ) :   0.7684 B( 12-H , 13-H ) :   0.1003 B( 14-C , 17-H ) :   0.8479
B( 14-C , 18-C ) :   0.8213 B( 14-C , 19-H ) :   0.9404 B( 18-C , 20-H ) :   1.0025
B( 18-C , 21-H ) :   0.8924 B( 18-C , 22-C ) :   0.9120 B( 22-C , 23-H ) :   0.9891
B( 22-C , 24-H ) :   1.0364 B( 22-C , 25-O ) :   1.0930 B( 25-O , 30-H ) :   0.1800
B( 25-O , 32-H ) :   0.2158 B( 26-C , 27-N ) :   0.9512 B( 26-C , 28-N ) :   0.9363
B( 26-C , 30-H ) :  -0.1002 B( 26-C , 31-H ) :  -0.1034 B( 26-C , 34-H ) :  -0.1810
B( 27-N , 28-N ) :  -0.1180 B( 27-N , 31-H ) :   1.3362 B( 27-N , 32-H ) :   0.7208
B( 28-N , 29-H ) :   1.3064 B( 28-N , 30-H ) :   0.6288

E(0)                                       ...   -575.414740897
E(0)                                       ...   -575.414740897
E(CORR)(strong-pairs)                      ...     -2.545250449
E(CORR)(weak-pairs)                        ...     -0.004402675
E(CORR)(corrected)                         ...     -2.549653124
E(TOT)                                     ...   -577.964394021
E(CCSD(T))                                 ...   -578.072081976
FINAL SINGLE POINT ENERGY      -578.072081975507

DIPOLE MOMENT
-------------
                                X             Y             Z
Electronic contribution:      3.01292      -0.24834       7.41441
Nuclear contribution   :     -0.17996       0.53390      -8.68067
                        -----------------------------------------
Total Dipole Moment    :      2.83296       0.28557      -1.26626
                        -----------------------------------------
Magnitude (a.u.)       :      3.11618
Magnitude (Debye)      :      7.92071

Rotational constants in cm-1:     0.028240     0.022734     0.014600
Rotational constants in MHz :   846.611263   681.554306   437.693928

                             ****ORCA TERMINATED NORMALLY****
TOTAL RUN TIME: 0 days 5 hours 21 minutes 36 seconds 543 msec
