                         Program Version 5.0.0 -  RELEASE  -
|  1> !DLPNO-CCSD(T) aug-cc-pVTZ aug-cc-pVTZ/C TightSCF TightPNO RIJCOSX def2/J
|  2> *xyz 0 1
|  3> C         -0.01741        0.08059       -2.77841
|  4> C         -0.90349       -0.87394       -1.98739
|  5> H         -0.50255       -1.89210       -2.08120
|  6> H         -1.91704       -0.89543       -2.40628
|  7> C         -0.96015       -0.52236       -0.48987
|  8> H         -1.69039       -1.20813       -0.02168
|  9> H         -1.41449        0.48633       -0.40668
| 10> F          0.26170       -0.58031        0.13861
| 11> H         -0.01329       -0.20776       -3.80881
| 12> H          0.98025        0.04284       -2.39348
| 13> H         -0.39697        1.07694       -2.68836
| 14> *
| 15>
| 16> %MaxCore 64000
| 17>
| 18> %pal nprocs 8
| 19> end
| 20>
| 21> %scf
| 22>   MaxIter 150
| 23> end
| 24>
| 25>
| 26>                          ****END OF INPUT****

CARTESIAN COORDINATES (ANGSTROEM)
---------------------------------
  C     -0.017410    0.080590   -2.778410
  C     -0.903490   -0.873940   -1.987390
  H     -0.502550   -1.892100   -2.081200
  H     -1.917040   -0.895430   -2.406280
  C     -0.960150   -0.522360   -0.489870
  H     -1.690390   -1.208130   -0.021680
  H     -1.414490    0.486330   -0.406680
  F      0.261700   -0.580310    0.138610
  H     -0.013290   -0.207760   -3.808810
  H      0.980250    0.042840   -2.393480
  H     -0.396970    1.076940   -2.688360

 Total Charge           Charge          ....    0
 Multiplicity           Mult            ....    1
 Number of Electrons    NEL             ....   34
 Basis Dimension        Dim             ....  345

ORBITAL ENERGIES
----------------

  NO   OCC          E(Eh)            E(eV)
   0   2.0000     -26.282792      -715.1911
   1   2.0000     -11.308431      -307.7180
   2   2.0000     -11.231023      -305.6117
   3   2.0000     -11.208316      -304.9938
   4   2.0000      -1.593034       -43.3487
   5   2.0000      -1.064084       -28.9552
   6   2.0000      -0.938343       -25.5336
   7   2.0000      -0.818504       -22.2726
   8   2.0000      -0.702233       -19.1087
   9   2.0000      -0.699092       -19.0233
  10   2.0000      -0.664041       -18.0695
  11   2.0000      -0.607228       -16.5235
  12   2.0000      -0.579746       -15.7757
  13   2.0000      -0.539271       -14.6743
  14   2.0000      -0.502026       -13.6608
  15   2.0000      -0.476744       -12.9729
  16   2.0000      -0.474138       -12.9020
  17   0.0000       0.030173         0.8210
  18   0.0000       0.038552         1.0490
  19   0.0000       0.040432         1.1002
  20   0.0000       0.045789         1.2460
  21   0.0000       0.062476         1.7001

MULLIKEN ATOMIC CHARGES
-----------------------
   0 C :   -0.931938
   1 C :   -0.527575
   2 H :    0.283263
   3 H :    0.288911
   4 C :   -0.095794
   5 H :    0.298602
   6 H :    0.280487
   7 F :   -0.502864
   8 H :    0.289973
   9 H :    0.313457
  10 H :    0.303478
Sum of atomic charges:   -0.0000000

LOEWDIN ATOMIC CHARGES
----------------------
   0 C :    0.584948
   1 C :    0.247544
   2 H :   -0.154966
   3 H :   -0.147370
   4 C :   -0.098046
   5 H :   -0.169416
   6 H :   -0.163885
   7 F :    0.459026
   8 H :   -0.185658
   9 H :   -0.184854
  10 H :   -0.187324

  Mayer bond orders larger than 0.100000
B(  0-C ,  1-C ) :   0.8245 B(  0-C ,  8-H ) :   0.9658 B(  0-C ,  9-H ) :   0.9207
B(  0-C , 10-H ) :   0.9183 B(  1-C ,  2-H ) :   0.9229 B(  1-C ,  3-H ) :   0.9256
B(  1-C ,  4-C ) :   0.9333 B(  4-C ,  5-H ) :   0.9539 B(  4-C ,  6-H ) :   0.9366
B(  4-C ,  7-F ) :   0.6030

E(0)                                       ...   -217.195571754
E(0)                                       ...   -217.195571754
E(CORR)(strong-pairs)                      ...     -0.831822130
E(CORR)(weak-pairs)                        ...     -0.000648503
E(CORR)(corrected)                         ...     -0.832470633
E(TOT)                                     ...   -218.028042387
E(CCSD(T))                                 ...   -218.056795779
FINAL SINGLE POINT ENERGY      -218.056795779235

DIPOLE MOMENT
-------------
                                X             Y             Z
Electronic contribution:      2.19801      -0.76999       5.86474
Nuclear contribution   :     -2.83598       0.77614      -6.32113
                        -----------------------------------------
Total Dipole Moment    :     -0.63797       0.00615      -0.45639
                        -----------------------------------------
Magnitude (a.u.)       :      0.78444
Magnitude (Debye)      :      1.99388

Rotational constants in cm-1:     0.494803     0.164634     0.139827
Rotational constants in MHz : 14833.819345  4935.593559  4191.919783

                             ****ORCA TERMINATED NORMALLY****
TOTAL RUN TIME: 0 days 0 hours 4 minutes 11 seconds 401 msec
