                         Program Version 5.0.0 -  RELEASE  -
|  1> !DLPNO-CCSD(T) aug-cc-pVTZ aug-cc-pVTZ/C TightSCF TightPNO RIJCOSX def2/J
|  2> *xyz 0 1
|  3> C          4.36645       -0.13321       -1.41606
|  4> C          4.50829       -0.93187       -2.72425
|  5> H          4.75372       -1.97205       -2.48841
|  6> C          3.29416       -0.91821       -3.65657
|  7> H          5.38564       -0.53624       -3.24264
|  8> C          3.05650       -0.32080       -0.70738
|  9> C          2.38983        0.71129       -0.24391
| 10> N          2.51600       -1.50772       -0.55023
| 11> H          2.96768       -2.32291       -0.95631
| 12> H          1.54987       -1.49063       -0.24988
| 13> H          2.74307        1.64947       -0.41280
| 14> H          1.44036        0.50278        0.03703
| 15> H          4.48784        0.93300       -1.61157
| 16> H          5.16967       -0.41443       -0.72982
| 17> H          3.50670       -1.50229       -4.52754
| 18> H          3.07837        0.08892       -3.94644
| 19> H          2.44880       -1.33173       -3.14739
| 20> *
| 21>
| 22> %MaxCore 64000
| 23>
| 24> %pal nprocs 8
| 25> end
| 26>
| 27> %scf
| 28>   MaxIter 150
| 29> end
| 30>
| 31>
| 32>                          ****END OF INPUT****

CARTESIAN COORDINATES (ANGSTROEM)
---------------------------------
  C      4.366450   -0.133210   -1.416060
  C      4.508290   -0.931870   -2.724250
  H      4.753720   -1.972050   -2.488410
  C      3.294160   -0.918210   -3.656570
  H      5.385640   -0.536240   -3.242640
  C      3.056500   -0.320800   -0.707380
  C      2.389830    0.711290   -0.243910
  N      2.516000   -1.507720   -0.550230
  H      2.967680   -2.322910   -0.956310
  H      1.549870   -1.490630   -0.249880
  H      2.743070    1.649470   -0.412800
  H      1.440360    0.502780    0.037030
  H      4.487840    0.933000   -1.611570
  H      5.169670   -0.414430   -0.729820
  H      3.506700   -1.502290   -4.527540
  H      3.078370    0.088920   -3.946440
  H      2.448800   -1.331730   -3.147390

 Total Charge           Charge          ....    0
 Multiplicity           Mult            ....    1
 Number of Electrons    NEL             ....   48
 Basis Dimension        Dim             ....  529

ORBITAL ENERGIES
----------------

  NO   OCC          E(Eh)            E(eV)
   0   2.0000     -15.557207      -423.3331
   1   2.0000     -11.250532      -306.1425
   2   2.0000     -11.226123      -305.4783
   3   2.0000     -11.225293      -305.4558
   4   2.0000     -11.204852      -304.8995
   5   2.0000     -11.149524      -303.3940
   6   2.0000      -1.243536       -33.8383
   7   2.0000      -1.067889       -29.0587
   8   2.0000      -1.002614       -27.2825
   9   2.0000      -0.934233       -25.4218
  10   2.0000      -0.822998       -22.3949
  11   2.0000      -0.757117       -20.6022
  12   2.0000      -0.713619       -19.4186
  13   2.0000      -0.633353       -17.2344
  14   2.0000      -0.622276       -16.9330
  15   2.0000      -0.616694       -16.7811
  16   2.0000      -0.557510       -15.1706
  17   2.0000      -0.550776       -14.9874
  18   2.0000      -0.534009       -14.5311
  19   2.0000      -0.509442       -13.8626
  20   2.0000      -0.477110       -12.9828
  21   2.0000      -0.474851       -12.9214
  22   2.0000      -0.462169       -12.5763
  23   2.0000      -0.290504        -7.9050
  24   0.0000       0.027964         0.7609
  25   0.0000       0.035069         0.9543
  26   0.0000       0.038794         1.0556
  27   0.0000       0.039671         1.0795
  28   0.0000       0.053270         1.4495

MULLIKEN ATOMIC CHARGES
-----------------------
   0 C :   -0.109897
   1 C :   -0.502141
   2 H :    0.194062
   3 C :   -0.959496
   4 H :    0.351143
   5 C :    1.137214
   6 C :   -1.694351
   7 N :   -0.612694
   8 H :    0.107871
   9 H :    0.011926
  10 H :    0.230587
  11 H :    0.454420
  12 H :    0.219903
  13 H :    0.304638
  14 H :    0.260606
  15 H :    0.261308
  16 H :    0.344900
Sum of atomic charges:   -0.0000000

LOEWDIN ATOMIC CHARGES
----------------------
   0 C :    0.306561
   1 C :    0.277607
   2 H :   -0.154146
   3 C :    0.604304
   4 H :   -0.146975
   5 C :   -0.317302
   6 C :    0.566769
   7 N :    0.842325
   8 H :   -0.269604
   9 H :   -0.277547
  10 H :   -0.285247
  11 H :   -0.297615
  12 H :   -0.154650
  13 H :   -0.137571
  14 H :   -0.180550
  15 H :   -0.174312
  16 H :   -0.202047

  Mayer bond orders larger than 0.100000
B(  0-C ,  1-C ) :   0.8999 B(  0-C ,  5-C ) :   0.4466 B(  0-C , 12-H ) :   1.0114
B(  0-C , 13-H ) :   0.9654 B(  1-C ,  2-H ) :   0.9903 B(  1-C ,  3-C ) :   0.7914
B(  1-C ,  4-H ) :   0.9218 B(  1-C ,  5-C ) :   0.1151 B(  3-C , 14-H ) :   1.0127
B(  3-C , 15-H ) :   0.9731 B(  3-C , 16-H ) :   0.8791 B(  5-C ,  6-C ) :   0.8032
B(  5-C ,  7-N ) :   0.5843 B(  5-C , 10-H ) :  -0.1410 B(  6-C ,  7-N ) :  -0.1230
B(  6-C , 10-H ) :   1.3259 B(  6-C , 11-H ) :   0.7507 B(  7-N ,  8-H ) :   1.0996
B(  7-N ,  9-H ) :   1.2271

E(0)                                       ...   -250.243661882
E(0)                                       ...   -250.243661882
E(CORR)(strong-pairs)                      ...     -1.138629026
E(CORR)(weak-pairs)                        ...     -0.001200279
E(CORR)(corrected)                         ...     -1.139829305
E(TOT)                                     ...   -251.383491187
E(CCSD(T))                                 ...   -251.429927636
FINAL SINGLE POINT ENERGY      -251.429927636305

DIPOLE MOMENT
-------------
                                X             Y             Z
Electronic contribution:     -0.61007      -0.30440       3.23322
Nuclear contribution   :      0.70803      -0.34641      -3.68680
                        -----------------------------------------
Total Dipole Moment    :      0.09795      -0.65081      -0.45358
                        -----------------------------------------
Magnitude (a.u.)       :      0.79930
Magnitude (Debye)      :      2.03167

Rotational constants in cm-1:     0.186653     0.080341     0.073591
Rotational constants in MHz :  5595.710092  2408.571280  2206.200061

                             ****ORCA TERMINATED NORMALLY****
TOTAL RUN TIME: 0 days 0 hours 22 minutes 55 seconds 109 msec
