                         Program Version 5.0.0 -  RELEASE  -
|  1> !DLPNO-CCSD(T) aug-cc-pVTZ aug-cc-pVTZ/C TightSCF TightPNO RIJCOSX def2/J
|  2> *xyz 0 1
|  3> C          4.36645       -0.13321       -1.41606
|  4> C          4.50829       -0.93187       -2.72425
|  5> H          4.75372       -1.97205       -2.48841
|  6> C          3.29416       -0.91821       -3.65657
|  7> H          5.38564       -0.53624       -3.24264
|  8> C          3.05650       -0.32080       -0.70738
|  9> N          2.38983        0.71129       -0.24391
| 10> C          2.51600       -1.50772       -0.55023
| 11> H          2.96768       -2.32291       -0.95631
| 12> H          1.54987       -1.49063       -0.24988
| 13> H          2.74307        1.64947       -0.41280
| 14> H          1.44036        0.50278        0.03703
| 15> H          4.48784        0.93300       -1.61157
| 16> H          5.16967       -0.41443       -0.72982
| 17> H          3.50670       -1.50229       -4.52754
| 18> H          3.07837        0.08892       -3.94644
| 19> H          2.44880       -1.33173       -3.14739
| 20> *
| 21>
| 22> %MaxCore 64000
| 23>
| 24> %pal nprocs 2
| 25> end
| 26>
| 27> %scf
| 28>   MaxIter 150
| 29> end
| 30>
| 31>
| 32>                          ****END OF INPUT****

CARTESIAN COORDINATES (ANGSTROEM)
---------------------------------
  C      4.366450   -0.133210   -1.416060
  C      4.508290   -0.931870   -2.724250
  H      4.753720   -1.972050   -2.488410
  C      3.294160   -0.918210   -3.656570
  H      5.385640   -0.536240   -3.242640
  C      3.056500   -0.320800   -0.707380
  N      2.389830    0.711290   -0.243910
  C      2.516000   -1.507720   -0.550230
  H      2.967680   -2.322910   -0.956310
  H      1.549870   -1.490630   -0.249880
  H      2.743070    1.649470   -0.412800
  H      1.440360    0.502780    0.037030
  H      4.487840    0.933000   -1.611570
  H      5.169670   -0.414430   -0.729820
  H      3.506700   -1.502290   -4.527540
  H      3.078370    0.088920   -3.946440
  H      2.448800   -1.331730   -3.147390

 Total Charge           Charge          ....    0
 Multiplicity           Mult            ....    1
 Number of Electrons    NEL             ....   48
 Basis Dimension        Dim             ....  529

ORBITAL ENERGIES
----------------

  NO   OCC          E(Eh)            E(eV)
   0   2.0000     -15.558762      -423.3754
   1   2.0000     -11.250649      -306.1457
   2   2.0000     -11.226989      -305.5019
   3   2.0000     -11.220929      -305.3370
   4   2.0000     -11.197234      -304.6922
   5   2.0000     -11.145428      -303.2825
   6   2.0000      -1.243403       -33.8347
   7   2.0000      -1.069218       -29.0949
   8   2.0000      -0.988843       -26.9078
   9   2.0000      -0.938602       -25.5407
  10   2.0000      -0.826792       -22.4982
  11   2.0000      -0.746326       -20.3086
  12   2.0000      -0.707954       -19.2644
  13   2.0000      -0.656182       -17.8556
  14   2.0000      -0.617640       -16.8068
  15   2.0000      -0.595297       -16.1988
  16   2.0000      -0.560350       -15.2479
  17   2.0000      -0.551148       -14.9975
  18   2.0000      -0.520979       -14.1766
  19   2.0000      -0.508631       -13.8406
  20   2.0000      -0.477845       -13.0028
  21   2.0000      -0.467788       -12.7292
  22   2.0000      -0.463810       -12.6209
  23   2.0000      -0.287835        -7.8324
  24   0.0000       0.027367         0.7447
  25   0.0000       0.035205         0.9580
  26   0.0000       0.038458         1.0465
  27   0.0000       0.042006         1.1430
  28   0.0000       0.053935         1.4676

MULLIKEN ATOMIC CHARGES
-----------------------
   0 C :   -0.115269
   1 C :   -0.409789
   2 H :    0.200775
   3 C :   -1.005367
   4 H :    0.368080
   5 C :    0.854480
   6 N :   -0.732620
   7 C :   -1.416601
   8 H :    0.288002
   9 H :    0.517240
  10 H :    0.034390
  11 H :    0.035821
  12 H :    0.227090
  13 H :    0.304065
  14 H :    0.234782
  15 H :    0.254814
  16 H :    0.360108
Sum of atomic charges:    0.0000000

LOEWDIN ATOMIC CHARGES
----------------------
   0 C :    0.312009
   1 C :    0.279788
   2 H :   -0.149434
   3 C :    0.604343
   4 H :   -0.148861
   5 C :   -0.311672
   6 N :    0.845773
   7 C :    0.552600
   8 H :   -0.281008
   9 H :   -0.291231
  10 H :   -0.269715
  11 H :   -0.283594
  12 H :   -0.159208
  13 H :   -0.135684
  14 H :   -0.180315
  15 H :   -0.177170
  16 H :   -0.206619

  Mayer bond orders larger than 0.100000
B(  0-C ,  1-C ) :   0.8791 B(  0-C ,  5-C ) :   0.5855 B(  0-C ,  6-N ) :  -0.1890
B(  0-C , 12-H ) :   1.0098 B(  0-C , 13-H ) :   0.9711 B(  1-C ,  2-H ) :   1.0084
B(  1-C ,  3-C ) :   0.7777 B(  1-C ,  4-H ) :   0.8638 B(  1-C ,  5-C ) :   0.1393
B(  3-C , 14-H ) :   1.0471 B(  3-C , 15-H ) :   0.9832 B(  3-C , 16-H ) :   0.8613
B(  5-C ,  6-N ) :   0.7374 B(  5-C ,  7-C ) :   1.1324 B(  5-C ,  8-H ) :  -0.1377
B(  6-N ,  7-C ) :  -0.2417 B(  6-N , 10-H ) :   1.2098 B(  6-N , 11-H ) :   1.2064
B(  7-C ,  8-H ) :   1.2260 B(  7-C ,  9-H ) :   0.7184

E(0)                                       ...   -250.240618959
E(0)                                       ...   -250.240618959
E(CORR)(strong-pairs)                      ...     -1.139563564
E(CORR)(weak-pairs)                        ...     -0.001210075
E(CORR)(corrected)                         ...     -1.140773639
E(TOT)                                     ...   -251.381392598
E(CCSD(T))                                 ...   -251.427977469
FINAL SINGLE POINT ENERGY      -251.427977469162

DIPOLE MOMENT
-------------
                                X             Y             Z
Electronic contribution:     -0.72380       1.58865       3.51255
Nuclear contribution   :      0.73787      -0.87128      -3.75926
                        -----------------------------------------
Total Dipole Moment    :      0.01407       0.71737      -0.24670
                        -----------------------------------------
Magnitude (a.u.)       :      0.75873
Magnitude (Debye)      :      1.92855

Rotational constants in cm-1:     0.191039     0.078358     0.072723
Rotational constants in MHz :  5727.202281  2349.118247  2180.181745

                             ****ORCA TERMINATED NORMALLY****
TOTAL RUN TIME: 0 days 1 hours 20 minutes 30 seconds 160 msec
