                         Program Version 5.0.0 -  RELEASE  -
|  1> !DLPNO-CCSD(T) aug-cc-pVTZ aug-cc-pVTZ/C TightSCF TightPNO RIJCOSX def2/J
|  2>
|  3> *xyzfile 0 1 D1.xyz
|  4>
|  5> %MaxCore 64000
|  6>
|  7> %pal nprocs 18
|  8> end
|  9>
| 10> %scf
| 11>   MaxIter 150
| 12> end
| 13>
| 14>
| 15>                          ****END OF INPUT****

CARTESIAN COORDINATES (ANGSTROEM)
---------------------------------
  C      4.366454   -0.133215   -1.416062
  C      4.508292   -0.931872   -2.724249
  H      4.753716   -1.972051   -2.488408
  C      3.294164   -0.918214   -3.656570
  H      5.385637   -0.536236   -3.242640
  H      2.483463   -1.477378   -3.185764
  H      3.553092   -1.478495   -4.560331
  C      2.772335    0.460100   -4.051448
  H      2.608762    1.065107   -3.155194
  C      1.465354    0.410537   -4.853644
  H      3.532940    0.988848   -4.635671
  C      0.326171   -0.375613   -4.192580
  H      1.666704   -0.022269   -5.839323
  H      1.138198    1.439246   -5.035449
  C     -0.017405    0.080588   -2.778406
  H      0.585573   -1.439385   -4.168057
  H     -0.560005   -0.311425   -4.831461
  H      0.902090    0.201296   -2.206729
  C     -0.903495   -0.873945   -1.987388
  H     -0.479549    1.074657   -2.811915
  H     -0.502554   -1.892096   -2.081204
  H     -1.917039   -0.895427   -2.406277
  C     -0.960148   -0.522365   -0.489867
  H     -1.690392   -1.208130   -0.021677
  H     -1.414490    0.486329   -0.406677
  F      0.261703   -0.580307    0.138611
  C      3.056503   -0.320797   -0.707384
  C      2.389825    0.711285   -0.243909
  N      2.515999   -1.507721   -0.550229
  H      2.967683   -2.322915   -0.956305
  H      1.549872   -1.490634   -0.249876
  H      2.743071    1.649471   -0.412802
  H      1.440364    0.502778    0.037031
  H      4.487835    0.932997   -1.611569
  H      5.169672   -0.414432   -0.729817

 Total Charge           Charge          ....    0
 Multiplicity           Mult            ....    1
 Number of Electrons    NEL             ....  104
 Basis Dimension        Dim             .... 1104

ORBITAL ENERGIES
----------------

  NO   OCC          E(Eh)            E(eV)
   0   2.0000     -26.309916      -715.9292
   1   2.0000     -15.529746      -422.5859
   2   2.0000     -11.323099      -308.1172
   3   2.0000     -11.236543      -305.7619
   4   2.0000     -11.230993      -305.6108
   5   2.0000     -11.216695      -305.2218
   6   2.0000     -11.215491      -305.1890
   7   2.0000     -11.213410      -305.1324
   8   2.0000     -11.212432      -305.1058
   9   2.0000     -11.212389      -305.1046
  10   2.0000     -11.208991      -305.0122
  11   2.0000     -11.206621      -304.9477
  12   2.0000     -11.120459      -302.6031
  13   2.0000      -1.635341       -44.4999
  14   2.0000      -1.223806       -33.3014
  15   2.0000      -1.099950       -29.9312
  16   2.0000      -1.073146       -29.2018
  17   2.0000      -1.039513       -28.2866
  18   2.0000      -0.996743       -27.1228
  19   2.0000      -0.961448       -26.1623
  20   2.0000      -0.931282       -25.3415
  21   2.0000      -0.872375       -23.7385
  22   2.0000      -0.838561       -22.8184
  23   2.0000      -0.801457       -21.8088
  24   2.0000      -0.760908       -20.7054
  25   2.0000      -0.744578       -20.2610
  26   2.0000      -0.741057       -20.1652
  27   2.0000      -0.727121       -19.7860
  28   2.0000      -0.715544       -19.4709
  29   2.0000      -0.665287       -18.1034
  30   2.0000      -0.649091       -17.6627
  31   2.0000      -0.630225       -17.1493
  32   2.0000      -0.610369       -16.6090
  33   2.0000      -0.602805       -16.4031
  34   2.0000      -0.591962       -16.1081
  35   2.0000      -0.580692       -15.8014
  36   2.0000      -0.560644       -15.2559
  37   2.0000      -0.549294       -14.9470
  38   2.0000      -0.536434       -14.5971
  39   2.0000      -0.523488       -14.2448
  40   2.0000      -0.513414       -13.9707
  41   2.0000      -0.510426       -13.8894
  42   2.0000      -0.496042       -13.4980
  43   2.0000      -0.486417       -13.2361
  44   2.0000      -0.484352       -13.1799
  45   2.0000      -0.471783       -12.8379
  46   2.0000      -0.452645       -12.3171
  47   2.0000      -0.450144       -12.2490
  48   2.0000      -0.441087       -12.0026
  49   2.0000      -0.436553       -11.8792
  50   2.0000      -0.434289       -11.8176
  51   2.0000      -0.269337        -7.3290
  52   0.0000       0.023602         0.6423
  53   0.0000       0.030244         0.8230
  54   0.0000       0.031783         0.8649
  55   0.0000       0.035492         0.9658
  56   0.0000       0.043694         1.1890

MULLIKEN ATOMIC CHARGES
-----------------------
   0 C :   -0.291730
   1 C :   -0.678997
   2 H :    0.104677
   3 C :   -0.496960
   4 H :    0.330305
   5 H :    0.214166
   6 H :    0.402299
   7 C :   -0.345169
   8 H :    0.230856
   9 C :   -0.774313
  10 H :    0.430747
  11 C :   -0.275514
  12 H :    0.158409
  13 H :    0.084520
  14 C :   -0.807752
  15 H :    0.070405
  16 H :    0.463545
  17 H :    0.665909
  18 C :   -0.575708
  19 H :    0.280781
  20 H :    0.235994
  21 H :    0.329572
  22 C :   -0.409946
  23 H :    0.302455
  24 H :    0.290590
  25 F :   -0.533146
  26 C :    1.327177
  27 C :   -1.661826
  28 N :   -0.963911
  29 H :   -0.043887
  30 H :    0.327848
  31 H :   -0.162356
  32 H :    1.230849
  33 H :    0.087657
  34 H :    0.452455
Sum of atomic charges:    0.0000000

LOEWDIN ATOMIC CHARGES
----------------------
   0 C :    0.312337
   1 C :    0.306809
   2 H :   -0.147645
   3 C :    0.287955
   4 H :   -0.141768
   5 H :   -0.188379
   6 H :   -0.129646
   7 C :    0.295375
   8 H :   -0.172106
   9 C :    0.310259
  10 H :   -0.129897
  11 C :    0.296396
  12 H :   -0.141442
  13 H :   -0.140780
  14 C :    0.279525
  15 H :   -0.158516
  16 H :   -0.137438
  17 H :   -0.230380
  18 C :    0.290489
  19 H :   -0.119662
  20 H :   -0.145983
  21 H :   -0.133159
  22 C :    0.021034
  23 H :   -0.152919
  24 H :   -0.141469
  25 F :    0.737984
  26 C :   -0.295356
  27 C :    0.556306
  28 N :    0.859806
  29 H :   -0.262361
  30 H :   -0.506262
  31 H :   -0.267142
  32 H :   -0.520699
  33 H :   -0.156662
  34 H :   -0.134602

  Mayer bond orders larger than 0.100000
B(  0-C ,  1-C ) :   0.9969 B(  0-C , 26-C ) :   0.3397 B(  0-C , 27-C ) :  -0.1672
B(  0-C , 31-H ) :  -0.1018 B(  0-C , 33-H ) :   1.1854 B(  0-C , 34-H ) :   0.8740
B(  1-C ,  2-H ) :   1.0785 B(  1-C ,  3-C ) :   0.9265 B(  1-C ,  4-H ) :   0.9342
B(  1-C , 33-H ) :   0.1001 B(  3-C ,  5-H ) :   1.0509 B(  3-C ,  6-H ) :   0.8234
B(  3-C ,  7-C ) :   0.8117 B(  7-C ,  8-H ) :   0.9879 B(  7-C ,  9-C ) :   0.8276
B(  7-C , 10-H ) :   0.8368 B(  9-C , 11-C ) :   0.8687 B(  9-C , 12-H ) :   1.0789
B(  9-C , 13-H ) :   1.1709 B(  9-C , 14-C ) :   0.1521 B( 11-C , 14-C ) :   0.8409
B( 11-C , 15-H ) :   1.1258 B( 11-C , 16-H ) :   0.7793 B( 12-H , 13-H ) :   0.1032
B( 14-C , 17-H ) :   0.7778 B( 14-C , 18-C ) :   0.7766 B( 14-C , 19-H ) :   0.9655
B( 14-C , 25-F ) :   0.1368 B( 18-C , 20-H ) :   0.9979 B( 18-C , 21-H ) :   0.8808
B( 18-C , 22-C ) :   0.9471 B( 22-C , 23-H ) :   0.9729 B( 22-C , 24-H ) :   0.9815
B( 22-C , 25-F ) :   0.8749 B( 25-F , 30-H ) :  -0.1580 B( 26-C , 27-C ) :   1.3129
B( 26-C , 28-N ) :   0.3157 B( 26-C , 29-H ) :  -0.1448 B( 26-C , 31-H ) :  -0.2651
B( 26-C , 34-H ) :  -0.2497 B( 27-C , 28-N ) :  -0.2322 B( 27-C , 31-H ) :   2.2482
B( 27-C , 32-H ) :  -0.5947 B( 28-N , 29-H ) :   1.3107 B( 28-N , 30-H ) :   0.9876
B( 31-H , 32-H ) :  -0.2671

E(0)                                       ...   -583.373534254
E(0)                                       ...   -583.373534254
E(CORR)(strong-pairs)                      ...     -2.518486163
E(CORR)(weak-pairs)                        ...     -0.004360211
E(CORR)(corrected)                         ...     -2.522846373
E(TOT)                                     ...   -585.896380628
E(CCSD(T))                                 ...   -585.998855051
FINAL SINGLE POINT ENERGY      -585.998855051266

DIPOLE MOMENT
-------------
                                X             Y             Z
Electronic contribution:     -2.74335      -1.60085      10.36692
Nuclear contribution   :      1.82572       1.04089     -11.09065
                        -----------------------------------------
Total Dipole Moment    :     -0.91763      -0.55995      -0.72372
                        -----------------------------------------
Magnitude (a.u.)       :      1.29591
Magnitude (Debye)      :      3.29393

Rotational constants in cm-1:     0.028436     0.022359     0.014416
Rotational constants in MHz :   852.496561   670.291843   432.183951

                             ****ORCA TERMINATED NORMALLY****
TOTAL RUN TIME: 0 days 4 hours 9 minutes 15 seconds 997 msec
