                         Program Version 5.0.0 -  RELEASE  -
|  1> !wB97X-D3 RIJCOSX def2-SVPD def2/J TightSCF CPCM(Water)
|  2> *xyz -1 1
|  3> C         -1.78916       -0.63923        4.55750
|  4> C         -2.79070       -0.78527        5.70281
|  5> H         -2.86731       -1.83565        6.00167
|  6> H         -3.77455       -0.48658        5.33481
|  7> C         -2.45380        0.05510        6.94145
|  8> C         -2.07842        1.48042        6.56410
|  9> H         -1.62558       -0.38216        7.49891
| 10> H         -3.32527        0.08775        7.59917
| 11> O         -0.90125        1.85816        6.82810
| 12> O         -2.93658        2.17731        5.96415
| 13> H         -2.09421       -1.25377        3.73641
| 14> H         -0.81933       -0.94475        4.89064
| 15> H         -1.75281        0.38306        4.24366
| 16> *
| 17> %MaxCore 64000
| 18>
| 19> %pal nprocs 18
| 20> end
| 21>
| 22> %scf
| 23>   MaxIter 150
| 24> end
| 25>
| 26>
| 27>                          ****END OF INPUT****

CARTESIAN COORDINATES (ANGSTROEM)
---------------------------------
  C     -1.789160   -0.639230    4.557500
  C     -2.790700   -0.785270    5.702810
  H     -2.867310   -1.835650    6.001670
  H     -3.774550   -0.486580    5.334810
  C     -2.453800    0.055100    6.941450
  C     -2.078420    1.480420    6.564100
  H     -1.625580   -0.382160    7.498910
  H     -3.325270    0.087750    7.599170
  O     -0.901250    1.858160    6.828100
  O     -2.936580    2.177310    5.964150
  H     -2.094210   -1.253770    3.736410
  H     -0.819330   -0.944750    4.890640
  H     -1.752810    0.383060    4.243660

 Total Charge           Charge          ....   -1
 Multiplicity           Mult            ....    1
 Number of Electrons    NEL             ....   48
 Basis Dimension        Dim             ....  182

ORBITAL ENERGIES
----------------

  NO   OCC          E(Eh)            E(eV)
   0   2.0000     -19.178188      -521.8650
   1   2.0000     -19.177852      -521.8559
   2   2.0000     -10.366607      -282.0897
   3   2.0000     -10.277693      -279.6702
   4   2.0000     -10.268594      -279.4226
   5   2.0000     -10.262119      -279.2465
   6   2.0000      -1.121871       -30.5277
   7   2.0000      -1.025918       -27.9166
   8   2.0000      -0.889195       -24.1962
   9   2.0000      -0.795250       -21.6398
  10   2.0000      -0.693472       -18.8703
  11   2.0000      -0.588905       -16.0249
  12   2.0000      -0.551783       -15.0148
  13   2.0000      -0.549665       -14.9572
  14   2.0000      -0.519056       -14.1242
  15   2.0000      -0.506911       -13.7937
  16   2.0000      -0.477781       -13.0011
  17   2.0000      -0.468607       -12.7514
  18   2.0000      -0.437454       -11.9037
  19   2.0000      -0.419333       -11.4106
  20   2.0000      -0.413080       -11.2405
  21   2.0000      -0.343229        -9.3397
  22   2.0000      -0.329919        -8.9775
  23   2.0000      -0.322420        -8.7735
  24   0.0000       0.095204         2.5906
  25   0.0000       0.114728         3.1219
  26   0.0000       0.123547         3.3619
  27   0.0000       0.134360         3.6561
  28   0.0000       0.146365         3.9828

MULLIKEN ATOMIC CHARGES
-----------------------
   0 C :    0.604873
   1 C :   -0.408479
   2 H :   -0.131272
   3 H :   -0.004704
   4 C :    0.173970
   5 C :    0.355901
   6 H :   -0.018975
   7 H :    0.004908
   8 O :   -0.715948
   9 O :   -0.749434
  10 H :   -0.046495
  11 H :   -0.022341
  12 H :   -0.042004
Sum of atomic charges:   -1.0000000

LOEWDIN ATOMIC CHARGES
----------------------
   0 C :    0.117452
   1 C :   -0.073741
   2 H :    0.018880
   3 H :    0.015666
   4 C :    0.000715
   5 C :   -0.330357
   6 H :    0.013442
   7 H :    0.024603
   8 O :   -0.369822
   9 O :   -0.358985
  10 H :   -0.017592
  11 H :   -0.013137
  12 H :   -0.027124

  Mayer bond orders larger than 0.100000
B(  0-C ,  1-C ) :   1.3151 B(  0-C , 10-H ) :   0.7891 B(  0-C , 11-H ) :   0.8011
B(  0-C , 12-H ) :   0.8418 B(  1-C ,  2-H ) :   0.9947 B(  1-C ,  3-H ) :   0.9167
B(  1-C ,  4-C ) :   1.1778 B(  1-C ,  6-H ) :   0.1391 B(  1-C ,  7-H ) :   0.1220
B(  1-C , 10-H ) :   0.1967 B(  1-C , 11-H ) :   0.1853 B(  1-C , 12-H ) :   0.1984
B(  4-C ,  5-C ) :   1.0543 B(  4-C ,  6-H ) :   0.8729 B(  4-C ,  7-H ) :   0.8337
B(  5-C ,  6-H ) :   0.1897 B(  5-C ,  7-H ) :   0.1174 B(  5-C ,  8-O ) :   1.4678
B(  5-C ,  9-O ) :   1.5007 B(  8-O ,  9-O ) :   0.1414

Dispersion correction           -0.003483604
FINAL SINGLE POINT ENERGY      -306.970829241730

DIPOLE MOMENT
-------------
                                X             Y             Z
Electronic contribution:      0.42637       5.51673       2.65442
Nuclear contribution   :     -1.12936      -8.75108      -3.05770
                        -----------------------------------------
Total Dipole Moment    :     -0.70300      -3.23435      -0.40328
                        -----------------------------------------
Magnitude (a.u.)       :      3.33434
Magnitude (Debye)      :      8.47523

Rotational constants in cm-1:     0.189092     0.083831     0.082013
Rotational constants in MHz :  5668.846461  2513.177001  2458.689996

                             ****ORCA TERMINATED NORMALLY****
TOTAL RUN TIME: 0 days 0 hours 0 minutes 11 seconds 114 msec
