                         Program Version 5.0.0 -  RELEASE  -
|  1> !wB97X-D3 RIJCOSX def2-SVPD def2/J TightSCF CPCM(Water)
|  2> *xyz 1 1
|  3> C         -0.69912        3.48945        3.75516
|  4> H         -0.96672        4.34901        3.14049
|  5> N         -1.08067        3.79296        5.15686
|  6> C          0.77696        3.13839        3.61741
|  7> H         -1.33146        2.65651        3.44632
|  8> H          1.37140        3.88834        4.14974
|  9> H          1.04693        3.23206        2.56133
| 10> C          1.11892        1.73117        4.11516
| 11> H         -0.87449        4.76274        5.42734
| 12> H         -0.68079        3.13476        5.83900
| 13> H         -2.05755        3.53169        5.34620
| 14> H          0.52974        1.01235        3.58499
| 15> H          0.90870        1.66226        5.16204
| 16> H          2.15725        1.53562        3.94624
| 17> *
| 18> %MaxCore 64000
| 19>
| 20> %pal nprocs 18
| 21> end
| 22>
| 23> %scf
| 24>   MaxIter 150
| 25> end
| 26>
| 27>
| 28>                          ****END OF INPUT****

CARTESIAN COORDINATES (ANGSTROEM)
---------------------------------
  C     -0.699120    3.489450    3.755160
  H     -0.966720    4.349010    3.140490
  N     -1.080670    3.792960    5.156860
  C      0.776960    3.138390    3.617410
  H     -1.331460    2.656510    3.446320
  H      1.371400    3.888340    4.149740
  H      1.046930    3.232060    2.561330
  C      1.118920    1.731170    4.115160
  H     -0.874490    4.762740    5.427340
  H     -0.680790    3.134760    5.839000
  H     -2.057550    3.531690    5.346200
  H      0.529740    1.012350    3.584990
  H      0.908700    1.662260    5.162040
  H      2.157250    1.535620    3.946240

 Total Charge           Charge          ....    1
 Multiplicity           Mult            ....    1
 Number of Electrons    NEL             ....   34
 Basis Dimension        Dim             ....  160

ORBITAL ENERGIES
----------------

  NO   OCC          E(Eh)            E(eV)
   0   2.0000     -14.555353      -396.0713
   1   2.0000     -10.349999      -281.6378
   2   2.0000     -10.300545      -280.2921
   3   2.0000     -10.277688      -279.6701
   4   2.0000      -1.109960       -30.2035
   5   2.0000      -0.907807       -24.7027
   6   2.0000      -0.814937       -22.1756
   7   2.0000      -0.720990       -19.6191
   8   2.0000      -0.697323       -18.9751
   9   2.0000      -0.658397       -17.9159
  10   2.0000      -0.603131       -16.4120
  11   2.0000      -0.550981       -14.9930
  12   2.0000      -0.538972       -14.6662
  13   2.0000      -0.509341       -13.8599
  14   2.0000      -0.454434       -12.3658
  15   2.0000      -0.447579       -12.1793
  16   2.0000      -0.444558       -12.0970
  17   0.0000       0.085487         2.3262
  18   0.0000       0.116280         3.1641
  19   0.0000       0.119338         3.2474
  20   0.0000       0.127282         3.4635
  21   0.0000       0.162731         4.4281

MULLIKEN ATOMIC CHARGES
-----------------------
   0 C :    0.544308
   1 H :   -0.033568
   2 N :   -1.001228
   3 C :   -0.399308
   4 H :    0.041438
   5 H :   -0.005490
   6 H :    0.023320
   7 C :    0.604275
   8 H :    0.493471
   9 H :    0.399093
  10 H :    0.439769
  11 H :    0.027699
  12 H :   -0.125574
  13 H :   -0.008205
Sum of atomic charges:    1.0000000

LOEWDIN ATOMIC CHARGES
----------------------
   0 C :    0.092079
   1 H :    0.050992
   2 N :    0.351208
   3 C :   -0.052872
   4 H :    0.051569
   5 H :    0.033678
   6 H :    0.033994
   7 C :    0.130359
   8 H :    0.124619
   9 H :    0.103566
  10 H :    0.119039
  11 H :   -0.009265
  12 H :   -0.018746
  13 H :   -0.010220

  Mayer bond orders larger than 0.100000
B(  0-C ,  1-H ) :   0.9316 B(  0-C ,  2-N ) :   0.6558 B(  0-C ,  3-C ) :   1.1762
B(  0-C ,  4-H ) :   0.9129 B(  1-H ,  2-N ) :   0.1079 B(  2-N ,  8-H ) :   0.6056
B(  2-N ,  9-H ) :   0.7128 B(  2-N , 10-H ) :   0.6552 B(  3-C ,  5-H ) :   0.9666
B(  3-C ,  6-H ) :   0.9388 B(  3-C ,  7-C ) :   1.2544 B(  3-C , 11-H ) :   0.1555
B(  3-C , 12-H ) :   0.1743 B(  3-C , 13-H ) :   0.1918 B(  7-C , 11-H ) :   0.8177
B(  7-C , 12-H ) :   0.8577 B(  7-C , 13-H ) :   0.8160

Dispersion correction           -0.002828484
FINAL SINGLE POINT ENERGY      -174.795552853057

DIPOLE MOMENT
-------------
                                X             Y             Z
Electronic contribution:     -2.05010       1.91047       1.08687
Nuclear contribution   :      0.19356      -0.71099       0.46987
                        -----------------------------------------
Total Dipole Moment    :     -1.85654       1.19948       1.55674
                        -----------------------------------------
Magnitude (a.u.)       :      2.70350
Magnitude (Debye)      :      6.87176

Rotational constants in cm-1:     0.465349     0.150671     0.132807
Rotational constants in MHz : 13950.800968  4516.999758  3981.442177

                             ****ORCA TERMINATED NORMALLY****
TOTAL RUN TIME: 0 days 0 hours 0 minutes 8 seconds 828 msec
