                         Program Version 5.0.0 -  RELEASE  -
|  1> !wB97X-D3 RIJCOSX def2-SVPD def2/J TightSCF CPCM(Water)
|  2> *xyz 0 1
|  3> C         -1.78916       -0.63923        4.55750
|  4> C         -2.79070       -0.78527        5.70281
|  5> H         -2.86731       -1.83565        6.00167
|  6> H         -3.77455       -0.48658        5.33481
|  7> C         -2.45380        0.05510        6.94145
|  8> C         -2.07842        1.48042        6.56410
|  9> H         -1.62558       -0.38216        7.49891
| 10> H         -3.32527        0.08775        7.59917
| 11> F         -0.90125        1.85816        6.82810
| 12> O         -2.93658        2.17731        5.96415
| 13> H         -2.09421       -1.25377        3.73641
| 14> H         -0.81933       -0.94475        4.89064
| 15> H         -1.75281        0.38306        4.24366
| 16> *
| 17> %MaxCore 64000
| 18>
| 19> %pal nprocs 18
| 20> end
| 21>
| 22> %scf
| 23>   MaxIter 150
| 24> end
| 25>
| 26>
| 27>                          ****END OF INPUT****

CARTESIAN COORDINATES (ANGSTROEM)
---------------------------------
  C     -1.789160   -0.639230    4.557500
  C     -2.790700   -0.785270    5.702810
  H     -2.867310   -1.835650    6.001670
  H     -3.774550   -0.486580    5.334810
  C     -2.453800    0.055100    6.941450
  C     -2.078420    1.480420    6.564100
  H     -1.625580   -0.382160    7.498910
  H     -3.325270    0.087750    7.599170
  F     -0.901250    1.858160    6.828100
  O     -2.936580    2.177310    5.964150
  H     -2.094210   -1.253770    3.736410
  H     -0.819330   -0.944750    4.890640
  H     -1.752810    0.383060    4.243660

 Total Charge           Charge          ....    0
 Multiplicity           Mult            ....    1
 Number of Electrons    NEL             ....   48
 Basis Dimension        Dim             ....  182

ORBITAL ENERGIES
----------------

  NO   OCC          E(Eh)            E(eV)
   0   2.0000     -24.874947      -676.8817
   1   2.0000     -19.264225      -524.2062
   2   2.0000     -10.481542      -285.2172
   3   2.0000     -10.309736      -280.5422
   4   2.0000     -10.295602      -280.1576
   5   2.0000     -10.272434      -279.5271
   6   2.0000      -1.420912       -38.6650
   7   2.0000      -1.150768       -31.3140
   8   2.0000      -0.918752       -25.0005
   9   2.0000      -0.832253       -22.6468
  10   2.0000      -0.769056       -20.9271
  11   2.0000      -0.711587       -19.3633
  12   2.0000      -0.655878       -17.8473
  13   2.0000      -0.635105       -17.2821
  14   2.0000      -0.617108       -16.7924
  15   2.0000      -0.561948       -15.2914
  16   2.0000      -0.552365       -15.0306
  17   2.0000      -0.507947       -13.8220
  18   2.0000      -0.505733       -13.7617
  19   2.0000      -0.470679       -12.8078
  20   2.0000      -0.446226       -12.1424
  21   2.0000      -0.439746       -11.9661
  22   2.0000      -0.431068       -11.7299
  23   2.0000      -0.401876       -10.9356
  24   0.0000       0.045827         1.2470
  25   0.0000       0.091293         2.4842
  26   0.0000       0.119947         3.2639
  27   0.0000       0.125759         3.4221
  28   0.0000       0.134308         3.6547

MULLIKEN ATOMIC CHARGES
-----------------------
   0 C :    0.551572
   1 C :   -0.405362
   2 H :   -0.089463
   3 H :    0.021083
   4 C :    0.005168
   5 C :    0.779284
   6 H :    0.070660
   7 H :    0.087500
   8 F :   -0.388050
   9 O :   -0.577697
  10 H :   -0.021158
  11 H :   -0.002843
  12 H :   -0.030693
Sum of atomic charges:    0.0000000

LOEWDIN ATOMIC CHARGES
----------------------
   0 C :    0.126399
   1 C :   -0.056271
   2 H :    0.030956
   3 H :    0.026419
   4 C :    0.047186
   5 C :   -0.001511
   6 H :    0.035543
   7 H :    0.048744
   8 F :   -0.037058
   9 O :   -0.180016
  10 H :   -0.010815
  11 H :   -0.007837
  12 H :   -0.021740

  Mayer bond orders larger than 0.100000
B(  0-C ,  1-C ) :   1.3298 B(  0-C , 10-H ) :   0.7950 B(  0-C , 11-H ) :   0.8203
B(  0-C , 12-H ) :   0.8531 B(  1-C ,  2-H ) :   0.9983 B(  1-C ,  3-H ) :   0.9260
B(  1-C ,  4-C ) :   1.1938 B(  1-C ,  6-H ) :   0.1284 B(  1-C ,  7-H ) :   0.1191
B(  1-C , 10-H ) :   0.1891 B(  1-C , 11-H ) :   0.1723 B(  1-C , 12-H ) :   0.1820
B(  4-C ,  5-C ) :   1.1064 B(  4-C ,  6-H ) :   0.8969 B(  4-C ,  7-H ) :   0.8471
B(  5-C ,  8-F ) :   0.7084 B(  5-C ,  9-O ) :   1.7812

Dispersion correction           -0.003394302
FINAL SINGLE POINT ENERGY      -331.403622714781

DIPOLE MOMENT
-------------
                                X             Y             Z
Electronic contribution:      2.94208       8.63998       4.47407
Nuclear contribution   :     -2.53960     -10.05333      -3.90042
                        -----------------------------------------
Total Dipole Moment    :      0.40248      -1.41335       0.57365
                        -----------------------------------------
Magnitude (a.u.)       :      1.57753
Magnitude (Debye)      :      4.00977

Rotational constants in cm-1:     0.183043     0.080991     0.078218
Rotational constants in MHz :  5487.486217  2428.040459  2344.904824

                             ****ORCA TERMINATED NORMALLY****
TOTAL RUN TIME: 0 days 0 hours 0 minutes 11 seconds 39 msec
