                         Program Version 5.0.0 -  RELEASE  -
|  1> !wB97X-D3 RIJCOSX def2-SVPD def2/J TightSCF CPCM(Water)
|  2> *xyz 0 1
|  3> C         -0.69912        3.48945        3.75516
|  4> H         -0.96672        4.34901        3.14049
|  5> C         -1.08067        3.79296        5.15686
|  6> C          0.77696        3.13839        3.61741
|  7> H         -1.33146        2.65651        3.44632
|  8> H          1.37140        3.88834        4.14974
|  9> H          1.04693        3.23206        2.56133
| 10> C          1.11892        1.73117        4.11516
| 11> H         -0.87449        4.76274        5.42734
| 12> H         -0.68079        3.13476        5.83900
| 13> H         -2.05755        3.53169        5.34620
| 14> H          0.52974        1.01235        3.58499
| 15> H          0.90870        1.66226        5.16204
| 16> H          2.15725        1.53562        3.94624
| 17> *
| 18> %MaxCore 64000
| 19>
| 20> %pal nprocs 18
| 21> end
| 22>
| 23> %scf
| 24>   MaxIter 150
| 25> end
| 26>
| 27>
| 28>                          ****END OF INPUT****

CARTESIAN COORDINATES (ANGSTROEM)
---------------------------------
  C     -0.699120    3.489450    3.755160
  H     -0.966720    4.349010    3.140490
  C     -1.080670    3.792960    5.156860
  C      0.776960    3.138390    3.617410
  H     -1.331460    2.656510    3.446320
  H      1.371400    3.888340    4.149740
  H      1.046930    3.232060    2.561330
  C      1.118920    1.731170    4.115160
  H     -0.874490    4.762740    5.427340
  H     -0.680790    3.134760    5.839000
  H     -2.057550    3.531690    5.346200
  H      0.529740    1.012350    3.584990
  H      0.908700    1.662260    5.162040
  H      2.157250    1.535620    3.946240

 Total Charge           Charge          ....    0
 Multiplicity           Mult            ....    1
 Number of Electrons    NEL             ....   34
 Basis Dimension        Dim             ....  160

ORBITAL ENERGIES
----------------

  NO   OCC          E(Eh)            E(eV)
   0   2.0000     -10.274995      -279.5968
   1   2.0000     -10.270119      -279.4641
   2   2.0000     -10.264823      -279.3200
   3   2.0000     -10.244795      -278.7751
   4   2.0000      -0.908845       -24.7309
   5   2.0000      -0.834783       -22.7156
   6   2.0000      -0.747082       -20.3291
   7   2.0000      -0.670292       -18.2396
   8   2.0000      -0.565750       -15.3948
   9   2.0000      -0.557012       -15.1571
  10   2.0000      -0.523559       -14.2468
  11   2.0000      -0.480527       -13.0758
  12   2.0000      -0.471261       -12.8237
  13   2.0000      -0.455777       -12.4023
  14   2.0000      -0.412883       -11.2351
  15   2.0000      -0.410298       -11.1648
  16   2.0000      -0.405213       -11.0264
  17   0.0000       0.101668         2.7665
  18   0.0000       0.125145         3.4054
  19   0.0000       0.127122         3.4592
  20   0.0000       0.134174         3.6511
  21   0.0000       0.178953         4.8696

MULLIKEN ATOMIC CHARGES
-----------------------
   0 C :   -0.236887
   1 H :   -0.117708
   2 C :    0.985937
   3 C :   -0.296330
   4 H :    0.011652
   5 H :   -0.074971
   6 H :   -0.066007
   7 C :    0.641610
   8 H :   -0.105866
   9 H :   -0.444040
  10 H :   -0.143640
  11 H :    0.036459
  12 H :   -0.169234
  13 H :   -0.020975
Sum of atomic charges:    0.0000000

LOEWDIN ATOMIC CHARGES
----------------------
   0 C :   -0.078677
   1 H :    0.022254
   2 C :    0.114883
   3 C :   -0.082859
   4 H :    0.023551
   5 H :    0.023544
   6 H :    0.014976
   7 C :    0.119213
   8 H :   -0.022829
   9 H :   -0.041700
  10 H :   -0.031833
  11 H :   -0.015482
  12 H :   -0.026402
  13 H :   -0.018639

  Mayer bond orders larger than 0.100000
B(  0-C ,  1-H ) :   0.9634 B(  0-C ,  2-C ) :   1.2196 B(  0-C ,  3-C ) :   1.1574
B(  0-C ,  4-H ) :   0.8854 B(  0-C ,  5-H ) :   0.1231 B(  0-C ,  8-H ) :   0.1842
B(  0-C ,  9-H ) :   0.2422 B(  0-C , 10-H ) :   0.1899 B(  1-H ,  3-C ) :   0.1055
B(  2-C ,  4-H ) :   0.1119 B(  2-C ,  8-H ) :   0.7606 B(  2-C ,  9-H ) :   0.5940
B(  2-C , 10-H ) :   0.6177 B(  3-C ,  5-H ) :   0.9487 B(  3-C ,  6-H ) :   0.9564
B(  3-C ,  7-C ) :   1.2484 B(  3-C , 11-H ) :   0.1858 B(  3-C , 12-H ) :   0.1868
B(  3-C , 13-H ) :   0.1913 B(  7-C , 11-H ) :   0.7888 B(  7-C , 12-H ) :   0.8615
B(  7-C , 13-H ) :   0.7995 B(  9-H , 10-H ) :   0.3174

Dispersion correction           -0.002731080
FINAL SINGLE POINT ENERGY      -158.287155089815

DIPOLE MOMENT
-------------
                                X             Y             Z
Electronic contribution:      0.11220       0.46038      -0.74586
Nuclear contribution   :     -0.14518      -0.47660       0.76944
                        -----------------------------------------
Total Dipole Moment    :     -0.03298      -0.01621       0.02358
                        -----------------------------------------
Magnitude (a.u.)       :      0.04367
Magnitude (Debye)      :      0.11100

Rotational constants in cm-1:     0.472466     0.157481     0.138592
Rotational constants in MHz : 14164.171374  4721.163669  4154.874787

                             ****ORCA TERMINATED NORMALLY****
TOTAL RUN TIME: 0 days 0 hours 0 minutes 8 seconds 755 msec
