                         Program Version 5.0.0 -  RELEASE  -
|  1> !wB97X-D3 RIJCOSX def2-SVPD def2/J TightSCF CPCM(Water)
|  2> *xyz 0 1
|  3> C         -1.78916       -0.63923        4.55750
|  4> C         -2.79070       -0.78527        5.70281
|  5> H         -2.86731       -1.83565        6.00167
|  6> H         -3.77455       -0.48658        5.33481
|  7> C         -2.45380        0.05510        6.94145
|  8> C         -2.07842        1.48042        6.56410
|  9> H         -1.62558       -0.38216        7.49891
| 10> H         -3.32527        0.08775        7.59917
| 11> O         -0.90125        1.85816        6.82810
| 12> F         -2.93658        2.17731        5.96415
| 13> H         -2.09421       -1.25377        3.73641
| 14> H         -0.81933       -0.94475        4.89064
| 15> H         -1.75281        0.38306        4.24366
| 16> *
| 17> %MaxCore 64000
| 18>
| 19> %pal nprocs 18
| 20> end
| 21>
| 22> %scf
| 23>   MaxIter 150
| 24> end
| 25>
| 26>
| 27>                          ****END OF INPUT****

CARTESIAN COORDINATES (ANGSTROEM)
---------------------------------
  C     -1.789160   -0.639230    4.557500
  C     -2.790700   -0.785270    5.702810
  H     -2.867310   -1.835650    6.001670
  H     -3.774550   -0.486580    5.334810
  C     -2.453800    0.055100    6.941450
  C     -2.078420    1.480420    6.564100
  H     -1.625580   -0.382160    7.498910
  H     -3.325270    0.087750    7.599170
  O     -0.901250    1.858160    6.828100
  F     -2.936580    2.177310    5.964150
  H     -2.094210   -1.253770    3.736410
  H     -0.819330   -0.944750    4.890640
  H     -1.752810    0.383060    4.243660

 Total Charge           Charge          ....    0
 Multiplicity           Mult            ....    1
 Number of Electrons    NEL             ....   48
 Basis Dimension        Dim             ....  182

ORBITAL ENERGIES
----------------

  NO   OCC          E(Eh)            E(eV)
   0   2.0000     -24.878119      -676.9680
   1   2.0000     -19.263339      -524.1821
   2   2.0000     -10.481991      -285.2295
   3   2.0000     -10.309635      -280.5394
   4   2.0000     -10.295956      -280.1672
   5   2.0000     -10.273475      -279.5555
   6   2.0000      -1.426239       -38.8099
   7   2.0000      -1.146808       -31.2062
   8   2.0000      -0.920741       -25.0546
   9   2.0000      -0.831407       -22.6237
  10   2.0000      -0.770145       -20.9567
  11   2.0000      -0.714153       -19.4331
  12   2.0000      -0.660304       -17.9678
  13   2.0000      -0.646081       -17.5807
  14   2.0000      -0.604315       -16.4443
  15   2.0000      -0.565036       -15.3754
  16   2.0000      -0.550377       -14.9765
  17   2.0000      -0.515171       -14.0185
  18   2.0000      -0.496512       -13.5108
  19   2.0000      -0.472044       -12.8450
  20   2.0000      -0.454818       -12.3762
  21   2.0000      -0.440160       -11.9774
  22   2.0000      -0.432100       -11.7580
  23   2.0000      -0.394786       -10.7427
  24   0.0000       0.047961         1.3051
  25   0.0000       0.089979         2.4484
  26   0.0000       0.120581         3.2812
  27   0.0000       0.125453         3.4137
  28   0.0000       0.134448         3.6585

MULLIKEN ATOMIC CHARGES
-----------------------
   0 C :    0.570303
   1 C :   -0.441269
   2 H :   -0.091235
   3 H :    0.023303
   4 C :    0.031655
   5 C :    0.796710
   6 H :    0.037543
   7 H :    0.090603
   8 O :   -0.548257
   9 F :   -0.419009
  10 H :   -0.031543
  11 H :    0.001891
  12 H :   -0.020697
Sum of atomic charges:   -0.0000000

LOEWDIN ATOMIC CHARGES
----------------------
   0 C :    0.126240
   1 C :   -0.059124
   2 H :    0.030973
   3 H :    0.027315
   4 C :    0.048487
   5 C :   -0.006876
   6 H :    0.039494
   7 H :    0.046849
   8 O :   -0.188332
   9 F :   -0.028111
  10 H :   -0.010795
  11 H :   -0.006903
  12 H :   -0.019216

  Mayer bond orders larger than 0.100000
B(  0-C ,  1-C ) :   1.3295 B(  0-C , 10-H ) :   0.7924 B(  0-C , 11-H ) :   0.8153
B(  0-C , 12-H ) :   0.8466 B(  1-C ,  2-H ) :   0.9980 B(  1-C ,  3-H ) :   0.9285
B(  1-C ,  4-C ) :   1.1756 B(  1-C ,  6-H ) :   0.1264 B(  1-C ,  7-H ) :   0.1138
B(  1-C , 10-H ) :   0.1957 B(  1-C , 11-H ) :   0.1787 B(  1-C , 12-H ) :   0.1825
B(  4-C ,  5-C ) :   1.0702 B(  4-C ,  6-H ) :   0.9253 B(  4-C ,  7-H ) :   0.8481
B(  5-C ,  6-H ) :   0.1257 B(  5-C ,  8-O ) :   1.7739 B(  5-C ,  9-F ) :   0.6904
B(  8-O ,  9-F ) :   0.1071

Dispersion correction           -0.003400970
FINAL SINGLE POINT ENERGY      -331.401739888687

DIPOLE MOMENT
-------------
                                X             Y             Z
Electronic contribution:     -0.96532       9.23371       2.81647
Nuclear contribution   :     -0.24054     -10.41383      -2.92452
                        -----------------------------------------
Total Dipole Moment    :     -1.20586      -1.18013      -0.10806
                        -----------------------------------------
Magnitude (a.u.)       :      1.69070
Magnitude (Debye)      :      4.29743

Rotational constants in cm-1:     0.180403     0.081943     0.079197
Rotational constants in MHz :  5408.335479  2456.587956  2374.272438

                             ****ORCA TERMINATED NORMALLY****
TOTAL RUN TIME: 0 days 0 hours 0 minutes 10 seconds 704 msec
