                         Program Version 5.0.0 -  RELEASE  -
|  1> !TPSS D3BJ RIJCOSX def2-SVPD def2/J TightSCF
|  2> *xyz -1 1
|  3> C          1.22302        2.46987       -3.75691
|  4> O          2.35381        1.71203       -3.93448
|  5> H          1.26998        3.33359       -4.38673
|  6> H          1.15671        2.77738       -2.73420
|  7> H          0.36099        1.88932       -4.01140
|  8> *
|  9>
| 10> %MaxCore 64000
| 11>
| 12> %pal nprocs 4
| 13> end
| 14>
| 15> %scf
| 16>   MaxIter 150
| 17> end
| 18>
| 19>
| 20>                          ****END OF INPUT****

CARTESIAN COORDINATES (ANGSTROEM)
---------------------------------
  C      1.223020    2.469870   -3.756910
  O      2.353810    1.712030   -3.934480
  H      1.269980    3.333590   -4.386730
  H      1.156710    2.777380   -2.734200
  H      0.360990    1.889320   -4.011400

 Total Charge           Charge          ....   -1
 Multiplicity           Mult            ....    1
 Number of Electrons    NEL             ....   18
 Basis Dimension        Dim             ....   67

ORBITAL ENERGIES
----------------

  NO   OCC          E(Eh)            E(eV)
   0   2.0000     -18.548900      -504.7412
   1   2.0000      -9.788547      -266.3599
   2   2.0000      -0.582108       -15.8400
   3   2.0000      -0.341079        -9.2812
   4   2.0000      -0.155336        -4.2269
   5   2.0000      -0.155335        -4.2269
   6   2.0000      -0.054768        -1.4903
   7   2.0000       0.091522         2.4904
   8   2.0000       0.091525         2.4905
   9   0.0000       0.189343         5.1523
  10   0.0000       0.259376         7.0580
  11   0.0000       0.259377         7.0580
  12   0.0000       0.267144         7.2694
  13   0.0000       0.304098         8.2749

MULLIKEN ATOMIC CHARGES
-----------------------
   0 C :    0.807655
   1 O :   -1.047321
   2 H :   -0.253501
   3 H :   -0.253406
   4 H :   -0.253427
Sum of atomic charges:   -1.0000000

LOEWDIN ATOMIC CHARGES
----------------------
   0 C :   -0.107187
   1 O :   -0.636153
   2 H :   -0.085556
   3 H :   -0.085552
   4 H :   -0.085552

  Mayer bond orders larger than 0.100000
B(  0-C ,  1-O ) :   1.1180 B(  0-C ,  2-H ) :   0.9228 B(  0-C ,  3-H ) :   0.9228
B(  0-C ,  4-H ) :   0.9227

Dispersion correction           -0.001756143
FINAL SINGLE POINT ENERGY      -115.034406958948

DIPOLE MOMENT
-------------
                                X             Y             Z
Electronic contribution:      1.57012      -1.05224      -0.24657
Nuclear contribution   :     -2.37854       1.59406       0.37350
                        -----------------------------------------
Total Dipole Moment    :     -0.80842       0.54182       0.12694
                        -----------------------------------------
Magnitude (a.u.)       :      0.98144
Magnitude (Debye)      :      2.49462

Rotational constants in cm-1:     5.477743     0.935515     0.935515
Rotational constants in MHz : 164218.600605 28046.042741 28046.034116

                             ****ORCA TERMINATED NORMALLY****
TOTAL RUN TIME: 0 days 0 hours 0 minutes 2 seconds 779 msec
