                         Program Version 5.0.0 -  RELEASE  -
|  1> !TPSS D3BJ RIJCOSX def2-SVPD def2/J TightSCF
|  2> *xyz 1 1
|  3> C          1.63556       -1.67040       -5.29211
|  4> N          2.48451       -0.50741       -5.14039
|  5> C          3.45115       -0.14953       -5.95259
|  6> N          3.92267        1.08956       -5.85071
|  7> N          3.96616       -1.00618       -6.86788
|  8> H          3.52139       -1.90647       -6.99527
|  9> H          4.44482       -0.62347       -7.67035
| 10> H          2.25200        0.24080       -4.49879
| 11> H          3.46428        1.64078       -5.13639
| 12> H          4.83447        1.31375       -6.22465
| 13> H          2.06372       -2.33262       -6.01532
| 14> H          0.66479       -1.36293       -5.62068
| 15> H          1.55078       -2.17513       -4.35245
| 16> *
| 17>
| 18> %MaxCore 64000
| 19>
| 20> %pal nprocs 4
| 21> end
| 22>
| 23> %scf
| 24>   MaxIter 150
| 25> end
| 26>
| 27>
| 28>                          ****END OF INPUT****

CARTESIAN COORDINATES (ANGSTROEM)
---------------------------------
  C      1.635560   -1.670400   -5.292110
  N      2.484510   -0.507410   -5.140390
  C      3.451150   -0.149530   -5.952590
  N      3.922670    1.089560   -5.850710
  N      3.966160   -1.006180   -6.867880
  H      3.521390   -1.906470   -6.995270
  H      4.444820   -0.623470   -7.670350
  H      2.252000    0.240800   -4.498790
  H      3.464280    1.640780   -5.136390
  H      4.834470    1.313750   -6.224650
  H      2.063720   -2.332620   -6.015320
  H      0.664790   -1.362930   -5.620680
  H      1.550780   -2.175130   -4.352450

 Total Charge           Charge          ....    1
 Multiplicity           Mult            ....    1
 Number of Electrons    NEL             ....   40
 Basis Dimension        Dim             ....  164

ORBITAL ENERGIES
----------------

  NO   OCC          E(Eh)            E(eV)
   0   2.0000     -14.351743      -390.5308
   1   2.0000     -14.345341      -390.3566
   2   2.0000     -14.342265      -390.2729
   3   2.0000     -10.327733      -281.0319
   4   2.0000     -10.214909      -277.9618
   5   2.0000      -1.148419       -31.2501
   6   2.0000      -1.041554       -28.3421
   7   2.0000      -1.028841       -27.9962
   8   2.0000      -0.857317       -23.3288
   9   2.0000      -0.779183       -21.2027
  10   2.0000      -0.739208       -20.1149
  11   2.0000      -0.715384       -19.4666
  12   2.0000      -0.652230       -17.7481
  13   2.0000      -0.649701       -17.6793
  14   2.0000      -0.619191       -16.8490
  15   2.0000      -0.606899       -16.5146
  16   2.0000      -0.556239       -15.1360
  17   2.0000      -0.551068       -14.9953
  18   2.0000      -0.442931       -12.0528
  19   2.0000      -0.426229       -11.5983
  20   0.0000      -0.201653        -5.4873
  21   0.0000      -0.174467        -4.7475
  22   0.0000      -0.142993        -3.8910
  23   0.0000      -0.125795        -3.4230
  24   0.0000      -0.101527        -2.7627

MULLIKEN ATOMIC CHARGES
-----------------------
   0 C :    1.249628
   1 N :   -0.642864
   2 C :    1.285434
   3 N :   -0.057152
   4 N :   -0.006119
   5 H :   -0.045164
   6 H :   -0.072348
   7 H :   -0.234648
   8 H :    0.039870
   9 H :   -0.070547
  10 H :   -0.277961
  11 H :   -0.082826
  12 H :   -0.085303
Sum of atomic charges:    1.0000000

LOEWDIN ATOMIC CHARGES
----------------------
   0 C :    0.290219
   1 N :    0.016301
   2 C :   -0.037223
   3 N :    0.267735
   4 N :    0.281036
   5 H :    0.004424
   6 H :    0.036287
   7 H :    0.055925
   8 H :    0.032912
   9 H :    0.044494
  10 H :   -0.018729
  11 H :    0.012989
  12 H :    0.013630

  Mayer bond orders larger than 0.100000
B(  0-C ,  1-N ) :   0.9501 B(  0-C ,  7-H ) :  -0.1768 B(  0-C , 10-H ) :   0.8297
B(  0-C , 11-H ) :   0.7644 B(  0-C , 12-H ) :   0.7324 B(  1-N ,  2-C ) :   0.9802
B(  1-N ,  3-N ) :   0.2968 B(  1-N ,  4-N ) :   0.1746 B(  1-N ,  7-H ) :   1.3574
B(  1-N , 10-H ) :   0.2242 B(  1-N , 11-H ) :   0.1800 B(  1-N , 12-H ) :   0.2134
B(  2-C ,  3-N ) :   0.9110 B(  2-C ,  4-N ) :   0.9942 B(  2-C ,  6-H ) :  -0.1297
B(  2-C ,  7-H ) :  -0.2514 B(  2-C ,  9-H ) :  -0.1119 B(  3-N ,  4-N ) :   0.1762
B(  3-N ,  8-H ) :   1.0571 B(  3-N ,  9-H ) :   1.2153 B(  4-N ,  5-H ) :   1.0322
B(  4-N ,  6-H ) :   1.2044 B(  5-H ,  6-H ) :  -0.1499 B(  5-H , 10-H ) :   0.1069
B(  8-H ,  9-H ) :  -0.1390

Dispersion correction           -0.011172884
FINAL SINGLE POINT ENERGY      -244.960218165628

DIPOLE MOMENT
-------------
                                X             Y             Z
Electronic contribution:      1.96024       1.90645      -0.25836
Nuclear contribution   :     -1.83770      -1.53167       0.12165
                        -----------------------------------------
Total Dipole Moment    :      0.12254       0.37478      -0.13670
                        -----------------------------------------
Magnitude (a.u.)       :      0.41733
Magnitude (Debye)      :      1.06078

Rotational constants in cm-1:     0.307545     0.135665     0.096412
Rotational constants in MHz :  9219.967860  4067.145400  2890.348280

                             ****ORCA TERMINATED NORMALLY****
TOTAL RUN TIME: 0 days 0 hours 0 minutes 9 seconds 683 msec
