                         Program Version 5.0.0 -  RELEASE  -
|  1> !TPSS D3BJ RIJCOSX def2-SVPD def2/J TightSCF
|  2> *xyz 0 1
|  3> C          1.22302        2.46987       -3.75691
|  4> F          2.35381        1.71203       -3.93448
|  5> H          1.26998        3.33359       -4.38673
|  6> H          1.15671        2.77738       -2.73420
|  7> H          0.36099        1.88932       -4.01140
|  8> *
|  9>
| 10> %MaxCore 64000
| 11>
| 12> %pal nprocs 4
| 13> end
| 14>
| 15> %scf
| 16>   MaxIter 150
| 17> end
| 18>
| 19>
| 20>                          ****END OF INPUT****

CARTESIAN COORDINATES (ANGSTROEM)
---------------------------------
  C      1.223020    2.469870   -3.756910
  F      2.353810    1.712030   -3.934480
  H      1.269980    3.333590   -4.386730
  H      1.156710    2.777380   -2.734200
  H      0.360990    1.889320   -4.011400

 Total Charge           Charge          ....    0
 Multiplicity           Mult            ....    1
 Number of Electrons    NEL             ....   18
 Basis Dimension        Dim             ....   67

ORBITAL ENERGIES
----------------

  NO   OCC          E(Eh)            E(eV)
   0   2.0000     -24.411686      -664.2757
   1   2.0000     -10.072737      -274.0931
   2   2.0000      -1.103819       -30.0365
   3   2.0000      -0.648888       -17.6571
   4   2.0000      -0.449464       -12.2305
   5   2.0000      -0.441133       -12.0038
   6   2.0000      -0.441131       -12.0038
   7   2.0000      -0.303715        -8.2645
   8   2.0000      -0.303713        -8.2645
   9   0.0000       0.016049         0.4367
  10   0.0000       0.043292         1.1780
  11   0.0000       0.089729         2.4417
  12   0.0000       0.089730         2.4417
  13   0.0000       0.134215         3.6522

MULLIKEN ATOMIC CHARGES
-----------------------
   0 C :    0.855504
   1 F :   -0.487331
   2 H :   -0.122806
   3 H :   -0.122677
   4 H :   -0.122691
Sum of atomic charges:   -0.0000000

LOEWDIN ATOMIC CHARGES
----------------------
   0 C :    0.275114
   1 F :   -0.244238
   2 H :   -0.010296
   3 H :   -0.010290
   4 H :   -0.010290

  Mayer bond orders larger than 0.100000
B(  0-C ,  1-F ) :   0.8372 B(  0-C ,  2-H ) :   0.9458 B(  0-C ,  3-H ) :   0.9458
B(  0-C ,  4-H ) :   0.9458

Dispersion correction           -0.001538286
FINAL SINGLE POINT ENERGY      -139.660665500232

DIPOLE MOMENT
-------------
                                X             Y             Z
Electronic contribution:      2.43792      -1.63387      -0.38281
Nuclear contribution   :     -3.01708       2.02200       0.47377
                        -----------------------------------------
Total Dipole Moment    :     -0.57916       0.38813       0.09097
                        -----------------------------------------
Magnitude (a.u.)       :      0.70310
Magnitude (Debye)      :      1.78714

Rotational constants in cm-1:     5.477743     0.870792     0.870792
Rotational constants in MHz : 164218.600605 26105.683059 26105.675587

                             ****ORCA TERMINATED NORMALLY****
TOTAL RUN TIME: 0 days 0 hours 0 minutes 2 seconds 419 msec
