                         Program Version 5.0.0 -  RELEASE  -
|  1> !TPSS D3BJ RIJCOSX def2-SVPD def2/J TightSCF
|  2> *xyz 0 1
|  3> C          1.63556       -1.67040       -5.29211
|  4> C          2.48451       -0.50741       -5.14039
|  5> C          3.45115       -0.14953       -5.95259
|  6> N          3.92267        1.08956       -5.85071
|  7> N          3.96616       -1.00618       -6.86788
|  8> H          3.52139       -1.90647       -6.99527
|  9> H          4.44482       -0.62347       -7.67035
| 10> H          2.25200        0.24080       -4.49879
| 11> H          3.46428        1.64078       -5.13639
| 12> H          4.83447        1.31375       -6.22465
| 13> H          2.06372       -2.33262       -6.01532
| 14> H          0.66479       -1.36293       -5.62068
| 15> H          1.55078       -2.17513       -4.35245
| 16> *
| 17>
| 18> %MaxCore 64000
| 19>
| 20> %pal nprocs 4
| 21> end
| 22>
| 23> %scf
| 24>   MaxIter 150
| 25> end
| 26>
| 27>
| 28>                          ****END OF INPUT****

CARTESIAN COORDINATES (ANGSTROEM)
---------------------------------
  C      1.635560   -1.670400   -5.292110
  C      2.484510   -0.507410   -5.140390
  C      3.451150   -0.149530   -5.952590
  N      3.922670    1.089560   -5.850710
  N      3.966160   -1.006180   -6.867880
  H      3.521390   -1.906470   -6.995270
  H      4.444820   -0.623470   -7.670350
  H      2.252000    0.240800   -4.498790
  H      3.464280    1.640780   -5.136390
  H      4.834470    1.313750   -6.224650
  H      2.063720   -2.332620   -6.015320
  H      0.664790   -1.362930   -5.620680
  H      1.550780   -2.175130   -4.352450

 Total Charge           Charge          ....    0
 Multiplicity           Mult            ....    1
 Number of Electrons    NEL             ....   40
 Basis Dimension        Dim             ....  164

ORBITAL ENERGIES
----------------

  NO   OCC          E(Eh)            E(eV)
   0   2.0000     -14.115691      -384.1075
   1   2.0000     -14.113698      -384.0532
   2   2.0000     -10.030495      -272.9436
   3   2.0000      -9.971656      -271.3425
   4   2.0000      -9.923744      -270.0388
   5   2.0000      -0.881937       -23.9987
   6   2.0000      -0.800208       -21.7748
   7   2.0000      -0.692090       -18.8327
   8   2.0000      -0.600664       -16.3449
   9   2.0000      -0.533307       -14.5120
  10   2.0000      -0.491806       -13.3827
  11   2.0000      -0.464255       -12.6330
  12   2.0000      -0.424596       -11.5538
  13   2.0000      -0.383787       -10.4434
  14   2.0000      -0.367771       -10.0076
  15   2.0000      -0.339255        -9.2316
  16   2.0000      -0.319171        -8.6851
  17   2.0000      -0.309980        -8.4350
  18   2.0000      -0.221973        -6.0402
  19   2.0000      -0.131253        -3.5716
  20   0.0000       0.005477         0.1490
  21   0.0000       0.031061         0.8452
  22   0.0000       0.042605         1.1593
  23   0.0000       0.056209         1.5295
  24   0.0000       0.073541         2.0012

MULLIKEN ATOMIC CHARGES
-----------------------
   0 C :    0.933541
   1 C :   -0.729017
   2 C :    0.735880
   3 N :   -0.014910
   4 N :   -0.005507
   5 H :   -0.047054
   6 H :   -0.162405
   7 H :   -0.254942
   8 H :    0.050567
   9 H :   -0.176103
  10 H :   -0.355375
  11 H :   -0.021488
  12 H :    0.046813
Sum of atomic charges:    0.0000000

LOEWDIN ATOMIC CHARGES
----------------------
   0 C :    0.119544
   1 C :   -0.063784
   2 C :   -0.228115
   3 N :    0.175321
   4 N :    0.196928
   5 H :   -0.027984
   6 H :   -0.016273
   7 H :   -0.053464
   8 H :   -0.001055
   9 H :   -0.010577
  10 H :   -0.048449
  11 H :   -0.020523
  12 H :   -0.021569

  Mayer bond orders larger than 0.100000
B(  0-C ,  1-C ) :   1.1188 B(  0-C ,  7-H ) :   0.1545 B(  0-C , 10-H ) :   0.8163
B(  0-C , 11-H ) :   0.7853 B(  0-C , 12-H ) :   0.5868 B(  1-C ,  2-C ) :   1.6500
B(  1-C ,  3-N ) :   0.3505 B(  1-C ,  4-N ) :   0.1705 B(  1-C ,  7-H ) :   0.9448
B(  1-C , 10-H ) :   0.3680 B(  1-C , 11-H ) :   0.1196 B(  1-C , 12-H ) :   0.2908
B(  2-C ,  3-N ) :   0.9360 B(  2-C ,  4-N ) :   1.0482 B(  2-C ,  7-H ) :   0.2636
B(  3-N ,  4-N ) :   0.1350 B(  3-N ,  8-H ) :   1.0459 B(  3-N ,  9-H ) :   1.2193
B(  4-N ,  5-H ) :   1.0196 B(  4-N ,  6-H ) :   1.1935 B(  5-H ,  6-H ) :  -0.1226
B(  8-H ,  9-H ) :  -0.1346 B( 10-H , 12-H ) :   0.2147

Dispersion correction           -0.011689700
FINAL SINGLE POINT ENERGY      -228.491098640846

DIPOLE MOMENT
-------------
                                X             Y             Z
Electronic contribution:      2.40523       1.86703      -0.76459
Nuclear contribution   :     -1.96139      -1.54412       0.26148
                        -----------------------------------------
Total Dipole Moment    :      0.44384       0.32291      -0.50311
                        -----------------------------------------
Magnitude (a.u.)       :      0.74457
Magnitude (Debye)      :      1.89255

Rotational constants in cm-1:     0.312277     0.136708     0.097371
Rotational constants in MHz :  9361.815989  4098.393303  2919.105491

                             ****ORCA TERMINATED NORMALLY****
TOTAL RUN TIME: 0 days 0 hours 0 minutes 10 seconds 225 msec
