                         Program Version 5.0.0 -  RELEASE  -
|  1> !TPSS D3BJ RIJCOSX def2-SVPD def2/J TightSCF
|  2> *xyz 0 1
|  3> C          1.63556       -1.67040       -5.29211
|  4> N          2.48451       -0.50741       -5.14039
|  5> C          3.45115       -0.14953       -5.95259
|  6> C          3.92267        1.08956       -5.85071
|  7> N          3.96616       -1.00618       -6.86788
|  8> H          3.52139       -1.90647       -6.99527
|  9> H          4.44482       -0.62347       -7.67035
| 10> H          2.25200        0.24080       -4.49879
| 11> H          3.46428        1.64078       -5.13639
| 12> H          4.83447        1.31375       -6.22465
| 13> H          2.06372       -2.33262       -6.01532
| 14> H          0.66479       -1.36293       -5.62068
| 15> H          1.55078       -2.17513       -4.35245
| 16> *
| 17>
| 18> %MaxCore 64000
| 19>
| 20> %pal nprocs 4
| 21> end
| 22>
| 23> %scf
| 24>   MaxIter 150
| 25> end
| 26>
| 27>
| 28>                          ****END OF INPUT****

CARTESIAN COORDINATES (ANGSTROEM)
---------------------------------
  C      1.635560   -1.670400   -5.292110
  N      2.484510   -0.507410   -5.140390
  C      3.451150   -0.149530   -5.952590
  C      3.922670    1.089560   -5.850710
  N      3.966160   -1.006180   -6.867880
  H      3.521390   -1.906470   -6.995270
  H      4.444820   -0.623470   -7.670350
  H      2.252000    0.240800   -4.498790
  H      3.464280    1.640780   -5.136390
  H      4.834470    1.313750   -6.224650
  H      2.063720   -2.332620   -6.015320
  H      0.664790   -1.362930   -5.620680
  H      1.550780   -2.175130   -4.352450

 Total Charge           Charge          ....    0
 Multiplicity           Mult            ....    1
 Number of Electrons    NEL             ....   40
 Basis Dimension        Dim             ....  164

ORBITAL ENERGIES
----------------

  NO   OCC          E(Eh)            E(eV)
   0   2.0000     -14.119373      -384.2077
   1   2.0000     -14.117797      -384.1648
   2   2.0000     -10.038291      -273.1558
   3   2.0000     -10.036021      -273.0940
   4   2.0000      -9.910989      -269.6917
   5   2.0000      -0.895702       -24.3733
   6   2.0000      -0.812780       -22.1169
   7   2.0000      -0.689048       -18.7500
   8   2.0000      -0.608413       -16.5558
   9   2.0000      -0.549114       -14.9422
  10   2.0000      -0.491080       -13.3630
  11   2.0000      -0.449576       -12.2336
  12   2.0000      -0.434502       -11.8234
  13   2.0000      -0.413723       -11.2580
  14   2.0000      -0.373491       -10.1632
  15   2.0000      -0.349698        -9.5158
  16   2.0000      -0.341177        -9.2839
  17   2.0000      -0.321121        -8.7381
  18   2.0000      -0.217255        -5.9118
  19   2.0000      -0.131299        -3.5728
  20   0.0000       0.000709         0.0193
  21   0.0000       0.031290         0.8514
  22   0.0000       0.035439         0.9644
  23   0.0000       0.054449         1.4816
  24   0.0000       0.076401         2.0790

MULLIKEN ATOMIC CHARGES
-----------------------
   0 C :    1.250465
   1 N :   -0.567485
   2 C :    0.594588
   3 C :    0.363427
   4 N :    0.057043
   5 H :   -0.177477
   6 H :   -0.079919
   7 H :   -0.256499
   8 H :   -0.174820
   9 H :   -0.408919
  10 H :   -0.318890
  11 H :   -0.137596
  12 H :   -0.143918
Sum of atomic charges:    0.0000000

LOEWDIN ATOMIC CHARGES
----------------------
   0 C :    0.234645
   1 N :   -0.047351
   2 C :   -0.235600
   3 C :    0.140438
   4 N :    0.199719
   5 H :   -0.041572
   6 H :    0.003227
   7 H :    0.029583
   8 H :   -0.107094
   9 H :   -0.100967
  10 H :   -0.038190
  11 H :   -0.019476
  12 H :   -0.017363

  Mayer bond orders larger than 0.100000
B(  0-C ,  1-N ) :   0.9287 B(  0-C ,  7-H ) :  -0.1741 B(  0-C , 10-H ) :   0.8256
B(  0-C , 11-H ) :   0.7756 B(  0-C , 12-H ) :   0.7349 B(  1-N ,  2-C ) :   1.0366
B(  1-N ,  3-C ) :   0.2824 B(  1-N ,  4-N ) :   0.1041 B(  1-N ,  7-H ) :   1.3026
B(  1-N , 10-H ) :   0.2480 B(  1-N , 11-H ) :   0.1736 B(  1-N , 12-H ) :   0.2325
B(  2-C ,  3-C ) :   1.5821 B(  2-C ,  4-N ) :   0.9811 B(  2-C ,  7-H ) :  -0.1927
B(  2-C ,  8-H ) :   0.2166 B(  2-C ,  9-H ) :   0.2181 B(  3-C ,  4-N ) :   0.2367
B(  3-C ,  8-H ) :   0.8189 B(  3-C ,  9-H ) :   0.7701 B(  4-N ,  5-H ) :   1.0528
B(  4-N ,  6-H ) :   1.1711 B(  5-H ,  6-H ) :  -0.1418 B(  5-H , 10-H ) :   0.1095

Dispersion correction           -0.011616758
FINAL SINGLE POINT ENERGY      -228.479488785791

DIPOLE MOMENT
-------------
                                X             Y             Z
Electronic contribution:      1.02363       0.30503      -0.21313
Nuclear contribution   :     -1.67010      -1.22066       0.11760
                        -----------------------------------------
Total Dipole Moment    :     -0.64647      -0.91563      -0.09553
                        -----------------------------------------
Magnitude (a.u.)       :      1.12491
Magnitude (Debye)      :      2.85930

Rotational constants in cm-1:     0.314526     0.141398     0.099973
Rotational constants in MHz :  9429.255015  4239.015262  2997.111162

                             ****ORCA TERMINATED NORMALLY****
TOTAL RUN TIME: 0 days 0 hours 0 minutes 9 seconds 380 msec
