                         Program Version 5.0.0 -  RELEASE  -
|  1> !TPSS D3BJ RIJCOSX def2-SVPD def2/J TightSCF
|  2> *xyz 0 1
|  3> C          1.63556       -1.67040       -5.29211
|  4> N          2.48451       -0.50741       -5.14039
|  5> C          3.45115       -0.14953       -5.95259
|  6> N          3.92267        1.08956       -5.85071
|  7> C          3.96616       -1.00618       -6.86788
|  8> H          3.52139       -1.90647       -6.99527
|  9> H          4.44482       -0.62347       -7.67035
| 10> H          2.25200        0.24080       -4.49879
| 11> H          3.46428        1.64078       -5.13639
| 12> H          4.83447        1.31375       -6.22465
| 13> H          2.06372       -2.33262       -6.01532
| 14> H          0.66479       -1.36293       -5.62068
| 15> H          1.55078       -2.17513       -4.35245
| 16> *
| 17>
| 18> %MaxCore 64000
| 19>
| 20> %pal nprocs 4
| 21> end
| 22>
| 23> %scf
| 24>   MaxIter 150
| 25> end
| 26>
| 27>
| 28>                          ****END OF INPUT****

CARTESIAN COORDINATES (ANGSTROEM)
---------------------------------
  C      1.635560   -1.670400   -5.292110
  N      2.484510   -0.507410   -5.140390
  C      3.451150   -0.149530   -5.952590
  N      3.922670    1.089560   -5.850710
  C      3.966160   -1.006180   -6.867880
  H      3.521390   -1.906470   -6.995270
  H      4.444820   -0.623470   -7.670350
  H      2.252000    0.240800   -4.498790
  H      3.464280    1.640780   -5.136390
  H      4.834470    1.313750   -6.224650
  H      2.063720   -2.332620   -6.015320
  H      0.664790   -1.362930   -5.620680
  H      1.550780   -2.175130   -4.352450

 Total Charge           Charge          ....    0
 Multiplicity           Mult            ....    1
 Number of Electrons    NEL             ....   40
 Basis Dimension        Dim             ....  164

ORBITAL ENERGIES
----------------

  NO   OCC          E(Eh)            E(eV)
   0   2.0000     -14.124036      -384.3346
   1   2.0000     -14.120793      -384.2463
   2   2.0000     -10.037930      -273.1459
   3   2.0000     -10.030015      -272.9306
   4   2.0000      -9.911429      -269.7037
   5   2.0000      -0.903491       -24.5852
   6   2.0000      -0.817211       -22.2374
   7   2.0000      -0.660025       -17.9602
   8   2.0000      -0.640578       -17.4310
   9   2.0000      -0.517497       -14.0818
  10   2.0000      -0.497457       -13.5365
  11   2.0000      -0.485044       -13.1987
  12   2.0000      -0.417759       -11.3678
  13   2.0000      -0.409049       -11.1308
  14   2.0000      -0.377078       -10.2608
  15   2.0000      -0.343843        -9.3564
  16   2.0000      -0.330068        -8.9816
  17   2.0000      -0.322715        -8.7815
  18   2.0000      -0.215636        -5.8677
  19   2.0000      -0.132462        -3.6045
  20   0.0000      -0.001263        -0.0344
  21   0.0000       0.028051         0.7633
  22   0.0000       0.040004         1.0886
  23   0.0000       0.051095         1.3904
  24   0.0000       0.077573         2.1109

MULLIKEN ATOMIC CHARGES
-----------------------
   0 C :    1.271379
   1 N :   -0.518978
   2 C :    0.585630
   3 N :    0.026376
   4 C :    0.290820
   5 H :   -0.264532
   6 H :   -0.278063
   7 H :   -0.365458
   8 H :   -0.118124
   9 H :   -0.074403
  10 H :   -0.300833
  11 H :   -0.133742
  12 H :   -0.120072
Sum of atomic charges:    0.0000000

LOEWDIN ATOMIC CHARGES
----------------------
   0 C :    0.244569
   1 N :   -0.050661
   2 C :   -0.242589
   3 N :    0.188182
   4 C :    0.158101
   5 H :   -0.133973
   6 H :   -0.108509
   7 H :    0.014779
   8 H :   -0.016115
   9 H :    0.011176
  10 H :   -0.033061
  11 H :   -0.016079
  12 H :   -0.015821

  Mayer bond orders larger than 0.100000
B(  0-C ,  1-N ) :   0.9270 B(  0-C ,  7-H ) :  -0.1583 B(  0-C , 10-H ) :   0.8150
B(  0-C , 11-H ) :   0.7466 B(  0-C , 12-H ) :   0.7063 B(  1-N ,  2-C ) :   1.0234
B(  1-N ,  3-N ) :   0.1966 B(  1-N ,  4-C ) :   0.2930 B(  1-N ,  7-H ) :   1.3450
B(  1-N , 10-H ) :   0.2167 B(  1-N , 11-H ) :   0.1991 B(  1-N , 12-H ) :   0.2315
B(  2-C ,  3-N ) :   0.9027 B(  2-C ,  4-C ) :   1.7435 B(  2-C ,  5-H ) :   0.2209
B(  2-C ,  6-H ) :   0.2146 B(  2-C ,  7-H ) :  -0.2227 B(  3-N ,  4-C ) :   0.2853
B(  3-N ,  8-H ) :   1.1047 B(  3-N ,  9-H ) :   1.1921 B(  4-C ,  5-H ) :   0.6997
B(  4-C ,  6-H ) :   0.8157 B(  5-H ,  6-H ) :   0.2562 B(  5-H , 10-H ) :   0.1434
B(  8-H ,  9-H ) :  -0.1274

Dispersion correction           -0.011668964
FINAL SINGLE POINT ENERGY      -228.478569121156

DIPOLE MOMENT
-------------
                                X             Y             Z
Electronic contribution:      1.05940       2.32589       0.84635
Nuclear contribution   :     -1.66129      -1.64514      -0.08842
                        -----------------------------------------
Total Dipole Moment    :     -0.60189       0.68075       0.75794
                        -----------------------------------------
Magnitude (a.u.)       :      1.18328
Magnitude (Debye)      :      3.00767

Rotational constants in cm-1:     0.330436     0.136339     0.098902
Rotational constants in MHz :  9906.231858  4087.333233  2964.994979

                             ****ORCA TERMINATED NORMALLY****
TOTAL RUN TIME: 0 days 0 hours 0 minutes 9 seconds 820 msec
