                         Program Version 5.0.0 -  RELEASE  -
|  1> !B3LYP D3BJ RIJCOSX def2-SVPD def2/J TightSCF
|  2> *xyz -1 1
|  3> C         -0.91495        0.61511        2.50554
|  4> C         -0.05915        1.50352        3.41058
|  5> H          0.36536        2.34431        2.86116
|  6> H         -0.69226        1.92021        4.19898
|  7> C          1.08303        0.74964        4.08571
|  8> O          2.22817        1.26348        4.01983
|  9> O          0.81003       -0.34541        4.63627
| 10> C         -0.13074       -0.19398        1.47076
| 11> H         -1.64796        1.24596        1.99108
| 12> H         -1.47818       -0.08105        3.13042
| 13> H         -0.80952       -0.78099        0.88803
| 14> H          0.55985       -0.83974        1.97175
| 15> H          0.40595        0.47288        0.82877
| 16> *
| 17>
| 18> %MaxCore 64000
| 19>
| 20> %pal nprocs 4
| 21> end
| 22>
| 23> %scf
| 24>   MaxIter 150
| 25> end
| 26>
| 27>
| 28>                          ****END OF INPUT****

CARTESIAN COORDINATES (ANGSTROEM)
---------------------------------
  C     -0.914950    0.615110    2.505540
  C     -0.059150    1.503520    3.410580
  H      0.365360    2.344310    2.861160
  H     -0.692260    1.920210    4.198980
  C      1.083030    0.749640    4.085710
  O      2.228170    1.263480    4.019830
  O      0.810030   -0.345410    4.636270
  C     -0.130740   -0.193980    1.470760
  H     -1.647960    1.245960    1.991080
  H     -1.478180   -0.081050    3.130420
  H     -0.809520   -0.780990    0.888030
  H      0.559850   -0.839740    1.971750
  H      0.405950    0.472880    0.828770

 Total Charge           Charge          ....   -1
 Multiplicity           Mult            ....    1
 Number of Electrons    NEL             ....   48
 Basis Dimension        Dim             ....  182

ORBITAL ENERGIES
----------------

  NO   OCC          E(Eh)            E(eV)
   0   2.0000     -18.880913      -513.7758
   1   2.0000     -18.880235      -513.7573
   2   2.0000     -10.071210      -274.0516
   3   2.0000     -10.034234      -273.0454
   4   2.0000     -10.027833      -272.8712
   5   2.0000     -10.010197      -272.3913
   6   2.0000      -0.814752       -22.1705
   7   2.0000      -0.722043       -19.6478
   8   2.0000      -0.629932       -17.1413
   9   2.0000      -0.536825       -14.6078
  10   2.0000      -0.440625       -11.9900
  11   2.0000      -0.325538        -8.8583
  12   2.0000      -0.304345        -8.2816
  13   2.0000      -0.288650        -7.8546
  14   2.0000      -0.256691        -6.9849
  15   2.0000      -0.234235        -6.3739
  16   2.0000      -0.215418        -5.8618
  17   2.0000      -0.208244        -5.6666
  18   2.0000      -0.196633        -5.3507
  19   2.0000      -0.176653        -4.8070
  20   2.0000      -0.164751        -4.4831
  21   2.0000      -0.054687        -1.4881
  22   2.0000      -0.046856        -1.2750
  23   2.0000      -0.032831        -0.8934
  24   0.0000       0.145333         3.9547
  25   0.0000       0.169173         4.6034
  26   0.0000       0.186759         5.0820
  27   0.0000       0.198140         5.3917
  28   0.0000       0.217242         5.9115

MULLIKEN ATOMIC CHARGES
-----------------------
   0 C :   -0.248454
   1 C :    0.322160
   2 H :   -0.101909
   3 H :   -0.115547
   4 C :    0.390886
   5 O :   -0.673478
   6 O :   -0.737846
   7 C :    0.867751
   8 H :   -0.274277
   9 H :   -0.059967
  10 H :   -0.158853
  11 H :   -0.117711
  12 H :   -0.092754
Sum of atomic charges:   -1.0000000

LOEWDIN ATOMIC CHARGES
----------------------
   0 C :   -0.085611
   1 C :    0.002892
   2 H :   -0.001648
   3 H :    0.007785
   4 C :   -0.311171
   5 O :   -0.325745
   6 O :   -0.317440
   7 C :    0.122253
   8 H :   -0.006331
   9 H :    0.007361
  10 H :   -0.040389
  11 H :   -0.024234
  12 H :   -0.027722

  Mayer bond orders larger than 0.100000
B(  0-C ,  1-C ) :   1.1950 B(  0-C ,  2-H ) :   0.1564 B(  0-C ,  3-H ) :   0.1454
B(  0-C ,  7-C ) :   1.3205 B(  0-C ,  8-H ) :   0.9320 B(  0-C ,  9-H ) :   0.8534
B(  0-C , 10-H ) :   0.2504 B(  0-C , 11-H ) :   0.2368 B(  0-C , 12-H ) :   0.2264
B(  1-C ,  2-H ) :   0.8372 B(  1-C ,  3-H ) :   0.7888 B(  1-C ,  4-C ) :   1.0122
B(  1-C ,  8-H ) :   0.1143 B(  1-C ,  9-H ) :   0.1385 B(  2-H ,  4-C ) :   0.2529
B(  3-H ,  4-C ) :   0.1184 B(  4-C ,  5-O ) :   1.4296 B(  4-C ,  6-O ) :   1.4773
B(  7-C ,  8-H ) :   0.1020 B(  7-C , 10-H ) :   0.6998 B(  7-C , 11-H ) :   0.7957
B(  7-C , 12-H ) :   0.7475

Dispersion correction           -0.016451305
FINAL SINGLE POINT ENERGY      -306.790390506308

DIPOLE MOMENT
-------------
                                X             Y             Z
Electronic contribution:      4.60468       0.20211       5.51867
Nuclear contribution   :     -6.45806       0.15825      -7.12052
                        -----------------------------------------
Total Dipole Moment    :     -1.85338       0.36036      -1.60186
                        -----------------------------------------
Magnitude (a.u.)       :      2.47605
Magnitude (Debye)      :      6.29362

Rotational constants in cm-1:     0.199323     0.080770     0.077827
Rotational constants in MHz :  5975.562678  2421.415024  2333.195390

                             ****ORCA TERMINATED NORMALLY****
TOTAL RUN TIME: 0 days 0 hours 0 minutes 17 seconds 942 msec
