                         Program Version 5.0.0 -  RELEASE  -
|  1> !B3LYP D3BJ RIJCOSX def2-SVPD def2/J TightSCF
|  2> *xyz 1 1
|  3> C          4.60295       -2.44010        2.63478
|  4> C          3.86085       -1.59157        3.62289
|  5> N          2.75650       -2.04616        4.16633
|  6> N          4.25433       -0.36291        3.86046
|  7> H          3.56526        0.31099        4.16898
|  8> H          5.05429       -0.01606        3.33784
|  9> H          2.43970       -2.97389        3.89740
| 10> H          2.06687       -1.41253        4.54981
| 11> C          3.74469       -2.58056        1.36188
| 12> C          3.20372       -1.25600        0.82621
| 13> H          2.89894       -3.23929        1.58307
| 14> H          4.33496       -3.09552        0.60019
| 15> H          5.56156       -1.97135        2.40708
| 16> H          4.81050       -3.42255        3.06310
| 17> H          2.62184       -1.43789       -0.05313
| 18> H          4.02069       -0.60826        0.58562
| 19> H          2.58975       -0.79418        1.57097
| 20> *
| 21>
| 22> %MaxCore 64000
| 23>
| 24> %pal nprocs 4
| 25> end
| 26>
| 27> %scf
| 28>   MaxIter 150
| 29> end
| 30>
| 31>
| 32>                          ****END OF INPUT****

CARTESIAN COORDINATES (ANGSTROEM)
---------------------------------
  C      4.602950   -2.440100    2.634780
  C      3.860850   -1.591570    3.622890
  N      2.756500   -2.046160    4.166330
  N      4.254330   -0.362910    3.860460
  H      3.565260    0.310990    4.168980
  H      5.054290   -0.016060    3.337840
  H      2.439700   -2.973890    3.897400
  H      2.066870   -1.412530    4.549810
  C      3.744690   -2.580560    1.361880
  C      3.203720   -1.256000    0.826210
  H      2.898940   -3.239290    1.583070
  H      4.334960   -3.095520    0.600190
  H      5.561560   -1.971350    2.407080
  H      4.810500   -3.422550    3.063100
  H      2.621840   -1.437890   -0.053130
  H      4.020690   -0.608260    0.585620
  H      2.589750   -0.794180    1.570970

 Total Charge           Charge          ....    1
 Multiplicity           Mult            ....    1
 Number of Electrons    NEL             ....   48
 Basis Dimension        Dim             ....  208

ORBITAL ENERGIES
----------------

  NO   OCC          E(Eh)            E(eV)
   0   2.0000     -14.574428      -396.5904
   1   2.0000     -14.574092      -396.5812
   2   2.0000     -10.502935      -285.7994
   3   2.0000     -10.380304      -282.4624
   4   2.0000     -10.351112      -281.6681
   5   2.0000     -10.319298      -280.8024
   6   2.0000      -1.198443       -32.6113
   7   2.0000      -1.101047       -29.9610
   8   2.0000      -0.971236       -26.4287
   9   2.0000      -0.884744       -24.0751
  10   2.0000      -0.832750       -22.6603
  11   2.0000      -0.782164       -21.2838
  12   2.0000      -0.772260       -21.0143
  13   2.0000      -0.733168       -19.9505
  14   2.0000      -0.698069       -18.9954
  15   2.0000      -0.665739       -18.1157
  16   2.0000      -0.629236       -17.1224
  17   2.0000      -0.594673       -16.1819
  18   2.0000      -0.575790       -15.6680
  19   2.0000      -0.568742       -15.4763
  20   2.0000      -0.513071       -13.9614
  21   2.0000      -0.510669       -13.8960
  22   2.0000      -0.499752       -13.5989
  23   2.0000      -0.494350       -13.4519
  24   0.0000      -0.217772        -5.9259
  25   0.0000      -0.160074        -4.3558
  26   0.0000      -0.121093        -3.2951
  27   0.0000      -0.116227        -3.1627
  28   0.0000      -0.087978        -2.3940

MULLIKEN ATOMIC CHARGES
-----------------------
   0 C :    0.481594
   1 C :    0.335687
   2 N :    0.166849
   3 N :    0.133296
   4 H :   -0.097933
   5 H :    0.060819
   6 H :    0.050637
   7 H :   -0.144035
   8 C :   -0.177155
   9 C :    1.017780
  10 H :   -0.057452
  11 H :   -0.244069
  12 H :   -0.046810
  13 H :   -0.083407
  14 H :   -0.196154
  15 H :   -0.087308
  16 H :   -0.112341
Sum of atomic charges:    1.0000000

LOEWDIN ATOMIC CHARGES
----------------------
   0 C :    0.059159
   1 C :   -0.071120
   2 N :    0.295293
   3 N :    0.294814
   4 H :    0.048751
   5 H :    0.051427
   6 H :    0.051792
   7 H :    0.049850
   8 C :   -0.032674
   9 C :    0.149872
  10 H :    0.021348
  11 H :    0.039253
  12 H :    0.036491
  13 H :    0.046390
  14 H :   -0.000121
  15 H :   -0.008131
  16 H :   -0.032395

  Mayer bond orders larger than 0.100000
B(  0-C ,  1-C ) :   1.1845 B(  0-C ,  8-C ) :   1.1429 B(  0-C , 10-H ) :   0.1168
B(  0-C , 11-H ) :   0.1210 B(  0-C , 12-H ) :   0.7443 B(  0-C , 13-H ) :   0.7620
B(  1-C ,  2-N ) :   1.1759 B(  1-C ,  3-N ) :   1.1344 B(  1-C ,  4-H ) :  -0.1226
B(  1-C ,  7-H ) :  -0.1119 B(  1-C , 12-H ) :   0.2124 B(  1-C , 13-H ) :   0.2054
B(  2-N ,  3-N ) :   0.1718 B(  2-N ,  6-H ) :   1.0345 B(  2-N ,  7-H ) :   1.2238
B(  3-N ,  4-H ) :   1.1985 B(  3-N ,  5-H ) :   1.0073 B(  4-H ,  5-H ) :  -0.1438
B(  6-H ,  7-H ) :  -0.1625 B(  8-C ,  9-C ) :   1.3320 B(  8-C , 10-H ) :   0.8549
B(  8-C , 11-H ) :   0.9441 B(  8-C , 12-H ) :   0.1463 B(  8-C , 14-H ) :   0.2501
B(  8-C , 15-H ) :   0.2200 B(  8-C , 16-H ) :   0.2544 B(  9-C , 14-H ) :   0.6995
B(  9-C , 15-H ) :   0.7195 B(  9-C , 16-H ) :   0.7503 B( 15-H , 16-H ) :   0.1025

Dispersion correction           -0.023336550
FINAL SINGLE POINT ENERGY      -268.012425402398

DIPOLE MOMENT
-------------
                                X             Y             Z
Electronic contribution:      0.49784       0.56879       5.20119
Nuclear contribution   :     -0.82989      -0.08664      -4.26094
                        -----------------------------------------
Total Dipole Moment    :     -0.33205       0.48216       0.94025
                        -----------------------------------------
Magnitude (a.u.)       :      1.10761
Magnitude (Debye)      :      2.81532

Rotational constants in cm-1:     0.166042     0.084809     0.078793
Rotational constants in MHz :  4977.819890  2542.513379  2362.161076

                             ****ORCA TERMINATED NORMALLY****
TOTAL RUN TIME: 0 days 0 hours 0 minutes 21 seconds 326 msec
