                         Program Version 5.0.0 -  RELEASE  -
|  1> !B3LYP D3BJ RIJCOSX def2-SVPD def2/J TightSCF
|  2> *xyz 0 1
|  3> C         -0.91495        0.61511        2.50554
|  4> C         -0.05915        1.50352        3.41058
|  5> H          0.36536        2.34431        2.86116
|  6> H         -0.69226        1.92021        4.19898
|  7> C          1.08303        0.74964        4.08571
|  8> F          2.22817        1.26348        4.01983
|  9> O          0.81003       -0.34541        4.63627
| 10> C         -0.13074       -0.19398        1.47076
| 11> H         -1.64796        1.24596        1.99108
| 12> H         -1.47818       -0.08105        3.13042
| 13> H         -0.80952       -0.78099        0.88803
| 14> H          0.55985       -0.83974        1.97175
| 15> H          0.40595        0.47288        0.82877
| 16> *
| 17>
| 18> %MaxCore 64000
| 19>
| 20> %pal nprocs 4
| 21> end
| 22>
| 23> %scf
| 24>   MaxIter 150
| 25> end
| 26>
| 27>
| 28>                          ****END OF INPUT****

CARTESIAN COORDINATES (ANGSTROEM)
---------------------------------
  C     -0.914950    0.615110    2.505540
  C     -0.059150    1.503520    3.410580
  H      0.365360    2.344310    2.861160
  H     -0.692260    1.920210    4.198980
  C      1.083030    0.749640    4.085710
  F      2.228170    1.263480    4.019830
  O      0.810030   -0.345410    4.636270
  C     -0.130740   -0.193980    1.470760
  H     -1.647960    1.245960    1.991080
  H     -1.478180   -0.081050    3.130420
  H     -0.809520   -0.780990    0.888030
  H      0.559850   -0.839740    1.971750
  H      0.405950    0.472880    0.828770

 Total Charge           Charge          ....    0
 Multiplicity           Mult            ....    1
 Number of Electrons    NEL             ....   48
 Basis Dimension        Dim             ....  182

ORBITAL ENERGIES
----------------

  NO   OCC          E(Eh)            E(eV)
   0   2.0000     -24.769533      -674.0133
   1   2.0000     -19.150114      -521.1011
   2   2.0000     -10.366955      -282.0992
   3   2.0000     -10.215019      -277.9648
   4   2.0000     -10.197445      -277.4866
   5   2.0000     -10.175784      -276.8971
   6   2.0000      -1.306920       -35.5631
   7   2.0000      -1.027490       -27.9594
   8   2.0000      -0.807494       -21.9730
   9   2.0000      -0.725651       -19.7460
  10   2.0000      -0.662967       -18.0403
  11   2.0000      -0.609033       -16.5726
  12   2.0000      -0.552274       -15.0281
  13   2.0000      -0.533600       -14.5200
  14   2.0000      -0.510437       -13.8897
  15   2.0000      -0.467523       -12.7220
  16   2.0000      -0.456840       -12.4312
  17   2.0000      -0.420756       -11.4494
  18   2.0000      -0.406422       -11.0593
  19   2.0000      -0.374399       -10.1879
  20   2.0000      -0.359124        -9.7723
  21   2.0000      -0.350943        -9.5496
  22   2.0000      -0.347316        -9.4510
  23   2.0000      -0.298121        -8.1123
  24   0.0000      -0.038354        -1.0437
  25   0.0000       0.013168         0.3583
  26   0.0000       0.040493         1.1019
  27   0.0000       0.045583         1.2404
  28   0.0000       0.057264         1.5582

MULLIKEN ATOMIC CHARGES
-----------------------
   0 C :   -0.195683
   1 C :    0.237995
   2 H :   -0.064590
   3 H :   -0.050893
   4 C :    0.724107
   5 F :   -0.364278
   6 O :   -0.519477
   7 C :    0.885630
   8 H :   -0.237897
   9 H :   -0.054165
  10 H :   -0.134762
  11 H :   -0.140579
  12 H :   -0.085408
Sum of atomic charges:   -0.0000000

LOEWDIN ATOMIC CHARGES
----------------------
   0 C :   -0.056475
   1 C :    0.045093
   2 H :    0.021590
   3 H :    0.039012
   4 C :   -0.014565
   5 F :   -0.031968
   6 O :   -0.129875
   7 C :    0.140478
   8 H :    0.021388
   9 H :    0.024225
  10 H :   -0.017118
  11 H :   -0.023870
  12 H :   -0.017915

  Mayer bond orders larger than 0.100000
B(  0-C ,  1-C ) :   1.2267 B(  0-C ,  2-H ) :   0.1527 B(  0-C ,  3-H ) :   0.1439
B(  0-C ,  7-C ) :   1.3467 B(  0-C ,  8-H ) :   0.9149 B(  0-C ,  9-H ) :   0.8530
B(  0-C , 10-H ) :   0.2355 B(  0-C , 11-H ) :   0.2221 B(  0-C , 12-H ) :   0.2169
B(  1-C ,  2-H ) :   0.8539 B(  1-C ,  3-H ) :   0.7895 B(  1-C ,  4-C ) :   1.0775
B(  1-C ,  8-H ) :   0.1122 B(  1-C ,  9-H ) :   0.1262 B(  2-H ,  4-C ) :   0.1269
B(  4-C ,  5-F ) :   0.7239 B(  4-C ,  6-O ) :   1.8013 B(  5-F ,  6-O ) :   0.1138
B(  7-C , 10-H ) :   0.7104 B(  7-C , 11-H ) :   0.7941 B(  7-C , 12-H ) :   0.7494

Dispersion correction           -0.015818550
FINAL SINGLE POINT ENERGY      -331.320871797405

DIPOLE MOMENT
-------------
                                X             Y             Z
Electronic contribution:      7.96578       1.46190       7.21644
Nuclear contribution   :     -8.39104      -0.60591      -7.87060
                        -----------------------------------------
Total Dipole Moment    :     -0.42526       0.85599      -0.65416
                        -----------------------------------------
Magnitude (a.u.)       :      1.15823
Magnitude (Debye)      :      2.94398

Rotational constants in cm-1:     0.194210     0.077092     0.074391
Rotational constants in MHz :  5822.269139  2311.145895  2230.180895

                             ****ORCA TERMINATED NORMALLY****
TOTAL RUN TIME: 0 days 0 hours 0 minutes 16 seconds 821 msec
