                         Program Version 5.0.0 -  RELEASE  -
|  1> !B3LYP D3BJ RIJCOSX def2-SVPD def2/J TightSCF
|  2> *xyz 0 1
|  3> C          4.60295       -2.44010        2.63478
|  4> C          3.86085       -1.59157        3.62289
|  5> C          2.75650       -2.04616        4.16633
|  6> N          4.25433       -0.36291        3.86046
|  7> H          3.56526        0.31099        4.16898
|  8> H          5.05429       -0.01606        3.33784
|  9> H          2.43970       -2.97389        3.89740
| 10> H          2.06687       -1.41253        4.54981
| 11> C          3.74469       -2.58056        1.36188
| 12> C          3.20372       -1.25600        0.82621
| 13> H          2.89894       -3.23929        1.58307
| 14> H          4.33496       -3.09552        0.60019
| 15> H          5.56156       -1.97135        2.40708
| 16> H          4.81050       -3.42255        3.06310
| 17> H          2.62184       -1.43789       -0.05313
| 18> H          4.02069       -0.60826        0.58562
| 19> H          2.58975       -0.79418        1.57097
| 20> *
| 21>
| 22> %MaxCore 64000
| 23>
| 24> %pal nprocs 4
| 25> end
| 26>
| 27> %scf
| 28>   MaxIter 150
| 29> end
| 30>
| 31>
| 32>                          ****END OF INPUT****

CARTESIAN COORDINATES (ANGSTROEM)
---------------------------------
  C      4.602950   -2.440100    2.634780
  C      3.860850   -1.591570    3.622890
  C      2.756500   -2.046160    4.166330
  N      4.254330   -0.362910    3.860460
  H      3.565260    0.310990    4.168980
  H      5.054290   -0.016060    3.337840
  H      2.439700   -2.973890    3.897400
  H      2.066870   -1.412530    4.549810
  C      3.744690   -2.580560    1.361880
  C      3.203720   -1.256000    0.826210
  H      2.898940   -3.239290    1.583070
  H      4.334960   -3.095520    0.600190
  H      5.561560   -1.971350    2.407080
  H      4.810500   -3.422550    3.063100
  H      2.621840   -1.437890   -0.053130
  H      4.020690   -0.608260    0.585620
  H      2.589750   -0.794180    1.570970

 Total Charge           Charge          ....    0
 Multiplicity           Mult            ....    1
 Number of Electrons    NEL             ....   48
 Basis Dimension        Dim             ....  208

ORBITAL ENERGIES
----------------

  NO   OCC          E(Eh)            E(eV)
   0   2.0000     -14.333231      -390.0270
   1   2.0000     -10.201124      -277.5867
   2   2.0000     -10.183628      -277.1106
   3   2.0000     -10.179881      -277.0087
   4   2.0000     -10.164010      -276.5768
   5   2.0000     -10.114187      -275.2210
   6   2.0000      -0.926716       -25.2172
   7   2.0000      -0.788945       -21.4683
   8   2.0000      -0.724380       -19.7114
   9   2.0000      -0.679183       -18.4815
  10   2.0000      -0.602012       -16.3816
  11   2.0000      -0.555437       -15.1142
  12   2.0000      -0.522473       -14.2172
  13   2.0000      -0.486101       -13.2275
  14   2.0000      -0.455443       -12.3932
  15   2.0000      -0.436372       -11.8743
  16   2.0000      -0.403055       -10.9677
  17   2.0000      -0.390534       -10.6270
  18   2.0000      -0.368015       -10.0142
  19   2.0000      -0.362089        -9.8529
  20   2.0000      -0.338449        -9.2097
  21   2.0000      -0.331023        -9.0076
  22   2.0000      -0.323876        -8.8131
  23   2.0000      -0.191891        -5.2216
  24   0.0000       0.014419         0.3924
  25   0.0000       0.026876         0.7313
  26   0.0000       0.045076         1.2266
  27   0.0000       0.053062         1.4439
  28   0.0000       0.059297         1.6136

MULLIKEN ATOMIC CHARGES
-----------------------
   0 C :    0.660843
   1 C :   -0.346896
   2 C :    0.500928
   3 N :    0.232382
   4 H :   -0.111685
   5 H :   -0.030245
   6 H :   -0.202571
   7 H :   -0.502826
   8 C :   -0.230777
   9 C :    1.009285
  10 H :   -0.078645
  11 H :   -0.243790
  12 H :   -0.138338
  13 H :   -0.076627
  14 H :   -0.277808
  15 H :   -0.086411
  16 H :   -0.076820
Sum of atomic charges:   -0.0000000

LOEWDIN ATOMIC CHARGES
----------------------
   0 C :    0.018621
   1 C :   -0.275938
   2 C :    0.176692
   3 N :    0.181479
   4 H :    0.008882
   5 H :   -0.001546
   6 H :   -0.081039
   7 H :   -0.085245
   8 C :   -0.056226
   9 C :    0.131376
  10 H :    0.013806
  11 H :    0.012345
  12 H :    0.009301
  13 H :    0.023945
  14 H :   -0.022882
  15 H :   -0.022671
  16 H :   -0.030901

  Mayer bond orders larger than 0.100000
B(  0-C ,  1-C ) :   1.2078 B(  0-C ,  2-C ) :   0.1039 B(  0-C ,  8-C ) :   1.1342
B(  0-C , 10-H ) :   0.1393 B(  0-C , 11-H ) :   0.1869 B(  0-C , 12-H ) :   0.5594
B(  0-C , 13-H ) :   0.7312 B(  1-C ,  2-C ) :   1.8700 B(  1-C ,  3-N ) :   1.0127
B(  1-C ,  5-H ) :   0.1199 B(  1-C ,  7-H ) :   0.2235 B(  1-C , 12-H ) :   0.3254
B(  1-C , 13-H ) :   0.2312 B(  2-C ,  3-N ) :   0.3306 B(  2-C ,  6-H ) :   0.7291
B(  2-C ,  7-H ) :   0.6985 B(  3-N ,  4-H ) :   1.0675 B(  3-N ,  5-H ) :   0.9447
B(  4-H ,  5-H ) :  -0.1336 B(  8-C ,  9-C ) :   1.2889 B(  8-C , 10-H ) :   0.8739
B(  8-C , 11-H ) :   0.8797 B(  8-C , 12-H ) :   0.1927 B(  8-C , 13-H ) :   0.1046
B(  8-C , 14-H ) :   0.2634 B(  8-C , 15-H ) :   0.2329 B(  8-C , 16-H ) :   0.2815
B(  9-C , 10-H ) :   0.1115 B(  9-C , 11-H ) :   0.1022 B(  9-C , 14-H ) :   0.6957
B(  9-C , 15-H ) :   0.7189 B(  9-C , 16-H ) :   0.7576

Dispersion correction           -0.024209249
FINAL SINGLE POINT ENERGY      -251.553166550246

DIPOLE MOMENT
-------------
                                X             Y             Z
Electronic contribution:      1.35898       0.69802       3.42269
Nuclear contribution   :     -1.05621      -0.17147      -3.92631
                        -----------------------------------------
Total Dipole Moment    :      0.30277       0.52655      -0.50362
                        -----------------------------------------
Magnitude (a.u.)       :      0.78902
Magnitude (Debye)      :      2.00553

Rotational constants in cm-1:     0.171127     0.086782     0.080643
Rotational constants in MHz :  5130.249275  2601.647634  2417.629092

                             ****ORCA TERMINATED NORMALLY****
TOTAL RUN TIME: 0 days 0 hours 0 minutes 24 seconds 456 msec
