                         Program Version 5.0.0 -  RELEASE  -
|  1> !B3LYP D3BJ RIJCOSX def2-SVPD def2/J TightSCF
|  2> *xyz 0 1
|  3> C         -0.91495        0.61511        2.50554
|  4> C         -0.05915        1.50352        3.41058
|  5> H          0.36536        2.34431        2.86116
|  6> H         -0.69226        1.92021        4.19898
|  7> C          1.08303        0.74964        4.08571
|  8> O          2.22817        1.26348        4.01983
|  9> F          0.81003       -0.34541        4.63627
| 10> C         -0.13074       -0.19398        1.47076
| 11> H         -1.64796        1.24596        1.99108
| 12> H         -1.47818       -0.08105        3.13042
| 13> H         -0.80952       -0.78099        0.88803
| 14> H          0.55985       -0.83974        1.97175
| 15> H          0.40595        0.47288        0.82877
| 16> *
| 17>
| 18> %MaxCore 64000
| 19>
| 20> %pal nprocs 4
| 21> end
| 22>
| 23> %scf
| 24>   MaxIter 150
| 25> end
| 26>
| 27>
| 28>                          ****END OF INPUT****

CARTESIAN COORDINATES (ANGSTROEM)
---------------------------------
  C     -0.914950    0.615110    2.505540
  C     -0.059150    1.503520    3.410580
  H      0.365360    2.344310    2.861160
  H     -0.692260    1.920210    4.198980
  C      1.083030    0.749640    4.085710
  O      2.228170    1.263480    4.019830
  F      0.810030   -0.345410    4.636270
  C     -0.130740   -0.193980    1.470760
  H     -1.647960    1.245960    1.991080
  H     -1.478180   -0.081050    3.130420
  H     -0.809520   -0.780990    0.888030
  H      0.559850   -0.839740    1.971750
  H      0.405950    0.472880    0.828770

 Total Charge           Charge          ....    0
 Multiplicity           Mult            ....    1
 Number of Electrons    NEL             ....   48
 Basis Dimension        Dim             ....  182

ORBITAL ENERGIES
----------------

  NO   OCC          E(Eh)            E(eV)
   0   2.0000     -24.770795      -674.0476
   1   2.0000     -19.148833      -521.0662
   2   2.0000     -10.365997      -282.0731
   3   2.0000     -10.214171      -277.9417
   4   2.0000     -10.202252      -277.6174
   5   2.0000     -10.181424      -277.0506
   6   2.0000      -1.308529       -35.6069
   7   2.0000      -1.025021       -27.8922
   8   2.0000      -0.812393       -22.1063
   9   2.0000      -0.725941       -19.7539
  10   2.0000      -0.663185       -18.0462
  11   2.0000      -0.614033       -16.7087
  12   2.0000      -0.555009       -15.1026
  13   2.0000      -0.544475       -14.8159
  14   2.0000      -0.494463       -13.4550
  15   2.0000      -0.473992       -12.8980
  16   2.0000      -0.459286       -12.4978
  17   2.0000      -0.422882       -11.5072
  18   2.0000      -0.405303       -11.0289
  19   2.0000      -0.379740       -10.3332
  20   2.0000      -0.368237       -10.0202
  21   2.0000      -0.355219        -9.6660
  22   2.0000      -0.349543        -9.5116
  23   2.0000      -0.292212        -7.9515
  24   0.0000      -0.034874        -0.9490
  25   0.0000       0.009607         0.2614
  26   0.0000       0.041319         1.1243
  27   0.0000       0.045994         1.2515
  28   0.0000       0.053347         1.4516

MULLIKEN ATOMIC CHARGES
-----------------------
   0 C :   -0.204138
   1 C :    0.265284
   2 H :   -0.086447
   3 H :   -0.063048
   4 C :    0.740334
   5 O :   -0.465208
   6 F :   -0.411724
   7 C :    0.893886
   8 H :   -0.245656
   9 H :   -0.075478
  10 H :   -0.134153
  11 H :   -0.139448
  12 H :   -0.074205
Sum of atomic charges:    0.0000000

LOEWDIN ATOMIC CHARGES
----------------------
   0 C :   -0.064905
   1 C :    0.050106
   2 H :    0.033364
   3 H :    0.035873
   4 C :   -0.021172
   5 O :   -0.131923
   6 F :   -0.029129
   7 C :    0.140884
   8 H :    0.021410
   9 H :    0.018864
  10 H :   -0.017217
  11 H :   -0.023536
  12 H :   -0.012617

  Mayer bond orders larger than 0.100000
B(  0-C ,  1-C ) :   1.2010 B(  0-C ,  2-H ) :   0.1433 B(  0-C ,  3-H ) :   0.1366
B(  0-C ,  7-C ) :   1.3472 B(  0-C ,  8-H ) :   0.9217 B(  0-C ,  9-H ) :   0.8526
B(  0-C , 10-H ) :   0.2407 B(  0-C , 11-H ) :   0.2231 B(  0-C , 12-H ) :   0.2231
B(  1-C ,  2-H ) :   0.8761 B(  1-C ,  3-H ) :   0.7985 B(  1-C ,  4-C ) :   1.0323
B(  1-C ,  8-H ) :   0.1150 B(  1-C ,  9-H ) :   0.1186 B(  2-H ,  4-C ) :   0.1693
B(  4-C ,  5-O ) :   1.7925 B(  4-C ,  6-F ) :   0.6869 B(  5-O ,  6-F ) :   0.1305
B(  7-C , 10-H ) :   0.7059 B(  7-C , 11-H ) :   0.7908 B(  7-C , 12-H ) :   0.7519

Dispersion correction           -0.015698429
FINAL SINGLE POINT ENERGY      -331.319870444257

DIPOLE MOMENT
-------------
                                X             Y             Z
Electronic contribution:      5.53747      -1.25368       8.22056
Nuclear contribution   :     -6.78915       1.21145      -8.56691
                        -----------------------------------------
Total Dipole Moment    :     -1.25168      -0.04223      -0.34635
                        -----------------------------------------
Magnitude (a.u.)       :      1.29940
Magnitude (Debye)      :      3.30281

Rotational constants in cm-1:     0.188995     0.079574     0.075294
Rotational constants in MHz :  5665.932233  2385.568994  2257.246443

                             ****ORCA TERMINATED NORMALLY****
TOTAL RUN TIME: 0 days 0 hours 0 minutes 16 seconds 937 msec
