                         Program Version 5.0.0 -  RELEASE  -
|  1> !B3LYP D3BJ RIJCOSX def2-SVPD def2/J TightSCF
|  2> *xyz 0 1
|  3> C          4.60295       -2.44010        2.63478
|  4> C          3.86085       -1.59157        3.62289
|  5> N          2.75650       -2.04616        4.16633
|  6> C          4.25433       -0.36291        3.86046
|  7> H          3.56526        0.31099        4.16898
|  8> H          5.05429       -0.01606        3.33784
|  9> H          2.43970       -2.97389        3.89740
| 10> H          2.06687       -1.41253        4.54981
| 11> C          3.74469       -2.58056        1.36188
| 12> C          3.20372       -1.25600        0.82621
| 13> H          2.89894       -3.23929        1.58307
| 14> H          4.33496       -3.09552        0.60019
| 15> H          5.56156       -1.97135        2.40708
| 16> H          4.81050       -3.42255        3.06310
| 17> H          2.62184       -1.43789       -0.05313
| 18> H          4.02069       -0.60826        0.58562
| 19> H          2.58975       -0.79418        1.57097
| 20> *
| 21>
| 22> %MaxCore 64000
| 23>
| 24> %pal nprocs 4
| 25> end
| 26>
| 27> %scf
| 28>   MaxIter 150
| 29> end
| 30>
| 31>
| 32>                          ****END OF INPUT****

CARTESIAN COORDINATES (ANGSTROEM)
---------------------------------
  C      4.602950   -2.440100    2.634780
  C      3.860850   -1.591570    3.622890
  N      2.756500   -2.046160    4.166330
  C      4.254330   -0.362910    3.860460
  H      3.565260    0.310990    4.168980
  H      5.054290   -0.016060    3.337840
  H      2.439700   -2.973890    3.897400
  H      2.066870   -1.412530    4.549810
  C      3.744690   -2.580560    1.361880
  C      3.203720   -1.256000    0.826210
  H      2.898940   -3.239290    1.583070
  H      4.334960   -3.095520    0.600190
  H      5.561560   -1.971350    2.407080
  H      4.810500   -3.422550    3.063100
  H      2.621840   -1.437890   -0.053130
  H      4.020690   -0.608260    0.585620
  H      2.589750   -0.794180    1.570970

 Total Charge           Charge          ....    0
 Multiplicity           Mult            ....    1
 Number of Electrons    NEL             ....   48
 Basis Dimension        Dim             ....  208

ORBITAL ENERGIES
----------------

  NO   OCC          E(Eh)            E(eV)
   0   2.0000     -14.333729      -390.0406
   1   2.0000     -10.201335      -277.5924
   2   2.0000     -10.183260      -277.1006
   3   2.0000     -10.182684      -277.0849
   4   2.0000     -10.162798      -276.5438
   5   2.0000     -10.115131      -275.2467
   6   2.0000      -0.926431       -25.2095
   7   2.0000      -0.787791       -21.4369
   8   2.0000      -0.727435       -19.7945
   9   2.0000      -0.680365       -18.5137
  10   2.0000      -0.594990       -16.1905
  11   2.0000      -0.565615       -15.3912
  12   2.0000      -0.525857       -14.3093
  13   2.0000      -0.471367       -12.8266
  14   2.0000      -0.457226       -12.4418
  15   2.0000      -0.446942       -12.1619
  16   2.0000      -0.392823       -10.6893
  17   2.0000      -0.390831       -10.6351
  18   2.0000      -0.377348       -10.2682
  19   2.0000      -0.363155        -9.8820
  20   2.0000      -0.334980        -9.1153
  21   2.0000      -0.331782        -9.0282
  22   2.0000      -0.321660        -8.7528
  23   2.0000      -0.193986        -5.2786
  24   0.0000       0.011790         0.3208
  25   0.0000       0.028543         0.7767
  26   0.0000       0.045728         1.2443
  27   0.0000       0.052223         1.4211
  28   0.0000       0.061703         1.6790

MULLIKEN ATOMIC CHARGES
-----------------------
   0 C :    0.485188
   1 C :   -0.367019
   2 N :    0.300263
   3 C :    0.556306
   4 H :   -0.466860
   5 H :   -0.144314
   6 H :   -0.072852
   7 H :   -0.187642
   8 C :   -0.176658
   9 C :    1.019690
  10 H :   -0.055028
  11 H :   -0.315621
  12 H :    0.013166
  13 H :   -0.151239
  14 H :   -0.190132
  15 H :   -0.107682
  16 H :   -0.139565
Sum of atomic charges:   -0.0000000

LOEWDIN ATOMIC CHARGES
----------------------
   0 C :    0.017526
   1 C :   -0.280041
   2 N :    0.184988
   3 C :    0.175925
   4 H :   -0.084411
   5 H :   -0.083247
   6 H :    0.000125
   7 H :    0.009143
   8 C :   -0.059187
   9 C :    0.133171
  10 H :    0.005596
  11 H :    0.013526
  12 H :    0.021277
  13 H :    0.015705
  14 H :   -0.023509
  15 H :   -0.015835
  16 H :   -0.030754

  Mayer bond orders larger than 0.100000
B(  0-C ,  1-C ) :   1.2840 B(  0-C ,  3-C ) :   0.1177 B(  0-C ,  8-C ) :   1.1398
B(  0-C , 10-H ) :   0.1456 B(  0-C , 11-H ) :   0.2077 B(  0-C , 12-H ) :   0.7543
B(  0-C , 13-H ) :   0.7163 B(  1-C ,  2-N ) :   1.0982 B(  1-C ,  3-C ) :   1.9777
B(  1-C ,  4-H ) :   0.2958 B(  1-C ,  5-H ) :   0.1708 B(  1-C , 12-H ) :   0.2149
B(  1-C , 13-H ) :   0.2573 B(  2-N ,  3-C ) :   0.2988 B(  2-N ,  6-H ) :   1.0381
B(  2-N ,  7-H ) :   1.1074 B(  3-C ,  4-H ) :   0.6376 B(  3-C ,  5-H ) :   0.8041
B(  3-C , 12-H ) :  -0.1065 B(  6-H ,  7-H ) :  -0.1422 B(  8-C ,  9-C ) :   1.2982
B(  8-C , 10-H ) :   0.8375 B(  8-C , 11-H ) :   0.9193 B(  8-C , 12-H ) :   0.1717
B(  8-C , 14-H ) :   0.2581 B(  8-C , 15-H ) :   0.2248 B(  8-C , 16-H ) :   0.2866
B(  9-C , 10-H ) :   0.1045 B(  9-C , 14-H ) :   0.6894 B(  9-C , 15-H ) :   0.7317
B(  9-C , 16-H ) :   0.7589 B( 15-H , 16-H ) :   0.1249

Dispersion correction           -0.024194773
FINAL SINGLE POINT ENERGY      -251.553223747621

DIPOLE MOMENT
-------------
                                X             Y             Z
Electronic contribution:      0.08501      -0.72519       3.69470
Nuclear contribution   :     -0.70193       0.22667      -3.99866
                        -----------------------------------------
Total Dipole Moment    :     -0.61691      -0.49852      -0.30396
                        -----------------------------------------
Magnitude (a.u.)       :      0.84941
Magnitude (Debye)      :      2.15902

Rotational constants in cm-1:     0.170665     0.086587     0.081284
Rotational constants in MHz :  5116.404877  2595.819690  2436.831753

                             ****ORCA TERMINATED NORMALLY****
TOTAL RUN TIME: 0 days 0 hours 0 minutes 24 seconds 468 msec
