                         Program Version 5.0.0 -  RELEASE  -
|  1> !B3LYP D3BJ RIJCOSX def2-SVPD def2/J TightSCF xyzfile
|  2>
|  3> *xyzfile 0 1 D2.xyz
|  4>
|  5> %MaxCore 64000
|  6>
|  7> %pal nprocs 4
|  8> end
|  9>
| 10> %scf
| 11>   MaxIter 150
| 12> end
| 13>
| 14>
| 15>                          ****END OF INPUT****

CARTESIAN COORDINATES (ANGSTROEM)
---------------------------------
  C      4.602954   -2.440100    2.634780
  C     -0.914947    0.615112    2.505538
  C     -0.059146    1.503524    3.410578
  H      0.365364    2.344315    2.861161
  H     -0.692261    1.920207    4.198985
  C      1.083027    0.749640    4.085705
  C      3.860851   -1.591565    3.622893
  N      2.756502   -2.046159    4.166333
  C      4.254325   -0.362905    3.860455
  H      3.565256    0.310994    4.168983
  H      5.054292   -0.016059    3.337838
  H      2.439696   -2.973894    3.897395
  H      2.066869   -1.412532    4.549813
  F      2.228167    1.263475    4.019826
  O      0.810034   -0.345411    4.636269
  C      3.744685   -2.580557    1.361882
  C      0.772139    0.636882    0.562129
  C     -0.130740   -0.193985    1.470763
  H     -0.840563   -0.760165    0.856377
  H      0.466691   -0.938942    2.006959
  H     -1.647961    1.245963    1.991076
  H     -1.478180   -0.081046    3.130424
  C      3.203721   -1.256004    0.826211
  H      2.898939   -3.239289    1.583074
  H      4.334962   -3.095523    0.600188
  C      2.107815   -1.442385   -0.216865
  H      2.786775   -0.672760    1.650711
  H      4.021008   -0.652993    0.414046
  C      1.390662   -0.145912   -0.602422
  H      1.372179   -2.152184    0.176151
  H      2.523302   -1.906787   -1.117115
  H      1.561361    1.100094    1.161831
  H      0.195516    1.468325    0.142758
  H      0.602893   -0.398214   -1.319716
  H      2.087247    0.508272   -1.137335
  H      5.561557   -1.971347    2.407084
  H      4.810498   -3.422552    3.063099

 Total Charge           Charge          ....    0
 Multiplicity           Mult            ....    1
 Number of Electrons    NEL             ....  118
 Basis Dimension        Dim             ....  482

ORBITAL ENERGIES
----------------

  NO   OCC          E(Eh)            E(eV)
   0   2.0000     -24.785479      -674.4472
   1   2.0000     -19.173254      -521.7308
   2   2.0000     -14.297068      -389.0430
   3   2.0000     -10.388359      -282.6816
   4   2.0000     -10.224271      -278.2166
   5   2.0000     -10.202800      -277.6323
   6   2.0000     -10.187442      -277.2144
   7   2.0000     -10.184593      -277.1369
   8   2.0000     -10.181632      -277.0563
   9   2.0000     -10.178904      -276.9821
  10   2.0000     -10.173556      -276.8365
  11   2.0000     -10.172610      -276.8108
  12   2.0000     -10.168813      -276.7075
  13   2.0000     -10.166568      -276.6464
  14   2.0000     -10.089819      -274.5579
  15   2.0000      -1.327241       -36.1161
  16   2.0000      -1.056116       -28.7384
  17   2.0000      -0.900736       -24.5103
  18   2.0000      -0.827605       -22.5203
  19   2.0000      -0.800134       -21.7728
  20   2.0000      -0.773965       -21.0607
  21   2.0000      -0.740514       -20.1504
  22   2.0000      -0.709988       -19.3198
  23   2.0000      -0.698931       -19.0189
  24   2.0000      -0.668296       -18.1853
  25   2.0000      -0.644351       -17.5337
  26   2.0000      -0.609991       -16.5987
  27   2.0000      -0.582542       -15.8518
  28   2.0000      -0.572082       -15.5671
  29   2.0000      -0.561790       -15.2871
  30   2.0000      -0.557093       -15.1593
  31   2.0000      -0.546392       -14.8681
  32   2.0000      -0.525860       -14.3094
  33   2.0000      -0.499329       -13.5874
  34   2.0000      -0.485580       -13.2133
  35   2.0000      -0.479978       -13.0609
  36   2.0000      -0.463305       -12.6072
  37   2.0000      -0.453862       -12.3502
  38   2.0000      -0.445357       -12.1188
  39   2.0000      -0.435626       -11.8540
  40   2.0000      -0.424647       -11.5552
  41   2.0000      -0.412251       -11.2179
  42   2.0000      -0.409090       -11.1319
  43   2.0000      -0.397304       -10.8112
  44   2.0000      -0.383328       -10.4309
  45   2.0000      -0.376813       -10.2536
  46   2.0000      -0.372385       -10.1331
  47   2.0000      -0.369202       -10.0465
  48   2.0000      -0.354880        -9.6568
  49   2.0000      -0.350746        -9.5443
  50   2.0000      -0.344681        -9.3792
  51   2.0000      -0.330751        -9.0002
  52   2.0000      -0.325975        -8.8702
  53   2.0000      -0.322570        -8.7776
  54   2.0000      -0.316560        -8.6140
  55   2.0000      -0.314140        -8.5482
  56   2.0000      -0.305756        -8.3200
  57   2.0000      -0.295648        -8.0450
  58   2.0000      -0.171918        -4.6781
  59   0.0000      -0.058805        -1.6002
  60   0.0000       0.009160         0.2493
  61   0.0000       0.022082         0.6009
  62   0.0000       0.028317         0.7706
  63   0.0000       0.031607         0.8601

MULLIKEN ATOMIC CHARGES
-----------------------
   0 C :    0.816143
   1 C :    0.704611
   2 C :    0.305013
   3 H :    0.113620
   4 H :   -0.243372
   5 C :    0.705336
   6 C :   -0.487538
   7 N :    0.591607
   8 C :    1.116917
   9 H :   -0.877856
  10 H :   -0.168895
  11 H :   -0.019955
  12 H :   -0.603521
  13 F :   -0.470516
  14 O :   -0.553423
  15 C :    0.337908
  16 C :   -0.018534
  17 C :    0.019771
  18 H :   -0.263883
  19 H :   -0.153355
  20 H :   -0.168638
  21 H :   -0.022118
  22 C :    0.405113
  23 H :    0.003305
  24 H :   -0.425580
  25 C :    0.180081
  26 H :   -0.556174
  27 H :   -0.094861
  28 C :    0.978782
  29 H :    0.084461
  30 H :   -0.467272
  31 H :    0.065746
  32 H :   -0.599423
  33 H :   -0.003228
  34 H :   -0.106218
  35 H :    0.055260
  36 H :   -0.179312
Sum of atomic charges:   -0.0000000

LOEWDIN ATOMIC CHARGES
----------------------
   0 C :    0.022678
   1 C :   -0.007515
   2 C :    0.063507
   3 H :    0.023038
   4 H :    0.042309
   5 C :    0.055892
   6 C :   -0.257475
   7 N :    0.215177
   8 C :    0.190520
   9 H :   -0.144359
  10 H :   -0.079458
  11 H :    0.003291
  12 H :   -0.108341
  13 F :   -0.032470
  14 O :   -0.106945
  15 C :   -0.014719
  16 C :   -0.030656
  17 C :   -0.023352
  18 H :    0.029693
  19 H :    0.008456
  20 H :    0.026420
  21 H :    0.026437
  22 C :   -0.022977
  23 H :    0.008423
  24 H :    0.018445
  25 C :   -0.033988
  26 H :   -0.018647
  27 H :    0.035269
  28 C :   -0.022053
  29 H :    0.011997
  30 H :    0.020539
  31 H :    0.005844
  32 H :    0.020606
  33 H :    0.018153
  34 H :    0.020141
  35 H :    0.019851
  36 H :    0.016268

  Mayer bond orders larger than 0.100000
B(  0-C ,  6-C ) :   1.3036 B(  0-C ,  8-C ) :   0.1414 B(  0-C , 15-C ) :   1.0780
B(  0-C , 23-H ) :   0.1217 B(  0-C , 24-H ) :   0.1532 B(  0-C , 35-H ) :   0.6885
B(  0-C , 36-H ) :   0.4178 B(  1-C ,  2-C ) :   1.1610 B(  1-C ,  3-H ) :   0.1128
B(  1-C ,  4-H ) :   0.1875 B(  1-C , 17-C ) :   1.2097 B(  1-C , 19-H ) :   0.1147
B(  1-C , 20-H ) :   0.6824 B(  1-C , 21-H ) :   0.5680 B(  2-C ,  3-H ) :   0.8232
B(  2-C ,  4-H ) :   0.5915 B(  2-C ,  5-C ) :   1.2013 B(  2-C , 17-C ) :   0.1564
B(  2-C , 20-H ) :   0.1763 B(  2-C , 21-H ) :   0.1316 B(  3-H ,  5-C ) :   0.1713
B(  4-H ,  5-C ) :   0.2804 B(  5-C , 13-F ) :   0.6592 B(  5-C , 14-O ) :   1.6149
B(  6-C ,  7-N ) :   0.9737 B(  6-C ,  8-C ) :   1.9426 B(  6-C ,  9-H ) :   0.3962
B(  6-C , 10-H ) :   0.3212 B(  6-C , 15-C ) :   0.1113 B(  6-C , 24-H ) :  -0.1224
B(  6-C , 35-H ) :   0.2105 B(  6-C , 36-H ) :   0.3504 B(  7-N ,  8-C ) :   0.4146
B(  7-N , 11-H ) :   0.9727 B(  7-N , 12-H ) :   1.0139 B(  8-C ,  9-H ) :  -0.1604
B(  8-C , 10-H ) :   0.6188 B(  9-H , 13-F ) :   0.2157 B(  9-H , 24-H ) :  -0.1121
B( 11-H , 12-H ) :  -0.2470 B( 12-H , 14-O ) :   0.1839 B( 13-F , 14-O ) :   0.1201
B( 15-C , 22-C ) :   1.1154 B( 15-C , 23-H ) :   0.7866 B( 15-C , 24-H ) :   0.8108
B( 15-C , 25-C ) :   0.1338 B( 15-C , 26-H ) :   0.1687 B( 15-C , 27-H ) :   0.1055
B( 15-C , 35-H ) :   0.1611 B( 15-C , 36-H ) :   0.2229 B( 16-C , 17-C ) :   1.2462
B( 16-C , 18-H ) :   0.1976 B( 16-C , 19-H ) :   0.1460 B( 16-C , 25-C ) :   0.1942
B( 16-C , 28-C ) :   1.0461 B( 16-C , 31-H ) :   0.7938 B( 16-C , 32-H ) :   1.0041
B( 16-C , 33-H ) :   0.1719 B( 16-C , 34-H ) :   0.3368 B( 17-C , 18-H ) :   0.7892
B( 17-C , 19-H ) :   0.8779 B( 17-C , 20-H ) :   0.2259 B( 17-C , 21-H ) :   0.2942
B( 17-C , 31-H ) :   0.1148 B( 17-C , 32-H ) :   0.1334 B( 20-H , 21-H ) :  -0.1526
B( 22-C , 23-H ) :   0.1521 B( 22-C , 24-H ) :   0.2160 B( 22-C , 25-C ) :   1.1470
B( 22-C , 26-H ) :   0.8301 B( 22-C , 27-H ) :   0.6501 B( 22-C , 29-H ) :   0.1492
B( 22-C , 30-H ) :   0.2622 B( 25-C , 26-H ) :   0.1044 B( 25-C , 27-H ) :   0.1315
B( 25-C , 28-C ) :   1.1235 B( 25-C , 29-H ) :   0.7917 B( 25-C , 30-H ) :   0.8454
B( 25-C , 33-H ) :   0.2597 B( 25-C , 34-H ) :   0.1772 B( 26-H , 27-H ) :   0.2210
B( 26-H , 31-H ) :   0.1892 B( 26-H , 32-H ) :  -0.1240 B( 28-C , 29-H ) :   0.1147
B( 28-C , 33-H ) :   0.5815 B( 28-C , 34-H ) :   0.5211 B( 33-H , 34-H ) :  -0.1424

Dispersion correction           -0.069782896
FINAL SINGLE POINT ENERGY      -699.461131787424

DIPOLE MOMENT
-------------
                                X             Y             Z
Electronic contribution:      0.06063       6.25441      15.13123
Nuclear contribution   :     -1.39991      -5.60370     -16.00470
                        -----------------------------------------
Total Dipole Moment    :     -1.33927       0.65071      -0.87347
                        -----------------------------------------
Magnitude (a.u.)       :      1.72628
Magnitude (Debye)      :      4.38784

Rotational constants in cm-1:     0.021622     0.017313     0.011402
Rotational constants in MHz :   648.226014   519.043632   341.814105

                             ****ORCA TERMINATED NORMALLY****
TOTAL RUN TIME: 0 days 0 hours 3 minutes 58 seconds 448 msec
