                         Program Version 5.0.0 -  RELEASE  -
|  1> !B3LYP D3BJ RIJCOSX def2-SVPD def2/J TightSCF xyzfile
|  2>
|  3> *xyzfile 0 1 D4.xyz
|  4>
|  5> %MaxCore 64000
|  6>
|  7> %pal nprocs 4
|  8> end
|  9>
| 10> %scf
| 11>   MaxIter 150
| 12> end
| 13>
| 14>
| 15>                          ****END OF INPUT****

CARTESIAN COORDINATES (ANGSTROEM)
---------------------------------
  C      4.602954   -2.440100    2.634780
  C     -0.914947    0.615112    2.505538
  C     -0.059146    1.503524    3.410578
  H      0.365364    2.344315    2.861161
  H     -0.692261    1.920207    4.198985
  C      1.083027    0.749640    4.085705
  C      3.860851   -1.591565    3.622893
  N      2.756502   -2.046159    4.166333
  C      4.254325   -0.362905    3.860455
  H      3.565256    0.310994    4.168983
  H      5.054292   -0.016059    3.337838
  H      2.439696   -2.973894    3.897395
  H      2.066869   -1.412532    4.549813
  O      2.228167    1.263475    4.019826
  F      0.810034   -0.345411    4.636269
  C      3.744685   -2.580557    1.361882
  C      0.772139    0.636882    0.562129
  C     -0.130740   -0.193985    1.470763
  H     -0.840563   -0.760165    0.856377
  H      0.466691   -0.938942    2.006959
  H     -1.647961    1.245963    1.991076
  H     -1.478180   -0.081046    3.130424
  C      3.203721   -1.256004    0.826211
  H      2.898939   -3.239289    1.583074
  H      4.334962   -3.095523    0.600188
  C      2.107815   -1.442385   -0.216865
  H      2.786775   -0.672760    1.650711
  H      4.021008   -0.652993    0.414046
  C      1.390662   -0.145912   -0.602422
  H      1.372179   -2.152184    0.176151
  H      2.523302   -1.906787   -1.117115
  H      1.561361    1.100094    1.161831
  H      0.195516    1.468325    0.142758
  H      0.602893   -0.398214   -1.319716
  H      2.087247    0.508272   -1.137335
  H      5.561557   -1.971347    2.407084
  H      4.810498   -3.422552    3.063099

 Total Charge           Charge          ....    0
 Multiplicity           Mult            ....    1
 Number of Electrons    NEL             ....  118
 Basis Dimension        Dim             ....  482

ORBITAL ENERGIES
----------------

  NO   OCC          E(Eh)            E(eV)
   0   2.0000     -24.797010      -674.7610
   1   2.0000     -19.162704      -521.4437
   2   2.0000     -14.310071      -389.3968
   3   2.0000     -10.381790      -282.5029
   4   2.0000     -10.221824      -278.1500
   5   2.0000     -10.205196      -277.6975
   6   2.0000     -10.190897      -277.3084
   7   2.0000     -10.181784      -277.0604
   8   2.0000     -10.177768      -276.9511
   9   2.0000     -10.177187      -276.9353
  10   2.0000     -10.172317      -276.8028
  11   2.0000     -10.171488      -276.7803
  12   2.0000     -10.167484      -276.6713
  13   2.0000     -10.164090      -276.5789
  14   2.0000     -10.079962      -274.2897
  15   2.0000      -1.337638       -36.3990
  16   2.0000      -1.045511       -28.4498
  17   2.0000      -0.907765       -24.7015
  18   2.0000      -0.829345       -22.5676
  19   2.0000      -0.799409       -21.7530
  20   2.0000      -0.774150       -21.0657
  21   2.0000      -0.737820       -20.0771
  22   2.0000      -0.713937       -19.4272
  23   2.0000      -0.690187       -18.7809
  24   2.0000      -0.677762       -18.4429
  25   2.0000      -0.642478       -17.4827
  26   2.0000      -0.612183       -16.6583
  27   2.0000      -0.588452       -16.0126
  28   2.0000      -0.579744       -15.7756
  29   2.0000      -0.573792       -15.6137
  30   2.0000      -0.550901       -14.9908
  31   2.0000      -0.542727       -14.7683
  32   2.0000      -0.519534       -14.1372
  33   2.0000      -0.501781       -13.6542
  34   2.0000      -0.486375       -13.2349
  35   2.0000      -0.483131       -13.1467
  36   2.0000      -0.461494       -12.5579
  37   2.0000      -0.447136       -12.1672
  38   2.0000      -0.442615       -12.0442
  39   2.0000      -0.437069       -11.8932
  40   2.0000      -0.420706       -11.4480
  41   2.0000      -0.416068       -11.3218
  42   2.0000      -0.410351       -11.1662
  43   2.0000      -0.392427       -10.6785
  44   2.0000      -0.385017       -10.4768
  45   2.0000      -0.377870       -10.2824
  46   2.0000      -0.375087       -10.2066
  47   2.0000      -0.362601        -9.8669
  48   2.0000      -0.358344        -9.7510
  49   2.0000      -0.350644        -9.5415
  50   2.0000      -0.346236        -9.4216
  51   2.0000      -0.330936        -9.0052
  52   2.0000      -0.325902        -8.8682
  53   2.0000      -0.323555        -8.8044
  54   2.0000      -0.314250        -8.5512
  55   2.0000      -0.310257        -8.4425
  56   2.0000      -0.303716        -8.2645
  57   2.0000      -0.273940        -7.4543
  58   2.0000      -0.170639        -4.6433
  59   0.0000      -0.051987        -1.4146
  60   0.0000       0.004405         0.1199
  61   0.0000       0.020840         0.5671
  62   0.0000       0.027489         0.7480
  63   0.0000       0.032839         0.8936

MULLIKEN ATOMIC CHARGES
-----------------------
   0 C :    0.820909
   1 C :    0.711338
   2 C :    0.347822
   3 H :    0.090463
   4 H :   -0.251964
   5 C :    0.667698
   6 C :   -0.500774
   7 N :    0.596469
   8 C :    1.094819
   9 H :   -0.836444
  10 H :   -0.210169
  11 H :   -0.026462
  12 H :   -0.579468
  13 O :   -0.486948
  14 F :   -0.475708
  15 C :    0.338315
  16 C :   -0.025551
  17 C :    0.044759
  18 H :   -0.260150
  19 H :   -0.182577
  20 H :   -0.173697
  21 H :   -0.074672
  22 C :    0.461449
  23 H :    0.001395
  24 H :   -0.437608
  25 C :    0.177725
  26 H :   -0.582862
  27 H :   -0.089857
  28 C :    0.991683
  29 H :    0.076503
  30 H :   -0.469895
  31 H :    0.080806
  32 H :   -0.599197
  33 H :   -0.012655
  34 H :   -0.103733
  35 H :    0.059257
  36 H :   -0.181017
Sum of atomic charges:   -0.0000000

LOEWDIN ATOMIC CHARGES
----------------------
   0 C :    0.021932
   1 C :   -0.017466
   2 C :    0.067621
   3 H :    0.032977
   4 H :    0.038558
   5 C :    0.046720
   6 C :   -0.260499
   7 N :    0.208528
   8 C :    0.199079
   9 H :   -0.172549
  10 H :   -0.074773
  11 H :    0.001963
  12 H :   -0.072771
  13 O :   -0.107284
  14 F :   -0.026663
  15 C :   -0.016554
  16 C :   -0.026338
  17 C :   -0.026361
  18 H :    0.028825
  19 H :    0.005826
  20 H :    0.025745
  21 H :    0.020838
  22 C :   -0.020889
  23 H :    0.006483
  24 H :    0.017960
  25 C :   -0.035033
  26 H :   -0.016212
  27 H :    0.036474
  28 C :   -0.021937
  29 H :    0.010485
  30 H :    0.020236
  31 H :    0.010564
  32 H :    0.021289
  33 H :    0.017204
  34 H :    0.020859
  35 H :    0.020703
  36 H :    0.014462

  Mayer bond orders larger than 0.100000
B(  0-C ,  6-C ) :   1.2974 B(  0-C ,  8-C ) :   0.1352 B(  0-C , 15-C ) :   1.0725
B(  0-C , 23-H ) :   0.1221 B(  0-C , 24-H ) :   0.1561 B(  0-C , 35-H ) :   0.6846
B(  0-C , 36-H ) :   0.4267 B(  1-C ,  2-C ) :   1.1460 B(  1-C ,  3-H ) :   0.1010
B(  1-C ,  4-H ) :   0.1859 B(  1-C , 17-C ) :   1.1921 B(  1-C , 19-H ) :   0.1204
B(  1-C , 20-H ) :   0.6949 B(  1-C , 21-H ) :   0.5637 B(  1-C , 28-C ) :   0.1006
B(  2-C ,  3-H ) :   0.8439 B(  2-C ,  4-H ) :   0.6102 B(  2-C ,  5-C ) :   1.1419
B(  2-C , 17-C ) :   0.1321 B(  2-C , 20-H ) :   0.1739 B(  2-C , 21-H ) :   0.1243
B(  3-H ,  5-C ) :   0.1652 B(  4-H ,  5-C ) :   0.2660 B(  5-C , 13-O ) :   1.7699
B(  5-C , 14-F ) :   0.5345 B(  6-C ,  7-N ) :   0.9703 B(  6-C ,  8-C ) :   1.9443
B(  6-C ,  9-H ) :   0.3864 B(  6-C , 10-H ) :   0.3310 B(  6-C , 15-C ) :   0.1061
B(  6-C , 24-H ) :  -0.1255 B(  6-C , 35-H ) :   0.2119 B(  6-C , 36-H ) :   0.3448
B(  7-N ,  8-C ) :   0.4060 B(  7-N , 11-H ) :   1.0001 B(  7-N , 12-H ) :   1.0067
B(  8-C , 10-H ) :   0.6012 B(  9-H , 13-O ) :   0.1598 B(  9-H , 24-H ) :  -0.1173
B( 10-H , 23-H ) :  -0.1046 B( 11-H , 12-H ) :  -0.2329 B( 12-H , 14-F ) :   0.1273
B( 13-O , 14-F ) :   0.1208 B( 15-C , 22-C ) :   1.1093 B( 15-C , 23-H ) :   0.7819
B( 15-C , 24-H ) :   0.8170 B( 15-C , 25-C ) :   0.1350 B( 15-C , 26-H ) :   0.1716
B( 15-C , 27-H ) :   0.1077 B( 15-C , 35-H ) :   0.1596 B( 15-C , 36-H ) :   0.2224
B( 16-C , 17-C ) :   1.2665 B( 16-C , 18-H ) :   0.1915 B( 16-C , 19-H ) :   0.1524
B( 16-C , 25-C ) :   0.1974 B( 16-C , 28-C ) :   1.0465 B( 16-C , 31-H ) :   0.7983
B( 16-C , 32-H ) :   1.0088 B( 16-C , 33-H ) :   0.1750 B( 16-C , 34-H ) :   0.3362
B( 17-C , 18-H ) :   0.8067 B( 17-C , 19-H ) :   0.8521 B( 17-C , 20-H ) :   0.2243
B( 17-C , 21-H ) :   0.2974 B( 17-C , 31-H ) :   0.1163 B( 17-C , 32-H ) :   0.1262
B( 20-H , 21-H ) :  -0.1610 B( 22-C , 23-H ) :   0.1474 B( 22-C , 24-H ) :   0.2047
B( 22-C , 25-C ) :   1.1467 B( 22-C , 26-H ) :   0.7822 B( 22-C , 27-H ) :   0.6419
B( 22-C , 29-H ) :   0.1506 B( 22-C , 30-H ) :   0.2536 B( 25-C , 26-H ) :   0.1032
B( 25-C , 27-H ) :   0.1311 B( 25-C , 28-C ) :   1.1226 B( 25-C , 29-H ) :   0.7916
B( 25-C , 30-H ) :   0.8479 B( 25-C , 33-H ) :   0.2604 B( 25-C , 34-H ) :   0.1767
B( 26-H , 27-H ) :   0.2192 B( 26-H , 31-H ) :   0.2014 B( 26-H , 32-H ) :  -0.1268
B( 28-C , 29-H ) :   0.1157 B( 28-C , 33-H ) :   0.5745 B( 28-C , 34-H ) :   0.5213
B( 33-H , 34-H ) :  -0.1449

Dispersion correction           -0.069782845
FINAL SINGLE POINT ENERGY      -699.449675046091

DIPOLE MOMENT
-------------
                                X             Y             Z
Electronic contribution:     -2.26432       3.58716      16.20409
Nuclear contribution   :      0.32481      -3.64700     -16.75441
                        -----------------------------------------
Total Dipole Moment    :     -1.93952      -0.05984      -0.55031
                        -----------------------------------------
Magnitude (a.u.)       :      2.01697
Magnitude (Debye)      :      5.12672

Rotational constants in cm-1:     0.021629     0.017327     0.011372
Rotational constants in MHz :   648.414821   519.443407   340.925013

                             ****ORCA TERMINATED NORMALLY****
TOTAL RUN TIME: 0 days 0 hours 4 minutes 1 seconds 100 msec
