                         Program Version 5.0.0 -  RELEASE  -
|  1> !CAM-B3LYP RIJCOSX def2-SVPD def2/J TightSCF
|  2> *xyz -1 1
|  3> C          1.44442        5.26658       -0.97546
|  4> O          1.56525        4.23349       -1.86489
|  5> H          1.76623        6.17572       -1.43893
|  6> H          2.05096        5.07018       -0.11614
|  7> H          0.42160        5.36155       -0.67592
|  8> *
|  9> %MaxCore 64000
| 10>
| 11> %pal nprocs 8
| 12> end
| 13>
| 14> %scf
| 15>   MaxIter 150
| 16> end
| 17>
| 18>
| 19>                          ****END OF INPUT****

CARTESIAN COORDINATES (ANGSTROEM)
---------------------------------
  C      1.444420    5.266580   -0.975460
  O      1.565250    4.233490   -1.864890
  H      1.766230    6.175720   -1.438930
  H      2.050960    5.070180   -0.116140
  H      0.421600    5.361550   -0.675920

 Total Charge           Charge          ....   -1
 Multiplicity           Mult            ....    1
 Number of Electrons    NEL             ....   18
 Basis Dimension        Dim             ....   67

ORBITAL ENERGIES
----------------

  NO   OCC          E(Eh)            E(eV)
   0   2.0000     -18.857886      -513.1492
   1   2.0000     -10.045103      -273.3412
   2   2.0000      -0.729221       -19.8431
   3   2.0000      -0.467917       -12.7327
   4   2.0000      -0.266276        -7.2457
   5   2.0000      -0.266266        -7.2455
   6   2.0000      -0.164753        -4.4832
   7   2.0000      -0.012961        -0.3527
   8   2.0000      -0.012954        -0.3525
   9   0.0000       0.225846         6.1456
  10   0.0000       0.300243         8.1700
  11   0.0000       0.300245         8.1701
  12   0.0000       0.309292         8.4163
  13   0.0000       0.344959         9.3868

MULLIKEN ATOMIC CHARGES
-----------------------
   0 C :    0.972600
   1 O :   -1.016231
   2 H :   -0.319044
   3 H :   -0.318745
   4 H :   -0.318581
Sum of atomic charges:   -1.0000000

LOEWDIN ATOMIC CHARGES
----------------------
   0 C :   -0.115620
   1 O :   -0.652967
   2 H :   -0.077126
   3 H :   -0.077138
   4 H :   -0.077149

  Mayer bond orders larger than 0.100000
B(  0-C ,  1-O ) :   1.1951 B(  0-C ,  2-H ) :   0.8754 B(  0-C ,  3-H ) :   0.8752
B(  0-C ,  4-H ) :   0.8749

FINAL SINGLE POINT ENERGY      -114.968459318236

DIPOLE MOMENT
-------------
                                X             Y             Z
Electronic contribution:      0.15856      -1.35611      -1.16763
Nuclear contribution   :     -0.25440       2.17514       1.87266
                        -----------------------------------------
Total Dipole Moment    :     -0.09584       0.81903       0.70503
                        -----------------------------------------
Magnitude (a.u.)       :      1.08493
Magnitude (Debye)      :      2.75766

Rotational constants in cm-1:     5.477715     0.940444     0.940443
Rotational constants in MHz : 164217.753846 28193.799011 28193.774483

                             ****ORCA TERMINATED NORMALLY****
TOTAL RUN TIME: 0 days 0 hours 0 minutes 3 seconds 522 msec
