                         Program Version 5.0.0 -  RELEASE  -
|  1> !CAM-B3LYP RIJCOSX def2-SVPD def2/J TightSCF
|  2> *xyz 1 1
|  3> C         -0.70169        4.07250       -4.00392
|  4> N          0.68053        4.61482       -4.04800
|  5> H          0.69993        5.58489       -4.38827
|  6> H          1.27804        4.05598       -4.66824
|  7> H          1.08573        4.53358       -3.10652
|  8> H         -1.14500        4.14653       -4.97495
|  9> H         -1.28296        4.63405       -3.30271
| 10> H         -0.67274        3.04629       -3.70235
| 11> *
| 12> %MaxCore 64000
| 13>
| 14> %pal nprocs 8
| 15> end
| 16>
| 17> %scf
| 18>   MaxIter 150
| 19> end
| 20>
| 21>
| 22>                          ****END OF INPUT****

CARTESIAN COORDINATES (ANGSTROEM)
---------------------------------
  C     -0.701690    4.072500   -4.003920
  N      0.680530    4.614820   -4.048000
  H      0.699930    5.584890   -4.388270
  H      1.278040    4.055980   -4.668240
  H      1.085730    4.533580   -3.106520
  H     -1.145000    4.146530   -4.974950
  H     -1.282960    4.634050   -3.302710
  H     -0.672740    3.046290   -3.702350

 Total Charge           Charge          ....    1
 Multiplicity           Mult            ....    1
 Number of Electrons    NEL             ....   18
 Basis Dimension        Dim             ....   88

ORBITAL ENERGIES
----------------

  NO   OCC          E(Eh)            E(eV)
   0   2.0000     -14.755445      -401.5161
   1   2.0000     -10.518239      -286.2158
   2   2.0000      -1.302146       -35.4332
   3   2.0000      -1.013796       -27.5868
   4   2.0000      -0.889185       -24.1960
   5   2.0000      -0.879011       -23.9191
   6   2.0000      -0.784653       -21.3515
   7   2.0000      -0.696469       -18.9519
   8   2.0000      -0.694769       -18.9056
   9   0.0000      -0.169329        -4.6077
  10   0.0000      -0.099483        -2.7071
  11   0.0000      -0.096610        -2.6289
  12   0.0000      -0.095566        -2.6005
  13   0.0000      -0.051190        -1.3930

MULLIKEN ATOMIC CHARGES
-----------------------
   0 C :    1.103598
   1 N :   -0.740084
   2 H :    0.337760
   3 H :    0.335095
   4 H :    0.353805
   5 H :   -0.138942
   6 H :   -0.127124
   7 H :   -0.124109
Sum of atomic charges:    1.0000000

LOEWDIN ATOMIC CHARGES
----------------------
   0 C :    0.278754
   1 N :    0.313247
   2 H :    0.112912
   3 H :    0.108569
   4 H :    0.109965
   5 H :    0.024768
   6 H :    0.025739
   7 H :    0.026047

  Mayer bond orders larger than 0.100000
B(  0-C ,  1-N ) :   0.8200 B(  0-C ,  5-H ) :   0.8743 B(  0-C ,  6-H ) :   0.8641
B(  0-C ,  7-H ) :   0.8611 B(  1-N ,  2-H ) :   0.8110 B(  1-N ,  3-H ) :   0.8195
B(  1-N ,  4-H ) :   0.7939 B(  1-N ,  6-H ) :   0.1013 B(  1-N ,  7-H ) :   0.1022

FINAL SINGLE POINT ENERGY       -96.092504356954

DIPOLE MOMENT
-------------
                                X             Y             Z
Electronic contribution:      1.01901       0.42521      -0.03880
Nuclear contribution   :     -0.21844      -0.13976       0.01729
                        -----------------------------------------
Total Dipole Moment    :      0.80057       0.28545      -0.02151
                        -----------------------------------------
Magnitude (a.u.)       :      0.85021
Magnitude (Debye)      :      2.16107

Rotational constants in cm-1:     2.865765     0.688517     0.685249
Rotational constants in MHz : 85913.460223 20641.211162 20543.252263

                             ****ORCA TERMINATED NORMALLY****
TOTAL RUN TIME: 0 days 0 hours 0 minutes 4 seconds 995 msec
