                         Program Version 5.0.0 -  RELEASE  -
|  1> !CAM-B3LYP RIJCOSX def2-SVPD def2/J TightSCF
|  2> *xyz 0 1
|  3> C          1.44442        5.26658       -0.97546
|  4> F          1.56525        4.23349       -1.86489
|  5> H          1.76623        6.17572       -1.43893
|  6> H          2.05096        5.07018       -0.11614
|  7> H          0.42160        5.36155       -0.67592
|  8> *
|  9> %MaxCore 64000
| 10>
| 11> %pal nprocs 8
| 12> end
| 13>
| 14> %scf
| 15>   MaxIter 150
| 16> end
| 17>
| 18>
| 19>                          ****END OF INPUT****

CARTESIAN COORDINATES (ANGSTROEM)
---------------------------------
  C      1.444420    5.266580   -0.975460
  F      1.565250    4.233490   -1.864890
  H      1.766230    6.175720   -1.438930
  H      2.050960    5.070180   -0.116140
  H      0.421600    5.361550   -0.675920

 Total Charge           Charge          ....    0
 Multiplicity           Mult            ....    1
 Number of Electrons    NEL             ....   18
 Basis Dimension        Dim             ....   67

ORBITAL ENERGIES
----------------

  NO   OCC          E(Eh)            E(eV)
   0   2.0000     -24.758862      -673.7229
   1   2.0000     -10.332082      -281.1502
   2   2.0000      -1.265277       -34.4299
   3   2.0000      -0.782885       -21.3034
   4   2.0000      -0.571793       -15.5593
   5   2.0000      -0.567146       -15.4328
   6   2.0000      -0.567139       -15.4326
   7   2.0000      -0.422933       -11.5086
   8   2.0000      -0.422912       -11.5080
   9   0.0000       0.053416         1.4535
  10   0.0000       0.098417         2.6781
  11   0.0000       0.132653         3.6097
  12   0.0000       0.132654         3.6097
  13   0.0000       0.174390         4.7454

MULLIKEN ATOMIC CHARGES
-----------------------
   0 C :    1.048294
   1 F :   -0.475163
   2 H :   -0.191397
   3 H :   -0.191040
   4 H :   -0.190694
Sum of atomic charges:   -0.0000000

LOEWDIN ATOMIC CHARGES
----------------------
   0 C :    0.265454
   1 F :   -0.250753
   2 H :   -0.004899
   3 H :   -0.004903
   4 H :   -0.004900

  Mayer bond orders larger than 0.100000
B(  0-C ,  1-F ) :   0.8539 B(  0-C ,  2-H ) :   0.9098 B(  0-C ,  3-H ) :   0.9097
B(  0-C ,  4-H ) :   0.9092

FINAL SINGLE POINT ENERGY      -139.595619640507

DIPOLE MOMENT
-------------
                                X             Y             Z
Electronic contribution:      0.25655      -2.19384      -1.88881
Nuclear contribution   :     -0.32265       2.75860       2.37499
                        -----------------------------------------
Total Dipole Moment    :     -0.06610       0.56476       0.48618
                        -----------------------------------------
Magnitude (a.u.)       :      0.74812
Magnitude (Debye)      :      1.90158

Rotational constants in cm-1:     5.477715     0.875416     0.875415
Rotational constants in MHz : 164217.753846 26244.308980 26244.287726

                             ****ORCA TERMINATED NORMALLY****
TOTAL RUN TIME: 0 days 0 hours 0 minutes 3 seconds 584 msec
