                         Program Version 5.0.0 -  RELEASE  -
|  1> !CAM-B3LYP RIJCOSX def2-SVPD def2/J TightSCF
|  2> *xyz 0 1
|  3> C         -0.70169        4.07250       -4.00392
|  4> C          0.68053        4.61482       -4.04800
|  5> H          0.69993        5.58489       -4.38827
|  6> H          1.27804        4.05598       -4.66824
|  7> H          1.08573        4.53358       -3.10652
|  8> H         -1.14500        4.14653       -4.97495
|  9> H         -1.28296        4.63405       -3.30271
| 10> H         -0.67274        3.04629       -3.70235
| 11> *
| 12> %MaxCore 64000
| 13>
| 14> %pal nprocs 8
| 15> end
| 16>
| 17> %scf
| 18>   MaxIter 150
| 19> end
| 20>
| 21>
| 22>                          ****END OF INPUT****

CARTESIAN COORDINATES (ANGSTROEM)
---------------------------------
  C     -0.701690    4.072500   -4.003920
  C      0.680530    4.614820   -4.048000
  H      0.699930    5.584890   -4.388270
  H      1.278040    4.055980   -4.668240
  H      1.085730    4.533580   -3.106520
  H     -1.145000    4.146530   -4.974950
  H     -1.282960    4.634050   -3.302710
  H     -0.672740    3.046290   -3.702350

 Total Charge           Charge          ....    0
 Multiplicity           Mult            ....    1
 Number of Electrons    NEL             ....   18
 Basis Dimension        Dim             ....   88

ORBITAL ENERGIES
----------------

  NO   OCC          E(Eh)            E(eV)
   0   2.0000     -10.235826      -278.5310
   1   2.0000     -10.223049      -278.1833
   2   2.0000      -0.846634       -23.0381
   3   2.0000      -0.693608       -18.8740
   4   2.0000      -0.523291       -14.2395
   5   2.0000      -0.517160       -14.0726
   6   2.0000      -0.435251       -11.8438
   7   2.0000      -0.414392       -11.2762
   8   2.0000      -0.408687       -11.1209
   9   0.0000       0.057069         1.5529
  10   0.0000       0.087805         2.3893
  11   0.0000       0.135156         3.6778
  12   0.0000       0.136723         3.7204
  13   0.0000       0.156435         4.2568

MULLIKEN ATOMIC CHARGES
-----------------------
   0 C :    0.427865
   1 C :    0.752194
   2 H :   -0.261476
   3 H :   -0.257605
   4 H :   -0.239191
   5 H :   -0.146395
   6 H :   -0.141882
   7 H :   -0.133509
Sum of atomic charges:   -0.0000000

LOEWDIN ATOMIC CHARGES
----------------------
   0 C :    0.075050
   1 C :    0.078797
   2 H :   -0.032109
   3 H :   -0.036169
   4 H :   -0.033881
   5 H :   -0.018280
   6 H :   -0.017073
   7 H :   -0.016334

  Mayer bond orders larger than 0.100000
B(  0-C ,  1-C ) :   1.4181 B(  0-C ,  2-H ) :   0.1789 B(  0-C ,  3-H ) :   0.1815
B(  0-C ,  4-H ) :   0.2015 B(  0-C ,  5-H ) :   0.8420 B(  0-C ,  6-H ) :   0.8245
B(  0-C ,  7-H ) :   0.8241 B(  1-C ,  2-H ) :   0.7356 B(  1-C ,  3-H ) :   0.7147
B(  1-C ,  4-H ) :   0.7212 B(  1-C ,  5-H ) :   0.1609 B(  1-C ,  6-H ) :   0.1664
B(  1-C ,  7-H ) :   0.1696

FINAL SINGLE POINT ENERGY       -79.703131219324

DIPOLE MOMENT
-------------
                                X             Y             Z
Electronic contribution:      0.00650       0.04521      -0.01099
Nuclear contribution   :      0.01985      -0.04545       0.00953
                        -----------------------------------------
Total Dipole Moment    :      0.02635      -0.00023      -0.00146
                        -----------------------------------------
Magnitude (a.u.)       :      0.02639
Magnitude (Debye)      :      0.06708

Rotational constants in cm-1:     2.865782     0.718825     0.715264
Rotational constants in MHz : 85913.996449 21549.842906 21443.078705

                             ****ORCA TERMINATED NORMALLY****
TOTAL RUN TIME: 0 days 0 hours 0 minutes 4 seconds 425 msec
