                         Program Version 5.0.0 -  RELEASE  -
|  1> !CAM-B3LYP RIJCOSX def2-SVPD def2/J TightSCF xyzfile
|  2>
|  3> *xyzfile 0 1 D.xyz
|  4>
|  5> %MaxCore 64000
|  6>
|  7> %pal nprocs 4
|  8> end
|  9>
| 10> %scf
| 11>   MaxIter 150
| 12> end
| 13>
| 14>
| 15>                          ****END OF INPUT****

CARTESIAN COORDINATES (ANGSTROEM)
---------------------------------
  C     -0.701686    4.072499   -4.003920
  C      0.680528    4.614820   -4.048005
  C      1.444422    5.266576   -0.975463
  F      1.565248    4.233493   -1.864885
  H      0.699926    5.584890   -4.388272
  H      1.278044    4.055977   -4.668235
  H      1.085729    4.533581   -3.106524
  C     -1.703475    5.093197   -3.477396
  H     -0.995895    3.740394   -5.000654
  H     -0.643580    3.201910   -3.351533
  C     -1.313997    5.785995   -2.169271
  H     -1.877057    5.850103   -4.251154
  H     -2.653264    4.564475   -3.354796
  H     -2.097137    6.509395   -1.929558
  H     -0.416875    6.387594   -2.339097
  C     -1.073895    4.844728   -0.979904
  H     -1.968893    4.809608   -0.352568
  C      0.148120    5.210874   -0.138092
  H     -0.909754    3.827531   -1.338975
  H      1.474250    6.264638   -1.476917
  H      2.289622    5.303267   -0.264450
  H      0.261827    4.450942    0.640711
  H     -0.002516    6.171031    0.371483

 Total Charge           Charge          ....    0
 Multiplicity           Mult            ....    1
 Number of Electrons    NEL             ....   66
 Basis Dimension        Dim             ....  283

ORBITAL ENERGIES
----------------

  NO   OCC          E(Eh)            E(eV)
   0   2.0000     -24.782227      -674.3587
   1   2.0000     -10.348535      -281.5979
   2   2.0000     -10.269443      -279.4458
   3   2.0000     -10.254012      -279.0258
   4   2.0000     -10.247342      -278.8443
   5   2.0000     -10.240281      -278.6522
   6   2.0000     -10.227722      -278.3105
   7   2.0000     -10.174423      -276.8601
   8   2.0000      -1.300369       -35.3848
   9   2.0000      -0.892949       -24.2984
  10   2.0000      -0.861672       -23.4473
  11   2.0000      -0.799260       -21.7490
  12   2.0000      -0.766629       -20.8610
  13   2.0000      -0.705116       -19.1872
  14   2.0000      -0.671052       -18.2603
  15   2.0000      -0.615407       -16.7461
  16   2.0000      -0.611659       -16.6441
  17   2.0000      -0.597090       -16.2476
  18   2.0000      -0.568482       -15.4692
  19   2.0000      -0.531514       -14.4632
  20   2.0000      -0.524813       -14.2809
  21   2.0000      -0.499114       -13.5816
  22   2.0000      -0.484750       -13.1907
  23   2.0000      -0.458246       -12.4695
  24   2.0000      -0.448771       -12.2117
  25   2.0000      -0.436566       -11.8796
  26   2.0000      -0.427426       -11.6309
  27   2.0000      -0.406180       -11.0527
  28   2.0000      -0.396755       -10.7962
  29   2.0000      -0.380427       -10.3519
  30   2.0000      -0.367525       -10.0009
  31   2.0000      -0.364521        -9.9191
  32   2.0000      -0.342216        -9.3122
  33   0.0000       0.049291         1.3413
  34   0.0000       0.063828         1.7368
  35   0.0000       0.069307         1.8859
  36   0.0000       0.077564         2.1106
  37   0.0000       0.094142         2.5617

MULLIKEN ATOMIC CHARGES
-----------------------
   0 C :   -0.047530
   1 C :    3.011209
   2 C :    0.881855
   3 F :   -0.551714
   4 H :   -0.248390
   5 H :   -0.033493
   6 H :   -2.274837
   7 C :    0.423881
   8 H :   -0.452286
   9 H :   -0.000074
  10 C :    0.155234
  11 H :    0.034688
  12 H :   -0.210624
  13 H :   -0.282513
  14 H :   -0.091781
  15 C :    0.336911
  16 H :   -0.324473
  17 C :    0.264913
  18 H :   -0.038276
  19 H :    0.177184
  20 H :   -0.445129
  21 H :   -0.095961
  22 H :   -0.188794
Sum of atomic charges:   -0.0000000

LOEWDIN ATOMIC CHARGES
----------------------
   0 C :   -0.056659
   1 C :    0.141154
   2 C :    0.152326
   3 F :   -0.177790
   4 H :   -0.024197
   5 H :   -0.024677
   6 H :   -0.176636
   7 C :   -0.034041
   8 H :    0.018215
   9 H :    0.011182
  10 C :   -0.016271
  11 H :    0.024855
  12 H :    0.018035
  13 H :    0.018473
  14 H :   -0.004626
  15 C :   -0.015508
  16 H :    0.021877
  17 C :   -0.010626
  18 H :    0.006849
  19 H :    0.038657
  20 H :    0.033948
  21 H :    0.022569
  22 H :    0.032890

  Mayer bond orders larger than 0.100000
B(  0-C ,  1-C ) :   0.6820 B(  0-C ,  4-H ) :   0.3591 B(  0-C ,  5-H ) :   0.2029
B(  0-C ,  6-H ) :   0.7452 B(  0-C ,  7-C ) :   1.1685 B(  0-C ,  8-H ) :   0.9523
B(  0-C ,  9-H ) :   0.7331 B(  0-C , 10-C ) :   0.1264 B(  0-C , 11-H ) :   0.1574
B(  0-C , 12-H ) :   0.1764 B(  1-C ,  3-F ) :  -0.2964 B(  1-C ,  4-H ) :  -0.2158
B(  1-C ,  5-H ) :   0.5344 B(  1-C ,  6-H ) :  -3.8945 B(  1-C ,  9-H ) :   0.2531
B(  2-C ,  3-F ) :   0.6200 B(  2-C ,  6-H ) :   0.1636 B(  2-C , 17-C ) :   1.2254
B(  2-C , 19-H ) :   0.7590 B(  2-C , 20-H ) :   0.9232 B(  2-C , 21-H ) :   0.1016
B(  3-F ,  6-H ) :   0.5674 B(  3-F , 20-H ) :  -0.1151 B(  4-H ,  5-H ) :  -0.2620
B(  4-H ,  6-H ) :   0.8825 B(  4-H ,  8-H ) :   0.2308 B(  5-H ,  6-H ) :   0.2798
B(  5-H ,  8-H ) :  -0.1389 B(  6-H ,  9-H ) :  -0.1106 B(  7-C ,  9-H ) :   0.1800
B(  7-C , 10-C ) :   1.2392 B(  7-C , 11-H ) :   0.6589 B(  7-C , 12-H ) :   0.8160
B(  7-C , 13-H ) :   0.1417 B(  7-C , 14-H ) :   0.1474 B(  8-H ,  9-H ) :  -0.2335
B(  9-H , 18-H ) :   0.1061 B( 10-C , 11-H ) :   0.2294 B( 10-C , 12-H ) :   0.1485
B( 10-C , 13-H ) :   0.7392 B( 10-C , 14-H ) :   0.8437 B( 10-C , 15-C ) :   1.1595
B( 10-C , 16-H ) :   0.2299 B( 10-C , 18-H ) :   0.1099 B( 11-H , 12-H ) :  -0.1281
B( 13-H , 15-C ) :   0.1637 B( 14-H , 15-C ) :   0.1152 B( 15-C , 16-H ) :   0.7906
B( 15-C , 17-C ) :   1.2289 B( 15-C , 18-H ) :   0.8001 B( 15-C , 21-H ) :   0.2233
B( 16-H , 18-H ) :  -0.1111 B( 17-C , 18-H ) :   0.1065 B( 17-C , 19-H ) :   0.1006
B( 17-C , 20-H ) :   0.1845 B( 17-C , 21-H ) :   0.6933 B( 17-C , 22-H ) :   0.8730

FINAL SINGLE POINT ENERGY      -375.110722090425

DIPOLE MOMENT
-------------
                                X             Y             Z
Electronic contribution:      5.12237      -2.24571       2.80156
Nuclear contribution   :     -5.08831       2.68947      -1.99048
                        -----------------------------------------
Total Dipole Moment    :      0.03407       0.44377       0.81108
                        -----------------------------------------
Magnitude (a.u.)       :      0.92517
Magnitude (Debye)      :      2.35160

Rotational constants in cm-1:     0.084646     0.055672     0.038419
Rotational constants in MHz :  2537.625105  1668.992890  1151.781380

                             ****ORCA TERMINATED NORMALLY****
TOTAL RUN TIME: 0 days 0 hours 1 minutes 33 seconds 763 msec
