                         Program Version 5.0.0 -  RELEASE  -
|  1> !BLYP D3BJ RIJCOSX def2-SVPD def2/J TightSCF
|  2> *xyz -1 1
|  3> C          1.36401        0.46874       -2.81376
|  4> C          0.96805        1.63064       -3.71575
|  5> C         -0.50835        1.72268       -4.12430
|  6> S         -1.32861        0.14674       -4.43578
|  7> H         -0.59151        2.29496       -5.04722
|  8> H         -1.11411        2.23561       -3.37436
|  9> O         -2.57135        0.47573       -5.06834
| 10> O         -1.51496       -0.40051       -3.06342
| 11> H          1.57869        1.52065       -4.61273
| 12> H          1.26665        2.57599       -3.25045
| 13> O         -0.37793       -0.62756       -5.20114
| 14> H          1.07115       -0.45339       -3.27071
| 15> H          0.87480        0.56905       -1.86745
| 16> H          2.42423        0.47442       -2.66954
| 17> *
| 18> %MaxCore 64000
| 19>
| 20> %pal nprocs 4
| 21> end
| 22>
| 23> %scf
| 24>   MaxIter 150
| 25> end
| 26>
| 27>
| 28>                          ****END OF INPUT****

CARTESIAN COORDINATES (ANGSTROEM)
---------------------------------
  C      1.364010    0.468740   -2.813760
  C      0.968050    1.630640   -3.715750
  C     -0.508350    1.722680   -4.124300
  S     -1.328610    0.146740   -4.435780
  H     -0.591510    2.294960   -5.047220
  H     -1.114110    2.235610   -3.374360
  O     -2.571350    0.475730   -5.068340
  O     -1.514960   -0.400510   -3.063420
  H      1.578690    1.520650   -4.612730
  H      1.266650    2.575990   -3.250450
  O     -0.377930   -0.627560   -5.201140
  H      1.071150   -0.453390   -3.270710
  H      0.874800    0.569050   -1.867450
  H      2.424230    0.474420   -2.669540

 Total Charge           Charge          ....   -1
 Multiplicity           Mult            ....    1
 Number of Electrons    NEL             ....   66
 Basis Dimension        Dim             ....  212

ORBITAL ENERGIES
----------------

  NO   OCC          E(Eh)            E(eV)
   0   2.0000     -88.131362     -2398.1763
   1   2.0000     -18.577428      -505.5175
   2   2.0000     -18.575542      -505.4662
   3   2.0000     -18.559365      -505.0260
   4   2.0000      -9.789231      -266.3785
   5   2.0000      -9.780344      -266.1367
   6   2.0000      -9.764199      -265.6974
   7   2.0000      -7.667909      -208.6544
   8   2.0000      -5.703074      -155.1885
   9   2.0000      -5.702864      -155.1828
  10   2.0000      -5.702165      -155.1638
  11   2.0000      -0.839901       -22.8549
  12   2.0000      -0.709372       -19.3030
  13   2.0000      -0.679371       -18.4866
  14   2.0000      -0.566130       -15.4052
  15   2.0000      -0.483484       -13.1563
  16   2.0000      -0.396074       -10.7777
  17   2.0000      -0.315253        -8.5785
  18   2.0000      -0.275430        -7.4948
  19   2.0000      -0.262522        -7.1436
  20   2.0000      -0.240682        -6.5493
  21   2.0000      -0.226199        -6.1552
  22   2.0000      -0.206430        -5.6173
  23   2.0000      -0.194966        -5.3053
  24   2.0000      -0.175026        -4.7627
  25   2.0000      -0.169523        -4.6130
  26   2.0000      -0.151056        -4.1104
  27   2.0000      -0.104926        -2.8552
  28   2.0000      -0.101051        -2.7497
  29   2.0000      -0.074137        -2.0174
  30   2.0000      -0.066525        -1.8102
  31   2.0000      -0.052004        -1.4151
  32   2.0000      -0.021316        -0.5800
  33   0.0000       0.120966         3.2917
  34   0.0000       0.147980         4.0267
  35   0.0000       0.156055         4.2465
  36   0.0000       0.159841         4.3495
  37   0.0000       0.184043         5.0081

MULLIKEN ATOMIC CHARGES
-----------------------
   0 C :    1.166350
   1 C :   -0.009948
   2 C :    0.437905
   3 S :    1.091640
   4 H :   -0.226922
   5 H :   -0.129508
   6 O :   -0.745204
   7 O :   -0.768682
   8 H :   -0.104429
   9 H :   -0.319893
  10 O :   -0.746586
  11 H :   -0.171300
  12 H :   -0.165846
  13 H :   -0.307578
Sum of atomic charges:   -1.0000000

LOEWDIN ATOMIC CHARGES
----------------------
   0 C :    0.120060
   1 C :   -0.083026
   2 C :   -0.082302
   3 S :    0.817130
   4 H :   -0.010257
   5 H :   -0.001857
   6 O :   -0.545452
   7 O :   -0.566619
   8 H :    0.006980
   9 H :   -0.001256
  10 O :   -0.543925
  11 H :   -0.045137
  12 H :   -0.024380
  13 H :   -0.039960

  Mayer bond orders larger than 0.100000
B(  0-C ,  1-C ) :   1.3084 B(  0-C ,  8-H ) :   0.1353 B(  0-C ,  9-H ) :   0.1225
B(  0-C , 11-H ) :   0.7102 B(  0-C , 12-H ) :   0.6469 B(  0-C , 13-H ) :   0.5830
B(  1-C ,  2-C ) :   1.2605 B(  1-C ,  4-H ) :   0.1907 B(  1-C ,  5-H ) :   0.1852
B(  1-C ,  8-H ) :   0.7847 B(  1-C ,  9-H ) :   0.7337 B(  1-C , 11-H ) :   0.2638
B(  1-C , 12-H ) :   0.2675 B(  1-C , 13-H ) :   0.3055 B(  2-C ,  3-S ) :   0.8569
B(  2-C ,  4-H ) :   0.8163 B(  2-C ,  5-H ) :   0.8357 B(  2-C ,  8-H ) :   0.1503
B(  2-C ,  9-H ) :   0.1667 B(  3-S ,  6-O ) :   1.4325 B(  3-S ,  7-O ) :   1.2889
B(  3-S , 10-O ) :   1.3119

Dispersion correction           -0.028533827
FINAL SINGLE POINT ENERGY      -741.973060471479

DIPOLE MOMENT
-------------
                                X             Y             Z
Electronic contribution:     -8.35787      -4.48482      -4.08138
Nuclear contribution   :      9.76868       5.90538       4.47074
                        -----------------------------------------
Total Dipole Moment    :      1.41081       1.42055       0.38936
                        -----------------------------------------
Magnitude (a.u.)       :      2.03960
Magnitude (Debye)      :      5.18425

Rotational constants in cm-1:     0.135183     0.058485     0.054837
Rotational constants in MHz :  4052.676901  1753.343161  1643.972690

                             ****ORCA TERMINATED NORMALLY****
TOTAL RUN TIME: 0 days 0 hours 0 minutes 8 seconds 960 msec
