                         Program Version 5.0.0 -  RELEASE  -
|  1> !BLYP D3BJ RIJCOSX def2-SVPD def2/J TightSCF
|  2> *xyz 1 1
|  3> C          1.36401        0.46874       -2.81376
|  4> N          0.42884        0.32140       -1.65531
|  5> C          0.96805        1.63064       -3.71575
|  6> C         -0.50835        1.72268       -4.12430
|  7> H          0.74858       -0.40054       -1.00134
|  8> H         -0.46105        0.02333       -2.07773
|  9> H          0.31026        1.20137       -1.13495
| 10> H          1.29485       -0.46874       -3.36468
| 11> H          2.37622        0.59740       -2.43149
| 12> H          1.57869        1.52065       -4.61273
| 13> H          1.26665        2.57599       -3.25045
| 14> H         -0.65192        2.57663       -4.75283
| 15> H         -1.11549        1.81835       -3.24844
| 16> H         -0.78702        0.83723       -4.65648
| 17> *
| 18> %MaxCore 64000
| 19>
| 20> %pal nprocs 4
| 21> end
| 22>
| 23> %scf
| 24>   MaxIter 150
| 25> end
| 26>
| 27>
| 28>                          ****END OF INPUT****

CARTESIAN COORDINATES (ANGSTROEM)
---------------------------------
  C      1.364010    0.468740   -2.813760
  N      0.428840    0.321400   -1.655310
  C      0.968050    1.630640   -3.715750
  C     -0.508350    1.722680   -4.124300
  H      0.748580   -0.400540   -1.001340
  H     -0.461050    0.023330   -2.077730
  H      0.310260    1.201370   -1.134950
  H      1.294850   -0.468740   -3.364680
  H      2.376220    0.597400   -2.431490
  H      1.578690    1.520650   -4.612730
  H      1.266650    2.575990   -3.250450
  H     -0.651920    2.576630   -4.752830
  H     -1.115490    1.818350   -3.248440
  H     -0.787020    0.837230   -4.656480

 Total Charge           Charge          ....    1
 Multiplicity           Mult            ....    1
 Number of Electrons    NEL             ....   34
 Basis Dimension        Dim             ....  160

ORBITAL ENERGIES
----------------

  NO   OCC          E(Eh)            E(eV)
   0   2.0000     -14.351021      -390.5111
   1   2.0000     -10.169588      -276.7286
   2   2.0000     -10.101482      -274.8753
   3   2.0000     -10.075220      -274.1607
   4   2.0000      -1.114948       -30.3393
   5   2.0000      -0.889538       -24.2056
   6   2.0000      -0.809558       -22.0292
   7   2.0000      -0.746229       -20.3059
   8   2.0000      -0.735736       -20.0204
   9   2.0000      -0.707925       -19.2636
  10   2.0000      -0.632149       -17.2017
  11   2.0000      -0.587201       -15.9785
  12   2.0000      -0.559044       -15.2124
  13   2.0000      -0.538752       -14.6602
  14   2.0000      -0.489083       -13.3086
  15   2.0000      -0.480117       -13.0646
  16   2.0000      -0.468542       -12.7497
  17   0.0000      -0.215233        -5.8568
  18   0.0000      -0.157457        -4.2846
  19   0.0000      -0.155809        -4.2398
  20   0.0000      -0.142636        -3.8813
  21   0.0000      -0.112540        -3.0624

MULLIKEN ATOMIC CHARGES
-----------------------
   0 C :    0.858041
   1 N :   -0.481894
   2 C :   -0.037190
   3 C :    1.157747
   4 H :    0.227041
   5 H :    0.351654
   6 H :    0.320883
   7 H :   -0.166936
   8 H :   -0.290001
   9 H :   -0.161092
  10 H :   -0.182511
  11 H :   -0.271120
  12 H :   -0.196559
  13 H :   -0.128066
Sum of atomic charges:    1.0000000

LOEWDIN ATOMIC CHARGES
----------------------
   0 C :    0.093407
   1 N :    0.346989
   2 C :   -0.033727
   3 C :    0.163492
   4 H :    0.101432
   5 H :    0.085238
   6 H :    0.106382
   7 H :    0.050375
   8 H :    0.048386
   9 H :    0.040453
  10 H :    0.032331
  11 H :    0.003383
  12 H :   -0.031609
  13 H :   -0.006531

  Mayer bond orders larger than 0.100000
B(  0-C ,  1-N ) :   0.8595 B(  0-C ,  2-C ) :   1.1955 B(  0-C ,  7-H ) :   0.7255
B(  0-C ,  8-H ) :   0.8088 B(  0-C ,  9-H ) :   0.1999 B(  0-C , 10-H ) :   0.1302
B(  1-N ,  4-H ) :   0.8483 B(  1-N ,  5-H ) :   0.7820 B(  1-N ,  6-H ) :   0.8138
B(  1-N ,  7-H ) :   0.1589 B(  2-C ,  3-C ) :   1.3087 B(  2-C ,  7-H ) :   0.1423
B(  2-C ,  8-H ) :   0.1018 B(  2-C ,  9-H ) :   0.7822 B(  2-C , 10-H ) :   0.8410
B(  2-C , 11-H ) :   0.2852 B(  2-C , 12-H ) :   0.2338 B(  2-C , 13-H ) :   0.2445
B(  3-C ,  9-H ) :   0.1051 B(  3-C , 11-H ) :   0.6739 B(  3-C , 12-H ) :   0.7302
B(  3-C , 13-H ) :   0.7122

Dispersion correction           -0.019029899
FINAL SINGLE POINT ENERGY      -174.638248407084

DIPOLE MOMENT
-------------
                                X             Y             Z
Electronic contribution:      0.76634      -1.06668       1.92828
Nuclear contribution   :     -0.79558       0.15863      -0.24664
                        -----------------------------------------
Total Dipole Moment    :     -0.02924      -0.90804       1.68164
                        -----------------------------------------
Magnitude (a.u.)       :      1.91137
Magnitude (Debye)      :      4.85831

Rotational constants in cm-1:     0.425244     0.165801     0.135024
Rotational constants in MHz : 12748.492920  4970.589839  4047.903558

                             ****ORCA TERMINATED NORMALLY****
TOTAL RUN TIME: 0 days 0 hours 0 minutes 4 seconds 986 msec
