                         Program Version 5.0.0 -  RELEASE  -
|  1> !BLYP D3BJ RIJCOSX def2-SVPD def2/J TightSCF
|  2> *xyz 0 1
|  3> C          1.36401        0.46874       -2.81376
|  4> C          0.96805        1.63064       -3.71575
|  5> C         -0.50835        1.72268       -4.12430
|  6> S         -1.32861        0.14674       -4.43578
|  7> H         -0.59151        2.29496       -5.04722
|  8> H         -1.11411        2.23561       -3.37436
|  9> F         -2.57135        0.47573       -5.06834
| 10> O         -1.51496       -0.40051       -3.06342
| 11> H          1.57869        1.52065       -4.61273
| 12> H          1.26665        2.57599       -3.25045
| 13> O         -0.37793       -0.62756       -5.20114
| 14> H          1.07115       -0.45339       -3.27071
| 15> H          0.87480        0.56905       -1.86745
| 16> H          2.42423        0.47442       -2.66954
| 17> *
| 18> %MaxCore 64000
| 19>
| 20> %pal nprocs 4
| 21> end
| 22>
| 23> %scf
| 24>   MaxIter 150
| 25> end
| 26>
| 27>
| 28>                          ****END OF INPUT****

CARTESIAN COORDINATES (ANGSTROEM)
---------------------------------
  C      1.364010    0.468740   -2.813760
  C      0.968050    1.630640   -3.715750
  C     -0.508350    1.722680   -4.124300
  S     -1.328610    0.146740   -4.435780
  H     -0.591510    2.294960   -5.047220
  H     -1.114110    2.235610   -3.374360
  F     -2.571350    0.475730   -5.068340
  O     -1.514960   -0.400510   -3.063420
  H      1.578690    1.520650   -4.612730
  H      1.266650    2.575990   -3.250450
  O     -0.377930   -0.627560   -5.201140
  H      1.071150   -0.453390   -3.270710
  H      0.874800    0.569050   -1.867450
  H      2.424230    0.474420   -2.669540

 Total Charge           Charge          ....    0
 Multiplicity           Mult            ....    1
 Number of Electrons    NEL             ....   66
 Basis Dimension        Dim             ....  212

ORBITAL ENERGIES
----------------

  NO   OCC          E(Eh)            E(eV)
   0   2.0000     -88.383832     -2405.0463
   1   2.0000     -24.423242      -664.5902
   2   2.0000     -18.804392      -511.6935
   3   2.0000     -18.788699      -511.2665
   4   2.0000      -9.978417      -271.5265
   5   2.0000      -9.947708      -270.6909
   6   2.0000      -9.908410      -269.6215
   7   2.0000      -7.921432      -215.5531
   8   2.0000      -5.960702      -162.1989
   9   2.0000      -5.954329      -162.0255
  10   2.0000      -5.952638      -161.9795
  11   2.0000      -1.273077       -34.6422
  12   2.0000      -1.011666       -27.5288
  13   2.0000      -0.909713       -24.7546
  14   2.0000      -0.741779       -20.1848
  15   2.0000      -0.679884       -18.5006
  16   2.0000      -0.636237       -17.3129
  17   2.0000      -0.567332       -15.4379
  18   2.0000      -0.525018       -14.2865
  19   2.0000      -0.513976       -13.9860
  20   2.0000      -0.491316       -13.3694
  21   2.0000      -0.440030       -11.9738
  22   2.0000      -0.428235       -11.6529
  23   2.0000      -0.403514       -10.9802
  24   2.0000      -0.396113       -10.7788
  25   2.0000      -0.371337       -10.1046
  26   2.0000      -0.339505        -9.2384
  27   2.0000      -0.330004        -8.9799
  28   2.0000      -0.318544        -8.6680
  29   2.0000      -0.304626        -8.2893
  30   2.0000      -0.285773        -7.7763
  31   2.0000      -0.270337        -7.3563
  32   2.0000      -0.256731        -6.9860
  33   0.0000      -0.027947        -0.7605
  34   0.0000      -0.007312        -0.1990
  35   0.0000       0.014139         0.3847
  36   0.0000       0.021104         0.5743
  37   0.0000       0.026094         0.7101

MULLIKEN ATOMIC CHARGES
-----------------------
   0 C :    1.191293
   1 C :    0.004989
   2 C :    0.395231
   3 S :    1.306923
   4 H :   -0.169710
   5 H :   -0.073606
   6 F :   -0.408027
   7 O :   -0.623824
   8 H :   -0.082197
   9 H :   -0.292906
  10 O :   -0.606136
  11 H :   -0.195695
  12 H :   -0.151760
  13 H :   -0.294575
Sum of atomic charges:    0.0000000

LOEWDIN ATOMIC CHARGES
----------------------
   0 C :    0.143163
   1 C :   -0.051512
   2 C :   -0.048693
   3 S :    1.081540
   4 H :    0.008169
   5 H :    0.017885
   6 F :   -0.237967
   7 O :   -0.457999
   8 H :    0.023664
   9 H :    0.027332
  10 O :   -0.438295
  11 H :   -0.038931
  12 H :   -0.012058
  13 H :   -0.016299

  Mayer bond orders larger than 0.100000
B(  0-C ,  1-C ) :   1.3277 B(  0-C ,  8-H ) :   0.1290 B(  0-C ,  9-H ) :   0.1139
B(  0-C , 11-H ) :   0.7102 B(  0-C , 12-H ) :   0.6511 B(  0-C , 13-H ) :   0.5850
B(  1-C ,  2-C ) :   1.3153 B(  1-C ,  4-H ) :   0.1964 B(  1-C ,  5-H ) :   0.1721
B(  1-C ,  8-H ) :   0.7845 B(  1-C ,  9-H ) :   0.7316 B(  1-C , 11-H ) :   0.2514
B(  1-C , 12-H ) :   0.2602 B(  1-C , 13-H ) :   0.2923 B(  2-C ,  3-S ) :   0.8944
B(  2-C ,  4-H ) :   0.7901 B(  2-C ,  5-H ) :   0.8386 B(  2-C ,  8-H ) :   0.1521
B(  2-C ,  9-H ) :   0.1655 B(  3-S ,  6-F ) :   0.7614 B(  3-S ,  7-O ) :   1.4786
B(  3-S , 10-O ) :   1.4988 B(  7-O , 10-O ) :   0.1073

Dispersion correction           -0.027604451
FINAL SINGLE POINT ENERGY      -766.460302211188

DIPOLE MOMENT
-------------
                                X             Y             Z
Electronic contribution:    -11.74870      -4.35053      -5.79268
Nuclear contribution   :     11.77809       5.83971       5.48704
                        -----------------------------------------
Total Dipole Moment    :      0.02938       1.48918      -0.30564
                        -----------------------------------------
Magnitude (a.u.)       :      1.52051
Magnitude (Debye)      :      3.86483

Rotational constants in cm-1:     0.133968     0.056186     0.052650
Rotational constants in MHz :  4016.256208  1684.422248  1578.415210

                             ****ORCA TERMINATED NORMALLY****
TOTAL RUN TIME: 0 days 0 hours 0 minutes 8 seconds 973 msec
