                         Program Version 5.0.0 -  RELEASE  -
|  1> !BLYP D3BJ RIJCOSX def2-SVPD def2/J TightSCF
|  2> *xyz 0 1
|  3> C          1.36401        0.46874       -2.81376
|  4> C          0.42884        0.32140       -1.65531
|  5> C          0.96805        1.63064       -3.71575
|  6> C         -0.50835        1.72268       -4.12430
|  7> H          0.74858       -0.40054       -1.00134
|  8> H         -0.46105        0.02333       -2.07773
|  9> H          0.31026        1.20137       -1.13495
| 10> H          1.29485       -0.46874       -3.36468
| 11> H          2.37622        0.59740       -2.43149
| 12> H          1.57869        1.52065       -4.61273
| 13> H          1.26665        2.57599       -3.25045
| 14> H         -0.65192        2.57663       -4.75283
| 15> H         -1.11549        1.81835       -3.24844
| 16> H         -0.78702        0.83723       -4.65648
| 17> *
| 18> %MaxCore 64000
| 19>
| 20> %pal nprocs 4
| 21> end
| 22>
| 23> %scf
| 24>   MaxIter 150
| 25> end
| 26>
| 27>
| 28>                          ****END OF INPUT****

CARTESIAN COORDINATES (ANGSTROEM)
---------------------------------
  C      1.364010    0.468740   -2.813760
  C      0.428840    0.321400   -1.655310
  C      0.968050    1.630640   -3.715750
  C     -0.508350    1.722680   -4.124300
  H      0.748580   -0.400540   -1.001340
  H     -0.461050    0.023330   -2.077730
  H      0.310260    1.201370   -1.134950
  H      1.294850   -0.468740   -3.364680
  H      2.376220    0.597400   -2.431490
  H      1.578690    1.520650   -4.612730
  H      1.266650    2.575990   -3.250450
  H     -0.651920    2.576630   -4.752830
  H     -1.115490    1.818350   -3.248440
  H     -0.787020    0.837230   -4.656480

 Total Charge           Charge          ....    0
 Multiplicity           Mult            ....    1
 Number of Electrons    NEL             ....   34
 Basis Dimension        Dim             ....  160

ORBITAL ENERGIES
----------------

  NO   OCC          E(Eh)            E(eV)
   0   2.0000      -9.911233      -269.6984
   1   2.0000      -9.908111      -269.6134
   2   2.0000      -9.904002      -269.5016
   3   2.0000      -9.885412      -268.9957
   4   2.0000      -0.715037       -19.4571
   5   2.0000      -0.645791       -17.5729
   6   2.0000      -0.572415       -15.5762
   7   2.0000      -0.494353       -13.4520
   8   2.0000      -0.415898       -11.3172
   9   2.0000      -0.407781       -11.0963
  10   2.0000      -0.374403       -10.1880
  11   2.0000      -0.340052        -9.2533
  12   2.0000      -0.335681        -9.1343
  13   2.0000      -0.319060        -8.6821
  14   2.0000      -0.283691        -7.7196
  15   2.0000      -0.276532        -7.5248
  16   2.0000      -0.272782        -7.4228
  17   0.0000       0.005741         0.1562
  18   0.0000       0.033196         0.9033
  19   0.0000       0.036028         0.9804
  20   0.0000       0.045141         1.2284
  21   0.0000       0.073876         2.0103

MULLIKEN ATOMIC CHARGES
-----------------------
   0 C :    0.012679
   1 C :    1.410555
   2 C :   -0.068828
   3 C :    1.080829
   4 H :   -0.527274
   5 H :   -0.192845
   6 H :   -0.295475
   7 H :   -0.145053
   8 H :   -0.293996
   9 H :   -0.248929
  10 H :   -0.141009
  11 H :   -0.307784
  12 H :   -0.145175
  13 H :   -0.137693
Sum of atomic charges:    0.0000000

LOEWDIN ATOMIC CHARGES
----------------------
   0 C :   -0.067902
   1 C :    0.132458
   2 C :   -0.069914
   3 C :    0.137807
   4 H :   -0.039581
   5 H :   -0.043533
   6 H :   -0.029009
   7 H :    0.019012
   8 H :    0.015647
   9 H :    0.007064
  10 H :    0.016230
  11 H :   -0.025334
  12 H :   -0.032906
  13 H :   -0.020038

  Mayer bond orders larger than 0.100000
B(  0-C ,  1-C ) :   1.2557 B(  0-C ,  2-C ) :   1.2140 B(  0-C ,  4-H ) :   0.2950
B(  0-C ,  5-H ) :   0.3401 B(  0-C ,  6-H ) :   0.2936 B(  0-C ,  7-H ) :   0.7440
B(  0-C ,  8-H ) :   0.8155 B(  0-C ,  9-H ) :   0.1857 B(  0-C , 10-H ) :   0.1647
B(  1-C ,  4-H ) :   0.4882 B(  1-C ,  5-H ) :   0.6143 B(  1-C ,  6-H ) :   0.5692
B(  1-C ,  7-H ) :   0.1737 B(  2-C ,  3-C ) :   1.3011 B(  2-C ,  7-H ) :   0.1707
B(  2-C ,  8-H ) :   0.1173 B(  2-C ,  9-H ) :   0.8072 B(  2-C , 10-H ) :   0.8168
B(  2-C , 11-H ) :   0.2910 B(  2-C , 12-H ) :   0.2375 B(  2-C , 13-H ) :   0.2475
B(  3-C ,  9-H ) :   0.1109 B(  3-C , 10-H ) :   0.1233 B(  3-C , 11-H ) :   0.6398
B(  3-C , 12-H ) :   0.7552 B(  3-C , 13-H ) :   0.7161 B(  4-H ,  6-H ) :  -0.1383

Dispersion correction           -0.019157725
FINAL SINGLE POINT ENERGY      -158.226936508737

DIPOLE MOMENT
-------------
                                X             Y             Z
Electronic contribution:      0.84453       0.05440      -0.18648
Nuclear contribution   :     -0.83100      -0.05970       0.18742
                        -----------------------------------------
Total Dipole Moment    :      0.01353      -0.00530       0.00094
                        -----------------------------------------
Magnitude (a.u.)       :      0.01456
Magnitude (Debye)      :      0.03700

Rotational constants in cm-1:     0.433656     0.172838     0.140497
Rotational constants in MHz : 13000.688694  5181.547473  4211.992439

                             ****ORCA TERMINATED NORMALLY****
TOTAL RUN TIME: 0 days 0 hours 0 minutes 5 seconds 391 msec
