                         Program Version 5.0.0 -  RELEASE  -
|  1> !BLYP D3BJ RIJCOSX def2-SVPD def2/J TightSCF
|  2> *xyz 0 1
|  3> C          1.36401        0.46874       -2.81376
|  4> C          0.96805        1.63064       -3.71575
|  5> C         -0.50835        1.72268       -4.12430
|  6> S         -1.32861        0.14674       -4.43578
|  7> H         -0.59151        2.29496       -5.04722
|  8> H         -1.11411        2.23561       -3.37436
|  9> O         -2.57135        0.47573       -5.06834
| 10> F         -1.51496       -0.40051       -3.06342
| 11> H          1.57869        1.52065       -4.61273
| 12> H          1.26665        2.57599       -3.25045
| 13> O         -0.37793       -0.62756       -5.20114
| 14> H          1.07115       -0.45339       -3.27071
| 15> H          0.87480        0.56905       -1.86745
| 16> H          2.42423        0.47442       -2.66954
| 17> *
| 18> %MaxCore 64000
| 19>
| 20> %pal nprocs 4
| 21> end
| 22>
| 23> %scf
| 24>   MaxIter 150
| 25> end
| 26>
| 27>
| 28>                          ****END OF INPUT****

CARTESIAN COORDINATES (ANGSTROEM)
---------------------------------
  C      1.364010    0.468740   -2.813760
  C      0.968050    1.630640   -3.715750
  C     -0.508350    1.722680   -4.124300
  S     -1.328610    0.146740   -4.435780
  H     -0.591510    2.294960   -5.047220
  H     -1.114110    2.235610   -3.374360
  O     -2.571350    0.475730   -5.068340
  F     -1.514960   -0.400510   -3.063420
  H      1.578690    1.520650   -4.612730
  H      1.266650    2.575990   -3.250450
  O     -0.377930   -0.627560   -5.201140
  H      1.071150   -0.453390   -3.270710
  H      0.874800    0.569050   -1.867450
  H      2.424230    0.474420   -2.669540

 Total Charge           Charge          ....    0
 Multiplicity           Mult            ....    1
 Number of Electrons    NEL             ....   66
 Basis Dimension        Dim             ....  212

ORBITAL ENERGIES
----------------

  NO   OCC          E(Eh)            E(eV)
   0   2.0000     -88.380851     -2404.9652
   1   2.0000     -24.395793      -663.8433
   2   2.0000     -18.806420      -511.7487
   3   2.0000     -18.802997      -511.6556
   4   2.0000      -9.977555      -271.5031
   5   2.0000      -9.949096      -270.7287
   6   2.0000      -9.921769      -269.9851
   7   2.0000      -7.918405      -215.4708
   8   2.0000      -5.957554      -162.1133
   9   2.0000      -5.951510      -161.9488
  10   2.0000      -5.949772      -161.9015
  11   2.0000      -1.227338       -33.3976
  12   2.0000      -1.024519       -27.8786
  13   2.0000      -0.934807       -25.4374
  14   2.0000      -0.745638       -20.2898
  15   2.0000      -0.672293       -18.2940
  16   2.0000      -0.626240       -17.0409
  17   2.0000      -0.566418       -15.4130
  18   2.0000      -0.501571       -13.6484
  19   2.0000      -0.494402       -13.4534
  20   2.0000      -0.486149       -13.2288
  21   2.0000      -0.444708       -12.1011
  22   2.0000      -0.422738       -11.5033
  23   2.0000      -0.407440       -11.0870
  24   2.0000      -0.398992       -10.8571
  25   2.0000      -0.385279       -10.4840
  26   2.0000      -0.347375        -9.4525
  27   2.0000      -0.336896        -9.1674
  28   2.0000      -0.332018        -9.0347
  29   2.0000      -0.311575        -8.4784
  30   2.0000      -0.294188        -8.0053
  31   2.0000      -0.284321        -7.7368
  32   2.0000      -0.273145        -7.4326
  33   0.0000      -0.026116        -0.7106
  34   0.0000      -0.002921        -0.0795
  35   0.0000       0.010815         0.2943
  36   0.0000       0.017299         0.4707
  37   0.0000       0.026301         0.7157

MULLIKEN ATOMIC CHARGES
-----------------------
   0 C :    1.172856
   1 C :    0.058112
   2 C :    0.402825
   3 S :    1.251248
   4 H :   -0.176831
   5 H :   -0.083990
   6 O :   -0.601856
   7 F :   -0.366165
   8 H :   -0.078911
   9 H :   -0.288966
  10 O :   -0.616843
  11 H :   -0.219969
  12 H :   -0.167812
  13 H :   -0.283699
Sum of atomic charges:   -0.0000000

LOEWDIN ATOMIC CHARGES
----------------------
   0 C :    0.138502
   1 C :   -0.060936
   2 C :   -0.037397
   3 S :    1.071284
   4 H :    0.023526
   5 H :    0.017170
   6 O :   -0.432240
   7 F :   -0.259809
   8 H :    0.024432
   9 H :    0.024276
  10 O :   -0.435591
  11 H :   -0.043351
  12 H :   -0.015949
  13 H :   -0.013917

  Mayer bond orders larger than 0.100000
B(  0-C ,  1-C ) :   1.3285 B(  0-C ,  8-H ) :   0.1315 B(  0-C ,  9-H ) :   0.1124
B(  0-C , 11-H ) :   0.7146 B(  0-C , 12-H ) :   0.6483 B(  0-C , 13-H ) :   0.6051
B(  1-C ,  2-C ) :   1.3016 B(  1-C ,  4-H ) :   0.1741 B(  1-C ,  5-H ) :   0.1738
B(  1-C ,  8-H ) :   0.7887 B(  1-C ,  9-H ) :   0.7297 B(  1-C , 11-H ) :   0.2464
B(  1-C , 12-H ) :   0.2571 B(  1-C , 13-H ) :   0.2876 B(  2-C ,  3-S ) :   0.9161
B(  2-C ,  4-H ) :   0.8112 B(  2-C ,  5-H ) :   0.8449 B(  2-C ,  8-H ) :   0.1565
B(  2-C ,  9-H ) :   0.1535 B(  3-S ,  6-O ) :   1.6346 B(  3-S ,  7-F ) :   0.6541
B(  3-S , 10-O ) :   1.5341 B(  6-O , 10-O ) :   0.1140

Dispersion correction           -0.027354683
FINAL SINGLE POINT ENERGY      -766.483755072915

DIPOLE MOMENT
-------------
                                X             Y             Z
Electronic contribution:     -9.91711      -5.81607      -2.39175
Nuclear contribution   :     10.64200       6.78206       3.33086
                        -----------------------------------------
Total Dipole Moment    :      0.72489       0.96599       0.93912
                        -----------------------------------------
Magnitude (a.u.)       :      1.52988
Magnitude (Debye)      :      3.88866

Rotational constants in cm-1:     0.128573     0.057881     0.053975
Rotational constants in MHz :  3854.523324  1735.233387  1618.120420

                             ****ORCA TERMINATED NORMALLY****
TOTAL RUN TIME: 0 days 0 hours 0 minutes 8 seconds 528 msec
