                         Program Version 5.0.0 -  RELEASE  -
|  1> !BLYP D3BJ RIJCOSX def2-SVPD def2/J TightSCF
|  2> *xyz 0 1
|  3> C          1.36401        0.46874       -2.81376
|  4> C          0.96805        1.63064       -3.71575
|  5> C         -0.50835        1.72268       -4.12430
|  6> S         -1.32861        0.14674       -4.43578
|  7> H         -0.59151        2.29496       -5.04722
|  8> H         -1.11411        2.23561       -3.37436
|  9> O         -2.57135        0.47573       -5.06834
| 10> O         -1.51496       -0.40051       -3.06342
| 11> H          1.57869        1.52065       -4.61273
| 12> H          1.26665        2.57599       -3.25045
| 13> F         -0.37793       -0.62756       -5.20114
| 14> H          1.07115       -0.45339       -3.27071
| 15> H          0.87480        0.56905       -1.86745
| 16> H          2.42423        0.47442       -2.66954
| 17> *
| 18> %MaxCore 64000
| 19>
| 20> %pal nprocs 4
| 21> end
| 22>
| 23> %scf
| 24>   MaxIter 150
| 25> end
| 26>
| 27>
| 28>                          ****END OF INPUT****

CARTESIAN COORDINATES (ANGSTROEM)
---------------------------------
  C      1.364010    0.468740   -2.813760
  C      0.968050    1.630640   -3.715750
  C     -0.508350    1.722680   -4.124300
  S     -1.328610    0.146740   -4.435780
  H     -0.591510    2.294960   -5.047220
  H     -1.114110    2.235610   -3.374360
  O     -2.571350    0.475730   -5.068340
  O     -1.514960   -0.400510   -3.063420
  H      1.578690    1.520650   -4.612730
  H      1.266650    2.575990   -3.250450
  F     -0.377930   -0.627560   -5.201140
  H      1.071150   -0.453390   -3.270710
  H      0.874800    0.569050   -1.867450
  H      2.424230    0.474420   -2.669540

 Total Charge           Charge          ....    0
 Multiplicity           Mult            ....    1
 Number of Electrons    NEL             ....   66
 Basis Dimension        Dim             ....  212

ORBITAL ENERGIES
----------------

  NO   OCC          E(Eh)            E(eV)
   0   2.0000     -88.382622     -2405.0134
   1   2.0000     -24.418352      -664.4571
   2   2.0000     -18.806499      -511.7509
   3   2.0000     -18.787089      -511.2227
   4   2.0000      -9.978023      -271.5158
   5   2.0000      -9.951936      -270.8059
   6   2.0000      -9.920608      -269.9535
   7   2.0000      -7.920205      -215.5197
   8   2.0000      -5.959696      -162.1716
   9   2.0000      -5.952996      -161.9893
  10   2.0000      -5.951343      -161.9443
  11   2.0000      -1.263785       -34.3893
  12   2.0000      -1.015557       -27.6347
  13   2.0000      -0.911377       -24.7998
  14   2.0000      -0.747052       -20.3283
  15   2.0000      -0.676592       -18.4110
  16   2.0000      -0.639557       -17.4032
  17   2.0000      -0.569969       -15.5097
  18   2.0000      -0.523112       -14.2346
  19   2.0000      -0.519373       -14.1329
  20   2.0000      -0.482414       -13.1272
  21   2.0000      -0.441770       -12.0212
  22   2.0000      -0.425959       -11.5909
  23   2.0000      -0.411028       -11.1847
  24   2.0000      -0.393677       -10.7125
  25   2.0000      -0.381569       -10.3830
  26   2.0000      -0.340480        -9.2649
  27   2.0000      -0.337438        -9.1822
  28   2.0000      -0.334175        -9.0934
  29   2.0000      -0.311364        -8.4726
  30   2.0000      -0.287231        -7.8160
  31   2.0000      -0.270527        -7.3614
  32   2.0000      -0.255951        -6.9648
  33   0.0000      -0.032404        -0.8817
  34   0.0000      -0.000814        -0.0221
  35   0.0000       0.011697         0.3183
  36   0.0000       0.018913         0.5147
  37   0.0000       0.023572         0.6414

MULLIKEN ATOMIC CHARGES
-----------------------
   0 C :    1.216861
   1 C :    0.025076
   2 C :    0.420498
   3 S :    1.238976
   4 H :   -0.187133
   5 H :   -0.079181
   6 O :   -0.592250
   7 O :   -0.625983
   8 H :   -0.104212
   9 H :   -0.293894
  10 F :   -0.362045
  11 H :   -0.211777
  12 H :   -0.156297
  13 H :   -0.288640
Sum of atomic charges:   -0.0000000

LOEWDIN ATOMIC CHARGES
----------------------
   0 C :    0.138408
   1 C :   -0.065570
   2 C :   -0.035937
   3 S :    1.073868
   4 H :    0.011741
   5 H :    0.031209
   6 O :   -0.432026
   7 O :   -0.456258
   8 H :    0.017860
   9 H :    0.025535
  10 F :   -0.241462
  11 H :   -0.042819
  12 H :   -0.008797
  13 H :   -0.015751

  Mayer bond orders larger than 0.100000
B(  0-C ,  1-C ) :   1.3228 B(  0-C ,  8-H ) :   0.1274 B(  0-C ,  9-H ) :   0.1107
B(  0-C , 11-H ) :   0.7047 B(  0-C , 12-H ) :   0.6511 B(  0-C , 13-H ) :   0.5849
B(  1-C ,  2-C ) :   1.2742 B(  1-C ,  4-H ) :   0.1823 B(  1-C ,  5-H ) :   0.1792
B(  1-C ,  8-H ) :   0.7882 B(  1-C ,  9-H ) :   0.7353 B(  1-C , 11-H ) :   0.2555
B(  1-C , 12-H ) :   0.2682 B(  1-C , 13-H ) :   0.2931 B(  2-C ,  3-S ) :   0.9252
B(  2-C ,  4-H ) :   0.8257 B(  2-C ,  5-H ) :   0.8348 B(  2-C ,  8-H ) :   0.1472
B(  2-C ,  9-H ) :   0.1646 B(  3-S ,  6-O ) :   1.6346 B(  3-S ,  7-O ) :   1.5105
B(  3-S , 10-F ) :   0.7075 B(  6-O ,  7-O ) :   0.1007

Dispersion correction           -0.027349807
FINAL SINGLE POINT ENERGY      -766.463726808111

DIPOLE MOMENT
-------------
                                X             Y             Z
Electronic contribution:     -8.01473      -6.17777      -5.96432
Nuclear contribution   :      9.41919       7.02624       5.62986
                        -----------------------------------------
Total Dipole Moment    :      1.40446       0.84847      -0.33447
                        -----------------------------------------
Magnitude (a.u.)       :      1.67460
Magnitude (Debye)      :      4.25649

Rotational constants in cm-1:     0.128702     0.057313     0.054552
Rotational constants in MHz :  3858.395793  1718.208003  1635.420361

                             ****ORCA TERMINATED NORMALLY****
TOTAL RUN TIME: 0 days 0 hours 0 minutes 8 seconds 479 msec
