                         Program Version 5.0.0 -  RELEASE  -
|  1> !BLYP D3BJ RIJCOSX def2-SVPD def2/J TightSCF xyzfile
|  2>
|  3> *xyzfile 0 1 D2.xyz
|  4>
|  5> %MaxCore 64000
|  6>
|  7> %pal nprocs 4
|  8> end
|  9>
| 10> %scf
| 11>   MaxIter 150
| 12> end
| 13>
| 14>
| 15>                          ****END OF INPUT****

CARTESIAN COORDINATES (ANGSTROEM)
---------------------------------
  C      1.364014    0.468742   -2.813764
  C      0.428844    0.321402   -1.655312
  C      0.968045    1.630639   -3.715749
  C     -0.508347    1.722679   -4.124300
  S     -1.328608    0.146737   -4.435781
  H     -0.591511    2.294958   -5.047219
  H     -1.114114    2.235610   -3.374362
  H      0.748578   -0.400542   -1.001345
  H     -0.461053    0.023332   -2.077731
  H      0.310258    1.201375   -1.134948
  O     -2.571347    0.475733   -5.068341
  F     -1.514963   -0.400512   -3.063420
  H      1.294847   -0.468742   -3.364684
  H      2.376216    0.597400   -2.431495
  H      1.578688    1.520652   -4.612733
  H      1.266653    2.575988   -3.250448
  O     -0.377928   -0.627558   -5.201141

 Total Charge           Charge          ....    0
 Multiplicity           Mult            ....    1
 Number of Electrons    NEL             ....   74
 Basis Dimension        Dim             ....  248

ORBITAL ENERGIES
----------------

  NO   OCC          E(Eh)            E(eV)
   0   2.0000     -88.384764     -2405.0717
   1   2.0000     -24.402663      -664.0302
   2   2.0000     -18.809399      -511.8298
   3   2.0000     -18.806196      -511.7426
   4   2.0000      -9.979134      -271.5461
   5   2.0000      -9.945076      -270.6193
   6   2.0000      -9.922565      -270.0067
   7   2.0000      -9.884099      -268.9600
   8   2.0000      -7.922199      -215.5740
   9   2.0000      -5.961524      -162.2213
  10   2.0000      -5.955238      -162.0503
  11   2.0000      -5.953435      -162.0012
  12   2.0000      -1.240919       -33.7671
  13   2.0000      -1.028942       -27.9989
  14   2.0000      -0.937790       -25.5186
  15   2.0000      -0.753070       -20.4921
  16   2.0000      -0.699930       -19.0461
  17   2.0000      -0.642965       -17.4960
  18   2.0000      -0.622120       -16.9287
  19   2.0000      -0.535684       -14.5767
  20   2.0000      -0.520876       -14.1738
  21   2.0000      -0.503832       -13.7100
  22   2.0000      -0.487626       -13.2690
  23   2.0000      -0.445045       -12.1103
  24   2.0000      -0.428679       -11.6649
  25   2.0000      -0.424020       -11.5382
  26   2.0000      -0.406417       -11.0592
  27   2.0000      -0.382063       -10.3965
  28   2.0000      -0.366911        -9.9842
  29   2.0000      -0.355893        -9.6843
  30   2.0000      -0.345140        -9.3917
  31   2.0000      -0.311185        -8.4678
  32   2.0000      -0.303077        -8.2471
  33   2.0000      -0.298070        -8.1109
  34   2.0000      -0.289515        -7.8781
  35   2.0000      -0.282705        -7.6928
  36   2.0000      -0.272024        -7.4021
  37   0.0000      -0.026377        -0.7177
  38   0.0000      -0.003983        -0.1084
  39   0.0000       0.009146         0.2489
  40   0.0000       0.013836         0.3765
  41   0.0000       0.024326         0.6619

MULLIKEN ATOMIC CHARGES
-----------------------
   0 C :   -0.078611
   1 C :    2.741193
   2 C :    0.620953
   3 C :    0.438008
   4 S :    1.317110
   5 H :   -0.431096
   6 H :    0.086779
   7 H :   -0.250398
   8 H :   -1.576202
   9 H :   -0.242529
  10 O :   -0.616976
  11 F :   -0.578121
  12 H :   -0.035548
  13 H :   -0.501275
  14 H :   -0.113517
  15 H :   -0.154789
  16 O :   -0.624981
Sum of atomic charges:    0.0000000

LOEWDIN ATOMIC CHARGES
----------------------
   0 C :   -0.040868
   1 C :    0.160897
   2 C :   -0.017962
   3 C :   -0.024952
   4 S :    1.096533
   5 H :    0.023005
   6 H :    0.021140
   7 H :   -0.024425
   8 H :   -0.139665
   9 H :   -0.021476
  10 O :   -0.426304
  11 F :   -0.262515
  12 H :    0.010009
  13 H :    0.021240
  14 H :    0.023244
  15 H :    0.028828
  16 O :   -0.426728

  Mayer bond orders larger than 0.100000
B(  0-C ,  1-C ) :   0.8693 B(  0-C ,  2-C ) :   1.2019 B(  0-C ,  3-C ) :   0.1180
B(  0-C ,  7-H ) :   0.3292 B(  0-C ,  8-H ) :   0.6860 B(  0-C ,  9-H ) :   0.3573
B(  0-C , 12-H ) :   0.7498 B(  0-C , 13-H ) :   0.7907 B(  0-C , 14-H ) :   0.1871
B(  0-C , 15-H ) :   0.2167 B(  1-C ,  3-C ) :  -0.1107 B(  1-C ,  7-H ) :   0.1983
B(  1-C ,  8-H ) :  -1.8931 B(  1-C ,  9-H ) :  -0.1041 B(  1-C , 11-F ) :  -0.2974
B(  1-C , 12-H ) :   0.1821 B(  2-C ,  3-C ) :   1.2198 B(  2-C ,  5-H ) :   0.2190
B(  2-C ,  6-H ) :   0.1434 B(  2-C , 12-H ) :   0.1827 B(  2-C , 14-H ) :   0.7312
B(  2-C , 15-H ) :   0.6365 B(  3-C ,  4-S ) :   0.9352 B(  3-C ,  5-H ) :   0.7278
B(  3-C ,  6-H ) :   0.8304 B(  3-C ,  8-H ) :   0.1553 B(  3-C , 11-F ) :   0.1423
B(  3-C , 14-H ) :   0.1819 B(  3-C , 15-H ) :   0.1253 B(  4-S ,  8-H ) :  -0.1538
B(  4-S , 10-O ) :   1.6104 B(  4-S , 11-F ) :   0.6463 B(  4-S , 16-O ) :   1.5388
B(  5-H ,  8-H ) :  -0.1100 B(  7-H ,  8-H ) :   0.3582 B(  7-H ,  9-H ) :  -0.2817
B(  7-H , 14-H ) :   0.1040 B(  8-H ,  9-H ) :   0.7238 B(  8-H , 11-F ) :   0.4941
B( 10-O , 16-O ) :   0.1311 B( 12-H , 13-H ) :  -0.1548 B( 14-H , 15-H ) :  -0.1025

Dispersion correction           -0.036550297
FINAL SINGLE POINT ENERGY      -805.704948071336

DIPOLE MOMENT
-------------
                                X             Y             Z
Electronic contribution:    -10.50107      -5.56760      -6.18467
Nuclear contribution   :     11.08796       6.45140       7.05645
                        -----------------------------------------
Total Dipole Moment    :      0.58689       0.88379       0.87179
                        -----------------------------------------
Magnitude (a.u.)       :      1.37315
Magnitude (Debye)      :      3.49028

Rotational constants in cm-1:     0.100113     0.046890     0.041843
Rotational constants in MHz :  3001.313402  1405.711946  1254.411771

                             ****ORCA TERMINATED NORMALLY****
TOTAL RUN TIME: 0 days 0 hours 0 minutes 13 seconds 723 msec
