                         Program Version 5.0.0 -  RELEASE  -
|  1> !BLYP D3BJ RIJCOSX def2-SVPD def2/J TightSCF xyzfile
|  2>
|  3> *xyzfile 0 1 D3.xyz
|  4>
|  5> %MaxCore 64000
|  6>
|  7> %pal nprocs 4
|  8> end
|  9>
| 10> %scf
| 11>   MaxIter 150
| 12> end
| 13>
| 14>
| 15>                          ****END OF INPUT****

CARTESIAN COORDINATES (ANGSTROEM)
---------------------------------
  C      1.364014    0.468742   -2.813764
  C      0.428844    0.321402   -1.655312
  C      0.968045    1.630639   -3.715749
  C     -0.508347    1.722679   -4.124300
  S     -1.328608    0.146737   -4.435781
  H     -0.591511    2.294958   -5.047219
  H     -1.114114    2.235610   -3.374362
  H      0.748578   -0.400542   -1.001345
  H     -0.461053    0.023332   -2.077731
  H      0.310258    1.201375   -1.134948
  O     -2.571347    0.475733   -5.068341
  O     -1.514963   -0.400512   -3.063420
  H      1.294847   -0.468742   -3.364684
  H      2.376216    0.597400   -2.431495
  H      1.578688    1.520652   -4.612733
  H      1.266653    2.575988   -3.250448
  F     -0.377928   -0.627558   -5.201141

 Total Charge           Charge          ....    0
 Multiplicity           Mult            ....    1
 Number of Electrons    NEL             ....   74
 Basis Dimension        Dim             ....  248

ORBITAL ENERGIES
----------------

  NO   OCC          E(Eh)            E(eV)
   0   2.0000     -88.389723     -2405.2066
   1   2.0000     -24.422715      -664.5759
   2   2.0000     -18.811066      -511.8751
   3   2.0000     -18.794394      -511.4215
   4   2.0000      -9.981018      -271.5973
   5   2.0000      -9.947714      -270.6910
   6   2.0000      -9.920505      -269.9507
   7   2.0000      -9.858916      -268.2747
   8   2.0000      -7.926994      -215.7045
   9   2.0000      -5.966470      -162.3559
  10   2.0000      -5.960128      -162.1833
  11   2.0000      -5.957902      -162.1227
  12   2.0000      -1.268208       -34.5097
  13   2.0000      -1.023096       -27.8399
  14   2.0000      -0.924961       -25.1695
  15   2.0000      -0.752475       -20.4759
  16   2.0000      -0.694566       -18.9001
  17   2.0000      -0.650987       -17.7143
  18   2.0000      -0.607859       -16.5407
  19   2.0000      -0.548560       -14.9271
  20   2.0000      -0.525809       -14.3080
  21   2.0000      -0.517790       -14.0898
  22   2.0000      -0.483286       -13.1509
  23   2.0000      -0.446291       -12.1442
  24   2.0000      -0.443210       -12.0603
  25   2.0000      -0.418578       -11.3901
  26   2.0000      -0.406791       -11.0693
  27   2.0000      -0.379404       -10.3241
  28   2.0000      -0.363353        -9.8873
  29   2.0000      -0.352403        -9.5894
  30   2.0000      -0.341492        -9.2925
  31   2.0000      -0.318653        -8.6710
  32   2.0000      -0.301541        -8.2053
  33   2.0000      -0.291481        -7.9316
  34   2.0000      -0.285555        -7.7703
  35   2.0000      -0.276918        -7.5353
  36   2.0000      -0.229007        -6.2316
  37   0.0000      -0.034069        -0.9271
  38   0.0000      -0.002881        -0.0784
  39   0.0000       0.008779         0.2389
  40   0.0000       0.019078         0.5191
  41   0.0000       0.021542         0.5862

MULLIKEN ATOMIC CHARGES
-----------------------
   0 C :   -0.042246
   1 C :    2.651608
   2 C :    0.589835
   3 C :    0.415987
   4 S :    1.348328
   5 H :   -0.429172
   6 H :    0.088435
   7 H :   -0.277562
   8 H :   -1.498968
   9 H :   -0.274202
  10 O :   -0.602592
  11 O :   -0.743624
  12 H :   -0.054649
  13 H :   -0.514850
  14 H :   -0.135360
  15 H :   -0.155313
  16 F :   -0.365657
Sum of atomic charges:   -0.0000000

LOEWDIN ATOMIC CHARGES
----------------------
   0 C :   -0.044503
   1 C :    0.151587
   2 C :   -0.023892
   3 C :   -0.018749
   4 S :    1.125090
   5 H :    0.011859
   6 H :    0.035417
   7 H :   -0.026844
   8 H :   -0.182207
   9 H :   -0.024729
  10 O :   -0.424597
  11 O :   -0.419758
  12 H :    0.009675
  13 H :    0.019118
  14 H :    0.016465
  15 H :    0.030454
  16 F :   -0.234385

  Mayer bond orders larger than 0.100000
B(  0-C ,  1-C ) :   0.8881 B(  0-C ,  2-C ) :   1.1892 B(  0-C ,  7-H ) :   0.3220
B(  0-C ,  8-H ) :   0.6969 B(  0-C ,  9-H ) :   0.3683 B(  0-C , 12-H ) :   0.7280
B(  0-C , 13-H ) :   0.7850 B(  0-C , 14-H ) :   0.1873 B(  0-C , 15-H ) :   0.2144
B(  1-C ,  7-H ) :   0.1789 B(  1-C ,  8-H ) :  -1.5929 B(  1-C , 11-O ) :  -0.2089
B(  1-C , 12-H ) :   0.1907 B(  2-C ,  3-C ) :   1.2277 B(  2-C ,  5-H ) :   0.2305
B(  2-C ,  6-H ) :   0.1430 B(  2-C , 12-H ) :   0.1941 B(  2-C , 14-H ) :   0.7307
B(  2-C , 15-H ) :   0.6388 B(  3-C ,  4-S ) :   0.9293 B(  3-C ,  5-H ) :   0.7467
B(  3-C ,  6-H ) :   0.8253 B(  3-C ,  8-H ) :   0.1718 B(  3-C , 11-O ) :   0.1514
B(  3-C , 14-H ) :   0.1725 B(  3-C , 15-H ) :   0.1408 B(  4-S ,  8-H ) :  -0.1702
B(  4-S , 10-O ) :   1.6325 B(  4-S , 11-O ) :   1.4264 B(  4-S , 16-F ) :   0.7056
B(  5-H ,  8-H ) :  -0.1060 B(  7-H ,  8-H ) :   0.4062 B(  7-H ,  9-H ) :  -0.2691
B(  7-H , 14-H ) :   0.1018 B(  8-H ,  9-H ) :   0.6820 B(  8-H , 11-O ) :   0.3891
B(  9-H , 13-H ) :   0.1071 B( 12-H , 13-H ) :  -0.1695 B( 14-H , 15-H ) :  -0.1101

Dispersion correction           -0.036692829
FINAL SINGLE POINT ENERGY      -805.687325243177

DIPOLE MOMENT
-------------
                                X             Y             Z
Electronic contribution:     -8.67830      -5.96015      -9.86690
Nuclear contribution   :      9.83476       6.70164       9.41257
                        -----------------------------------------
Total Dipole Moment    :      1.15647       0.74148      -0.45432
                        -----------------------------------------
Magnitude (a.u.)       :      1.44694
Magnitude (Debye)      :      3.67782

Rotational constants in cm-1:     0.099832     0.045916     0.042219
Rotational constants in MHz :  2992.874960  1376.530174  1265.693813

                             ****ORCA TERMINATED NORMALLY****
TOTAL RUN TIME: 0 days 0 hours 0 minutes 13 seconds 435 msec
