                         Program Version 5.0.0 -  RELEASE  -
|  1> !TPSS D3BJ RIJCOSX def2-TZVPD def2/J TightSCF
|  2> *xyz -1 1
|  3> C          1.44442        5.26658       -0.97546
|  4> O          1.56525        4.23349       -1.86489
|  5> C          0.14812        5.21087       -0.13809
|  6> H          1.47425        6.26464       -1.47692
|  7> H          2.28962        5.30327       -0.26445
|  8> H         -0.69779        5.17417       -0.79230
|  9> H          0.08430        6.08276        0.47887
| 10> H          0.15965        4.33708        0.47938
| 11> *
| 12> %MaxCore 64000
| 13>
| 14> %pal nprocs 4
| 15> end
| 16>
| 17> %scf
| 18>   MaxIter 150
| 19> end
| 20>
| 21>
| 22>                          ****END OF INPUT****

CARTESIAN COORDINATES (ANGSTROEM)
---------------------------------
  C      1.444420    5.266580   -0.975460
  O      1.565250    4.233490   -1.864890
  C      0.148120    5.210870   -0.138090
  H      1.474250    6.264640   -1.476920
  H      2.289620    5.303270   -0.264450
  H     -0.697790    5.174170   -0.792300
  H      0.084300    6.082760    0.478870
  H      0.159650    4.337080    0.479380

 Total Charge           Charge          ....   -1
 Multiplicity           Mult            ....    1
 Number of Electrons    NEL             ....   26
 Basis Dimension        Dim             ....  159

ORBITAL ENERGIES
----------------

  NO   OCC          E(Eh)            E(eV)
   0   2.0000     -18.561283      -505.0782
   1   2.0000      -9.801592      -266.7149
   2   2.0000      -9.777887      -266.0698
   3   2.0000      -0.621278       -16.9058
   4   2.0000      -0.474044       -12.8994
   5   2.0000      -0.328564        -8.9407
   6   2.0000      -0.210038        -5.7154
   7   2.0000      -0.189539        -5.1576
   8   2.0000      -0.135999        -3.7007
   9   2.0000      -0.122404        -3.3308
  10   2.0000      -0.076583        -2.0839
  11   2.0000       0.061884         1.6839
  12   2.0000       0.065461         1.7813
  13   0.0000       0.146183         3.9778
  14   0.0000       0.168759         4.5922
  15   0.0000       0.194073         5.2810
  16   0.0000       0.197436         5.3725
  17   0.0000       0.218213         5.9379

MULLIKEN ATOMIC CHARGES
-----------------------
   0 C :   -0.064201
   1 O :   -1.011139
   2 C :   -1.044362
   3 H :    0.143490
   4 H :    0.142317
   5 H :    0.243321
   6 H :    0.343864
   7 H :    0.246710
Sum of atomic charges:   -1.0000000

LOEWDIN ATOMIC CHARGES
----------------------
   0 C :   -0.610644
   1 O :   -0.395429
   2 C :   -0.170667
   3 H :    0.047859
   4 H :    0.044722
   5 H :    0.033630
   6 H :    0.018114
   7 H :    0.032414

  Mayer bond orders larger than 0.100000
B(  0-C ,  1-O ) :   0.6677 B(  0-C ,  2-C ) :   0.9255 B(  0-C ,  3-H ) :   1.0461
B(  0-C ,  4-H ) :   1.0517 B(  1-O ,  2-C ) :   0.6310 B(  2-C ,  5-H ) :   0.9813
B(  2-C ,  6-H ) :   0.9246 B(  2-C ,  7-H ) :   0.9729

Dispersion correction           -0.004548895
FINAL SINGLE POINT ENERGY      -154.515247668375

DIPOLE MOMENT
-------------
                                X             Y             Z
Electronic contribution:      1.28193      -1.73163      -2.20604
Nuclear contribution   :     -1.83256       2.47114       3.17273
                        -----------------------------------------
Total Dipole Moment    :     -0.55063       0.73951       0.96670
                        -----------------------------------------
Magnitude (a.u.)       :      1.33588
Magnitude (Debye)      :      3.39553

Rotational constants in cm-1:     1.286062     0.322579     0.284728
Rotational constants in MHz : 38555.180127  9670.683110  8535.939140

                             ****ORCA TERMINATED NORMALLY****
TOTAL RUN TIME: 0 days 0 hours 0 minutes 11 seconds 481 msec
