                         Program Version 5.0.0 -  RELEASE  -
|  1> !TPSS D3BJ RIJCOSX def2-TZVPD def2/J TightSCF
|  2> *xyz 1 1
|  3> C         -0.70169        4.07250       -4.00392
|  4> N          0.68053        4.61482       -4.04800
|  5> H          0.69993        5.58489       -4.38827
|  6> H          1.27804        4.05598       -4.66824
|  7> H          1.08573        4.53358       -3.10652
|  8> C         -1.70347        5.09320       -3.47740
|  9> H         -0.99590        3.74039       -5.00065
| 10> H         -0.64358        3.20191       -3.35153
| 11> H         -1.73704        5.93384       -4.13853
| 12> H         -1.40338        5.41759       -2.50291
| 13> H         -2.67335        4.64479       -3.42108
| 14> *
| 15> %MaxCore 64000
| 16>
| 17> %pal nprocs 4
| 18> end
| 19>
| 20> %scf
| 21>   MaxIter 150
| 22> end
| 23>
| 24>
| 25>                          ****END OF INPUT****

CARTESIAN COORDINATES (ANGSTROEM)
---------------------------------
  C     -0.701690    4.072500   -4.003920
  N      0.680530    4.614820   -4.048000
  H      0.699930    5.584890   -4.388270
  H      1.278040    4.055980   -4.668240
  H      1.085730    4.533580   -3.106520
  C     -1.703470    5.093200   -3.477400
  H     -0.995900    3.740390   -5.000650
  H     -0.643580    3.201910   -3.351530
  H     -1.737040    5.933840   -4.138530
  H     -1.403380    5.417590   -2.502910
  H     -2.673350    4.644790   -3.421080

 Total Charge           Charge          ....    1
 Multiplicity           Mult            ....    1
 Number of Electrons    NEL             ....   26
 Basis Dimension        Dim             ....  183

ORBITAL ENERGIES
----------------

  NO   OCC          E(Eh)            E(eV)
   0   2.0000     -14.435681      -392.8148
   1   2.0000     -10.238743      -278.6104
   2   2.0000     -10.161633      -276.5121
   3   2.0000      -1.156717       -31.4759
   4   2.0000      -0.911620       -24.8064
   5   2.0000      -0.796684       -21.6789
   6   2.0000      -0.759386       -20.6640
   7   2.0000      -0.742058       -20.1924
   8   2.0000      -0.655266       -17.8307
   9   2.0000      -0.603879       -16.4324
  10   2.0000      -0.546221       -14.8634
  11   2.0000      -0.531288       -14.4571
  12   2.0000      -0.517023       -14.0689
  13   0.0000      -0.214013        -5.8236
  14   0.0000      -0.157307        -4.2805
  15   0.0000      -0.152352        -4.1457
  16   0.0000      -0.143134        -3.8949
  17   0.0000      -0.113195        -3.0802

MULLIKEN ATOMIC CHARGES
-----------------------
   0 C :   -0.179205
   1 N :   -0.236277
   2 H :    0.314448
   3 H :    0.320354
   4 H :    0.336690
   5 C :   -0.840532
   6 H :    0.219301
   7 H :    0.224326
   8 H :    0.318166
   9 H :    0.300264
  10 H :    0.222467
Sum of atomic charges:    1.0000000

LOEWDIN ATOMIC CHARGES
----------------------
   0 C :   -0.195165
   1 N :    0.185689
   2 H :    0.178997
   3 H :    0.178327
   4 H :    0.180888
   5 C :   -0.045999
   6 H :    0.133394
   7 H :    0.132433
   8 H :    0.080588
   9 H :    0.080119
  10 H :    0.090731

  Mayer bond orders larger than 0.100000
B(  0-C ,  1-N ) :   0.9902 B(  0-C ,  5-C ) :   0.9466 B(  0-C ,  6-H ) :   0.9277
B(  0-C ,  7-H ) :   0.9200 B(  1-N ,  2-H ) :   0.8746 B(  1-N ,  3-H ) :   0.8770
B(  1-N ,  4-H ) :   0.8574 B(  5-C ,  8-H ) :   0.8992 B(  5-C ,  9-H ) :   0.9252
B(  5-C , 10-H ) :   0.9860

Dispersion correction           -0.007440996
FINAL SINGLE POINT ENERGY      -135.613612588044

DIPOLE MOMENT
-------------
                                X             Y             Z
Electronic contribution:      1.73118      -0.32613      -0.44866
Nuclear contribution   :     -0.23930       0.27560       0.19485
                        -----------------------------------------
Total Dipole Moment    :      1.49188      -0.05053      -0.25380
                        -----------------------------------------
Magnitude (a.u.)       :      1.51416
Magnitude (Debye)      :      3.84869

Rotational constants in cm-1:     1.018556     0.279088     0.248454
Rotational constants in MHz : 30535.536069  8366.847891  7448.451392

                             ****ORCA TERMINATED NORMALLY****
TOTAL RUN TIME: 0 days 0 hours 0 minutes 12 seconds 398 msec
