                         Program Version 5.0.0 -  RELEASE  -
|  1> !TPSS D3BJ RIJCOSX def2-TZVPD def2/J TightSCF xyzfile
|  2>
|  3> *xyzfile 0 1 B.xyz
|  4>
|  5> %MaxCore 64000
|  6>
|  7> %pal nprocs 4
|  8> end
|  9>
| 10> %scf
| 11>   MaxIter 150
| 12> end
| 13>
| 14>
| 15>                          ****END OF INPUT****

CARTESIAN COORDINATES (ANGSTROEM)
---------------------------------
  C     -0.701686    4.072499   -4.003920
  N      0.680528    4.614820   -4.048005
  C      1.444422    5.266576   -0.975463
  O      1.565248    4.233493   -1.864885
  H      0.699926    5.584890   -4.388272
  H      1.278044    4.055977   -4.668235
  H      1.085729    4.533581   -3.106524
  C     -1.703475    5.093197   -3.477396
  H     -0.995895    3.740394   -5.000654
  H     -0.643580    3.201910   -3.351533
  C     -1.313997    5.785995   -2.169271
  H     -1.877057    5.850103   -4.251154
  H     -2.653264    4.564475   -3.354796
  H     -2.097137    6.509395   -1.929558
  H     -0.416875    6.387594   -2.339097
  C     -1.073895    4.844728   -0.979904
  H     -1.968893    4.809608   -0.352568
  C      0.148120    5.210874   -0.138092
  H     -0.909754    3.827531   -1.338975
  H      1.474250    6.264638   -1.476917
  H      2.289622    5.303267   -0.264450
  H      0.261827    4.450942    0.640711
  H     -0.002516    6.171031    0.371483

 Total Charge           Charge          ....    0
 Multiplicity           Mult            ....    1
 Number of Electrons    NEL             ....   66
 Basis Dimension        Dim             ....  434

ORBITAL ENERGIES
----------------

  NO   OCC          E(Eh)            E(eV)
   0   2.0000     -18.756231      -510.3830
   1   2.0000     -14.180908      -385.8821
   2   2.0000     -10.050676      -273.4928
   3   2.0000     -10.006521      -272.2913
   4   2.0000      -9.981933      -271.6222
   5   2.0000      -9.970300      -271.3056
   6   2.0000      -9.960736      -271.0454
   7   2.0000      -9.942173      -270.5403
   8   2.0000      -0.927799       -25.2467
   9   2.0000      -0.827823       -22.5262
  10   2.0000      -0.753292       -20.4981
  11   2.0000      -0.692421       -18.8417
  12   2.0000      -0.642334       -17.4788
  13   2.0000      -0.586639       -15.9632
  14   2.0000      -0.542006       -14.7487
  15   2.0000      -0.526537       -14.3278
  16   2.0000      -0.520778       -14.1711
  17   2.0000      -0.475557       -12.9406
  18   2.0000      -0.449165       -12.2224
  19   2.0000      -0.422858       -11.5066
  20   2.0000      -0.415722       -11.3124
  21   2.0000      -0.379941       -10.3387
  22   2.0000      -0.368356       -10.0235
  23   2.0000      -0.357728        -9.7343
  24   2.0000      -0.337360        -9.1800
  25   2.0000      -0.318216        -8.6591
  26   2.0000      -0.313062        -8.5189
  27   2.0000      -0.293118        -7.9761
  28   2.0000      -0.273014        -7.4291
  29   2.0000      -0.265131        -7.2146
  30   2.0000      -0.258329        -7.0295
  31   2.0000      -0.143400        -3.9021
  32   2.0000      -0.136203        -3.7063
  33   0.0000      -0.036037        -0.9806
  34   0.0000      -0.003676        -0.1000
  35   0.0000       0.002202         0.0599
  36   0.0000       0.017675         0.4810
  37   0.0000       0.031153         0.8477

MULLIKEN ATOMIC CHARGES
-----------------------
   0 C :   -0.478481
   1 N :   -0.082984
   2 C :   -0.248137
   3 O :   -1.032817
   4 H :    0.320953
   5 H :    0.323375
   6 H :    0.120854
   7 C :   -0.145967
   8 H :    0.159059
   9 H :    0.338271
  10 C :   -0.486004
  11 H :    0.156708
  12 H :    0.081553
  13 H :    0.140239
  14 H :    0.277934
  15 C :   -0.149657
  16 H :    0.128301
  17 C :   -0.335084
  18 H :    0.207990
  19 H :    0.262963
  20 H :    0.128731
  21 H :    0.202307
  22 H :    0.109892
Sum of atomic charges:   -0.0000000

LOEWDIN ATOMIC CHARGES
----------------------
   0 C :   -0.171613
   1 N :    0.146041
   2 C :   -0.417868
   3 O :   -0.261937
   4 H :    0.158045
   5 H :    0.157245
   6 H :   -0.042211
   7 C :   -0.186846
   8 H :    0.113043
   9 H :    0.120097
  10 C :   -0.198070
  11 H :    0.105947
  12 H :    0.114746
  13 H :    0.107477
  14 H :    0.088255
  15 C :   -0.207047
  16 H :    0.102015
  17 C :   -0.194662
  18 H :    0.091649
  19 H :    0.083952
  20 H :    0.091774
  21 H :    0.099536
  22 H :    0.100430

  Mayer bond orders larger than 0.100000
B(  0-C ,  1-N ) :   1.0434 B(  0-C ,  7-C ) :   0.9835 B(  0-C ,  8-H ) :   0.9373
B(  0-C ,  9-H ) :   0.8502 B(  0-C , 15-C ) :   0.1496 B(  1-N ,  4-H ) :   0.8292
B(  1-N ,  5-H ) :   0.8612 B(  1-N ,  6-H ) :   0.8407 B(  2-C ,  3-O ) :   0.8510
B(  2-C , 10-C ) :   0.1256 B(  2-C , 17-C ) :   0.9751 B(  2-C , 19-H ) :   0.9252
B(  2-C , 20-H ) :   1.0086 B(  3-O ,  6-H ) :   0.2257 B(  7-C , 10-C ) :   0.9904
B(  7-C , 11-H ) :   0.8874 B(  7-C , 12-H ) :   0.9684 B(  7-C , 15-C ) :   0.1596
B( 10-C , 13-H ) :   0.9317 B( 10-C , 14-H ) :   0.9022 B( 10-C , 15-C ) :   0.9493
B( 10-C , 17-C ) :   0.2635 B( 15-C , 16-H ) :   0.9517 B( 15-C , 17-C ) :   1.0280
B( 15-C , 18-H ) :   0.8526 B( 17-C , 18-H ) :   0.1082 B( 17-C , 21-H ) :   0.8708
B( 17-C , 22-H ) :   1.0020

Dispersion correction           -0.027236152
FINAL SINGLE POINT ENERGY      -367.813227653374

DIPOLE MOMENT
-------------
                                X             Y             Z
Electronic contribution:      2.03122      -1.59104      -1.26249
Nuclear contribution   :     -3.16446       1.92310      -1.11926
                        -----------------------------------------
Total Dipole Moment    :     -1.13324       0.33207      -2.38174
                        -----------------------------------------
Magnitude (a.u.)       :      2.65842
Magnitude (Debye)      :      6.75717

Rotational constants in cm-1:     0.085554     0.055600     0.038553
Rotational constants in MHz :  2564.854379  1666.836664  1155.798427

                             ****ORCA TERMINATED NORMALLY****
TOTAL RUN TIME: 0 days 0 hours 0 minutes 59 seconds 744 msec
