                         Program Version 5.0.0 -  RELEASE  -
|  1> !TPSS D3BJ RIJCOSX def2-TZVPD def2/J TightSCF
|  2> *xyz 0 1
|  3> C          1.44442        5.26658       -0.97546
|  4> F          1.56525        4.23349       -1.86489
|  5> C          0.14812        5.21087       -0.13809
|  6> H          1.47425        6.26464       -1.47692
|  7> H          2.28962        5.30327       -0.26445
|  8> H         -0.69779        5.17417       -0.79230
|  9> H          0.08430        6.08276        0.47887
| 10> H          0.15965        4.33708        0.47938
| 11> *
| 12> %MaxCore 64000
| 13>
| 14> %pal nprocs 4
| 15> end
| 16>
| 17> %scf
| 18>   MaxIter 150
| 19> end
| 20>
| 21>
| 22>                          ****END OF INPUT****

CARTESIAN COORDINATES (ANGSTROEM)
---------------------------------
  C      1.444420    5.266580   -0.975460
  F      1.565250    4.233490   -1.864890
  C      0.148120    5.210870   -0.138090
  H      1.474250    6.264640   -1.476920
  H      2.289620    5.303270   -0.264450
  H     -0.697790    5.174170   -0.792300
  H      0.084300    6.082760    0.478870
  H      0.159650    4.337080    0.479380

 Total Charge           Charge          ....    0
 Multiplicity           Mult            ....    1
 Number of Electrons    NEL             ....   26
 Basis Dimension        Dim             ....  159

ORBITAL ENERGIES
----------------

  NO   OCC          E(Eh)            E(eV)
   0   2.0000     -24.398422      -663.9148
   1   2.0000     -10.062646      -273.8185
   2   2.0000      -9.981515      -271.6108
   3   2.0000      -1.123462       -30.5710
   4   2.0000      -0.708342       -19.2750
   5   2.0000      -0.582611       -15.8537
   6   2.0000      -0.460173       -12.5219
   7   2.0000      -0.445770       -12.1300
   8   2.0000      -0.407429       -11.0867
   9   2.0000      -0.363720        -9.8973
  10   2.0000      -0.361738        -9.8434
  11   2.0000      -0.291498        -7.9321
  12   2.0000      -0.288855        -7.8602
  13   0.0000       0.000590         0.0161
  14   0.0000       0.027893         0.7590
  15   0.0000       0.041224         1.1218
  16   0.0000       0.047372         1.2891
  17   0.0000       0.071969         1.9584

MULLIKEN ATOMIC CHARGES
-----------------------
   0 C :    0.020886
   1 F :   -0.300042
   2 C :   -0.724463
   3 H :    0.163679
   4 H :    0.159653
   5 H :    0.209833
   6 H :    0.260489
   7 H :    0.209965
Sum of atomic charges:    0.0000000

LOEWDIN ATOMIC CHARGES
----------------------
   0 C :   -0.289921
   1 F :   -0.033272
   2 C :   -0.075282
   3 H :    0.109864
   4 H :    0.104701
   5 H :    0.060749
   6 H :    0.063246
   7 H :    0.059914

  Mayer bond orders larger than 0.100000
B(  0-C ,  1-F ) :   0.7846 B(  0-C ,  2-C ) :   0.9970 B(  0-C ,  3-H ) :   0.9578
B(  0-C ,  4-H ) :   0.9639 B(  1-F ,  2-C ) :   0.1023 B(  2-C ,  5-H ) :   0.9605
B(  2-C ,  6-H ) :   0.9238 B(  2-C ,  7-H ) :   0.9578

Dispersion correction           -0.004196010
FINAL SINGLE POINT ENERGY      -179.158534717058

DIPOLE MOMENT
-------------
                                X             Y             Z
Electronic contribution:      2.30387      -2.77197      -3.72469
Nuclear contribution   :     -2.43357       3.25919       4.19687
                        -----------------------------------------
Total Dipole Moment    :     -0.12970       0.48722       0.47218
                        -----------------------------------------
Magnitude (a.u.)       :      0.69077
Magnitude (Debye)      :      1.75580

Rotational constants in cm-1:     1.264662     0.300144     0.266170
Rotational constants in MHz : 37913.611527  8998.095216  7979.576054

                             ****ORCA TERMINATED NORMALLY****
TOTAL RUN TIME: 0 days 0 hours 0 minutes 10 seconds 478 msec
