                         Program Version 5.0.0 -  RELEASE  -
|  1> !TPSS D3BJ RIJCOSX def2-TZVPD def2/J TightSCF
|  2> *xyz 0 1
|  3> C         -0.70169        4.07250       -4.00392
|  4> C          0.68053        4.61482       -4.04800
|  5> H          0.69993        5.58489       -4.38827
|  6> H          1.27804        4.05598       -4.66824
|  7> H          1.08573        4.53358       -3.10652
|  8> C         -1.70347        5.09320       -3.47740
|  9> H         -0.99590        3.74039       -5.00065
| 10> H         -0.64358        3.20191       -3.35153
| 11> H         -1.73704        5.93384       -4.13853
| 12> H         -1.40338        5.41759       -2.50291
| 13> H         -2.67335        4.64479       -3.42108
| 14> *
| 15> %MaxCore 64000
| 16>
| 17> %pal nprocs 4
| 18> end
| 19>
| 20> %scf
| 21>   MaxIter 150
| 22> end
| 23>
| 24>
| 25>                          ****END OF INPUT****

CARTESIAN COORDINATES (ANGSTROEM)
---------------------------------
  C     -0.701690    4.072500   -4.003920
  C      0.680530    4.614820   -4.048000
  H      0.699930    5.584890   -4.388270
  H      1.278040    4.055980   -4.668240
  H      1.085730    4.533580   -3.106520
  C     -1.703470    5.093200   -3.477400
  H     -0.995900    3.740390   -5.000650
  H     -0.643580    3.201910   -3.351530
  H     -1.737040    5.933840   -4.138530
  H     -1.403380    5.417590   -2.502910
  H     -2.673350    4.644790   -3.421080

 Total Charge           Charge          ....    0
 Multiplicity           Mult            ....    1
 Number of Electrons    NEL             ....   26
 Basis Dimension        Dim             ....  183

ORBITAL ENERGIES
----------------

  NO   OCC          E(Eh)            E(eV)
   0   2.0000      -9.970141      -271.3013
   1   2.0000      -9.963129      -271.1105
   2   2.0000      -9.944575      -270.6056
   3   2.0000      -0.734144       -19.9771
   4   2.0000      -0.638704       -17.3800
   5   2.0000      -0.537793       -14.6341
   6   2.0000      -0.427577       -11.6350
   7   2.0000      -0.403291       -10.9741
   8   2.0000      -0.362934        -9.8759
   9   2.0000      -0.353797        -9.6273
  10   2.0000      -0.299093        -8.1387
  11   2.0000      -0.297651        -8.0995
  12   2.0000      -0.291382        -7.9289
  13   0.0000       0.004356         0.1185
  14   0.0000       0.029547         0.8040
  15   0.0000       0.032820         0.8931
  16   0.0000       0.049346         1.3428
  17   0.0000       0.072013         1.9596

MULLIKEN ATOMIC CHARGES
-----------------------
   0 C :    0.132825
   1 C :   -1.012122
   2 H :    0.266048
   3 H :    0.244225
   4 H :    0.269485
   5 C :   -0.903614
   6 H :    0.141825
   7 H :    0.135336
   8 H :    0.261966
   9 H :    0.254965
  10 H :    0.209061
Sum of atomic charges:   -0.0000000

LOEWDIN ATOMIC CHARGES
----------------------
   0 C :   -0.309440
   1 C :   -0.121059
   2 H :    0.052673
   3 H :    0.048841
   4 H :    0.054099
   5 C :   -0.108462
   6 H :    0.099239
   7 H :    0.099575
   8 H :    0.063041
   9 H :    0.063991
  10 H :    0.057502

  Mayer bond orders larger than 0.100000
B(  0-C ,  1-C ) :   0.8552 B(  0-C ,  5-C ) :   0.8110 B(  0-C ,  6-H ) :   0.9561
B(  0-C ,  7-H ) :   0.9485 B(  1-C ,  2-H ) :   0.9518 B(  1-C ,  3-H ) :   0.9783
B(  1-C ,  4-H ) :   0.9563 B(  1-C ,  5-C ) :   0.1910 B(  5-C ,  8-H ) :   0.9596
B(  5-C ,  9-H ) :   0.9657 B(  5-C , 10-H ) :   0.9942

Dispersion correction           -0.007465617
FINAL SINGLE POINT ENERGY      -119.197505772237

DIPOLE MOMENT
-------------
                                X             Y             Z
Electronic contribution:     -0.13656      -0.30835      -0.13734
Nuclear contribution   :      0.16058       0.27975       0.12812
                        -----------------------------------------
Total Dipole Moment    :      0.02401      -0.02860      -0.00922
                        -----------------------------------------
Magnitude (a.u.)       :      0.03846
Magnitude (Debye)      :      0.09777

Rotational constants in cm-1:     1.027122     0.293327     0.260229
Rotational constants in MHz : 30792.337141  8793.723318  7801.458329

                             ****ORCA TERMINATED NORMALLY****
TOTAL RUN TIME: 0 days 0 hours 0 minutes 13 seconds 677 msec
