                         Program Version 5.0.0 -  RELEASE  -
|  1> !TPSS D3BJ RIJCOSX def2-TZVPD def2/J TightSCF xyzfile
|  2>
|  3> *xyzfile 0 1 D.xyz
|  4>
|  5> %MaxCore 64000
|  6>
|  7> %pal nprocs 4
|  8> end
|  9>
| 10> %scf
| 11>   MaxIter 150
| 12> end
| 13>
| 14>
| 15>                          ****END OF INPUT****

CARTESIAN COORDINATES (ANGSTROEM)
---------------------------------
  C     -0.701686    4.072499   -4.003920
  C      0.680528    4.614820   -4.048005
  C      1.444422    5.266576   -0.975463
  F      1.565248    4.233493   -1.864885
  H      0.699926    5.584890   -4.388272
  H      1.278044    4.055977   -4.668235
  H      1.085729    4.533581   -3.106524
  C     -1.703475    5.093197   -3.477396
  H     -0.995895    3.740394   -5.000654
  H     -0.643580    3.201910   -3.351533
  C     -1.313997    5.785995   -2.169271
  H     -1.877057    5.850103   -4.251154
  H     -2.653264    4.564475   -3.354796
  H     -2.097137    6.509395   -1.929558
  H     -0.416875    6.387594   -2.339097
  C     -1.073895    4.844728   -0.979904
  H     -1.968893    4.809608   -0.352568
  C      0.148120    5.210874   -0.138092
  H     -0.909754    3.827531   -1.338975
  H      1.474250    6.264638   -1.476917
  H      2.289622    5.303267   -0.264450
  H      0.261827    4.450942    0.640711
  H     -0.002516    6.171031    0.371483

 Total Charge           Charge          ....    0
 Multiplicity           Mult            ....    1
 Number of Electrons    NEL             ....   66
 Basis Dimension        Dim             ....  434

ORBITAL ENERGIES
----------------

  NO   OCC          E(Eh)            E(eV)
   0   2.0000     -24.417282      -664.4280
   1   2.0000     -10.069795      -274.0131
   2   2.0000      -9.994800      -271.9723
   3   2.0000      -9.981229      -271.6030
   4   2.0000      -9.974895      -271.4307
   5   2.0000      -9.967914      -271.2407
   6   2.0000      -9.955235      -270.8957
   7   2.0000      -9.902878      -269.4710
   8   2.0000      -1.155569       -31.4446
   9   2.0000      -0.755620       -20.5615
  10   2.0000      -0.726470       -19.7683
  11   2.0000      -0.669518       -18.2185
  12   2.0000      -0.637540       -17.3483
  13   2.0000      -0.580808       -15.8046
  14   2.0000      -0.547773       -14.9057
  15   2.0000      -0.497522       -13.5383
  16   2.0000      -0.486783       -13.2460
  17   2.0000      -0.469967       -12.7885
  18   2.0000      -0.444559       -12.0971
  19   2.0000      -0.415649       -11.3104
  20   2.0000      -0.407711       -11.0944
  21   2.0000      -0.387875       -10.5546
  22   2.0000      -0.371540       -10.1101
  23   2.0000      -0.348909        -9.4943
  24   2.0000      -0.343057        -9.3350
  25   2.0000      -0.329872        -8.9763
  26   2.0000      -0.319070        -8.6823
  27   2.0000      -0.305019        -8.3000
  28   2.0000      -0.291886        -7.9426
  29   2.0000      -0.278398        -7.5756
  30   2.0000      -0.268494        -7.3061
  31   2.0000      -0.266485        -7.2514
  32   2.0000      -0.239698        -6.5225
  33   0.0000      -0.003786        -0.1030
  34   0.0000       0.008551         0.2327
  35   0.0000       0.013572         0.3693
  36   0.0000       0.021545         0.5863
  37   0.0000       0.035071         0.9543

MULLIKEN ATOMIC CHARGES
-----------------------
   0 C :   -0.154403
   1 C :   -0.772793
   2 C :   -0.178454
   3 F :   -0.342192
   4 H :    0.303802
   5 H :    0.212338
   6 H :    0.068849
   7 C :   -0.240033
   8 H :    0.040630
   9 H :    0.270953
  10 C :   -0.461917
  11 H :    0.160366
  12 H :    0.071792
  13 H :    0.145240
  14 H :    0.280165
  15 C :   -0.271518
  16 H :    0.131216
  17 C :   -0.286898
  18 H :    0.262072
  19 H :    0.332190
  20 H :    0.126329
  21 H :    0.192399
  22 H :    0.109869
Sum of atomic charges:    0.0000000

LOEWDIN ATOMIC CHARGES
----------------------
   0 C :   -0.247983
   1 C :   -0.102223
   2 C :   -0.207033
   3 F :   -0.021517
   4 H :    0.062498
   5 H :    0.057380
   6 H :   -0.037578
   7 C :   -0.206764
   8 H :    0.101668
   9 H :    0.098120
  10 C :   -0.198799
  11 H :    0.107825
  12 H :    0.103471
  13 H :    0.105019
  14 H :    0.089726
  15 C :   -0.195736
  16 H :    0.108215
  17 C :   -0.170320
  18 H :    0.098220
  19 H :    0.120976
  20 H :    0.116217
  21 H :    0.103663
  22 H :    0.114956

  Mayer bond orders larger than 0.100000
B(  0-C ,  1-C ) :   0.7423 B(  0-C ,  7-C ) :   1.0048 B(  0-C ,  8-H ) :   1.0144
B(  0-C ,  9-H ) :   0.8580 B(  0-C , 15-C ) :   0.1625 B(  1-C ,  2-C ) :   0.1120
B(  1-C ,  3-F ) :   0.1187 B(  1-C ,  4-H ) :   0.9181 B(  1-C ,  5-H ) :   0.8715
B(  1-C ,  6-H ) :   1.3025 B(  1-C ,  7-C ) :   0.1540 B(  1-C , 10-C ) :   0.1555
B(  2-C ,  3-F ) :   0.7182 B(  2-C , 10-C ) :   0.1753 B(  2-C , 17-C ) :   1.0728
B(  2-C , 19-H ) :   0.8649 B(  2-C , 20-H ) :   0.9665 B(  3-F ,  6-H ) :  -0.2199
B(  5-H ,  6-H ) :   0.1500 B(  7-C , 10-C ) :   1.0938 B(  7-C , 11-H ) :   0.8813
B(  7-C , 12-H ) :   0.9438 B(  7-C , 15-C ) :   0.1603 B( 10-C , 13-H ) :   0.9117
B( 10-C , 14-H ) :   0.9039 B( 10-C , 15-C ) :   0.9327 B( 10-C , 17-C ) :   0.2011
B( 15-C , 16-H ) :   0.9527 B( 15-C , 17-C ) :   1.0018 B( 15-C , 18-H ) :   0.8971
B( 17-C , 21-H ) :   0.8782 B( 17-C , 22-H ) :   0.9731

Dispersion correction           -0.026490199
FINAL SINGLE POINT ENERGY      -375.778300687450

DIPOLE MOMENT
-------------
                                X             Y             Z
Electronic contribution:      5.12903      -2.29418       2.75016
Nuclear contribution   :     -5.08831       2.68947      -1.99048
                        -----------------------------------------
Total Dipole Moment    :      0.04072       0.39530       0.75969
                        -----------------------------------------
Magnitude (a.u.)       :      0.85735
Magnitude (Debye)      :      2.17920

Rotational constants in cm-1:     0.084646     0.055672     0.038419
Rotational constants in MHz :  2537.625105  1668.992890  1151.781380

                             ****ORCA TERMINATED NORMALLY****
TOTAL RUN TIME: 0 days 0 hours 0 minutes 58 seconds 492 msec
