                         Program Version 5.0.0 -  RELEASE  -
|  1> !LC-PBE RIJCOSX def2-TZVP def2/J TightSCF
|  2> *xyz -1 1
|  3> C          1.44442        5.26658       -0.97546
|  4> O          1.56525        4.23349       -1.86489
|  5> C          0.14812        5.21087       -0.13809
|  6> H          1.47425        6.26464       -1.47692
|  7> H          2.28962        5.30327       -0.26445
|  8> H         -0.69779        5.17417       -0.79230
|  9> H          0.08430        6.08276        0.47887
| 10> H          0.15965        4.33708        0.47938
| 11> *
| 12> %MaxCore 64000
| 13>
| 14> %pal nprocs 4
| 15> end
| 16>
| 17> %scf
| 18>   MaxIter 150
| 19> end
| 20>
| 21>
| 22>                          ****END OF INPUT****

CARTESIAN COORDINATES (ANGSTROEM)
---------------------------------
  C      1.444420    5.266580   -0.975460
  O      1.565250    4.233490   -1.864890
  C      0.148120    5.210870   -0.138090
  H      1.474250    6.264640   -1.476920
  H      2.289620    5.303270   -0.264450
  H     -0.697790    5.174170   -0.792300
  H      0.084300    6.082760    0.478870
  H      0.159650    4.337080    0.479380

 Total Charge           Charge          ....   -1
 Multiplicity           Mult            ....    1
 Number of Electrons    NEL             ....   26
 Basis Dimension        Dim             ....  123

ORBITAL ENERGIES
----------------

  NO   OCC          E(Eh)            E(eV)
   0   2.0000     -18.611012      -506.4314
   1   2.0000      -9.918469      -269.8953
   2   2.0000      -9.897933      -269.3365
   3   2.0000      -0.828941       -22.5566
   4   2.0000      -0.688444       -18.7335
   5   2.0000      -0.521113       -14.1802
   6   2.0000      -0.387525       -10.5451
   7   2.0000      -0.361648        -9.8410
   8   2.0000      -0.301491        -8.2040
   9   2.0000      -0.281017        -7.6468
  10   2.0000      -0.230251        -6.2654
  11   2.0000      -0.080087        -2.1793
  12   2.0000      -0.076570        -2.0836
  13   0.0000       0.297594         8.0980
  14   0.0000       0.335913         9.1407
  15   0.0000       0.360726         9.8159
  16   0.0000       0.365865         9.9557
  17   0.0000       0.398302        10.8384

MULLIKEN ATOMIC CHARGES
-----------------------
   0 C :   -0.017560
   1 O :   -0.782993
   2 C :   -0.307861
   3 H :   -0.037427
   4 H :   -0.033039
   5 H :    0.075271
   6 H :    0.029968
   7 H :    0.073642
Sum of atomic charges:   -1.0000000

LOEWDIN ATOMIC CHARGES
----------------------
   0 C :   -0.577259
   1 O :   -0.449195
   2 C :   -0.383474
   3 H :    0.062952
   4 H :    0.064574
   5 H :    0.098478
   6 H :    0.086355
   7 H :    0.097569

  Mayer bond orders larger than 0.100000
B(  0-C ,  1-O ) :   1.5773 B(  0-C ,  2-C ) :   0.9018 B(  0-C ,  3-H ) :   0.9485
B(  0-C ,  4-H ) :   0.9469 B(  1-O ,  2-C ) :  -0.1429 B(  2-C ,  5-H ) :   0.9751
B(  2-C ,  6-H ) :   0.9558 B(  2-C ,  7-H ) :   0.9780

FINAL SINGLE POINT ENERGY      -154.002660265854

DIPOLE MOMENT
-------------
                                X             Y             Z
Electronic contribution:      1.13931      -1.63277      -2.03094
Nuclear contribution   :     -1.83256       2.47114       3.17273
                        -----------------------------------------
Total Dipole Moment    :     -0.69325       0.83837       1.14179
                        -----------------------------------------
Magnitude (a.u.)       :      1.57707
Magnitude (Debye)      :      4.00860

Rotational constants in cm-1:     1.286062     0.322579     0.284728
Rotational constants in MHz : 38555.180127  9670.683110  8535.939140

                             ****ORCA TERMINATED NORMALLY****
TOTAL RUN TIME: 0 days 0 hours 0 minutes 10 seconds 224 msec
