                         Program Version 5.0.0 -  RELEASE  -
|  1> !LC-PBE RIJCOSX def2-TZVP def2/J TightSCF
|  2> *xyz 1 1
|  3> C         -0.70169        4.07250       -4.00392
|  4> N          0.68053        4.61482       -4.04800
|  5> H          0.69993        5.58489       -4.38827
|  6> H          1.27804        4.05598       -4.66824
|  7> H          1.08573        4.53358       -3.10652
|  8> C         -1.70347        5.09320       -3.47740
|  9> H         -0.99590        3.74039       -5.00065
| 10> H         -0.64358        3.20191       -3.35153
| 11> H         -1.73704        5.93384       -4.13853
| 12> H         -1.40338        5.41759       -2.50291
| 13> H         -2.67335        4.64479       -3.42108
| 14> *
| 15> %MaxCore 64000
| 16>
| 17> %pal nprocs 4
| 18> end
| 19>
| 20> %scf
| 21>   MaxIter 150
| 22> end
| 23>
| 24>
| 25>                          ****END OF INPUT****

CARTESIAN COORDINATES (ANGSTROEM)
---------------------------------
  C     -0.701690    4.072500   -4.003920
  N      0.680530    4.614820   -4.048000
  H      0.699930    5.584890   -4.388270
  H      1.278040    4.055980   -4.668240
  H      1.085730    4.533580   -3.106520
  C     -1.703470    5.093200   -3.477400
  H     -0.995900    3.740390   -5.000650
  H     -0.643580    3.201910   -3.351530
  H     -1.737040    5.933840   -4.138530
  H     -1.403380    5.417590   -2.502910
  H     -2.673350    4.644790   -3.421080

 Total Charge           Charge          ....    1
 Multiplicity           Mult            ....    1
 Number of Electrons    NEL             ....   26
 Basis Dimension        Dim             ....  141

ORBITAL ENERGIES
----------------

  NO   OCC          E(Eh)            E(eV)
   0   2.0000     -14.550528      -395.9400
   1   2.0000     -10.369460      -282.1674
   2   2.0000     -10.286847      -279.9193
   3   2.0000      -1.392251       -37.8851
   4   2.0000      -1.139821       -31.0161
   5   2.0000      -1.007265       -27.4091
   6   2.0000      -0.953876       -25.9563
   7   2.0000      -0.934362       -25.4253
   8   2.0000      -0.839286       -22.8381
   9   2.0000      -0.784477       -21.3467
  10   2.0000      -0.717793       -19.5321
  11   2.0000      -0.700160       -19.0523
  12   2.0000      -0.680510       -18.5176
  13   0.0000      -0.105519        -2.8713
  14   0.0000      -0.046082        -1.2540
  15   0.0000      -0.040146        -1.0924
  16   0.0000      -0.021927        -0.5967
  17   0.0000       0.015618         0.4250

MULLIKEN ATOMIC CHARGES
-----------------------
   0 C :   -0.288497
   1 N :   -0.307826
   2 H :    0.345906
   3 H :    0.350003
   4 H :    0.350548
   5 C :   -0.460283
   6 H :    0.220057
   7 H :    0.217375
   8 H :    0.184780
   9 H :    0.177985
  10 H :    0.209951
Sum of atomic charges:    1.0000000

LOEWDIN ATOMIC CHARGES
----------------------
   0 C :   -0.300657
   1 N :    0.162072
   2 H :    0.228746
   3 H :    0.229099
   4 H :    0.232350
   5 C :   -0.299683
   6 H :    0.160436
   7 H :    0.159059
   8 H :    0.137531
   9 H :    0.136956
  10 H :    0.154092

  Mayer bond orders larger than 0.100000
B(  0-C ,  1-N ) :   0.8689 B(  0-C ,  5-C ) :   0.9820 B(  0-C ,  6-H ) :   0.9498
B(  0-C ,  7-H ) :   0.9521 B(  1-N ,  2-H ) :   0.8651 B(  1-N ,  3-H ) :   0.8707
B(  1-N ,  4-H ) :   0.8694 B(  5-C ,  8-H ) :   0.9537 B(  5-C ,  9-H ) :   0.9527
B(  5-C , 10-H ) :   0.9537

FINAL SINGLE POINT ENERGY      -135.129452302017

DIPOLE MOMENT
-------------
                                X             Y             Z
Electronic contribution:      1.79786      -0.33344      -0.46254
Nuclear contribution   :     -0.23930       0.27560       0.19485
                        -----------------------------------------
Total Dipole Moment    :      1.55856      -0.05784      -0.26768
                        -----------------------------------------
Magnitude (a.u.)       :      1.58244
Magnitude (Debye)      :      4.02224

Rotational constants in cm-1:     1.018556     0.279088     0.248454
Rotational constants in MHz : 30535.536069  8366.847891  7448.451392

                             ****ORCA TERMINATED NORMALLY****
TOTAL RUN TIME: 0 days 0 hours 0 minutes 11 seconds 489 msec
