                         Program Version 5.0.0 -  RELEASE  -
|  1> !LC-PBE RIJCOSX def2-TZVP def2/J TightSCF xyzfile
|  2>
|  3> *xyzfile 0 1 B.xyz
|  4>
|  5> %MaxCore 64000
|  6>
|  7> %pal nprocs 18
|  8> end
|  9>
| 10> %scf
| 11>   MaxIter 150
| 12> end
| 13>
| 14>
| 15>                          ****END OF INPUT****

CARTESIAN COORDINATES (ANGSTROEM)
---------------------------------
  C     -0.701686    4.072499   -4.003920
  N      0.680528    4.614820   -4.048005
  C      1.444422    5.266576   -0.975463
  O      1.565248    4.233493   -1.864885
  H      0.699926    5.584890   -4.388272
  H      1.278044    4.055977   -4.668235
  H      1.085729    4.533581   -3.106524
  C     -1.703475    5.093197   -3.477396
  H     -0.995895    3.740394   -5.000654
  H     -0.643580    3.201910   -3.351533
  C     -1.313997    5.785995   -2.169271
  H     -1.877057    5.850103   -4.251154
  H     -2.653264    4.564475   -3.354796
  H     -2.097137    6.509395   -1.929558
  H     -0.416875    6.387594   -2.339097
  C     -1.073895    4.844728   -0.979904
  H     -1.968893    4.809608   -0.352568
  C      0.148120    5.210874   -0.138092
  H     -0.909754    3.827531   -1.338975
  H      1.474250    6.264638   -1.476917
  H      2.289622    5.303267   -0.264450
  H      0.261827    4.450942    0.640711
  H     -0.002516    6.171031    0.371483

 Total Charge           Charge          ....    0
 Multiplicity           Mult            ....    1
 Number of Electrons    NEL             ....   66
 Basis Dimension        Dim             ....  338

ORBITAL ENERGIES
----------------

  NO   OCC          E(Eh)            E(eV)
   0   2.0000     -18.835982      -512.5531
   1   2.0000     -14.292951      -388.9310
   2   2.0000     -10.181087      -277.0415
   3   2.0000     -10.135875      -275.8112
   4   2.0000     -10.110623      -275.1240
   5   2.0000     -10.096347      -274.7356
   6   2.0000     -10.088394      -274.5192
   7   2.0000     -10.069548      -274.0063
   8   2.0000      -1.163396       -31.6576
   9   2.0000      -1.054111       -28.6838
  10   2.0000      -0.989856       -26.9353
  11   2.0000      -0.920428       -25.0461
  12   2.0000      -0.863646       -23.5010
  13   2.0000      -0.799777       -21.7631
  14   2.0000      -0.748310       -20.3625
  15   2.0000      -0.720027       -19.5929
  16   2.0000      -0.717731       -19.5305
  17   2.0000      -0.673049       -18.3146
  18   2.0000      -0.632854       -17.2208
  19   2.0000      -0.609354       -16.5814
  20   2.0000      -0.601525       -16.3683
  21   2.0000      -0.558949       -15.2098
  22   2.0000      -0.546789       -14.8789
  23   2.0000      -0.528980       -14.3943
  24   2.0000      -0.510066       -13.8796
  25   2.0000      -0.487396       -13.2627
  26   2.0000      -0.480697       -13.0804
  27   2.0000      -0.460235       -12.5236
  28   2.0000      -0.435685       -11.8556
  29   2.0000      -0.427471       -11.6321
  30   2.0000      -0.417383       -11.3576
  31   2.0000      -0.302798        -8.2395
  32   2.0000      -0.300476        -8.1764
  33   0.0000       0.078510         2.1364
  34   0.0000       0.119154         3.2423
  35   0.0000       0.125368         3.4114
  36   0.0000       0.145041         3.9468
  37   0.0000       0.155003         4.2179

MULLIKEN ATOMIC CHARGES
-----------------------
   0 C :   -0.309287
   1 N :   -0.311586
   2 C :   -0.157089
   3 O :   -0.680920
   4 H :    0.283991
   5 H :    0.292850
   6 H :    0.302467
   7 C :   -0.314692
   8 H :    0.172405
   9 H :    0.222222
  10 C :   -0.330671
  11 H :    0.163072
  12 H :    0.162650
  13 H :    0.154383
  14 H :    0.145943
  15 C :   -0.265300
  16 H :    0.137001
  17 C :   -0.204013
  18 H :    0.141566
  19 H :    0.070819
  20 H :    0.091174
  21 H :    0.121057
  22 H :    0.111959
Sum of atomic charges:   -0.0000000

LOEWDIN ATOMIC CHARGES
----------------------
   0 C :   -0.301198
   1 N :    0.134060
   2 C :   -0.504242
   3 O :   -0.278981
   4 H :    0.196792
   5 H :    0.199760
   6 H :    0.084642
   7 C :   -0.295541
   8 H :    0.137722
   9 H :    0.153822
  10 C :   -0.281919
  11 H :    0.144316
  12 H :    0.156049
  13 H :    0.144987
  14 H :    0.142753
  15 C :   -0.291065
  16 H :    0.137384
  17 C :   -0.303420
  18 H :    0.146523
  19 H :    0.091005
  20 H :    0.113304
  21 H :    0.139175
  22 H :    0.134073

  Mayer bond orders larger than 0.100000
B(  0-C ,  1-N ) :   0.8681 B(  0-C ,  7-C ) :   0.9556 B(  0-C ,  8-H ) :   0.9731
B(  0-C ,  9-H ) :   0.9700 B(  1-N ,  4-H ) :   0.8973 B(  1-N ,  5-H ) :   0.9034
B(  1-N ,  6-H ) :   0.6164 B(  2-C ,  3-O ) :   1.2051 B(  2-C , 17-C ) :   0.9004
B(  2-C , 19-H ) :   1.0019 B(  2-C , 20-H ) :   0.9836 B(  3-O ,  6-H ) :   0.4372
B(  7-C , 10-C ) :   0.9266 B(  7-C , 11-H ) :   0.9859 B(  7-C , 12-H ) :   0.9702
B( 10-C , 13-H ) :   0.9770 B( 10-C , 14-H ) :   0.9842 B( 10-C , 15-C ) :   0.8890
B( 15-C , 16-H ) :   0.9721 B( 15-C , 17-C ) :   0.9562 B( 15-C , 18-H ) :   0.9720
B( 17-C , 21-H ) :   0.9673 B( 17-C , 22-H ) :   0.9708

FINAL SINGLE POINT ENERGY      -366.546161939421

DIPOLE MOMENT
-------------
                                X             Y             Z
Electronic contribution:      1.99433      -1.52036      -1.32729
Nuclear contribution   :     -3.16446       1.92310      -1.11926
                        -----------------------------------------
Total Dipole Moment    :     -1.17014       0.40275      -2.44655
                        -----------------------------------------
Magnitude (a.u.)       :      2.74172
Magnitude (Debye)      :      6.96889

Rotational constants in cm-1:     0.085554     0.055600     0.038553
Rotational constants in MHz :  2564.854379  1666.836664  1155.798427

                             ****ORCA TERMINATED NORMALLY****
TOTAL RUN TIME: 0 days 0 hours 0 minutes 23 seconds 592 msec
