                         Program Version 5.0.0 -  RELEASE  -
|  1> !LC-PBE RIJCOSX def2-TZVP def2/J TightSCF
|  2> *xyz 0 1
|  3> C          1.44442        5.26658       -0.97546
|  4> F          1.56525        4.23349       -1.86489
|  5> C          0.14812        5.21087       -0.13809
|  6> H          1.47425        6.26464       -1.47692
|  7> H          2.28962        5.30327       -0.26445
|  8> H         -0.69779        5.17417       -0.79230
|  9> H          0.08430        6.08276        0.47887
| 10> H          0.15965        4.33708        0.47938
| 11> *
| 12> %MaxCore 64000
| 13>
| 14> %pal nprocs 4
| 15> end
| 16>
| 17> %scf
| 18>   MaxIter 150
| 19> end
| 20>
| 21>
| 22>                          ****END OF INPUT****

CARTESIAN COORDINATES (ANGSTROEM)
---------------------------------
  C      1.444420    5.266580   -0.975460
  F      1.565250    4.233490   -1.864890
  C      0.148120    5.210870   -0.138090
  H      1.474250    6.264640   -1.476920
  H      2.289620    5.303270   -0.264450
  H     -0.697790    5.174170   -0.792300
  H      0.084300    6.082760    0.478870
  H      0.159650    4.337080    0.479380

 Total Charge           Charge          ....    0
 Multiplicity           Mult            ....    1
 Number of Electrons    NEL             ....   26
 Basis Dimension        Dim             ....  123

ORBITAL ENERGIES
----------------

  NO   OCC          E(Eh)            E(eV)
   0   2.0000     -24.473285      -665.9519
   1   2.0000     -10.195055      -277.4215
   2   2.0000     -10.109036      -275.0808
   3   2.0000      -1.353268       -36.8243
   4   2.0000      -0.939437       -25.5634
   5   2.0000      -0.794494       -21.6193
   6   2.0000      -0.656223       -17.8567
   7   2.0000      -0.646508       -17.5924
   8   2.0000      -0.605451       -16.4752
   9   2.0000      -0.545956       -14.8562
  10   2.0000      -0.537285       -14.6203
  11   2.0000      -0.469075       -12.7642
  12   2.0000      -0.459958       -12.5161
  13   0.0000       0.125830         3.4240
  14   0.0000       0.164961         4.4888
  15   0.0000       0.185117         5.0373
  16   0.0000       0.192584         5.2405
  17   0.0000       0.201322         5.4782

MULLIKEN ATOMIC CHARGES
-----------------------
   0 C :   -0.039957
   1 F :   -0.211175
   2 C :   -0.426314
   3 H :    0.117898
   4 H :    0.117854
   5 H :    0.150246
   6 H :    0.142845
   7 H :    0.148603
Sum of atomic charges:   -0.0000000

LOEWDIN ATOMIC CHARGES
----------------------
   0 C :   -0.394754
   1 F :    0.101165
   2 C :   -0.330991
   3 H :    0.125456
   4 H :    0.123426
   5 H :    0.124370
   6 H :    0.128016
   7 H :    0.123312

  Mayer bond orders larger than 0.100000
B(  0-C ,  1-F ) :   1.0185 B(  0-C ,  2-C ) :   0.9826 B(  0-C ,  3-H ) :   0.9738
B(  0-C ,  4-H ) :   0.9731 B(  2-C ,  5-H ) :   0.9669 B(  2-C ,  6-H ) :   0.9578
B(  2-C ,  7-H ) :   0.9682

FINAL SINGLE POINT ENERGY      -178.630972626081

DIPOLE MOMENT
-------------
                                X             Y             Z
Electronic contribution:      2.30059      -2.71998      -3.68289
Nuclear contribution   :     -2.43357       3.25919       4.19687
                        -----------------------------------------
Total Dipole Moment    :     -0.13298       0.53921       0.51398
                        -----------------------------------------
Magnitude (a.u.)       :      0.75671
Magnitude (Debye)      :      1.92341

Rotational constants in cm-1:     1.264662     0.300144     0.266170
Rotational constants in MHz : 37913.611527  8998.095216  7979.576054

                             ****ORCA TERMINATED NORMALLY****
TOTAL RUN TIME: 0 days 0 hours 0 minutes 9 seconds 205 msec
