                         Program Version 5.0.0 -  RELEASE  -
|  1> !LC-PBE RIJCOSX def2-TZVP def2/J TightSCF
|  2> *xyz 0 1
|  3> C         -0.70169        4.07250       -4.00392
|  4> C          0.68053        4.61482       -4.04800
|  5> H          0.69993        5.58489       -4.38827
|  6> H          1.27804        4.05598       -4.66824
|  7> H          1.08573        4.53358       -3.10652
|  8> C         -1.70347        5.09320       -3.47740
|  9> H         -0.99590        3.74039       -5.00065
| 10> H         -0.64358        3.20191       -3.35153
| 11> H         -1.73704        5.93384       -4.13853
| 12> H         -1.40338        5.41759       -2.50291
| 13> H         -2.67335        4.64479       -3.42108
| 14> *
| 15> %MaxCore 64000
| 16>
| 17> %pal nprocs 4
| 18> end
| 19>
| 20> %scf
| 21>   MaxIter 150
| 22> end
| 23>
| 24>
| 25>                          ****END OF INPUT****

CARTESIAN COORDINATES (ANGSTROEM)
---------------------------------
  C     -0.701690    4.072500   -4.003920
  C      0.680530    4.614820   -4.048000
  H      0.699930    5.584890   -4.388270
  H      1.278040    4.055980   -4.668240
  H      1.085730    4.533580   -3.106520
  C     -1.703470    5.093200   -3.477400
  H     -0.995900    3.740390   -5.000650
  H     -0.643580    3.201910   -3.351530
  H     -1.737040    5.933840   -4.138530
  H     -1.403380    5.417590   -2.502910
  H     -2.673350    4.644790   -3.421080

 Total Charge           Charge          ....    0
 Multiplicity           Mult            ....    1
 Number of Electrons    NEL             ....   26
 Basis Dimension        Dim             ....  141

ORBITAL ENERGIES
----------------

  NO   OCC          E(Eh)            E(eV)
   0   2.0000     -10.099981      -274.8345
   1   2.0000     -10.089647      -274.5532
   2   2.0000     -10.070929      -274.0439
   3   2.0000      -0.972008       -26.4497
   4   2.0000      -0.860346       -23.4112
   5   2.0000      -0.744219       -20.2512
   6   2.0000      -0.617822       -16.8118
   7   2.0000      -0.589922       -16.0526
   8   2.0000      -0.540560       -14.7094
   9   2.0000      -0.527325       -14.3492
  10   2.0000      -0.466419       -12.6919
  11   2.0000      -0.462191       -12.5769
  12   2.0000      -0.452157       -12.3038
  13   0.0000       0.124220         3.3802
  14   0.0000       0.167456         4.5567
  15   0.0000       0.174403         4.7457
  16   0.0000       0.179712         4.8902
  17   0.0000       0.199712         5.4345

MULLIKEN ATOMIC CHARGES
-----------------------
   0 C :   -0.224631
   1 C :   -0.422264
   2 H :    0.133716
   3 H :    0.142133
   4 H :    0.141242
   5 C :   -0.432623
   6 H :    0.121280
   7 H :    0.119714
   8 H :    0.141300
   9 H :    0.137721
  10 H :    0.142411
Sum of atomic charges:    0.0000000

LOEWDIN ATOMIC CHARGES
----------------------
   0 C :   -0.340724
   1 C :   -0.325511
   2 H :    0.115310
   3 H :    0.115841
   4 H :    0.118245
   5 C :   -0.327719
   6 H :    0.137288
   7 H :    0.140375
   8 H :    0.122304
   9 H :    0.122973
  10 H :    0.121619

  Mayer bond orders larger than 0.100000
B(  0-C ,  1-C ) :   0.9427 B(  0-C ,  5-C ) :   0.9623 B(  0-C ,  6-H ) :   0.9791
B(  0-C ,  7-H ) :   0.9777 B(  1-C ,  2-H ) :   0.9766 B(  1-C ,  3-H ) :   0.9838
B(  1-C ,  4-H ) :   0.9773 B(  5-C ,  8-H ) :   0.9752 B(  5-C ,  9-H ) :   0.9726
B(  5-C , 10-H ) :   0.9811

FINAL SINGLE POINT ENERGY      -118.736097436740

DIPOLE MOMENT
-------------
                                X             Y             Z
Electronic contribution:     -0.13584      -0.31473      -0.13826
Nuclear contribution   :      0.16058       0.27975       0.12812
                        -----------------------------------------
Total Dipole Moment    :      0.02474      -0.03498      -0.01014
                        -----------------------------------------
Magnitude (a.u.)       :      0.04403
Magnitude (Debye)      :      0.11192

Rotational constants in cm-1:     1.027122     0.293327     0.260229
Rotational constants in MHz : 30792.337141  8793.723318  7801.458329

                             ****ORCA TERMINATED NORMALLY****
TOTAL RUN TIME: 0 days 0 hours 0 minutes 11 seconds 71 msec
