                         Program Version 5.0.0 -  RELEASE  -
|  1> !M062X D3Zero RIJCOSX def2-TZVP def2/J TightSCF
|  2> *xyz -1 1
|  3> C         -5.57236       -5.80780       -0.81644
|  4> S         -6.90318       -4.61903       -0.52846
|  5> O         -8.11485       -5.25093       -0.95701
|  6> O         -6.53271       -3.42684       -1.31485
|  7> O         -6.86563       -4.29496        0.91412
|  8> C         -4.45780       -5.94187        0.22919
|  9> H         -5.17735       -5.54257       -1.79771
| 10> H         -6.07420       -6.76889       -0.92127
| 11> H         -3.75515       -6.68239       -0.09144
| 12> H         -4.88182       -6.23486        1.16689
| 13> H         -3.95908       -5.00189        0.34143
| 14> *
| 15> %MaxCore 64000
| 16>
| 17> %pal nprocs 4
| 18> end
| 19>
| 20> %scf
| 21>   MaxIter 150
| 22> end
| 23>
| 24>                          ****END OF INPUT****

CARTESIAN COORDINATES (ANGSTROEM)
---------------------------------
  C     -5.572360   -5.807800   -0.816440
  S     -6.903180   -4.619030   -0.528460
  O     -8.114850   -5.250930   -0.957010
  O     -6.532710   -3.426840   -1.314850
  O     -6.865630   -4.294960    0.914120
  C     -4.457800   -5.941870    0.229190
  H     -5.177350   -5.542570   -1.797710
  H     -6.074200   -6.768890   -0.921270
  H     -3.755150   -6.682390   -0.091440
  H     -4.881820   -6.234860    1.166890
  H     -3.959080   -5.001890    0.341430

 Total Charge           Charge          ....   -1
 Multiplicity           Mult            ....    1
 Number of Electrons    NEL             ....   58
 Basis Dimension        Dim             ....  222

ORBITAL ENERGIES
----------------

  NO   OCC          E(Eh)            E(eV)
   0   2.0000     -89.885556     -2445.9103
   1   2.0000     -19.404396      -528.0205
   2   2.0000     -19.390543      -527.6435
   3   2.0000     -19.389174      -527.6062
   4   2.0000     -10.395387      -282.8729
   5   2.0000     -10.392305      -282.7890
   6   2.0000      -8.209892      -223.4025
   7   2.0000      -6.132604      -166.8766
   8   2.0000      -6.131369      -166.8430
   9   2.0000      -6.131234      -166.8393
  10   2.0000      -1.039513       -28.2866
  11   2.0000      -0.905682       -24.6449
  12   2.0000      -0.881619       -23.9901
  13   2.0000      -0.727793       -19.8043
  14   2.0000      -0.596709       -16.2373
  15   2.0000      -0.463474       -12.6118
  16   2.0000      -0.388420       -10.5694
  17   2.0000      -0.387562       -10.5461
  18   2.0000      -0.347631        -9.4595
  19   2.0000      -0.334481        -9.1017
  20   2.0000      -0.329777        -8.9737
  21   2.0000      -0.288490        -7.8502
  22   2.0000      -0.283041        -7.7019
  23   2.0000      -0.220895        -6.0109
  24   2.0000      -0.219908        -5.9840
  25   2.0000      -0.183221        -4.9857
  26   2.0000      -0.168622        -4.5884
  27   2.0000      -0.166819        -4.5394
  28   2.0000      -0.131477        -3.5777
  29   0.0000       0.201696         5.4884
  30   0.0000       0.249370         6.7857
  31   0.0000       0.263002         7.1567
  32   0.0000       0.266382         7.2486
  33   0.0000       0.287730         7.8295

MULLIKEN ATOMIC CHARGES
-----------------------
   0 C :   -0.317451
   1 S :    0.912853
   2 O :   -0.573862
   3 O :   -0.614989
   4 O :   -0.617045
   5 C :   -0.390638
   6 H :    0.123237
   7 H :    0.117544
   8 H :    0.094035
   9 H :    0.134821
  10 H :    0.131494
Sum of atomic charges:   -1.0000000

LOEWDIN ATOMIC CHARGES
----------------------
   0 C :   -0.428289
   1 S :    0.438444
   2 O :   -0.375071
   3 O :   -0.434691
   4 O :   -0.430943
   5 C :   -0.341075
   6 H :    0.121176
   7 H :    0.119252
   8 H :    0.100985
   9 H :    0.115088
  10 H :    0.115125

  Mayer bond orders larger than 0.100000
B(  0-C ,  1-S ) :   0.8793 B(  0-C ,  5-C ) :   0.9294 B(  0-C ,  6-H ) :   0.9650
B(  0-C ,  7-H ) :   0.9615 B(  1-S ,  2-O ) :   1.7967 B(  1-S ,  3-O ) :   1.7439
B(  1-S ,  4-O ) :   1.7254 B(  5-C ,  8-H ) :   0.9679 B(  5-C ,  9-H ) :   0.9744
B(  5-C , 10-H ) :   0.9761

Dispersion correction           -0.000154335
FINAL SINGLE POINT ENERGY      -703.151438221597

DIPOLE MOMENT
-------------
                                X             Y             Z
Electronic contribution:     -6.67815       4.30354      -0.92695
Nuclear contribution   :      8.13140      -5.68016       0.80206
                        -----------------------------------------
Total Dipole Moment    :      1.45326      -1.37662      -0.12489
                        -----------------------------------------
Magnitude (a.u.)       :      2.00565
Magnitude (Debye)      :      5.09797

Rotational constants in cm-1:     0.162101     0.080498     0.079099
Rotational constants in MHz :  4859.669771  2413.267251  2371.338602

                             ****ORCA TERMINATED NORMALLY****
TOTAL RUN TIME: 0 days 0 hours 0 minutes 30 seconds 995 msec
