                         Program Version 5.0.0 -  RELEASE  -
|  1> !M062X D3Zero RIJCOSX def2-TZVP def2/J TightSCF
|  2> *xyz 1 1
|  3> C         -4.38262       -1.67089        1.21620
|  4> N         -5.76354       -1.91517        0.70501
|  5> C         -3.28173       -2.19127        0.29436
|  6> H         -5.84081       -2.11520       -0.30065
|  7> H         -6.40882       -1.14866        0.93612
|  8> H         -6.17478       -2.79061        1.05143
|  9> H         -4.32862       -2.13922        2.19810
| 10> H         -4.26158       -0.59740        1.35725
| 11> H         -3.36057       -1.71407       -0.66008
| 12> H         -3.38775       -3.24919        0.17403
| 13> H         -2.32559       -1.97514        0.72329
| 14> *
| 15> %MaxCore 64000
| 16>
| 17> %pal nprocs 4
| 18> end
| 19>
| 20> %scf
| 21>   MaxIter 150
| 22> end
| 23>
| 24>                          ****END OF INPUT****

CARTESIAN COORDINATES (ANGSTROEM)
---------------------------------
  C     -4.382620   -1.670890    1.216200
  N     -5.763540   -1.915170    0.705010
  C     -3.281730   -2.191270    0.294360
  H     -5.840810   -2.115200   -0.300650
  H     -6.408820   -1.148660    0.936120
  H     -6.174780   -2.790610    1.051430
  H     -4.328620   -2.139220    2.198100
  H     -4.261580   -0.597400    1.357250
  H     -3.360570   -1.714070   -0.660080
  H     -3.387750   -3.249190    0.174030
  H     -2.325590   -1.975140    0.723290

 Total Charge           Charge          ....    1
 Multiplicity           Mult            ....    1
 Number of Electrons    NEL             ....   26
 Basis Dimension        Dim             ....  141

ORBITAL ENERGIES
----------------

  NO   OCC          E(Eh)            E(eV)
   0   2.0000     -15.081819      -410.3972
   1   2.0000     -10.791053      -293.6395
   2   2.0000     -10.708491      -291.3929
   3   2.0000      -1.324682       -36.0464
   4   2.0000      -1.063135       -28.9294
   5   2.0000      -0.935378       -25.4529
   6   2.0000      -0.872251       -23.7351
   7   2.0000      -0.850576       -23.1453
   8   2.0000      -0.772625       -21.0242
   9   2.0000      -0.709395       -19.3036
  10   2.0000      -0.647214       -17.6116
  11   2.0000      -0.629045       -17.1172
  12   2.0000      -0.611854       -16.6494
  13   0.0000      -0.164391        -4.4733
  14   0.0000      -0.106291        -2.8923
  15   0.0000      -0.102043        -2.7767
  16   0.0000      -0.080364        -2.1868
  17   0.0000      -0.043820        -1.1924

MULLIKEN ATOMIC CHARGES
-----------------------
   0 C :   -0.200488
   1 N :   -0.346216
   2 C :   -0.427433
   3 H :    0.335594
   4 H :    0.349252
   5 H :    0.340440
   6 H :    0.205839
   7 H :    0.204129
   8 H :    0.174288
   9 H :    0.170773
  10 H :    0.193821
Sum of atomic charges:    1.0000000

LOEWDIN ATOMIC CHARGES
----------------------
   0 C :   -0.271732
   1 N :    0.160670
   2 C :   -0.277229
   3 H :    0.222051
   4 H :    0.226269
   5 H :    0.224039
   6 H :    0.152889
   7 H :    0.153727
   8 H :    0.131073
   9 H :    0.130530
  10 H :    0.147712

  Mayer bond orders larger than 0.100000
B(  0-C ,  1-N ) :   0.8032 B(  0-C ,  2-C ) :   0.9591 B(  0-C ,  6-H ) :   0.9612
B(  0-C ,  7-H ) :   0.9615 B(  1-N ,  3-H ) :   0.8712 B(  1-N ,  4-H ) :   0.8704
B(  1-N ,  5-H ) :   0.8751 B(  2-C ,  8-H ) :   0.9564 B(  2-C ,  9-H ) :   0.9591
B(  2-C , 10-H ) :   0.9553

Dispersion correction           -0.000057574
FINAL SINGLE POINT ENERGY      -135.503737473285

DIPOLE MOMENT
-------------
                                X             Y             Z
Electronic contribution:     -1.80591       0.24125       0.30818
Nuclear contribution   :      0.19437      -0.25358      -0.32106
                        -----------------------------------------
Total Dipole Moment    :     -1.61154      -0.01233      -0.01288
                        -----------------------------------------
Magnitude (a.u.)       :      1.61164
Magnitude (Debye)      :      4.09646

Rotational constants in cm-1:     1.030014     0.272489     0.242697
Rotational constants in MHz : 30879.030706  8169.007780  7275.865152

                             ****ORCA TERMINATED NORMALLY****
TOTAL RUN TIME: 0 days 0 hours 0 minutes 14 seconds 712 msec
