                         Program Version 5.0.0 -  RELEASE  -
|  1> !M062X D3Zero RIJCOSX def2-TZVP def2/J TightSCF xyzfile
|  2>
|  3> *xyzfile 0 1 B.xyz
|  4>
|  5> %MaxCore 64000
|  6>
|  7> %pal nprocs 18
|  8> end
|  9>
| 10> %scf
| 11>   MaxIter 150
| 12> end
| 13>
| 14>
| 15>                          ****END OF INPUT****

CARTESIAN COORDINATES (ANGSTROEM)
---------------------------------
  C     -4.382623   -1.670889    1.216201
  N     -5.763539   -1.915170    0.705012
  C     -3.281728   -2.191272    0.294361
  C     -5.572364   -5.807798   -0.816445
  S     -6.903179   -4.619033   -0.528458
  H     -5.840812   -2.115205   -0.300646
  H     -6.408823   -1.148656    0.936124
  H     -6.174781   -2.790606    1.051433
  O     -8.114853   -5.250932   -0.957007
  O     -6.532715   -3.426838   -1.314848
  H     -4.328618   -2.139223    2.198103
  H     -4.261583   -0.597399    1.357248
  O     -6.865632   -4.294957    0.914118
  C     -3.474641   -3.605898   -0.259608
  H     -2.354548   -2.127602    0.871433
  H     -3.166611   -1.499693   -0.545037
  C     -3.827078   -4.661097    0.786174
  H     -2.560559   -3.889391   -0.788050
  H     -4.255932   -3.570040   -1.019300
  C     -4.457800   -5.941875    0.229195
  H     -5.177347   -5.542575   -1.797714
  H     -6.074202   -6.768894   -0.921272
  H     -4.530506   -4.253640    1.511979
  H     -2.933400   -4.932302    1.356825
  H     -3.681064   -6.562236   -0.229885
  H     -4.843942   -6.512728    1.075805

 Total Charge           Charge          ....    0
 Multiplicity           Mult            ....    1
 Number of Electrons    NEL             ....   98
 Basis Dimension        Dim             ....  437

ORBITAL ENERGIES
----------------

  NO   OCC          E(Eh)            E(eV)
   0   2.0000     -90.059067     -2450.6318
   1   2.0000     -19.581481      -532.8392
   2   2.0000     -19.576687      -532.7087
   3   2.0000     -19.563669      -532.3545
   4   2.0000     -14.853545      -404.1855
   5   2.0000     -10.625572      -289.1365
   6   2.0000     -10.570787      -287.6457
   7   2.0000     -10.545079      -286.9462
   8   2.0000     -10.541142      -286.8391
   9   2.0000     -10.539933      -286.8062
  10   2.0000     -10.538859      -286.7769
  11   2.0000      -8.384183      -228.1452
  12   2.0000      -6.306579      -171.6108
  13   2.0000      -6.306235      -171.6014
  14   2.0000      -6.304990      -171.5675
  15   2.0000      -1.219499       -33.1843
  16   2.0000      -1.117876       -30.4190
  17   2.0000      -1.078076       -29.3360
  18   2.0000      -1.075704       -29.2714
  19   2.0000      -0.932821       -25.3833
  20   2.0000      -0.890033       -24.2190
  21   2.0000      -0.836523       -22.7630
  22   2.0000      -0.781634       -21.2693
  23   2.0000      -0.724079       -19.7032
  24   2.0000      -0.678862       -18.4728
  25   2.0000      -0.670718       -18.2512
  26   2.0000      -0.652813       -17.7640
  27   2.0000      -0.622390       -16.9361
  28   2.0000      -0.585587       -15.9346
  29   2.0000      -0.563429       -15.3317
  30   2.0000      -0.557643       -15.1742
  31   2.0000      -0.542447       -14.7607
  32   2.0000      -0.521280       -14.1847
  33   2.0000      -0.518034       -14.0964
  34   2.0000      -0.507478       -13.8092
  35   2.0000      -0.490398       -13.3444
  36   2.0000      -0.486721       -13.2444
  37   2.0000      -0.452182       -12.3045
  38   2.0000      -0.441233       -12.0066
  39   2.0000      -0.437015       -11.8918
  40   2.0000      -0.408693       -11.1211
  41   2.0000      -0.404924       -11.0185
  42   2.0000      -0.399940       -10.8829
  43   2.0000      -0.391896       -10.6640
  44   2.0000      -0.386176       -10.5084
  45   2.0000      -0.354831        -9.6555
  46   2.0000      -0.346731        -9.4350
  47   2.0000      -0.331410        -9.0181
  48   2.0000      -0.316875        -8.6226
  49   0.0000       0.015889         0.4324
  50   0.0000       0.055776         1.5178
  51   0.0000       0.067065         1.8249
  52   0.0000       0.069934         1.9030
  53   0.0000       0.084074         2.2878

MULLIKEN ATOMIC CHARGES
-----------------------
   0 C :   -0.258384
   1 N :   -0.379209
   2 C :   -0.269754
   3 C :   -0.392814
   4 S :    0.976398
   5 H :    0.340664
   6 H :    0.295689
   7 H :    0.344058
   8 O :   -0.517346
   9 O :   -0.628982
  10 H :    0.205274
  11 H :    0.170841
  12 O :   -0.616254
  13 C :   -0.376313
  14 H :    0.158963
  15 H :    0.168829
  16 C :   -0.323857
  17 H :    0.154191
  18 H :    0.212004
  19 C :   -0.243628
  20 H :    0.178612
  21 H :    0.180465
  22 H :    0.165814
  23 H :    0.147548
  24 H :    0.147310
  25 H :    0.159882
Sum of atomic charges:   -0.0000000

LOEWDIN ATOMIC CHARGES
----------------------
   0 C :   -0.276162
   1 N :    0.131900
   2 C :   -0.272849
   3 C :   -0.383317
   4 S :    0.476856
   5 H :    0.191517
   6 H :    0.199917
   7 H :    0.170918
   8 O :   -0.312668
   9 O :   -0.402622
  10 H :    0.141486
  11 H :    0.137620
  12 O :   -0.383535
  13 C :   -0.275883
  14 H :    0.149740
  15 H :    0.144968
  16 C :   -0.280083
  17 H :    0.143283
  18 H :    0.146063
  19 C :   -0.285333
  20 H :    0.135467
  21 H :    0.141175
  22 H :    0.135258
  23 H :    0.138217
  24 H :    0.142075
  25 H :    0.145992

  Mayer bond orders larger than 0.100000
B(  0-C ,  1-N ) :   0.8309 B(  0-C ,  2-C ) :   0.9083 B(  0-C , 10-H ) :   0.9814
B(  0-C , 11-H ) :   0.9806 B(  1-N ,  5-H ) :   0.8109 B(  1-N ,  6-H ) :   0.8987
B(  1-N ,  7-H ) :   0.7721 B(  2-C , 13-C ) :   0.9193 B(  2-C , 14-H ) :   0.9764
B(  2-C , 15-H ) :   0.9816 B(  3-C ,  4-S ) :   0.9028 B(  3-C , 19-C ) :   0.9062
B(  3-C , 20-H ) :   0.9562 B(  3-C , 21-H ) :   0.9592 B(  4-S ,  8-O ) :   1.9120
B(  4-S ,  9-O ) :   1.5622 B(  4-S , 12-O ) :   1.5251 B(  7-H , 12-O ) :   0.1563
B( 13-C , 16-C ) :   0.8650 B( 13-C , 17-H ) :   0.9786 B( 13-C , 18-H ) :   0.9783
B( 16-C , 19-C ) :   0.9301 B( 16-C , 22-H ) :   0.9771 B( 16-C , 23-H ) :   0.9689
B( 19-C , 24-H ) :   0.9712 B( 19-C , 25-H ) :   0.9813

Dispersion correction           -0.001249432
FINAL SINGLE POINT ENERGY      -916.265512677815

DIPOLE MOMENT
-------------
                                X             Y             Z
Electronic contribution:    -13.48907      -2.90410      -3.65737
Nuclear contribution   :     16.18863       5.15617       4.97370
                        -----------------------------------------
Total Dipole Moment    :      2.69956       2.25207       1.31634
                        -----------------------------------------
Magnitude (a.u.)       :      3.75396
Magnitude (Debye)      :      9.54181

Rotational constants in cm-1:     0.048546     0.025588     0.020102
Rotational constants in MHz :  1455.374030   767.095631   602.645620

                             ****ORCA TERMINATED NORMALLY****
TOTAL RUN TIME: 0 days 0 hours 0 minutes 45 seconds 203 msec
