                         Program Version 5.0.0 -  RELEASE  -
|  1> !M062X D3Zero RIJCOSX def2-TZVP def2/J TightSCF
|  2> *xyz 0 1
|  3> C         -5.57236       -5.80780       -0.81644
|  4> S         -6.90318       -4.61903       -0.52846
|  5> F         -8.11485       -5.25093       -0.95701
|  6> O         -6.53271       -3.42684       -1.31485
|  7> O         -6.86563       -4.29496        0.91412
|  8> C         -4.45780       -5.94187        0.22919
|  9> H         -5.17735       -5.54257       -1.79771
| 10> H         -6.07420       -6.76889       -0.92127
| 11> H         -3.75515       -6.68239       -0.09144
| 12> H         -4.88182       -6.23486        1.16689
| 13> H         -3.95908       -5.00189        0.34143
| 14> *
| 15> %MaxCore 64000
| 16>
| 17> %pal nprocs 4
| 18> end
| 19>
| 20> %scf
| 21>   MaxIter 150
| 22> end
| 23>
| 24>                          ****END OF INPUT****

CARTESIAN COORDINATES (ANGSTROEM)
---------------------------------
  C     -5.572360   -5.807800   -0.816440
  S     -6.903180   -4.619030   -0.528460
  F     -8.114850   -5.250930   -0.957010
  O     -6.532710   -3.426840   -1.314850
  O     -6.865630   -4.294960    0.914120
  C     -4.457800   -5.941870    0.229190
  H     -5.177350   -5.542570   -1.797710
  H     -6.074200   -6.768890   -0.921270
  H     -3.755150   -6.682390   -0.091440
  H     -4.881820   -6.234860    1.166890
  H     -3.959080   -5.001890    0.341430

 Total Charge           Charge          ....    0
 Multiplicity           Mult            ....    1
 Number of Electrons    NEL             ....   58
 Basis Dimension        Dim             ....  222

ORBITAL ENERGIES
----------------

  NO   OCC          E(Eh)            E(eV)
   0   2.0000     -90.153791     -2453.2094
   1   2.0000     -25.374470      -690.4744
   2   2.0000     -19.630232      -534.1658
   3   2.0000     -19.629715      -534.1517
   4   2.0000     -10.601222      -288.4739
   5   2.0000     -10.556651      -287.2611
   6   2.0000      -8.478755      -230.7186
   7   2.0000      -6.403507      -174.2483
   8   2.0000      -6.398585      -174.1144
   9   2.0000      -6.397963      -174.0974
  10   2.0000      -1.541065       -41.9345
  11   2.0000      -1.215346       -33.0713
  12   2.0000      -1.115561       -30.3560
  13   2.0000      -0.921669       -25.0799
  14   2.0000      -0.842354       -22.9216
  15   2.0000      -0.772423       -21.0187
  16   2.0000      -0.697116       -18.9695
  17   2.0000      -0.690823       -18.7983
  18   2.0000      -0.640966       -17.4416
  19   2.0000      -0.567021       -15.4294
  20   2.0000      -0.558140       -15.1878
  21   2.0000      -0.519776       -14.1438
  22   2.0000      -0.499091       -13.5810
  23   2.0000      -0.473073       -12.8730
  24   2.0000      -0.458516       -12.4769
  25   2.0000      -0.453231       -12.3330
  26   2.0000      -0.398126       -10.8336
  27   2.0000      -0.391409       -10.6508
  28   2.0000      -0.375451       -10.2165
  29   0.0000       0.050730         1.3804
  30   0.0000       0.065673         1.7871
  31   0.0000       0.087954         2.3933
  32   0.0000       0.106853         2.9076
  33   0.0000       0.109703         2.9852

MULLIKEN ATOMIC CHARGES
-----------------------
   0 C :   -0.312409
   1 S :    0.930734
   2 F :   -0.102240
   3 O :   -0.466788
   4 O :   -0.471483
   5 C :   -0.387865
   6 H :    0.182528
   7 H :    0.154652
   8 H :    0.149137
   9 H :    0.159314
  10 H :    0.164420
Sum of atomic charges:   -0.0000000

LOEWDIN ATOMIC CHARGES
----------------------
   0 C :   -0.393973
   1 S :    0.562763
   2 F :    0.103017
   3 O :   -0.316225
   4 O :   -0.315353
   5 C :   -0.299422
   6 H :    0.144455
   7 H :    0.134110
   8 H :    0.125772
   9 H :    0.126503
  10 H :    0.128353

  Mayer bond orders larger than 0.100000
B(  0-C ,  1-S ) :   0.9132 B(  0-C ,  5-C ) :   0.9456 B(  0-C ,  6-H ) :   0.9401
B(  0-C ,  7-H ) :   0.9416 B(  1-S ,  2-F ) :   1.1315 B(  1-S ,  3-O ) :   1.8844
B(  1-S ,  4-O ) :   1.8698 B(  5-C ,  8-H ) :   0.9583 B(  5-C ,  9-H ) :   0.9651
B(  5-C , 10-H ) :   0.9665

Dispersion correction           -0.000151289
FINAL SINGLE POINT ENERGY      -727.660547608845

DIPOLE MOMENT
-------------
                                X             Y             Z
Electronic contribution:     -9.39471       3.53348      -1.87446
Nuclear contribution   :      9.80704      -5.24335       1.35017
                        -----------------------------------------
Total Dipole Moment    :      0.41232      -1.70987      -0.52429
                        -----------------------------------------
Magnitude (a.u.)       :      1.83536
Magnitude (Debye)      :      4.66510

Rotational constants in cm-1:     0.156316     0.078308     0.076228
Rotational constants in MHz :  4686.224999  2347.601204  2285.245115

                             ****ORCA TERMINATED NORMALLY****
TOTAL RUN TIME: 0 days 0 hours 0 minutes 30 seconds 906 msec
