                         Program Version 5.0.0 -  RELEASE  -
|  1> !M062X D3Zero RIJCOSX def2-TZVP def2/J TightSCF
|  2> *xyz 0 1
|  3> C         -4.38262       -1.67089        1.21620
|  4> C         -5.76354       -1.91517        0.70501
|  5> C         -3.28173       -2.19127        0.29436
|  6> H         -5.84081       -2.11520       -0.30065
|  7> H         -6.40882       -1.14866        0.93612
|  8> H         -6.17478       -2.79061        1.05143
|  9> H         -4.32862       -2.13922        2.19810
| 10> H         -4.26158       -0.59740        1.35725
| 11> H         -3.36057       -1.71407       -0.66008
| 12> H         -3.38775       -3.24919        0.17403
| 13> H         -2.32559       -1.97514        0.72329
| 14> *
| 15> %MaxCore 64000
| 16>
| 17> %pal nprocs 4
| 18> end
| 19>
| 20> %scf
| 21>   MaxIter 150
| 22> end
| 23>
| 24>                          ****END OF INPUT****

CARTESIAN COORDINATES (ANGSTROEM)
---------------------------------
  C     -4.382620   -1.670890    1.216200
  C     -5.763540   -1.915170    0.705010
  C     -3.281730   -2.191270    0.294360
  H     -5.840810   -2.115200   -0.300650
  H     -6.408820   -1.148660    0.936120
  H     -6.174780   -2.790610    1.051430
  H     -4.328620   -2.139220    2.198100
  H     -4.261580   -0.597400    1.357250
  H     -3.360570   -1.714070   -0.660080
  H     -3.387750   -3.249190    0.174030
  H     -2.325590   -1.975140    0.723290

 Total Charge           Charge          ....    0
 Multiplicity           Mult            ....    1
 Number of Electrons    NEL             ....   26
 Basis Dimension        Dim             ....  141

ORBITAL ENERGIES
----------------

  NO   OCC          E(Eh)            E(eV)
   0   2.0000     -10.520799      -286.2855
   1   2.0000     -10.511364      -286.0288
   2   2.0000     -10.492361      -285.5117
   3   2.0000      -0.887119       -24.1397
   4   2.0000      -0.784488       -21.3470
   5   2.0000      -0.673865       -18.3368
   6   2.0000      -0.533040       -14.5048
   7   2.0000      -0.510209       -13.8835
   8   2.0000      -0.475510       -12.9393
   9   2.0000      -0.450357       -12.2548
  10   2.0000      -0.400632       -10.9017
  11   2.0000      -0.392832       -10.6895
  12   2.0000      -0.382014       -10.3951
  13   0.0000       0.072628         1.9763
  14   0.0000       0.114665         3.1202
  15   0.0000       0.118457         3.2234
  16   0.0000       0.127640         3.4733
  17   0.0000       0.151338         4.1181

MULLIKEN ATOMIC CHARGES
-----------------------
   0 C :   -0.196647
   1 C :   -0.421692
   2 C :   -0.416175
   3 H :    0.135764
   4 H :    0.128345
   5 H :    0.138670
   6 H :    0.117927
   7 H :    0.117853
   8 H :    0.133918
   9 H :    0.130914
  10 H :    0.131122
Sum of atomic charges:    0.0000000

LOEWDIN ATOMIC CHARGES
----------------------
   0 C :   -0.320449
   1 C :   -0.311413
   2 C :   -0.308762
   3 H :    0.109756
   4 H :    0.108824
   5 H :    0.110033
   6 H :    0.133424
   7 H :    0.132657
   8 H :    0.115644
   9 H :    0.115569
  10 H :    0.114717

  Mayer bond orders larger than 0.100000
B(  0-C ,  1-C ) :   0.9153 B(  0-C ,  2-C ) :   0.9461 B(  0-C ,  6-H ) :   0.9799
B(  0-C ,  7-H ) :   0.9837 B(  1-C ,  3-H ) :   0.9813 B(  1-C ,  4-H ) :   0.9824
B(  1-C ,  5-H ) :   0.9783 B(  2-C ,  8-H ) :   0.9761 B(  2-C ,  9-H ) :   0.9758
B(  2-C , 10-H ) :   0.9815

Dispersion correction           -0.000056055
FINAL SINGLE POINT ENERGY      -119.094946467131

DIPOLE MOMENT
-------------
                                X             Y             Z
Electronic contribution:      0.18844       0.24080       0.34148
Nuclear contribution   :     -0.21528      -0.24783      -0.32864
                        -----------------------------------------
Total Dipole Moment    :     -0.02683      -0.00703       0.01284
                        -----------------------------------------
Magnitude (a.u.)       :      0.03057
Magnitude (Debye)      :      0.07769

Rotational constants in cm-1:     1.037566     0.286459     0.254172
Rotational constants in MHz : 31105.431429  8587.814531  7619.871198

                             ****ORCA TERMINATED NORMALLY****
TOTAL RUN TIME: 0 days 0 hours 0 minutes 14 seconds 822 msec
