                         Program Version 5.0.0 -  RELEASE  -
|  1> !M062X D3Zero RIJCOSX def2-TZVP def2/J TightSCF
|  2> *xyz 0 1
|  3> C         -5.57236       -5.80780       -0.81644
|  4> S         -6.90318       -4.61903       -0.52846
|  5> O         -8.11485       -5.25093       -0.95701
|  6> F         -6.53271       -3.42684       -1.31485
|  7> O         -6.86563       -4.29496        0.91412
|  8> C         -4.45780       -5.94187        0.22919
|  9> H         -5.17735       -5.54257       -1.79771
| 10> H         -6.07420       -6.76889       -0.92127
| 11> H         -3.75515       -6.68239       -0.09144
| 12> H         -4.88182       -6.23486        1.16689
| 13> H         -3.95908       -5.00189        0.34143
| 14> *
| 15> %MaxCore 64000
| 16>
| 17> %pal nprocs 4
| 18> end
| 19>
| 20> %scf
| 21>   MaxIter 150
| 22> end
| 23>
| 24>                          ****END OF INPUT****

CARTESIAN COORDINATES (ANGSTROEM)
---------------------------------
  C     -5.572360   -5.807800   -0.816440
  S     -6.903180   -4.619030   -0.528460
  O     -8.114850   -5.250930   -0.957010
  F     -6.532710   -3.426840   -1.314850
  O     -6.865630   -4.294960    0.914120
  C     -4.457800   -5.941870    0.229190
  H     -5.177350   -5.542570   -1.797710
  H     -6.074200   -6.768890   -0.921270
  H     -3.755150   -6.682390   -0.091440
  H     -4.881820   -6.234860    1.166890
  H     -3.959080   -5.001890    0.341430

 Total Charge           Charge          ....    0
 Multiplicity           Mult            ....    1
 Number of Electrons    NEL             ....   58
 Basis Dimension        Dim             ....  222

ORBITAL ENERGIES
----------------

  NO   OCC          E(Eh)            E(eV)
   0   2.0000     -90.151834     -2453.1561
   1   2.0000     -25.352019      -689.8635
   2   2.0000     -19.644401      -534.5513
   3   2.0000     -19.629981      -534.1589
   4   2.0000     -10.600616      -288.4574
   5   2.0000     -10.556199      -287.2488
   6   2.0000      -8.476753      -230.6642
   7   2.0000      -6.401572      -174.1956
   8   2.0000      -6.396728      -174.0638
   9   2.0000      -6.395938      -174.0423
  10   2.0000      -1.503594       -40.9149
  11   2.0000      -1.233765       -33.5725
  12   2.0000      -1.131580       -30.7918
  13   2.0000      -0.921125       -25.0651
  14   2.0000      -0.826179       -22.4815
  15   2.0000      -0.764434       -20.8013
  16   2.0000      -0.674009       -18.3407
  17   2.0000      -0.668979       -18.2038
  18   2.0000      -0.638635       -17.3781
  19   2.0000      -0.567330       -15.4378
  20   2.0000      -0.558607       -15.2005
  21   2.0000      -0.534306       -14.5392
  22   2.0000      -0.502763       -13.6809
  23   2.0000      -0.473482       -12.8841
  24   2.0000      -0.469179       -12.7670
  25   2.0000      -0.452982       -12.3263
  26   2.0000      -0.409754       -11.1500
  27   2.0000      -0.396311       -10.7842
  28   2.0000      -0.388301       -10.5662
  29   0.0000       0.049071         1.3353
  30   0.0000       0.070141         1.9086
  31   0.0000       0.085746         2.3333
  32   0.0000       0.110356         3.0029
  33   0.0000       0.111698         3.0395

MULLIKEN ATOMIC CHARGES
-----------------------
   0 C :   -0.316251
   1 S :    0.936710
   2 O :   -0.435104
   3 F :   -0.131876
   4 O :   -0.478884
   5 C :   -0.386772
   6 H :    0.162511
   7 H :    0.184429
   8 H :    0.148512
   9 H :    0.167784
  10 H :    0.148941
Sum of atomic charges:    0.0000000

LOEWDIN ATOMIC CHARGES
----------------------
   0 C :   -0.391831
   1 S :    0.569541
   2 O :   -0.263747
   3 F :    0.048693
   4 O :   -0.318381
   5 C :   -0.305645
   6 H :    0.136152
   7 H :    0.148796
   8 H :    0.124999
   9 H :    0.128137
  10 H :    0.123287

  Mayer bond orders larger than 0.100000
B(  0-C ,  1-S ) :   0.9093 B(  0-C ,  5-C ) :   0.9415 B(  0-C ,  6-H ) :   0.9446
B(  0-C ,  7-H ) :   0.9421 B(  1-S ,  2-O ) :   1.9364 B(  1-S ,  3-F ) :   1.0880
B(  1-S ,  4-O ) :   1.8696 B(  5-C ,  8-H ) :   0.9587 B(  5-C ,  9-H ) :   0.9648
B(  5-C , 10-H ) :   0.9687

Dispersion correction           -0.000156706
FINAL SINGLE POINT ENERGY      -727.679199294992

DIPOLE MOMENT
-------------
                                X             Y             Z
Electronic contribution:     -6.68757       6.66938      -2.50712
Nuclear contribution   :      8.15840      -7.14411       1.72305
                        -----------------------------------------
Total Dipole Moment    :      1.47082      -0.47473      -0.78407
                        -----------------------------------------
Magnitude (a.u.)       :      1.73305
Magnitude (Debye)      :      4.40506

Rotational constants in cm-1:     0.153926     0.078297     0.077402
Rotational constants in MHz :  4614.585804  2347.272644  2320.438903

                             ****ORCA TERMINATED NORMALLY****
TOTAL RUN TIME: 0 days 0 hours 0 minutes 31 seconds 430 msec
