                         Program Version 5.0.0 -  RELEASE  -
|  1> !M062X D3Zero RIJCOSX def2-TZVP def2/J TightSCF
|  2> *xyz 0 1
|  3> C         -5.57236       -5.80780       -0.81644
|  4> S         -6.90318       -4.61903       -0.52846
|  5> O         -8.11485       -5.25093       -0.95701
|  6> O         -6.53271       -3.42684       -1.31485
|  7> F         -6.86563       -4.29496        0.91412
|  8> C         -4.45780       -5.94187        0.22919
|  9> H         -5.17735       -5.54257       -1.79771
| 10> H         -6.07420       -6.76889       -0.92127
| 11> H         -3.75515       -6.68239       -0.09144
| 12> H         -4.88182       -6.23486        1.16689
| 13> H         -3.95908       -5.00189        0.34143
| 14> *
| 15> %MaxCore 64000
| 16>
| 17> %pal nprocs 4
| 18> end
| 19>
| 20> %scf
| 21>   MaxIter 150
| 22> end
| 23>
| 24>                          ****END OF INPUT****

CARTESIAN COORDINATES (ANGSTROEM)
---------------------------------
  C     -5.572360   -5.807800   -0.816440
  S     -6.903180   -4.619030   -0.528460
  O     -8.114850   -5.250930   -0.957010
  O     -6.532710   -3.426840   -1.314850
  F     -6.865630   -4.294960    0.914120
  C     -4.457800   -5.941870    0.229190
  H     -5.177350   -5.542570   -1.797710
  H     -6.074200   -6.768890   -0.921270
  H     -3.755150   -6.682390   -0.091440
  H     -4.881820   -6.234860    1.166890
  H     -3.959080   -5.001890    0.341430

 Total Charge           Charge          ....    0
 Multiplicity           Mult            ....    1
 Number of Electrons    NEL             ....   58
 Basis Dimension        Dim             ....  222

ORBITAL ENERGIES
----------------

  NO   OCC          E(Eh)            E(eV)
   0   2.0000     -90.151261     -2453.1405
   1   2.0000     -25.351041      -689.8369
   2   2.0000     -19.644043      -534.5416
   3   2.0000     -19.628881      -534.1290
   4   2.0000     -10.599990      -288.4404
   5   2.0000     -10.563440      -287.4458
   6   2.0000      -8.476216      -230.6496
   7   2.0000      -6.401131      -174.1836
   8   2.0000      -6.396009      -174.0443
   9   2.0000      -6.395484      -174.0300
  10   2.0000      -1.500819       -40.8394
  11   2.0000      -1.234283       -33.5865
  12   2.0000      -1.132151       -30.8074
  13   2.0000      -0.924118       -25.1465
  14   2.0000      -0.823264       -22.4021
  15   2.0000      -0.768604       -20.9148
  16   2.0000      -0.678803       -18.4712
  17   2.0000      -0.668324       -18.1860
  18   2.0000      -0.631583       -17.1862
  19   2.0000      -0.571187       -15.5428
  20   2.0000      -0.554556       -15.0902
  21   2.0000      -0.527445       -14.3525
  22   2.0000      -0.518702       -14.1146
  23   2.0000      -0.482302       -13.1241
  24   2.0000      -0.464910       -12.6509
  25   2.0000      -0.459032       -12.4909
  26   2.0000      -0.409234       -11.1358
  27   2.0000      -0.395862       -10.7719
  28   2.0000      -0.387460       -10.5433
  29   0.0000       0.039440         1.0732
  30   0.0000       0.082817         2.2536
  31   0.0000       0.096540         2.6270
  32   0.0000       0.103649         2.8204
  33   0.0000       0.109852         2.9892

MULLIKEN ATOMIC CHARGES
-----------------------
   0 C :   -0.307126
   1 S :    0.937565
   2 O :   -0.435520
   3 O :   -0.476593
   4 F :   -0.135802
   5 C :   -0.409755
   6 H :    0.186957
   7 H :    0.175415
   8 H :    0.153392
   9 H :    0.151250
  10 H :    0.160218
Sum of atomic charges:   -0.0000000

LOEWDIN ATOMIC CHARGES
----------------------
   0 C :   -0.385800
   1 S :    0.569819
   2 O :   -0.263826
   3 O :   -0.320900
   4 F :    0.048268
   5 C :   -0.312861
   6 H :    0.149554
   7 H :    0.142678
   8 H :    0.127366
   9 H :    0.121236
  10 H :    0.124466

  Mayer bond orders larger than 0.100000
B(  0-C ,  1-S ) :   0.9132 B(  0-C ,  5-C ) :   0.9405 B(  0-C ,  6-H ) :   0.9404
B(  0-C ,  7-H ) :   0.9435 B(  1-S ,  2-O ) :   1.9344 B(  1-S ,  3-O ) :   1.8822
B(  1-S ,  4-F ) :   1.0823 B(  5-C ,  8-H ) :   0.9619 B(  5-C ,  9-H ) :   0.9659
B(  5-C , 10-H ) :   0.9649

Dispersion correction           -0.000161009
FINAL SINGLE POINT ENERGY      -727.679244034626

DIPOLE MOMENT
-------------
                                X             Y             Z
Electronic contribution:     -7.23712       5.14765       1.32011
Nuclear contribution   :      8.50531      -6.23950      -0.59960
                        -----------------------------------------
Total Dipole Moment    :      1.26819      -1.09185       0.72051
                        -----------------------------------------
Magnitude (a.u.)       :      1.82197
Magnitude (Debye)      :      4.63109

Rotational constants in cm-1:     0.152799     0.080212     0.076962
Rotational constants in MHz :  4580.804531  2404.707790  2307.252710

                             ****ORCA TERMINATED NORMALLY****
TOTAL RUN TIME: 0 days 0 hours 0 minutes 30 seconds 728 msec
