                         Program Version 5.0.0 -  RELEASE  -
|  1> !M062X D3Zero RIJCOSX def2-TZVP def2/J TightSCF xyzfile
|  2>
|  3> *xyzfile 0 1 D3.xyz
|  4>
|  5> %MaxCore 64000
|  6>
|  7> %pal nprocs 18
|  8> end
|  9>
| 10> %scf
| 11>   MaxIter 150
| 12> end
| 13>
| 14>
| 15>                          ****END OF INPUT****

CARTESIAN COORDINATES (ANGSTROEM)
---------------------------------
  C     -4.382623   -1.670889    1.216201
  C     -5.763539   -1.915170    0.705012
  C     -3.281728   -2.191272    0.294361
  C     -5.572364   -5.807798   -0.816445
  S     -6.903179   -4.619033   -0.528458
  H     -5.840812   -2.115205   -0.300646
  H     -6.408823   -1.148656    0.936124
  H     -6.174781   -2.790606    1.051433
  O     -8.114853   -5.250932   -0.957007
  O     -6.532715   -3.426838   -1.314848
  H     -4.328618   -2.139223    2.198103
  H     -4.261583   -0.597399    1.357248
  F     -6.865632   -4.294957    0.914118
  C     -3.474641   -3.605898   -0.259608
  H     -2.354548   -2.127602    0.871433
  H     -3.166611   -1.499693   -0.545037
  C     -3.827078   -4.661097    0.786174
  H     -2.560559   -3.889391   -0.788050
  H     -4.255932   -3.570040   -1.019300
  C     -4.457800   -5.941875    0.229195
  H     -5.177347   -5.542575   -1.797714
  H     -6.074202   -6.768894   -0.921272
  H     -4.530506   -4.253640    1.511979
  H     -2.933400   -4.932302    1.356825
  H     -3.681064   -6.562236   -0.229885
  H     -4.843942   -6.512728    1.075805

 Total Charge           Charge          ....    0
 Multiplicity           Mult            ....    1
 Number of Electrons    NEL             ....   98
 Basis Dimension        Dim             ....  437

ORBITAL ENERGIES
----------------

  NO   OCC          E(Eh)            E(eV)
   0   2.0000     -90.155933     -2453.2677
   1   2.0000     -25.356144      -689.9757
   2   2.0000     -19.648029      -534.6501
   3   2.0000     -19.632623      -534.2308
   4   2.0000     -10.600022      -288.4413
   5   2.0000     -10.569178      -287.6020
   6   2.0000     -10.545607      -286.9606
   7   2.0000     -10.530235      -286.5423
   8   2.0000     -10.522971      -286.3446
   9   2.0000     -10.512810      -286.0681
  10   2.0000     -10.464324      -284.7487
  11   2.0000      -8.481200      -230.7852
  12   2.0000      -6.406143      -174.3200
  13   2.0000      -6.400907      -174.1775
  14   2.0000      -6.400424      -174.1644
  15   2.0000      -1.511447       -41.1286
  16   2.0000      -1.240298       -33.7502
  17   2.0000      -1.141087       -31.0506
  18   2.0000      -0.942361       -25.6429
  19   2.0000      -0.903440       -24.5839
  20   2.0000      -0.854011       -23.2388
  21   2.0000      -0.827877       -22.5277
  22   2.0000      -0.790067       -21.4988
  23   2.0000      -0.746464       -20.3123
  24   2.0000      -0.710574       -19.3357
  25   2.0000      -0.684953       -18.6385
  26   2.0000      -0.675138       -18.3714
  27   2.0000      -0.637154       -17.3379
  28   2.0000      -0.628980       -17.1154
  29   2.0000      -0.570832       -15.5331
  30   2.0000      -0.565986       -15.4013
  31   2.0000      -0.552941       -15.0463
  32   2.0000      -0.537249       -14.6193
  33   2.0000      -0.523637       -14.2489
  34   2.0000      -0.516047       -14.0423
  35   2.0000      -0.496416       -13.5082
  36   2.0000      -0.478084       -13.0093
  37   2.0000      -0.460949       -12.5431
  38   2.0000      -0.459280       -12.4976
  39   2.0000      -0.456516       -12.4224
  40   2.0000      -0.427767       -11.6401
  41   2.0000      -0.423013       -11.5108
  42   2.0000      -0.412570       -11.2266
  43   2.0000      -0.398937       -10.8556
  44   2.0000      -0.397132       -10.8065
  45   2.0000      -0.387014       -10.5312
  46   2.0000      -0.367026        -9.9873
  47   2.0000      -0.365039        -9.9332
  48   2.0000      -0.352607        -9.5949
  49   0.0000       0.036972         1.0061
  50   0.0000       0.068317         1.8590
  51   0.0000       0.075122         2.0442
  52   0.0000       0.078708         2.1417
  53   0.0000       0.090169         2.4536

MULLIKEN ATOMIC CHARGES
-----------------------
   0 C :   -0.248248
   1 C :   -0.539193
   2 C :   -0.285587
   3 C :   -0.380935
   4 S :    0.976367
   5 H :    0.218384
   6 H :    0.142313
   7 H :    0.129187
   8 O :   -0.445059
   9 O :   -0.474169
  10 H :    0.138700
  11 H :    0.133805
  12 F :   -0.125311
  13 C :   -0.284905
  14 H :    0.136633
  15 H :    0.148271
  16 C :   -0.372110
  17 H :    0.143996
  18 H :    0.182281
  19 C :   -0.271395
  20 H :    0.210465
  21 H :    0.197949
  22 H :    0.178695
  23 H :    0.158051
  24 H :    0.161200
  25 H :    0.170617
Sum of atomic charges:    0.0000000

LOEWDIN ATOMIC CHARGES
----------------------
   0 C :   -0.307087
   1 C :   -0.336493
   2 C :   -0.271761
   3 C :   -0.360996
   4 S :    0.587474
   5 H :    0.112630
   6 H :    0.107140
   7 H :    0.091217
   8 O :   -0.258800
   9 O :   -0.291633
  10 H :    0.131056
  11 H :    0.136919
  12 F :    0.064823
  13 C :   -0.275148
  14 H :    0.135983
  15 H :    0.140847
  16 C :   -0.274490
  17 H :    0.138019
  18 H :    0.141236
  19 C :   -0.287531
  20 H :    0.152594
  21 H :    0.147251
  22 H :    0.139499
  23 H :    0.143253
  24 H :    0.149752
  25 H :    0.144246

  Mayer bond orders larger than 0.100000
B(  0-C ,  1-C ) :   0.8401 B(  0-C ,  2-C ) :   0.9098 B(  0-C , 10-H ) :   0.9970
B(  0-C , 11-H ) :   0.9875 B(  1-C ,  5-H ) :   0.9671 B(  1-C ,  6-H ) :   0.9886
B(  1-C ,  7-H ) :   0.9863 B(  2-C , 13-C ) :   0.9292 B(  2-C , 14-H ) :   0.9925
B(  2-C , 15-H ) :   0.9844 B(  3-C ,  4-S ) :   0.9196 B(  3-C , 19-C ) :   0.9045
B(  3-C , 20-H ) :   0.9391 B(  3-C , 21-H ) :   0.9514 B(  4-S ,  8-O ) :   1.9581
B(  4-S ,  9-O ) :   1.8052 B(  4-S , 12-F ) :   1.0614 B( 13-C , 16-C ) :   0.8543
B( 13-C , 17-H ) :   0.9781 B( 13-C , 18-H ) :   0.9795 B( 16-C , 19-C ) :   0.9037
B( 16-C , 22-H ) :   1.0008 B( 16-C , 23-H ) :   0.9703 B( 19-C , 24-H ) :   0.9621
B( 19-C , 25-H ) :   0.9890

Dispersion correction           -0.001234628
FINAL SINGLE POINT ENERGY      -924.161334004896

DIPOLE MOMENT
-------------
                                X             Y             Z
Electronic contribution:    -16.49886      -6.86306      -3.42602
Nuclear contribution   :     17.63907       5.79106       3.97609
                        -----------------------------------------
Total Dipole Moment    :      1.14021      -1.07199       0.55007
                        -----------------------------------------
Magnitude (a.u.)       :      1.65886
Magnitude (Debye)      :      4.21650

Rotational constants in cm-1:     0.048663     0.025472     0.020259
Rotational constants in MHz :  1458.892793   763.621130   607.350055

                             ****ORCA TERMINATED NORMALLY****
TOTAL RUN TIME: 0 days 0 hours 0 minutes 49 seconds 501 msec
