                         Program Version 5.0.0 -  RELEASE  -
|  1> !PBE D3BJ RIJCOSX def2-TZVP def2/J TightSCF
|  2> *xyz -1 1
|  3> C          4.90646       -3.10282       -5.95484
|  4> C          3.51177       -2.80621       -6.49228
|  5> H          2.73604       -3.37345       -5.97374
|  6> H          3.44490       -3.04083       -7.55528
|  7> S          3.00462       -1.09621       -6.38926
|  8> O          4.12886       -0.32965       -6.95372
|  9> O          1.78128       -1.00078       -7.13640
| 10> O          2.85155       -0.78368       -4.95679
| 11> H          5.62703       -2.52424       -6.49422
| 12> H          5.12164       -4.14387       -6.07654
| 13> H          4.95004       -2.84862       -4.91639
| 14> *
| 15>
| 16> %MaxCore 64000
| 17>
| 18> %pal nprocs 4
| 19> end
| 20>
| 21> %scf
| 22>   MaxIter 150
| 23> end
| 24>
| 25>
| 26>                          ****END OF INPUT****

CARTESIAN COORDINATES (ANGSTROEM)
---------------------------------
  C      4.906460   -3.102820   -5.954840
  C      3.511770   -2.806210   -6.492280
  H      2.736040   -3.373450   -5.973740
  H      3.444900   -3.040830   -7.555280
  S      3.004620   -1.096210   -6.389260
  O      4.128860   -0.329650   -6.953720
  O      1.781280   -1.000780   -7.136400
  O      2.851550   -0.783680   -4.956790
  H      5.627030   -2.524240   -6.494220
  H      5.121640   -4.143870   -6.076540
  H      4.950040   -2.848620   -4.916390

 Total Charge           Charge          ....   -1
 Multiplicity           Mult            ....    1
 Number of Electrons    NEL             ....   58
 Basis Dimension        Dim             ....  222

ORBITAL ENERGIES
----------------

  NO   OCC          E(Eh)            E(eV)
   0   2.0000     -88.001002     -2394.6290
   1   2.0000     -18.521989      -504.0089
   2   2.0000     -18.510458      -503.6952
   3   2.0000     -18.509819      -503.6778
   4   2.0000      -9.736598      -264.9463
   5   2.0000      -9.730215      -264.7726
   6   2.0000      -7.595923      -206.6956
   7   2.0000      -5.616795      -152.8408
   8   2.0000      -5.615848      -152.8150
   9   2.0000      -5.615570      -152.8074
  10   2.0000      -0.821613       -22.3572
  11   2.0000      -0.694718       -18.9042
  12   2.0000      -0.675235       -18.3741
  13   2.0000      -0.556223       -15.1356
  14   2.0000      -0.438976       -11.9451
  15   2.0000      -0.316053        -8.6002
  16   2.0000      -0.264699        -7.2028
  17   2.0000      -0.253033        -6.8854
  18   2.0000      -0.219376        -5.9695
  19   2.0000      -0.201140        -5.4733
  20   2.0000      -0.196600        -5.3497
  21   2.0000      -0.177908        -4.8411
  22   2.0000      -0.163089        -4.4379
  23   2.0000      -0.093275        -2.5381
  24   2.0000      -0.091945        -2.5020
  25   2.0000      -0.062600        -1.7034
  26   2.0000      -0.055397        -1.5074
  27   2.0000      -0.047020        -1.2795
  28   2.0000      -0.008355        -0.2274
  29   0.0000       0.156639         4.2624
  30   0.0000       0.198337         5.3970
  31   0.0000       0.211865         5.7651
  32   0.0000       0.217323         5.9136
  33   0.0000       0.242773         6.6062

MULLIKEN ATOMIC CHARGES
-----------------------
   0 C :   -0.317026
   1 C :   -0.216174
   2 H :    0.068303
   3 H :    0.070367
   4 S :    0.653353
   5 O :   -0.524875
   6 O :   -0.479763
   7 O :   -0.525733
   8 H :    0.109058
   9 H :    0.061263
  10 H :    0.101227
Sum of atomic charges:   -1.0000000

LOEWDIN ATOMIC CHARGES
----------------------
   0 C :   -0.349069
   1 C :   -0.445601
   2 H :    0.117343
   3 H :    0.118900
   4 S :    0.352473
   5 O :   -0.387021
   6 O :   -0.343353
   7 O :   -0.392440
   8 H :    0.115202
   9 H :    0.099429
  10 H :    0.114137

  Mayer bond orders larger than 0.100000
B(  0-C ,  1-C ) :   0.9810 B(  0-C ,  8-H ) :   0.9655 B(  0-C ,  9-H ) :   0.9528
B(  0-C , 10-H ) :   0.9678 B(  1-C ,  2-H ) :   0.9463 B(  1-C ,  3-H ) :   0.9444
B(  1-C ,  4-S ) :   0.8571 B(  4-S ,  5-O ) :   1.7777 B(  4-S ,  6-O ) :   1.8788
B(  4-S ,  7-O ) :   1.8027

Dispersion correction           -0.009670564
FINAL SINGLE POINT ENERGY      -702.808368667970

DIPOLE MOMENT
-------------
                                X             Y             Z
Electronic contribution:     -4.43829       6.57473      -0.66015
Nuclear contribution   :      5.05690      -8.21735       0.57889
                        -----------------------------------------
Total Dipole Moment    :      0.61861      -1.64263      -0.08126
                        -----------------------------------------
Magnitude (a.u.)       :      1.75713
Magnitude (Debye)      :      4.46627

Rotational constants in cm-1:     0.162547     0.083494     0.081672
Rotational constants in MHz :  4873.033504  2503.090885  2448.458543

                             ****ORCA TERMINATED NORMALLY****
TOTAL RUN TIME: 0 days 0 hours 0 minutes 6 seconds 911 msec
