                         Program Version 5.0.0 -  RELEASE  -
|  1> !PBE D3BJ RIJCOSX def2-TZVP def2/J TightSCF
|  2> *xyz 1 1
|  3> C          4.49059        1.15590       -2.46929
|  4> N          4.30539        1.22276       -3.90832
|  5> C          4.63192        2.24637       -4.67096
|  6> N          4.54169        2.14399       -5.98714
|  7> N          5.08409        3.39358       -4.11855
|  8> H          4.92067        3.57050       -3.13587
|  9> H          5.25465        4.19739       -4.70696
| 10> H          3.82453        0.44911       -4.35093
| 11> H          4.34337        1.24932       -6.41665
| 12> H          4.67671        2.95662       -6.57411
| 13> C          5.94213        0.93950       -2.03689
| 14> H          3.86431        0.32853       -2.13661
| 15> H          4.07623        2.04999       -1.98901
| 16> H          6.32982        0.06401       -2.51451
| 17> H          5.98308        0.81426       -0.97504
| 18> H          6.52865        1.78889       -2.31873
| 19> *
| 20>
| 21> %MaxCore 64000
| 22>
| 23> %pal nprocs 4
| 24> end
| 25>
| 26> %scf
| 27>   MaxIter 150
| 28> end
| 29>
| 30>
| 31>                          ****END OF INPUT****

CARTESIAN COORDINATES (ANGSTROEM)
---------------------------------
  C      4.490590    1.155900   -2.469290
  N      4.305390    1.222760   -3.908320
  C      4.631920    2.246370   -4.670960
  N      4.541690    2.143990   -5.987140
  N      5.084090    3.393580   -4.118550
  H      4.920670    3.570500   -3.135870
  H      5.254650    4.197390   -4.706960
  H      3.824530    0.449110   -4.350930
  H      4.343370    1.249320   -6.416650
  H      4.676710    2.956620   -6.574110
  C      5.942130    0.939500   -2.036890
  H      3.864310    0.328530   -2.136610
  H      4.076230    2.049990   -1.989010
  H      6.329820    0.064010   -2.514510
  H      5.983080    0.814260   -0.975040
  H      6.528650    1.788890   -2.318730

 Total Charge           Charge          ....    1
 Multiplicity           Mult            ....    1
 Number of Electrons    NEL             ....   48
 Basis Dimension        Dim             ....  246

ORBITAL ENERGIES
----------------

  NO   OCC          E(Eh)            E(eV)
   0   2.0000     -14.207847      -386.6152
   1   2.0000     -14.205195      -386.5430
   2   2.0000     -14.202892      -386.4803
   3   2.0000     -10.202023      -277.6112
   4   2.0000     -10.087342      -274.4905
   5   2.0000     -10.013989      -272.4945
   6   2.0000      -1.129760       -30.7423
   7   2.0000      -1.027402       -27.9570
   8   2.0000      -1.012693       -27.5568
   9   2.0000      -0.861062       -23.4307
  10   2.0000      -0.783861       -21.3299
  11   2.0000      -0.742496       -20.2043
  12   2.0000      -0.730968       -19.8907
  13   2.0000      -0.688487       -18.7347
  14   2.0000      -0.641960       -17.4686
  15   2.0000      -0.640132       -17.4189
  16   2.0000      -0.610261       -16.6060
  17   2.0000      -0.576547       -15.6886
  18   2.0000      -0.555633       -15.1195
  19   2.0000      -0.513874       -13.9832
  20   2.0000      -0.486830       -13.2473
  21   2.0000      -0.467979       -12.7344
  22   2.0000      -0.433868       -11.8062
  23   2.0000      -0.411606       -11.2004
  24   0.0000      -0.196594        -5.3496
  25   0.0000      -0.176220        -4.7952
  26   0.0000      -0.142661        -3.8820
  27   0.0000      -0.135633        -3.6908
  28   0.0000      -0.116507        -3.1703

MULLIKEN ATOMIC CHARGES
-----------------------
   0 C :   -0.216260
   1 N :   -0.196874
   2 C :    0.378348
   3 N :   -0.360269
   4 N :   -0.373414
   5 H :    0.275981
   6 H :    0.265150
   7 H :    0.249644
   8 H :    0.275493
   9 H :    0.275381
  10 C :   -0.306998
  11 H :    0.160052
  12 H :    0.145682
  13 H :    0.136229
  14 H :    0.162067
  15 H :    0.129789
Sum of atomic charges:    1.0000000

LOEWDIN ATOMIC CHARGES
----------------------
   0 C :   -0.293122
   1 N :    0.183871
   2 C :   -0.428412
   3 N :    0.081414
   4 N :    0.067970
   5 H :    0.192747
   6 H :    0.193080
   7 H :    0.210780
   8 H :    0.197526
   9 H :    0.197130
  10 C :   -0.285467
  11 H :    0.153298
  12 H :    0.139314
  13 H :    0.129302
  14 H :    0.138500
  15 H :    0.122070

  Mayer bond orders larger than 0.100000
B(  0-C ,  1-N ) :   0.9190 B(  0-C , 10-C ) :   0.9987 B(  0-C , 11-H ) :   0.9375
B(  0-C , 12-H ) :   0.9636 B(  1-N ,  2-C ) :   1.3904 B(  1-N ,  7-H ) :   0.9003
B(  2-C ,  3-N ) :   1.3513 B(  2-C ,  4-N ) :   1.3301 B(  3-N ,  8-H ) :   0.8962
B(  3-N ,  9-H ) :   0.8931 B(  4-N ,  5-H ) :   0.8844 B(  4-N ,  6-H ) :   0.9003
B( 10-C , 13-H ) :   0.9560 B( 10-C , 14-H ) :   0.9556 B( 10-C , 15-H ) :   0.9623

Dispersion correction           -0.012437358
FINAL SINGLE POINT ENERGY      -284.156172182926

DIPOLE MOMENT
-------------
                                X             Y             Z
Electronic contribution:     -1.80387       1.57346      -4.47278
Nuclear contribution   :      1.34333      -1.11039       3.43667
                        -----------------------------------------
Total Dipole Moment    :     -0.46055       0.46306      -1.03611
                        -----------------------------------------
Magnitude (a.u.)       :      1.22477
Magnitude (Debye)      :      3.11311

Rotational constants in cm-1:     0.227161     0.075356     0.065003
Rotational constants in MHz :  6810.114531  2259.122204  1948.738523

                             ****ORCA TERMINATED NORMALLY****
TOTAL RUN TIME: 0 days 0 hours 0 minutes 8 seconds 218 msec
