                         Program Version 5.0.0 -  RELEASE  -
|  1> !PBE D3BJ RIJCOSX def2-TZVP def2/J TightSCF xyzfile
|  2>
|  3> *xyzfile 0 1 B.xyz
|  4>
|  5> %MaxCore 64000
|  6>
|  7> %pal nprocs 18
|  8> end
|  9>
| 10> %scf
| 11>   MaxIter 150
| 12> end
| 13>
| 14>
| 15>                          ****END OF INPUT****

CARTESIAN COORDINATES (ANGSTROEM)
---------------------------------
  C      4.490588    1.155899   -2.469290
  N      4.305394    1.222762   -3.908317
  C      4.906458   -3.102816   -5.954844
  C      3.511771   -2.806215   -6.492283
  H      2.736044   -3.373445   -5.973736
  H      3.444904   -3.040831   -7.555281
  S      3.004618   -1.096206   -6.389259
  C      4.631918    2.246365   -4.670958
  N      4.541686    2.143990   -5.987139
  N      5.084086    3.393584   -4.118545
  H      4.920675    3.570501   -3.135870
  H      5.254652    4.197390   -4.706956
  H      3.824530    0.449113   -4.350926
  H      4.343373    1.249318   -6.416646
  H      4.676712    2.956624   -6.574113
  O      4.128856   -0.329647   -6.953717
  O      1.781285   -1.000779   -7.136399
  C      5.942129    0.939500   -2.036893
  H      3.864305    0.328532   -2.136611
  H      4.076233    2.049994   -1.989010
  C      6.462677   -3.117775   -3.944671
  C      5.024977   -3.025679   -4.437625
  H      4.423321   -3.818693   -3.977648
  H      4.579350   -2.087131   -4.108727
  H      5.201533   -4.100207   -6.296905
  H      5.605922   -2.397822   -6.413368
  C      6.559957   -0.356290   -2.559086
  H      5.967976    0.952567   -0.942444
  H      6.547184    1.788331   -2.368849
  C      6.006283   -1.615917   -1.899301
  H      7.642360   -0.318000   -2.402059
  H      6.414855   -0.403433   -3.642587
  C      6.608718   -2.917014   -2.435655
  H      6.190324   -1.561115   -0.820948
  H      4.919250   -1.651245   -2.016586
  H      7.066975   -2.374258   -4.475514
  H      6.887808   -4.089747   -4.215332
  H      6.135197   -3.755573   -1.915159
  H      7.671142   -2.955503   -2.172291
  O      2.851546   -0.783683   -4.956789

 Total Charge           Charge          ....    0
 Multiplicity           Mult            ....    1
 Number of Electrons    NEL             ....  144
 Basis Dimension        Dim             ....  671

ORBITAL ENERGIES
----------------

  NO   OCC          E(Eh)            E(eV)
   0   2.0000     -88.163588     -2399.0532
   1   2.0000     -18.686659      -508.4898
   2   2.0000     -18.686585      -508.4878
   3   2.0000     -18.672104      -508.0938
   4   2.0000     -14.056470      -382.4960
   5   2.0000     -14.027783      -381.7154
   6   2.0000     -14.023240      -381.5918
   7   2.0000     -10.037418      -273.1320
   8   2.0000      -9.944766      -270.6109
   9   2.0000      -9.900863      -269.4162
  10   2.0000      -9.884592      -268.9734
  11   2.0000      -9.877812      -268.7889
  12   2.0000      -9.872653      -268.6486
  13   2.0000      -9.868725      -268.5417
  14   2.0000      -9.865380      -268.4506
  15   2.0000      -9.862208      -268.3643
  16   2.0000      -9.855585      -268.1841
  17   2.0000      -7.759237      -211.1396
  18   2.0000      -5.780150      -157.2859
  19   2.0000      -5.779334      -157.2637
  20   2.0000      -5.778474      -157.2403
  21   2.0000      -0.989013       -26.9124
  22   2.0000      -0.965514       -26.2730
  23   2.0000      -0.866142       -23.5689
  24   2.0000      -0.858954       -23.3733
  25   2.0000      -0.854088       -23.2409
  26   2.0000      -0.847585       -23.0640
  27   2.0000      -0.749552       -20.3963
  28   2.0000      -0.724325       -19.7099
  29   2.0000      -0.698987       -19.0204
  30   2.0000      -0.666143       -18.1267
  31   2.0000      -0.633098       -17.2275
  32   2.0000      -0.612919       -16.6784
  33   2.0000      -0.585124       -15.9220
  34   2.0000      -0.569519       -15.4974
  35   2.0000      -0.557006       -15.1569
  36   2.0000      -0.534001       -14.5309
  37   2.0000      -0.519705       -14.1419
  38   2.0000      -0.493549       -13.4301
  39   2.0000      -0.488984       -13.3059
  40   2.0000      -0.485137       -13.2013
  41   2.0000      -0.461701       -12.5635
  42   2.0000      -0.450698       -12.2641
  43   2.0000      -0.436038       -11.8652
  44   2.0000      -0.427390       -11.6299
  45   2.0000      -0.414377       -11.2758
  46   2.0000      -0.406685       -11.0665
  47   2.0000      -0.398786       -10.8515
  48   2.0000      -0.385412       -10.4876
  49   2.0000      -0.381235       -10.3739
  50   2.0000      -0.372983       -10.1494
  51   2.0000      -0.368516       -10.0278
  52   2.0000      -0.355512        -9.6740
  53   2.0000      -0.350498        -9.5375
  54   2.0000      -0.341407        -9.2902
  55   2.0000      -0.334430        -9.1003
  56   2.0000      -0.322139        -8.7658
  57   2.0000      -0.313590        -8.5332
  58   2.0000      -0.304720        -8.2918
  59   2.0000      -0.292403        -7.9567
  60   2.0000      -0.282644        -7.6911
  61   2.0000      -0.279042        -7.5931
  62   2.0000      -0.272900        -7.4260
  63   2.0000      -0.268498        -7.3062
  64   2.0000      -0.268027        -7.2934
  65   2.0000      -0.261989        -7.1291
  66   2.0000      -0.254376        -6.9219
  67   2.0000      -0.247384        -6.7317
  68   2.0000      -0.223951        -6.0940
  69   2.0000      -0.216276        -5.8852
  70   2.0000      -0.210518        -5.7285
  71   2.0000      -0.180264        -4.9052
  72   0.0000      -0.039224        -1.0673
  73   0.0000      -0.037114        -1.0099
  74   0.0000      -0.007683        -0.2091
  75   0.0000       0.017095         0.4652
  76   0.0000       0.025178         0.6851

MULLIKEN ATOMIC CHARGES
-----------------------
   0 C :   -0.256671
   1 N :   -0.147727
   2 C :   -0.134852
   3 C :   -0.186716
   4 H :    0.103046
   5 H :    0.120077
   6 S :    0.701165
   7 C :    0.329088
   8 N :   -0.345780
   9 N :   -0.408306
  10 H :    0.252074
  11 H :    0.236613
  12 H :    0.230572
  13 H :    0.269900
  14 H :    0.224018
  15 O :   -0.535482
  16 O :   -0.421867
  17 C :   -0.100073
  18 H :    0.160283
  19 H :    0.119396
  20 C :   -0.174249
  21 C :   -0.278879
  22 H :    0.072456
  23 H :    0.111256
  24 H :    0.082828
  25 H :    0.097198
  26 C :   -0.227323
  27 H :    0.092332
  28 H :    0.100592
  29 C :   -0.241584
  30 H :    0.094928
  31 H :    0.125876
  32 C :   -0.103892
  33 H :    0.085989
  34 H :    0.116458
  35 H :    0.095666
  36 H :    0.086474
  37 H :    0.086365
  38 H :    0.085688
  39 O :   -0.516936
Sum of atomic charges:    0.0000000

LOEWDIN ATOMIC CHARGES
----------------------
   0 C :   -0.281246
   1 N :    0.190232
   2 C :   -0.292899
   3 C :   -0.387285
   4 H :    0.135713
   5 H :    0.137847
   6 S :    0.397041
   7 C :   -0.446844
   8 N :    0.075411
   9 N :    0.026562
  10 H :    0.178443
  11 H :    0.176917
  12 H :    0.168983
  13 H :    0.151171
  14 H :    0.175408
  15 O :   -0.344709
  16 O :   -0.288467
  17 C :   -0.273781
  18 H :    0.150377
  19 H :    0.128569
  20 C :   -0.275758
  21 C :   -0.278112
  22 H :    0.136000
  23 H :    0.137200
  24 H :    0.136581
  25 H :    0.140993
  26 C :   -0.269602
  27 H :    0.143267
  28 H :    0.135355
  29 C :   -0.274955
  30 H :    0.140403
  31 H :    0.143732
  32 C :   -0.270268
  33 H :    0.136292
  34 H :    0.137470
  35 H :    0.135316
  36 H :    0.136152
  37 H :    0.138677
  38 H :    0.136000
  39 O :   -0.342187

  Mayer bond orders larger than 0.100000
B(  0-C ,  1-N ) :   0.9414 B(  0-C , 17-C ) :   0.9733 B(  0-C , 18-H ) :   0.9555
B(  0-C , 19-H ) :   0.9606 B(  1-N ,  7-C ) :   1.4178 B(  1-N , 12-H ) :   0.7888
B(  2-C ,  3-C ) :   0.9901 B(  2-C , 21-C ) :   1.0311 B(  2-C , 24-H ) :   0.9320
B(  2-C , 25-H ) :   0.9384 B(  3-C ,  4-H ) :   0.9425 B(  3-C ,  5-H ) :   0.9410
B(  3-C ,  6-S ) :   0.8874 B(  6-S , 15-O ) :   1.5810 B(  6-S , 16-O ) :   1.9712
B(  6-S , 39-O ) :   1.5880 B(  7-C ,  8-N ) :   1.4164 B(  7-C ,  9-N ) :   1.2551
B(  8-N , 13-H ) :   0.7730 B(  8-N , 14-H ) :   0.9124 B(  9-N , 10-H ) :   0.8970
B(  9-N , 11-H ) :   0.9117 B( 12-H , 39-O ) :   0.2017 B( 13-H , 15-O ) :   0.1995
B( 17-C , 26-C ) :   0.9961 B( 17-C , 27-H ) :   0.9419 B( 17-C , 28-H ) :   0.9478
B( 20-C , 21-C ) :   1.0009 B( 20-C , 32-C ) :   1.0035 B( 20-C , 35-H ) :   0.9615
B( 20-C , 36-H ) :   0.9443 B( 21-C , 22-H ) :   0.9464 B( 21-C , 23-H ) :   0.9532
B( 26-C , 29-C ) :   1.0083 B( 26-C , 30-H ) :   0.9439 B( 26-C , 31-H ) :   0.9574
B( 29-C , 32-C ) :   1.0110 B( 29-C , 33-H ) :   0.9386 B( 29-C , 34-H ) :   0.9632
B( 32-C , 37-H ) :   0.9476 B( 32-C , 38-H ) :   0.9489

Dispersion correction           -0.048757952
FINAL SINGLE POINT ENERGY     -1182.318012242666

DIPOLE MOMENT
-------------
                                X             Y             Z
Electronic contribution:    -14.61706       8.39489     -15.41923
Nuclear contribution   :     16.79156      -5.47215      17.54258
                        -----------------------------------------
Total Dipole Moment    :      2.17450       2.92274       2.12335
                        -----------------------------------------
Magnitude (a.u.)       :      4.21657
Magnitude (Debye)      :     10.71767

Rotational constants in cm-1:     0.014207     0.012373     0.007472
Rotational constants in MHz :   425.900436   370.942493   224.006604

                             ****ORCA TERMINATED NORMALLY****
TOTAL RUN TIME: 0 days 0 hours 0 minutes 37 seconds 364 msec
