                         Program Version 5.0.0 -  RELEASE  -
|  1> !PBE D3BJ RIJCOSX def2-TZVP def2/J TightSCF
|  2> *xyz 0 1
|  3> C          4.90646       -3.10282       -5.95484
|  4> C          3.51177       -2.80621       -6.49228
|  5> H          2.73604       -3.37345       -5.97374
|  6> H          3.44490       -3.04083       -7.55528
|  7> S          3.00462       -1.09621       -6.38926
|  8> F          4.12886       -0.32965       -6.95372
|  9> O          1.78128       -1.00078       -7.13640
| 10> O          2.85155       -0.78368       -4.95679
| 11> H          5.62703       -2.52424       -6.49422
| 12> H          5.12164       -4.14387       -6.07654
| 13> H          4.95004       -2.84862       -4.91639
| 14> *
| 15>
| 16> %MaxCore 64000
| 17>
| 18> %pal nprocs 4
| 19> end
| 20>
| 21> %scf
| 22>   MaxIter 150
| 23> end
| 24>
| 25>
| 26>                          ****END OF INPUT****

CARTESIAN COORDINATES (ANGSTROEM)
---------------------------------
  C      4.906460   -3.102820   -5.954840
  C      3.511770   -2.806210   -6.492280
  H      2.736040   -3.373450   -5.973740
  H      3.444900   -3.040830   -7.555280
  S      3.004620   -1.096210   -6.389260
  F      4.128860   -0.329650   -6.953720
  O      1.781280   -1.000780   -7.136400
  O      2.851550   -0.783680   -4.956790
  H      5.627030   -2.524240   -6.494220
  H      5.121640   -4.143870   -6.076540
  H      4.950040   -2.848620   -4.916390

 Total Charge           Charge          ....    0
 Multiplicity           Mult            ....    1
 Number of Electrons    NEL             ....   58
 Basis Dimension        Dim             ....  222

ORBITAL ENERGIES
----------------

  NO   OCC          E(Eh)            E(eV)
   0   2.0000     -88.263936     -2401.7838
   1   2.0000     -24.356394      -662.7712
   2   2.0000     -18.760722      -510.5052
   3   2.0000     -18.749355      -510.1959
   4   2.0000      -9.940861      -270.5046
   5   2.0000      -9.901439      -269.4318
   6   2.0000      -7.859612      -213.8709
   7   2.0000      -5.884106      -160.1147
   8   2.0000      -5.877355      -159.9310
   9   2.0000      -5.877176      -159.9261
  10   2.0000      -1.250419       -34.0256
  11   2.0000      -1.016019       -27.6473
  12   2.0000      -0.922375       -25.0991
  13   2.0000      -0.753614       -20.5069
  14   2.0000      -0.656463       -17.8633
  15   2.0000      -0.610731       -16.6188
  16   2.0000      -0.520520       -14.1641
  17   2.0000      -0.500761       -13.6264
  18   2.0000      -0.485744       -13.2178
  19   2.0000      -0.444914       -12.1067
  20   2.0000      -0.422213       -11.4890
  21   2.0000      -0.402535       -10.9535
  22   2.0000      -0.387143       -10.5347
  23   2.0000      -0.365631        -9.9493
  24   2.0000      -0.354092        -9.6353
  25   2.0000      -0.333008        -9.0616
  26   2.0000      -0.291700        -7.9376
  27   2.0000      -0.280218        -7.6251
  28   2.0000      -0.262911        -7.1542
  29   0.0000      -0.016278        -0.4429
  30   0.0000       0.016792         0.4569
  31   0.0000       0.032680         0.8893
  32   0.0000       0.042229         1.1491
  33   0.0000       0.050396         1.3714

MULLIKEN ATOMIC CHARGES
-----------------------
   0 C :   -0.351382
   1 C :   -0.231854
   2 H :    0.154666
   3 H :    0.138328
   4 S :    0.709115
   5 F :   -0.082896
   6 O :   -0.344778
   7 O :   -0.390504
   8 H :    0.124817
   9 H :    0.129842
  10 H :    0.144647
Sum of atomic charges:    0.0000000

LOEWDIN ATOMIC CHARGES
----------------------
   0 C :   -0.319781
   1 C :   -0.403629
   2 H :    0.151673
   3 H :    0.140788
   4 S :    0.477691
   5 F :    0.080456
   6 O :   -0.228522
   7 O :   -0.274538
   8 H :    0.121268
   9 H :    0.126972
  10 H :    0.127621

  Mayer bond orders larger than 0.100000
B(  0-C ,  1-C ) :   0.9891 B(  0-C ,  8-H ) :   0.9655 B(  0-C ,  9-H ) :   0.9530
B(  0-C , 10-H ) :   0.9617 B(  1-C ,  2-H ) :   0.9321 B(  1-C ,  3-H ) :   0.9299
B(  1-C ,  4-S ) :   0.8988 B(  4-S ,  5-F ) :   1.1327 B(  4-S ,  6-O ) :   1.9981
B(  4-S ,  7-O ) :   1.9315

Dispersion correction           -0.009208151
FINAL SINGLE POINT ENERGY      -727.330419520679

DIPOLE MOMENT
-------------
                                X             Y             Z
Electronic contribution:     -3.05469       8.27326      -1.72388
Nuclear contribution   :      4.18919      -9.36357       1.23251
                        -----------------------------------------
Total Dipole Moment    :      1.13450      -1.09031      -0.49137
                        -----------------------------------------
Magnitude (a.u.)       :      1.64843
Magnitude (Debye)      :      4.18997

Rotational constants in cm-1:     0.153152     0.082513     0.079874
Rotational constants in MHz :  4591.373714  2473.673397  2394.575279

                             ****ORCA TERMINATED NORMALLY****
TOTAL RUN TIME: 0 days 0 hours 0 minutes 6 seconds 608 msec
