                         Program Version 5.0.0 -  RELEASE  -
|  1> !PBE D3BJ RIJCOSX def2-TZVP def2/J TightSCF
|  2> *xyz 0 1
|  3> C          4.49059        1.15590       -2.46929
|  4> C          4.30539        1.22276       -3.90832
|  5> C          4.63192        2.24637       -4.67096
|  6> N          4.54169        2.14399       -5.98714
|  7> N          5.08409        3.39358       -4.11855
|  8> H          4.92067        3.57050       -3.13587
|  9> H          5.25465        4.19739       -4.70696
| 10> H          3.82453        0.44911       -4.35093
| 11> H          4.34337        1.24932       -6.41665
| 12> H          4.67671        2.95662       -6.57411
| 13> C          5.94213        0.93950       -2.03689
| 14> H          3.86431        0.32853       -2.13661
| 15> H          4.07623        2.04999       -1.98901
| 16> H          6.32982        0.06401       -2.51451
| 17> H          5.98308        0.81426       -0.97504
| 18> H          6.52865        1.78889       -2.31873
| 19> *
| 20>
| 21> %MaxCore 64000
| 22>
| 23> %pal nprocs 4
| 24> end
| 25>
| 26> %scf
| 27>   MaxIter 150
| 28> end
| 29>
| 30>
| 31>                          ****END OF INPUT****

CARTESIAN COORDINATES (ANGSTROEM)
---------------------------------
  C      4.490590    1.155900   -2.469290
  C      4.305390    1.222760   -3.908320
  C      4.631920    2.246370   -4.670960
  N      4.541690    2.143990   -5.987140
  N      5.084090    3.393580   -4.118550
  H      4.920670    3.570500   -3.135870
  H      5.254650    4.197390   -4.706960
  H      3.824530    0.449110   -4.350930
  H      4.343370    1.249320   -6.416650
  H      4.676710    2.956620   -6.574110
  C      5.942130    0.939500   -2.036890
  H      3.864310    0.328530   -2.136610
  H      4.076230    2.049990   -1.989010
  H      6.329820    0.064010   -2.514510
  H      5.983080    0.814260   -0.975040
  H      6.528650    1.788890   -2.318730

 Total Charge           Charge          ....    0
 Multiplicity           Mult            ....    1
 Number of Electrons    NEL             ....   48
 Basis Dimension        Dim             ....  246

ORBITAL ENERGIES
----------------

  NO   OCC          E(Eh)            E(eV)
   0   2.0000     -13.982919      -380.4946
   1   2.0000     -13.980624      -380.4321
   2   2.0000      -9.914656      -269.7915
   3   2.0000      -9.852835      -268.1093
   4   2.0000      -9.839503      -267.7465
   5   2.0000      -9.799462      -266.6569
   6   2.0000      -0.875831       -23.8326
   7   2.0000      -0.792444       -21.5635
   8   2.0000      -0.696528       -18.9535
   9   2.0000      -0.624243       -16.9865
  10   2.0000      -0.555244       -15.1090
  11   2.0000      -0.519529       -14.1371
  12   2.0000      -0.488541       -13.2939
  13   2.0000      -0.454344       -12.3633
  14   2.0000      -0.425674       -11.5832
  15   2.0000      -0.386746       -10.5239
  16   2.0000      -0.370248       -10.0750
  17   2.0000      -0.341943        -9.3047
  18   2.0000      -0.333920        -9.0864
  19   2.0000      -0.305249        -8.3062
  20   2.0000      -0.283082        -7.7031
  21   2.0000      -0.271985        -7.4011
  22   2.0000      -0.219792        -5.9808
  23   2.0000      -0.127062        -3.4575
  24   0.0000      -0.001449        -0.0394
  25   0.0000       0.028193         0.7672
  26   0.0000       0.040703         1.1076
  27   0.0000       0.053986         1.4690
  28   0.0000       0.063874         1.7381

MULLIKEN ATOMIC CHARGES
-----------------------
   0 C :   -0.208109
   1 C :   -0.315056
   2 C :    0.293128
   3 N :   -0.425533
   4 N :   -0.443018
   5 H :    0.232189
   6 H :    0.202006
   7 H :    0.080218
   8 H :    0.230599
   9 H :    0.202694
  10 C :   -0.290654
  11 H :    0.083301
  12 H :    0.063721
  13 H :    0.097195
  14 H :    0.095215
  15 H :    0.102104
Sum of atomic charges:   -0.0000000

LOEWDIN ATOMIC CHARGES
----------------------
   0 C :   -0.314612
   1 C :   -0.284181
   2 C :   -0.469094
   3 N :    0.000022
   4 N :   -0.009545
   5 H :    0.171533
   6 H :    0.157895
   7 H :    0.120784
   8 H :    0.176272
   9 H :    0.158466
  10 C :   -0.308826
  11 H :    0.141551
  12 H :    0.123832
  13 H :    0.115019
  14 H :    0.108482
  15 H :    0.112402

  Mayer bond orders larger than 0.100000
B(  0-C ,  1-C ) :   1.0693 B(  0-C , 10-C ) :   0.9835 B(  0-C , 11-H ) :   0.9548
B(  0-C , 12-H ) :   0.9547 B(  1-C ,  2-C ) :   1.6646 B(  1-C ,  7-H ) :   0.9739
B(  2-C ,  3-N ) :   1.1676 B(  2-C ,  4-N ) :   1.1516 B(  3-N ,  8-H ) :   0.9177
B(  3-N ,  9-H ) :   0.9183 B(  4-N ,  5-H ) :   0.9087 B(  4-N ,  6-H ) :   0.9245
B( 10-C , 13-H ) :   0.9719 B( 10-C , 14-H ) :   0.9642 B( 10-C , 15-H ) :   0.9720

Dispersion correction           -0.012896785
FINAL SINGLE POINT ENERGY      -267.674386426039

DIPOLE MOMENT
-------------
                                X             Y             Z
Electronic contribution:     -1.25603       2.03782      -4.21437
Nuclear contribution   :      1.23062      -1.24683       3.43056
                        -----------------------------------------
Total Dipole Moment    :     -0.02542       0.79099      -0.78381
                        -----------------------------------------
Magnitude (a.u.)       :      1.11385
Magnitude (Debye)      :      2.83118

Rotational constants in cm-1:     0.231477     0.075416     0.065327
Rotational constants in MHz :  6939.497385  2260.912204  1958.442932

                             ****ORCA TERMINATED NORMALLY****
TOTAL RUN TIME: 0 days 0 hours 0 minutes 9 seconds 747 msec
