                         Program Version 5.0.0 -  RELEASE  -
|  1> !PBE D3BJ RIJCOSX def2-TZVP def2/J TightSCF
|  2> *xyz 0 1
|  3> C          4.90646       -3.10282       -5.95484
|  4> C          3.51177       -2.80621       -6.49228
|  5> H          2.73604       -3.37345       -5.97374
|  6> H          3.44490       -3.04083       -7.55528
|  7> S          3.00462       -1.09621       -6.38926
|  8> O          4.12886       -0.32965       -6.95372
|  9> F          1.78128       -1.00078       -7.13640
| 10> O          2.85155       -0.78368       -4.95679
| 11> H          5.62703       -2.52424       -6.49422
| 12> H          5.12164       -4.14387       -6.07654
| 13> H          4.95004       -2.84862       -4.91639
| 14> *
| 15>
| 16> %MaxCore 64000
| 17>
| 18> %pal nprocs 4
| 19> end
| 20>
| 21> %scf
| 22>   MaxIter 150
| 23> end
| 24>
| 25>
| 26>                          ****END OF INPUT****

CARTESIAN COORDINATES (ANGSTROEM)
---------------------------------
  C      4.906460   -3.102820   -5.954840
  C      3.511770   -2.806210   -6.492280
  H      2.736040   -3.373450   -5.973740
  H      3.444900   -3.040830   -7.555280
  S      3.004620   -1.096210   -6.389260
  O      4.128860   -0.329650   -6.953720
  F      1.781280   -1.000780   -7.136400
  O      2.851550   -0.783680   -4.956790
  H      5.627030   -2.524240   -6.494220
  H      5.121640   -4.143870   -6.076540
  H      4.950040   -2.848620   -4.916390

 Total Charge           Charge          ....    0
 Multiplicity           Mult            ....    1
 Number of Electrons    NEL             ....   58
 Basis Dimension        Dim             ....  222

ORBITAL ENERGIES
----------------

  NO   OCC          E(Eh)            E(eV)
   0   2.0000     -88.265970     -2401.8391
   1   2.0000     -24.374663      -663.2683
   2   2.0000     -18.749160      -510.1906
   3   2.0000     -18.749073      -510.1882
   4   2.0000      -9.941528      -270.5227
   5   2.0000      -9.897354      -269.3207
   6   2.0000      -7.861510      -213.9226
   7   2.0000      -5.885831      -160.1616
   8   2.0000      -5.879259      -159.9828
   9   2.0000      -5.879139      -159.9795
  10   2.0000      -1.280134       -34.8342
  11   2.0000      -1.002811       -27.2879
  12   2.0000      -0.909318       -24.7438
  13   2.0000      -0.750658       -20.4265
  14   2.0000      -0.670018       -18.2321
  15   2.0000      -0.612056       -16.6549
  16   2.0000      -0.523857       -14.2549
  17   2.0000      -0.522179       -14.2092
  18   2.0000      -0.496133       -13.5005
  19   2.0000      -0.445457       -12.1215
  20   2.0000      -0.425114       -11.5679
  21   2.0000      -0.387767       -10.5517
  22   2.0000      -0.384163       -10.4536
  23   2.0000      -0.363350        -9.8872
  24   2.0000      -0.344879        -9.3846
  25   2.0000      -0.328685        -8.9440
  26   2.0000      -0.280815        -7.6414
  27   2.0000      -0.276985        -7.5372
  28   2.0000      -0.251628        -6.8471
  29   0.0000      -0.008346        -0.2271
  30   0.0000       0.005826         0.1585
  31   0.0000       0.032106         0.8737
  32   0.0000       0.039297         1.0693
  33   0.0000       0.047415         1.2902

MULLIKEN ATOMIC CHARGES
-----------------------
   0 C :   -0.347386
   1 C :   -0.220285
   2 H :    0.134488
   3 H :    0.128373
   4 S :    0.704799
   5 O :   -0.383228
   6 F :   -0.050169
   7 O :   -0.382740
   8 H :    0.145930
   9 H :    0.127953
  10 H :    0.142266
Sum of atomic charges:    0.0000000

LOEWDIN ATOMIC CHARGES
----------------------
   0 C :   -0.304870
   1 C :   -0.410309
   2 H :    0.138839
   3 H :    0.137770
   4 S :    0.469956
   5 O :   -0.268430
   6 F :    0.123347
   7 O :   -0.271968
   8 H :    0.129268
   9 H :    0.127182
  10 H :    0.129214

  Mayer bond orders larger than 0.100000
B(  0-C ,  1-C ) :   1.0063 B(  0-C ,  8-H ) :   0.9617 B(  0-C ,  9-H ) :   0.9493
B(  0-C , 10-H ) :   0.9637 B(  1-C ,  2-H ) :   0.9244 B(  1-C ,  3-H ) :   0.9231
B(  1-C ,  4-S ) :   0.9061 B(  4-S ,  5-O ) :   1.9220 B(  4-S ,  6-F ) :   1.1830
B(  4-S ,  7-O ) :   1.9374

Dispersion correction           -0.009260655
FINAL SINGLE POINT ENERGY      -727.315658236845

DIPOLE MOMENT
-------------
                                X             Y             Z
Electronic contribution:     -6.95952       7.17539      -2.02749
Nuclear contribution   :      6.63544      -8.66423       1.42287
                        -----------------------------------------
Total Dipole Moment    :     -0.32407      -1.48884      -0.60462
                        -----------------------------------------
Magnitude (a.u.)       :      1.63928
Magnitude (Debye)      :      4.16672

Rotational constants in cm-1:     0.158118     0.080978     0.078216
Rotational constants in MHz :  4740.271775  2427.649826  2344.849020

                             ****ORCA TERMINATED NORMALLY****
TOTAL RUN TIME: 0 days 0 hours 0 minutes 7 seconds 50 msec
