                         Program Version 5.0.0 -  RELEASE  -
|  1> !PBE D3BJ RIJCOSX def2-TZVP def2/J TightSCF
|  2> *xyz 0 1
|  3> C          4.49059        1.15590       -2.46929
|  4> N          4.30539        1.22276       -3.90832
|  5> C          4.63192        2.24637       -4.67096
|  6> C          4.54169        2.14399       -5.98714
|  7> N          5.08409        3.39358       -4.11855
|  8> H          4.92067        3.57050       -3.13587
|  9> H          5.25465        4.19739       -4.70696
| 10> H          3.82453        0.44911       -4.35093
| 11> H          4.34337        1.24932       -6.41665
| 12> H          4.67671        2.95662       -6.57411
| 13> C          5.94213        0.93950       -2.03689
| 14> H          3.86431        0.32853       -2.13661
| 15> H          4.07623        2.04999       -1.98901
| 16> H          6.32982        0.06401       -2.51451
| 17> H          5.98308        0.81426       -0.97504
| 18> H          6.52865        1.78889       -2.31873
| 19> *
| 20>
| 21> %MaxCore 64000
| 22>
| 23> %pal nprocs 4
| 24> end
| 25>
| 26> %scf
| 27>   MaxIter 150
| 28> end
| 29>
| 30>
| 31>                          ****END OF INPUT****

CARTESIAN COORDINATES (ANGSTROEM)
---------------------------------
  C      4.490590    1.155900   -2.469290
  N      4.305390    1.222760   -3.908320
  C      4.631920    2.246370   -4.670960
  C      4.541690    2.143990   -5.987140
  N      5.084090    3.393580   -4.118550
  H      4.920670    3.570500   -3.135870
  H      5.254650    4.197390   -4.706960
  H      3.824530    0.449110   -4.350930
  H      4.343370    1.249320   -6.416650
  H      4.676710    2.956620   -6.574110
  C      5.942130    0.939500   -2.036890
  H      3.864310    0.328530   -2.136610
  H      4.076230    2.049990   -1.989010
  H      6.329820    0.064010   -2.514510
  H      5.983080    0.814260   -0.975040
  H      6.528650    1.788890   -2.318730

 Total Charge           Charge          ....    0
 Multiplicity           Mult            ....    1
 Number of Electrons    NEL             ....   48
 Basis Dimension        Dim             ....  246

ORBITAL ENERGIES
----------------

  NO   OCC          E(Eh)            E(eV)
   0   2.0000     -13.985286      -380.5590
   1   2.0000     -13.981142      -380.4462
   2   2.0000      -9.919889      -269.9339
   3   2.0000      -9.916671      -269.8463
   4   2.0000      -9.866627      -268.4846
   5   2.0000      -9.789703      -266.3914
   6   2.0000      -0.884359       -24.0646
   7   2.0000      -0.803617       -21.8675
   8   2.0000      -0.699100       -19.0235
   9   2.0000      -0.632301       -17.2058
  10   2.0000      -0.568148       -15.4601
  11   2.0000      -0.540764       -14.7149
  12   2.0000      -0.481795       -13.1103
  13   2.0000      -0.446870       -12.1600
  14   2.0000      -0.431477       -11.7411
  15   2.0000      -0.398951       -10.8560
  16   2.0000      -0.375394       -10.2150
  17   2.0000      -0.354689        -9.6516
  18   2.0000      -0.335175        -9.1206
  19   2.0000      -0.329608        -8.9691
  20   2.0000      -0.314489        -8.5577
  21   2.0000      -0.308346        -8.3905
  22   2.0000      -0.211747        -5.7619
  23   2.0000      -0.129940        -3.5359
  24   0.0000      -0.000134        -0.0037
  25   0.0000       0.023617         0.6427
  26   0.0000       0.037967         1.0331
  27   0.0000       0.051208         1.3934
  28   0.0000       0.064866         1.7651

MULLIKEN ATOMIC CHARGES
-----------------------
   0 C :   -0.193012
   1 N :   -0.246724
   2 C :    0.352527
   3 C :   -0.541172
   4 N :   -0.449237
   5 H :    0.213170
   6 H :    0.225287
   7 H :    0.210495
   8 H :    0.087198
   9 H :    0.081827
  10 C :   -0.265920
  11 H :    0.107861
  12 H :    0.097796
  13 H :    0.102456
  14 H :    0.103754
  15 H :    0.113694
Sum of atomic charges:   -0.0000000

LOEWDIN ATOMIC CHARGES
----------------------
   0 C :   -0.327210
   1 N :    0.133449
   2 C :   -0.474389
   3 C :   -0.340126
   4 N :   -0.008286
   5 H :    0.157762
   6 H :    0.173434
   7 H :    0.193822
   8 H :    0.097444
   9 H :    0.096733
  10 C :   -0.309272
  11 H :    0.133572
  12 H :    0.121955
  13 H :    0.118026
  14 H :    0.116390
  15 H :    0.116698

  Mayer bond orders larger than 0.100000
B(  0-C ,  1-N ) :   1.0089 B(  0-C , 10-C ) :   0.9756 B(  0-C , 11-H ) :   0.9579
B(  0-C , 12-H ) :   0.9681 B(  1-N ,  2-C ) :   1.2131 B(  1-N ,  7-H ) :   0.9222
B(  2-C ,  3-C ) :   1.6069 B(  2-C ,  4-N ) :   1.1455 B(  3-C ,  8-H ) :   1.0030
B(  3-C ,  9-H ) :   0.9842 B(  4-N ,  5-H ) :   0.9126 B(  4-N ,  6-H ) :   0.9213
B( 10-C , 13-H ) :   0.9629 B( 10-C , 14-H ) :   0.9557 B( 10-C , 15-H ) :   0.9658

Dispersion correction           -0.012787648
FINAL SINGLE POINT ENERGY      -267.666762606318

DIPOLE MOMENT
-------------
                                X             Y             Z
Electronic contribution:     -1.42438       1.09567      -1.96171
Nuclear contribution   :      1.28075      -1.05140       2.98955
                        -----------------------------------------
Total Dipole Moment    :     -0.14364       0.04428       1.02784
                        -----------------------------------------
Magnitude (a.u.)       :      1.03877
Magnitude (Debye)      :      2.64035

Rotational constants in cm-1:     0.229858     0.078444     0.067377
Rotational constants in MHz :  6890.979812  2351.691803  2019.910665

                             ****ORCA TERMINATED NORMALLY****
TOTAL RUN TIME: 0 days 0 hours 0 minutes 8 seconds 869 msec
