                         Program Version 5.0.0 -  RELEASE  -
|  1> !PBE D3BJ RIJCOSX def2-TZVP def2/J TightSCF
|  2> *xyz 0 1
|  3> C          4.90646       -3.10282       -5.95484
|  4> C          3.51177       -2.80621       -6.49228
|  5> H          2.73604       -3.37345       -5.97374
|  6> H          3.44490       -3.04083       -7.55528
|  7> S          3.00462       -1.09621       -6.38926
|  8> O          4.12886       -0.32965       -6.95372
|  9> O          1.78128       -1.00078       -7.13640
| 10> F          2.85155       -0.78368       -4.95679
| 11> H          5.62703       -2.52424       -6.49422
| 12> H          5.12164       -4.14387       -6.07654
| 13> H          4.95004       -2.84862       -4.91639
| 14> *
| 15>
| 16> %MaxCore 64000
| 17>
| 18> %pal nprocs 4
| 19> end
| 20>
| 21> %scf
| 22>   MaxIter 150
| 23> end
| 24>
| 25>
| 26>                          ****END OF INPUT****

CARTESIAN COORDINATES (ANGSTROEM)
---------------------------------
  C      4.906460   -3.102820   -5.954840
  C      3.511770   -2.806210   -6.492280
  H      2.736040   -3.373450   -5.973740
  H      3.444900   -3.040830   -7.555280
  S      3.004620   -1.096210   -6.389260
  O      4.128860   -0.329650   -6.953720
  O      1.781280   -1.000780   -7.136400
  F      2.851550   -0.783680   -4.956790
  H      5.627030   -2.524240   -6.494220
  H      5.121640   -4.143870   -6.076540
  H      4.950040   -2.848620   -4.916390

 Total Charge           Charge          ....    0
 Multiplicity           Mult            ....    1
 Number of Electrons    NEL             ....   58
 Basis Dimension        Dim             ....  222

ORBITAL ENERGIES
----------------

  NO   OCC          E(Eh)            E(eV)
   0   2.0000     -88.264024     -2401.7862
   1   2.0000     -24.356099      -662.7631
   2   2.0000     -18.760966      -510.5118
   3   2.0000     -18.749846      -510.2092
   4   2.0000      -9.940706      -270.5004
   5   2.0000      -9.898465      -269.3509
   6   2.0000      -7.859699      -213.8733
   7   2.0000      -5.884159      -160.1161
   8   2.0000      -5.877551      -159.9363
   9   2.0000      -5.877189      -159.9264
  10   2.0000      -1.249562       -34.0023
  11   2.0000      -1.016248       -27.6535
  12   2.0000      -0.924015       -25.1437
  13   2.0000      -0.751397       -20.4465
  14   2.0000      -0.655896       -17.8478
  15   2.0000      -0.609615       -16.5885
  16   2.0000      -0.517926       -14.0935
  17   2.0000      -0.499630       -13.5956
  18   2.0000      -0.487485       -13.2651
  19   2.0000      -0.443642       -12.0721
  20   2.0000      -0.424746       -11.5579
  21   2.0000      -0.402690       -10.9578
  22   2.0000      -0.384105       -10.4520
  23   2.0000      -0.361596        -9.8395
  24   2.0000      -0.354388        -9.6434
  25   2.0000      -0.331151        -9.0111
  26   2.0000      -0.291652        -7.9363
  27   2.0000      -0.281007        -7.6466
  28   2.0000      -0.264617        -7.2006
  29   0.0000      -0.015757        -0.4288
  30   0.0000       0.013720         0.3734
  31   0.0000       0.030858         0.8397
  32   0.0000       0.044743         1.2175
  33   0.0000       0.054205         1.4750

MULLIKEN ATOMIC CHARGES
-----------------------
   0 C :   -0.344089
   1 C :   -0.237223
   2 H :    0.134262
   3 H :    0.155029
   4 S :    0.711028
   5 O :   -0.390911
   6 O :   -0.346285
   7 F :   -0.081664
   8 H :    0.150544
   9 H :    0.127549
  10 H :    0.121759
Sum of atomic charges:    0.0000000

LOEWDIN ATOMIC CHARGES
----------------------
   0 C :   -0.318210
   1 C :   -0.405668
   2 H :    0.138209
   3 H :    0.152799
   4 S :    0.478455
   5 O :   -0.270455
   6 O :   -0.229043
   7 F :    0.077270
   8 H :    0.128642
   9 H :    0.126062
  10 H :    0.121940

  Mayer bond orders larger than 0.100000
B(  0-C ,  1-C ) :   0.9897 B(  0-C ,  8-H ) :   0.9604 B(  0-C ,  9-H ) :   0.9514
B(  0-C , 10-H ) :   0.9656 B(  1-C ,  2-H ) :   0.9315 B(  1-C ,  3-H ) :   0.9309
B(  1-C ,  4-S ) :   0.9003 B(  4-S ,  5-O ) :   1.9169 B(  4-S ,  6-O ) :   1.9964
B(  4-S ,  7-F ) :   1.1384

Dispersion correction           -0.009223789
FINAL SINGLE POINT ENERGY      -727.330808577651

DIPOLE MOMENT
-------------
                                X             Y             Z
Electronic contribution:     -5.18716       7.53193       1.60685
Nuclear contribution   :      5.52019      -8.89046      -0.84835
                        -----------------------------------------
Total Dipole Moment    :      0.33303      -1.35853       0.75850
                        -----------------------------------------
Magnitude (a.u.)       :      1.59117
Magnitude (Debye)      :      4.04444

Rotational constants in cm-1:     0.153332     0.082132     0.079755
Rotational constants in MHz :  4596.775407  2462.251277  2391.008596

                             ****ORCA TERMINATED NORMALLY****
TOTAL RUN TIME: 0 days 0 hours 0 minutes 6 seconds 654 msec
