                         Program Version 5.0.0 -  RELEASE  -
|  1> !PBE D3BJ RIJCOSX def2-TZVP def2/J TightSCF
|  2> *xyz 0 1
|  3> C          4.49059        1.15590       -2.46929
|  4> N          4.30539        1.22276       -3.90832
|  5> C          4.63192        2.24637       -4.67096
|  6> N          4.54169        2.14399       -5.98714
|  7> C          5.08409        3.39358       -4.11855
|  8> H          4.92067        3.57050       -3.13587
|  9> H          5.25465        4.19739       -4.70696
| 10> H          3.82453        0.44911       -4.35093
| 11> H          4.34337        1.24932       -6.41665
| 12> H          4.67671        2.95662       -6.57411
| 13> C          5.94213        0.93950       -2.03689
| 14> H          3.86431        0.32853       -2.13661
| 15> H          4.07623        2.04999       -1.98901
| 16> H          6.32982        0.06401       -2.51451
| 17> H          5.98308        0.81426       -0.97504
| 18> H          6.52865        1.78889       -2.31873
| 19> *
| 20>
| 21> %MaxCore 64000
| 22>
| 23> %pal nprocs 4
| 24> end
| 25>
| 26> %scf
| 27>   MaxIter 150
| 28> end
| 29>
| 30>
| 31>                          ****END OF INPUT****

CARTESIAN COORDINATES (ANGSTROEM)
---------------------------------
  C      4.490590    1.155900   -2.469290
  N      4.305390    1.222760   -3.908320
  C      4.631920    2.246370   -4.670960
  N      4.541690    2.143990   -5.987140
  C      5.084090    3.393580   -4.118550
  H      4.920670    3.570500   -3.135870
  H      5.254650    4.197390   -4.706960
  H      3.824530    0.449110   -4.350930
  H      4.343370    1.249320   -6.416650
  H      4.676710    2.956620   -6.574110
  C      5.942130    0.939500   -2.036890
  H      3.864310    0.328530   -2.136610
  H      4.076230    2.049990   -1.989010
  H      6.329820    0.064010   -2.514510
  H      5.983080    0.814260   -0.975040
  H      6.528650    1.788890   -2.318730

 Total Charge           Charge          ....    0
 Multiplicity           Mult            ....    1
 Number of Electrons    NEL             ....   48
 Basis Dimension        Dim             ....  246

ORBITAL ENERGIES
----------------

  NO   OCC          E(Eh)            E(eV)
   0   2.0000     -13.988339      -380.6420
   1   2.0000     -13.983051      -380.4982
   2   2.0000      -9.918720      -269.9021
   3   2.0000      -9.911526      -269.7063
   4   2.0000      -9.856338      -268.2046
   5   2.0000      -9.790080      -266.4016
   6   2.0000      -0.887729       -24.1563
   7   2.0000      -0.809842       -22.0369
   8   2.0000      -0.681148       -18.5350
   9   2.0000      -0.636283       -17.3141
  10   2.0000      -0.577122       -15.7043
  11   2.0000      -0.505108       -13.7447
  12   2.0000      -0.499148       -13.5825
  13   2.0000      -0.468979       -12.7616
  14   2.0000      -0.420719       -11.4483
  15   2.0000      -0.389780       -10.6065
  16   2.0000      -0.364908        -9.9297
  17   2.0000      -0.347456        -9.4548
  18   2.0000      -0.334142        -9.0925
  19   2.0000      -0.318311        -8.6617
  20   2.0000      -0.315011        -8.5719
  21   2.0000      -0.300848        -8.1865
  22   2.0000      -0.207923        -5.6579
  23   2.0000      -0.130784        -3.5588
  24   0.0000      -0.000604        -0.0164
  25   0.0000       0.028226         0.7681
  26   0.0000       0.037643         1.0243
  27   0.0000       0.052188         1.4201
  28   0.0000       0.068459         1.8629

MULLIKEN ATOMIC CHARGES
-----------------------
   0 C :   -0.138113
   1 N :   -0.257488
   2 C :    0.320571
   3 N :   -0.431648
   4 C :   -0.529439
   5 H :    0.096002
   6 H :    0.070666
   7 H :    0.181534
   8 H :    0.202851
   9 H :    0.234143
  10 C :   -0.293089
  11 H :    0.099067
  12 H :    0.107547
  13 H :    0.090428
  14 H :    0.104901
  15 H :    0.142066
Sum of atomic charges:    0.0000000

LOEWDIN ATOMIC CHARGES
----------------------
   0 C :   -0.309386
   1 N :    0.130616
   2 C :   -0.483392
   3 N :    0.003375
   4 C :   -0.353866
   5 H :    0.098186
   6 H :    0.093295
   7 H :    0.176151
   8 H :    0.158477
   9 H :    0.177142
  10 C :   -0.307045
  11 H :    0.130124
  12 H :    0.130501
  13 H :    0.114265
  14 H :    0.117077
  15 H :    0.124480

  Mayer bond orders larger than 0.100000
B(  0-C ,  1-N ) :   1.0033 B(  0-C , 10-C ) :   0.9948 B(  0-C , 11-H ) :   0.9554
B(  0-C , 12-H ) :   0.9588 B(  1-N ,  2-C ) :   1.1965 B(  1-N ,  7-H ) :   0.9232
B(  2-C ,  3-N ) :   1.1649 B(  2-C ,  4-C ) :   1.6163 B(  3-N ,  8-H ) :   0.9206
B(  3-N ,  9-H ) :   0.9160 B(  4-C ,  5-H ) :   0.9809 B(  4-C ,  6-H ) :   0.9884
B( 10-C , 13-H ) :   0.9641 B( 10-C , 14-H ) :   0.9597 B( 10-C , 15-H ) :   0.9667

Dispersion correction           -0.012864831
FINAL SINGLE POINT ENERGY      -267.665941521849

DIPOLE MOMENT
-------------
                                X             Y             Z
Electronic contribution:     -1.91371      -0.16455      -3.90267
Nuclear contribution   :      1.39581      -0.78630       3.38596
                        -----------------------------------------
Total Dipole Moment    :     -0.51790      -0.95086      -0.51670
                        -----------------------------------------
Magnitude (a.u.)       :      1.19972
Magnitude (Debye)      :      3.04945

Rotational constants in cm-1:     0.239249     0.075811     0.066261
Rotational constants in MHz :  7172.504830  2272.756282  1986.457543

                             ****ORCA TERMINATED NORMALLY****
TOTAL RUN TIME: 0 days 0 hours 0 minutes 9 seconds 298 msec
