                         Program Version 5.0.0 -  RELEASE  -
|  1> !PBE D3BJ RIJCOSX def2-TZVP def2/J TightSCF xyzfile
|  2>
|  3> *xyzfile 0 1 D1.xyz
|  4>
|  5> %MaxCore 64000
|  6>
|  7> %pal nprocs 18
|  8> end
|  9>
| 10> %scf
| 11>   MaxIter 150
| 12> end
| 13>
| 14>
| 15>                          ****END OF INPUT****

CARTESIAN COORDINATES (ANGSTROEM)
---------------------------------
  C      4.490588    1.155899   -2.469290
  C      4.305394    1.222762   -3.908317
  C      4.906458   -3.102816   -5.954844
  C      3.511771   -2.806215   -6.492283
  H      2.736044   -3.373445   -5.973736
  H      3.444904   -3.040831   -7.555281
  S      3.004618   -1.096206   -6.389259
  C      4.631918    2.246365   -4.670958
  N      4.541686    2.143990   -5.987139
  N      5.084086    3.393584   -4.118545
  H      4.920675    3.570501   -3.135870
  H      5.254652    4.197390   -4.706956
  H      3.824530    0.449113   -4.350926
  H      4.343373    1.249318   -6.416646
  H      4.676712    2.956624   -6.574113
  F      4.128856   -0.329647   -6.953717
  O      1.781285   -1.000779   -7.136399
  C      5.942129    0.939500   -2.036893
  H      3.864305    0.328532   -2.136611
  H      4.076233    2.049994   -1.989010
  C      6.462677   -3.117775   -3.944671
  C      5.024977   -3.025679   -4.437625
  H      4.423321   -3.818693   -3.977648
  H      4.579350   -2.087131   -4.108727
  H      5.201533   -4.100207   -6.296905
  H      5.605922   -2.397822   -6.413368
  C      6.559957   -0.356290   -2.559086
  H      5.967976    0.952567   -0.942444
  H      6.547184    1.788331   -2.368849
  C      6.006283   -1.615917   -1.899301
  H      7.642360   -0.318000   -2.402059
  H      6.414855   -0.403433   -3.642587
  C      6.608718   -2.917014   -2.435655
  H      6.190324   -1.561115   -0.820948
  H      4.919250   -1.651245   -2.016586
  H      7.066975   -2.374258   -4.475514
  H      6.887808   -4.089747   -4.215332
  H      6.135197   -3.755573   -1.915159
  H      7.671142   -2.955503   -2.172291
  O      2.851546   -0.783683   -4.956789

 Total Charge           Charge          ....    0
 Multiplicity           Mult            ....    1
 Number of Electrons    NEL             ....  144
 Basis Dimension        Dim             ....  671

ORBITAL ENERGIES
----------------

  NO   OCC          E(Eh)            E(eV)
   0   2.0000     -88.273154     -2402.0346
   1   2.0000     -24.376560      -663.3199
   2   2.0000     -18.769320      -510.7392
   3   2.0000     -18.757928      -510.4292
   4   2.0000     -13.971753      -380.1907
   5   2.0000     -13.967312      -380.0699
   6   2.0000      -9.941974      -270.5349
   7   2.0000      -9.908588      -269.6264
   8   2.0000      -9.900883      -269.4167
   9   2.0000      -9.879184      -268.8263
  10   2.0000      -9.875176      -268.7172
  11   2.0000      -9.869034      -268.5501
  12   2.0000      -9.859940      -268.3026
  13   2.0000      -9.852877      -268.1104
  14   2.0000      -9.847851      -267.9736
  15   2.0000      -9.841456      -267.7996
  16   2.0000      -9.775126      -265.9947
  17   2.0000      -7.869325      -214.1352
  18   2.0000      -5.893946      -160.3824
  19   2.0000      -5.886908      -160.1909
  20   2.0000      -5.886721      -160.1858
  21   2.0000      -1.272671       -34.6311
  22   2.0000      -1.026792       -27.9404
  23   2.0000      -0.934602       -25.4318
  24   2.0000      -0.864684       -23.5293
  25   2.0000      -0.782807       -21.3012
  26   2.0000      -0.767519       -20.8853
  27   2.0000      -0.731009       -19.8918
  28   2.0000      -0.704142       -19.1607
  29   2.0000      -0.681531       -18.5454
  30   2.0000      -0.658058       -17.9067
  31   2.0000      -0.633961       -17.2509
  32   2.0000      -0.605340       -16.4722
  33   2.0000      -0.576836       -15.6965
  34   2.0000      -0.553848       -15.0710
  35   2.0000      -0.544611       -14.8196
  36   2.0000      -0.526752       -14.3337
  37   2.0000      -0.522231       -14.2106
  38   2.0000      -0.502939       -13.6857
  39   2.0000      -0.501854       -13.6561
  40   2.0000      -0.484878       -13.1942
  41   2.0000      -0.475567       -12.9408
  42   2.0000      -0.446409       -12.1474
  43   2.0000      -0.440176       -11.9778
  44   2.0000      -0.434420       -11.8212
  45   2.0000      -0.421512       -11.4699
  46   2.0000      -0.411630       -11.2010
  47   2.0000      -0.404239       -10.9999
  48   2.0000      -0.400754       -10.9051
  49   2.0000      -0.399392       -10.8680
  50   2.0000      -0.378745       -10.3062
  51   2.0000      -0.371431       -10.1072
  52   2.0000      -0.368732       -10.0337
  53   2.0000      -0.356620        -9.7041
  54   2.0000      -0.344882        -9.3847
  55   2.0000      -0.334860        -9.1120
  56   2.0000      -0.333786        -9.0828
  57   2.0000      -0.325723        -8.8634
  58   2.0000      -0.318897        -8.6776
  59   2.0000      -0.310220        -8.4415
  60   2.0000      -0.304012        -8.2726
  61   2.0000      -0.297181        -8.0867
  62   2.0000      -0.294341        -8.0094
  63   2.0000      -0.281680        -7.6649
  64   2.0000      -0.279560        -7.6072
  65   2.0000      -0.269454        -7.3322
  66   2.0000      -0.266280        -7.2459
  67   2.0000      -0.259141        -7.0516
  68   2.0000      -0.251517        -6.8441
  69   2.0000      -0.235163        -6.3991
  70   2.0000      -0.209502        -5.7008
  71   2.0000      -0.114406        -3.1131
  72   0.0000      -0.027857        -0.7580
  73   0.0000       0.006944         0.1890
  74   0.0000       0.010650         0.2898
  75   0.0000       0.020687         0.5629
  76   0.0000       0.026071         0.7094

MULLIKEN ATOMIC CHARGES
-----------------------
   0 C :   -0.282083
   1 C :   -0.336337
   2 C :   -0.180850
   3 C :   -0.205062
   4 H :    0.150487
   5 H :    0.151324
   6 S :    0.706820
   7 C :    0.284868
   8 N :   -0.432484
   9 N :   -0.440194
  10 H :    0.230569
  11 H :    0.196631
  12 H :    0.116795
  13 H :    0.217058
  14 H :    0.196939
  15 F :   -0.098141
  16 O :   -0.339079
  17 C :   -0.065008
  18 H :    0.091362
  19 H :    0.070033
  20 C :   -0.178702
  21 C :   -0.295371
  22 H :    0.083425
  23 H :    0.155585
  24 H :    0.110236
  25 H :    0.106971
  26 C :   -0.168060
  27 H :    0.056465
  28 H :    0.080772
  29 C :   -0.245295
  30 H :    0.075468
  31 H :    0.094483
  32 C :   -0.102930
  33 H :    0.083456
  34 H :    0.110979
  35 H :    0.101693
  36 H :    0.086140
  37 H :    0.081571
  38 H :    0.086025
  39 O :   -0.356558
Sum of atomic charges:   -0.0000000

LOEWDIN ATOMIC CHARGES
----------------------
   0 C :   -0.290855
   1 C :   -0.285269
   2 C :   -0.289807
   3 C :   -0.369882
   4 H :    0.155579
   5 H :    0.143928
   6 S :    0.492958
   7 C :   -0.477146
   8 N :   -0.011707
   9 N :   -0.012769
  10 H :    0.170320
  11 H :    0.154575
  12 H :    0.109227
  13 H :    0.146228
  14 H :    0.155622
  15 F :    0.091687
  16 O :   -0.219588
  17 C :   -0.267964
  18 H :    0.143612
  19 H :    0.126308
  20 C :   -0.274321
  21 C :   -0.276340
  22 H :    0.138903
  23 H :    0.146082
  24 H :    0.146412
  25 H :    0.140847
  26 C :   -0.271437
  27 H :    0.128945
  28 H :    0.133527
  29 C :   -0.273726
  30 H :    0.133758
  31 H :    0.136808
  32 C :   -0.270875
  33 H :    0.136709
  34 H :    0.135975
  35 H :    0.137558
  36 H :    0.135003
  37 H :    0.136201
  38 H :    0.137250
  39 O :   -0.222339

  Mayer bond orders larger than 0.100000
B(  0-C ,  1-C ) :   1.0471 B(  0-C , 17-C ) :   0.9835 B(  0-C , 18-H ) :   0.9733
B(  0-C , 19-H ) :   0.9476 B(  1-C ,  7-C ) :   1.6262 B(  1-C , 12-H ) :   0.9503
B(  2-C ,  3-C ) :   0.9809 B(  2-C , 21-C ) :   0.9952 B(  2-C , 24-H ) :   0.9322
B(  2-C , 25-H ) :   0.9570 B(  3-C ,  4-H ) :   0.9306 B(  3-C ,  5-H ) :   0.9357
B(  3-C ,  6-S ) :   0.9073 B(  6-S , 15-F ) :   1.0718 B(  6-S , 16-O ) :   2.0246
B(  6-S , 39-O ) :   1.8630 B(  7-C ,  8-N ) :   1.1796 B(  7-C ,  9-N ) :   1.1590
B(  8-N , 13-H ) :   0.8999 B(  8-N , 14-H ) :   0.9197 B(  9-N , 10-H ) :   0.9095
B(  9-N , 11-H ) :   0.9256 B( 17-C , 26-C ) :   1.0229 B( 17-C , 27-H ) :   0.9403
B( 17-C , 28-H ) :   0.9388 B( 20-C , 21-C ) :   1.0090 B( 20-C , 32-C ) :   1.0131
B( 20-C , 35-H ) :   0.9567 B( 20-C , 36-H ) :   0.9451 B( 21-C , 22-H ) :   0.9452
B( 21-C , 23-H ) :   0.9550 B( 26-C , 29-C ) :   1.0073 B( 26-C , 30-H ) :   0.9459
B( 26-C , 31-H ) :   0.9457 B( 29-C , 32-C ) :   1.0006 B( 29-C , 33-H ) :   0.9402
B( 29-C , 34-H ) :   0.9675 B( 32-C , 37-H ) :   0.9496 B( 32-C , 38-H ) :   0.9454

Dispersion correction           -0.048737620
FINAL SINGLE POINT ENERGY     -1190.157819506534

DIPOLE MOMENT
-------------
                                X             Y             Z
Electronic contribution:    -16.40004       5.01813     -21.50192
Nuclear contribution   :     17.24138      -5.45913      20.34076
                        -----------------------------------------
Total Dipole Moment    :      0.84134      -0.44100      -1.16116
                        -----------------------------------------
Magnitude (a.u.)       :      1.50021
Magnitude (Debye)      :      3.81323

Rotational constants in cm-1:     0.014201     0.012275     0.007453
Rotational constants in MHz :   425.728191   368.008875   223.435232

                             ****ORCA TERMINATED NORMALLY****
TOTAL RUN TIME: 0 days 0 hours 0 minutes 32 seconds 904 msec
