                         Program Version 5.0.0 -  RELEASE  -
|  1> !PBE D3BJ RIJCOSX def2-TZVP def2/J TightSCF xyzfile
|  2>
|  3> *xyzfile 0 1 D2.xyz
|  4>
|  5> %MaxCore 64000
|  6>
|  7> %pal nprocs 18
|  8> end
|  9>
| 10> %scf
| 11>   MaxIter 150
| 12> end
| 13>
| 14>
| 15>                          ****END OF INPUT****

CARTESIAN COORDINATES (ANGSTROEM)
---------------------------------
  C      4.490588    1.155899   -2.469290
  N      4.305394    1.222762   -3.908317
  C      4.906458   -3.102816   -5.954844
  C      3.511771   -2.806215   -6.492283
  H      2.736044   -3.373445   -5.973736
  H      3.444904   -3.040831   -7.555281
  S      3.004618   -1.096206   -6.389259
  C      4.631918    2.246365   -4.670958
  C      4.541686    2.143990   -5.987139
  N      5.084086    3.393584   -4.118545
  H      4.920675    3.570501   -3.135870
  H      5.254652    4.197390   -4.706956
  H      3.824530    0.449113   -4.350926
  H      4.343373    1.249318   -6.416646
  H      4.676712    2.956624   -6.574113
  F      4.128856   -0.329647   -6.953717
  O      1.781285   -1.000779   -7.136399
  C      5.942129    0.939500   -2.036893
  H      3.864305    0.328532   -2.136611
  H      4.076233    2.049994   -1.989010
  C      6.462677   -3.117775   -3.944671
  C      5.024977   -3.025679   -4.437625
  H      4.423321   -3.818693   -3.977648
  H      4.579350   -2.087131   -4.108727
  H      5.201533   -4.100207   -6.296905
  H      5.605922   -2.397822   -6.413368
  C      6.559957   -0.356290   -2.559086
  H      5.967976    0.952567   -0.942444
  H      6.547184    1.788331   -2.368849
  C      6.006283   -1.615917   -1.899301
  H      7.642360   -0.318000   -2.402059
  H      6.414855   -0.403433   -3.642587
  C      6.608718   -2.917014   -2.435655
  H      6.190324   -1.561115   -0.820948
  H      4.919250   -1.651245   -2.016586
  H      7.066975   -2.374258   -4.475514
  H      6.887808   -4.089747   -4.215332
  H      6.135197   -3.755573   -1.915159
  H      7.671142   -2.955503   -2.172291
  O      2.851546   -0.783683   -4.956789

 Total Charge           Charge          ....    0
 Multiplicity           Mult            ....    1
 Number of Electrons    NEL             ....  144
 Basis Dimension        Dim             ....  671

ORBITAL ENERGIES
----------------

  NO   OCC          E(Eh)            E(eV)
   0   2.0000     -88.276721     -2402.1317
   1   2.0000     -24.363433      -662.9627
   2   2.0000     -18.769953      -510.7564
   3   2.0000     -18.768852      -510.7264
   4   2.0000     -13.969580      -380.1316
   5   2.0000     -13.957788      -379.8107
   6   2.0000      -9.943985      -270.5896
   7   2.0000      -9.912188      -269.7243
   8   2.0000      -9.903566      -269.4897
   9   2.0000      -9.903269      -269.4817
  10   2.0000      -9.886865      -269.0353
  11   2.0000      -9.882889      -268.9271
  12   2.0000      -9.879048      -268.8226
  13   2.0000      -9.874230      -268.6915
  14   2.0000      -9.870381      -268.5867
  15   2.0000      -9.869984      -268.5759
  16   2.0000      -9.774861      -265.9875
  17   2.0000      -7.872471      -214.2208
  18   2.0000      -5.896873      -160.4621
  19   2.0000      -5.890435      -160.2869
  20   2.0000      -5.889915      -160.2727
  21   2.0000      -1.260959       -34.3124
  22   2.0000      -1.029731       -28.0204
  23   2.0000      -0.941311       -25.6144
  24   2.0000      -0.867785       -23.6136
  25   2.0000      -0.789357       -21.4795
  26   2.0000      -0.771570       -20.9955
  27   2.0000      -0.739604       -20.1257
  28   2.0000      -0.712142       -19.3784
  29   2.0000      -0.679977       -18.5031
  30   2.0000      -0.659036       -17.9333
  31   2.0000      -0.634148       -17.2561
  32   2.0000      -0.612724       -16.6731
  33   2.0000      -0.583768       -15.8851
  34   2.0000      -0.562846       -15.3158
  35   2.0000      -0.541420       -14.7328
  36   2.0000      -0.529203       -14.4003
  37   2.0000      -0.521530       -14.1915
  38   2.0000      -0.517298       -14.0764
  39   2.0000      -0.499493       -13.5919
  40   2.0000      -0.496869       -13.5205
  41   2.0000      -0.464536       -12.6407
  42   2.0000      -0.448275       -12.1982
  43   2.0000      -0.440158       -11.9773
  44   2.0000      -0.431784       -11.7494
  45   2.0000      -0.429965       -11.6999
  46   2.0000      -0.419087       -11.4039
  47   2.0000      -0.413817       -11.2605
  48   2.0000      -0.409475       -11.1424
  49   2.0000      -0.394171       -10.7259
  50   2.0000      -0.389373       -10.5954
  51   2.0000      -0.384682       -10.4677
  52   2.0000      -0.374047       -10.1783
  53   2.0000      -0.352091        -9.5809
  54   2.0000      -0.349024        -9.4974
  55   2.0000      -0.346924        -9.4403
  56   2.0000      -0.337760        -9.1909
  57   2.0000      -0.327518        -8.9122
  58   2.0000      -0.324687        -8.8352
  59   2.0000      -0.319218        -8.6864
  60   2.0000      -0.313077        -8.5193
  61   2.0000      -0.305995        -8.3266
  62   2.0000      -0.301617        -8.2074
  63   2.0000      -0.296310        -8.0630
  64   2.0000      -0.292143        -7.9496
  65   2.0000      -0.284418        -7.7394
  66   2.0000      -0.281569        -7.6619
  67   2.0000      -0.273597        -7.4450
  68   2.0000      -0.272077        -7.4036
  69   2.0000      -0.268921        -7.3177
  70   2.0000      -0.196581        -5.3492
  71   2.0000      -0.118540        -3.2256
  72   0.0000      -0.023545        -0.6407
  73   0.0000       0.005448         0.1483
  74   0.0000       0.011718         0.3189
  75   0.0000       0.018162         0.4942
  76   0.0000       0.022018         0.5991

MULLIKEN ATOMIC CHARGES
-----------------------
   0 C :   -0.253458
   1 N :   -0.224822
   2 C :   -0.184603
   3 C :   -0.208401
   4 H :    0.148673
   5 H :    0.155887
   6 S :    0.734434
   7 C :    0.362853
   8 C :   -0.595017
   9 N :   -0.451664
  10 H :    0.212702
  11 H :    0.219939
  12 H :    0.193149
  13 H :    0.098930
  14 H :    0.079027
  15 F :   -0.063543
  16 O :   -0.336314
  17 C :   -0.046956
  18 H :    0.123314
  19 H :    0.105777
  20 C :   -0.186175
  21 C :   -0.281792
  22 H :    0.086726
  23 H :    0.128156
  24 H :    0.111368
  25 H :    0.116187
  26 C :   -0.228986
  27 H :    0.068183
  28 H :    0.095892
  29 C :   -0.237689
  30 H :    0.089299
  31 H :    0.110254
  32 C :   -0.106150
  33 H :    0.088810
  34 H :    0.107591
  35 H :    0.107757
  36 H :    0.090870
  37 H :    0.085962
  38 H :    0.091105
  39 O :   -0.407272
Sum of atomic charges:   -0.0000000

LOEWDIN ATOMIC CHARGES
----------------------
   0 C :   -0.304283
   1 N :    0.135556
   2 C :   -0.288792
   3 C :   -0.369525
   4 H :    0.154391
   5 H :    0.146083
   6 S :    0.506924
   7 C :   -0.476844
   8 C :   -0.366650
   9 N :   -0.009366
  10 H :    0.156829
  11 H :    0.170479
  12 H :    0.160587
  13 H :    0.081356
  14 H :    0.094169
  15 F :    0.109197
  16 O :   -0.213975
  17 C :   -0.275397
  18 H :    0.136254
  19 H :    0.124019
  20 C :   -0.273511
  21 C :   -0.277227
  22 H :    0.139466
  23 H :    0.140760
  24 H :    0.147103
  25 H :    0.143362
  26 C :   -0.271966
  27 H :    0.135633
  28 H :    0.137240
  29 C :   -0.274985
  30 H :    0.138229
  31 H :    0.139756
  32 C :   -0.269493
  33 H :    0.137760
  34 H :    0.134535
  35 H :    0.138645
  36 H :    0.136794
  37 H :    0.137593
  38 H :    0.138659
  39 O :   -0.249364

  Mayer bond orders larger than 0.100000
B(  0-C ,  1-N ) :   0.9893 B(  0-C , 17-C ) :   0.9598 B(  0-C , 18-H ) :   0.9679
B(  0-C , 19-H ) :   0.9639 B(  1-N ,  7-C ) :   1.2240 B(  1-N , 12-H ) :   0.8712
B(  2-C ,  3-C ) :   0.9806 B(  2-C , 21-C ) :   0.9986 B(  2-C , 24-H ) :   0.9320
B(  2-C , 25-H ) :   0.9556 B(  3-C ,  4-H ) :   0.9307 B(  3-C ,  5-H ) :   0.9360
B(  3-C ,  6-S ) :   0.9114 B(  6-S , 15-F ) :   1.1274 B(  6-S , 16-O ) :   2.0282
B(  6-S , 39-O ) :   1.7798 B(  7-C ,  8-C ) :   1.5707 B(  7-C ,  9-N ) :   1.1478
B(  8-C , 13-H ) :   1.0127 B(  8-C , 14-H ) :   0.9779 B(  9-N , 10-H ) :   0.9132
B(  9-N , 11-H ) :   0.9218 B( 12-H , 39-O ) :   0.1185 B( 17-C , 26-C ) :   1.0016
B( 17-C , 27-H ) :   0.9360 B( 17-C , 28-H ) :   0.9376 B( 20-C , 21-C ) :   1.0076
B( 20-C , 32-C ) :   1.0077 B( 20-C , 35-H ) :   0.9594 B( 20-C , 36-H ) :   0.9448
B( 21-C , 22-H ) :   0.9452 B( 21-C , 23-H ) :   0.9565 B( 26-C , 29-C ) :   1.0073
B( 26-C , 30-H ) :   0.9450 B( 26-C , 31-H ) :   0.9539 B( 29-C , 32-C ) :   1.0040
B( 29-C , 33-H ) :   0.9401 B( 29-C , 34-H ) :   0.9661 B( 32-C , 37-H ) :   0.9501
B( 32-C , 38-H ) :   0.9470

Dispersion correction           -0.048514984
FINAL SINGLE POINT ENERGY     -1190.162777630703

DIPOLE MOMENT
-------------
                                X             Y             Z
Electronic contribution:    -16.45188       4.05531     -19.63616
Nuclear contribution   :     17.27667      -5.32157      20.03034
                        -----------------------------------------
Total Dipole Moment    :      0.82478      -1.26626       0.39418
                        -----------------------------------------
Magnitude (a.u.)       :      1.56175
Magnitude (Debye)      :      3.96965

Rotational constants in cm-1:     0.014355     0.012269     0.007481
Rotational constants in MHz :   430.360270   367.823451   224.273399

                             ****ORCA TERMINATED NORMALLY****
TOTAL RUN TIME: 0 days 0 hours 0 minutes 34 seconds 739 msec
