                         Program Version 5.0.0 -  RELEASE  -
|  1> !PBE D3BJ RIJCOSX def2-TZVP def2/J TightSCF xyzfile
|  2>
|  3> *xyzfile 0 1 D4.xyz
|  4>
|  5> %MaxCore 64000
|  6>
|  7> %pal nprocs 18
|  8> end
|  9>
| 10> %scf
| 11>   MaxIter 150
| 12> end
| 13>
| 14>
| 15>                          ****END OF INPUT****

CARTESIAN COORDINATES (ANGSTROEM)
---------------------------------
  C      4.490588    1.155899   -2.469290
  C      4.305394    1.222762   -3.908317
  C      4.906458   -3.102816   -5.954844
  C      3.511771   -2.806215   -6.492283
  H      2.736044   -3.373445   -5.973736
  H      3.444904   -3.040831   -7.555281
  S      3.004618   -1.096206   -6.389259
  C      4.631918    2.246365   -4.670958
  N      4.541686    2.143990   -5.987139
  N      5.084086    3.393584   -4.118545
  H      4.920675    3.570501   -3.135870
  H      5.254652    4.197390   -4.706956
  H      3.824530    0.449113   -4.350926
  H      4.343373    1.249318   -6.416646
  H      4.676712    2.956624   -6.574113
  O      4.128856   -0.329647   -6.953717
  F      1.781285   -1.000779   -7.136399
  C      5.942129    0.939500   -2.036893
  H      3.864305    0.328532   -2.136611
  H      4.076233    2.049994   -1.989010
  C      6.462677   -3.117775   -3.944671
  C      5.024977   -3.025679   -4.437625
  H      4.423321   -3.818693   -3.977648
  H      4.579350   -2.087131   -4.108727
  H      5.201533   -4.100207   -6.296905
  H      5.605922   -2.397822   -6.413368
  C      6.559957   -0.356290   -2.559086
  H      5.967976    0.952567   -0.942444
  H      6.547184    1.788331   -2.368849
  C      6.006283   -1.615917   -1.899301
  H      7.642360   -0.318000   -2.402059
  H      6.414855   -0.403433   -3.642587
  C      6.608718   -2.917014   -2.435655
  H      6.190324   -1.561115   -0.820948
  H      4.919250   -1.651245   -2.016586
  H      7.066975   -2.374258   -4.475514
  H      6.887808   -4.089747   -4.215332
  H      6.135197   -3.755573   -1.915159
  H      7.671142   -2.955503   -2.172291
  O      2.851546   -0.783683   -4.956789

 Total Charge           Charge          ....    0
 Multiplicity           Mult            ....    1
 Number of Electrons    NEL             ....  144
 Basis Dimension        Dim             ....  671

ORBITAL ENERGIES
----------------

  NO   OCC          E(Eh)            E(eV)
   0   2.0000     -88.281425     -2402.2597
   1   2.0000     -24.386085      -663.5791
   2   2.0000     -18.771281      -510.7925
   3   2.0000     -18.762481      -510.5531
   4   2.0000     -13.960112      -379.8740
   5   2.0000     -13.941143      -379.3578
   6   2.0000      -9.945619      -270.6341
   7   2.0000      -9.906979      -269.5826
   8   2.0000      -9.886949      -269.0376
   9   2.0000      -9.876148      -268.7436
  10   2.0000      -9.871102      -268.6063
  11   2.0000      -9.864970      -268.4395
  12   2.0000      -9.854946      -268.1667
  13   2.0000      -9.845815      -267.9182
  14   2.0000      -9.840274      -267.7675
  15   2.0000      -9.833260      -267.5766
  16   2.0000      -9.763254      -265.6717
  17   2.0000      -7.877208      -214.3497
  18   2.0000      -5.901507      -160.5882
  19   2.0000      -5.895120      -160.4144
  20   2.0000      -5.894679      -160.4024
  21   2.0000      -1.291722       -35.1496
  22   2.0000      -1.023856       -27.8605
  23   2.0000      -0.931120       -25.3371
  24   2.0000      -0.847779       -23.0692
  25   2.0000      -0.767721       -20.8907
  26   2.0000      -0.763145       -20.7662
  27   2.0000      -0.728021       -19.8105
  28   2.0000      -0.700545       -19.0628
  29   2.0000      -0.682023       -18.5588
  30   2.0000      -0.654602       -17.8126
  31   2.0000      -0.629258       -17.1230
  32   2.0000      -0.598243       -16.2790
  33   2.0000      -0.571675       -15.5561
  34   2.0000      -0.550229       -14.9725
  35   2.0000      -0.536449       -14.5975
  36   2.0000      -0.526210       -14.3189
  37   2.0000      -0.524585       -14.2747
  38   2.0000      -0.509635       -13.8679
  39   2.0000      -0.493370       -13.4253
  40   2.0000      -0.477937       -13.0053
  41   2.0000      -0.465164       -12.6578
  42   2.0000      -0.448324       -12.1995
  43   2.0000      -0.443069       -12.0565
  44   2.0000      -0.427319       -11.6279
  45   2.0000      -0.415512       -11.3067
  46   2.0000      -0.415082       -11.2950
  47   2.0000      -0.402868       -10.9626
  48   2.0000      -0.395892       -10.7728
  49   2.0000      -0.383335       -10.4311
  50   2.0000      -0.375799       -10.2260
  51   2.0000      -0.364575        -9.9206
  52   2.0000      -0.362937        -9.8760
  53   2.0000      -0.355172        -9.6647
  54   2.0000      -0.336636        -9.1603
  55   2.0000      -0.331156        -9.0112
  56   2.0000      -0.327604        -8.9146
  57   2.0000      -0.321363        -8.7447
  58   2.0000      -0.307079        -8.3560
  59   2.0000      -0.302622        -8.2348
  60   2.0000      -0.300289        -8.1713
  61   2.0000      -0.291892        -7.9428
  62   2.0000      -0.284579        -7.7438
  63   2.0000      -0.277661        -7.5555
  64   2.0000      -0.273813        -7.4508
  65   2.0000      -0.272801        -7.4233
  66   2.0000      -0.260597        -7.0912
  67   2.0000      -0.253651        -6.9022
  68   2.0000      -0.244564        -6.6549
  69   2.0000      -0.229609        -6.2480
  70   2.0000      -0.192962        -5.2508
  71   2.0000      -0.100969        -2.7475
  72   0.0000      -0.021375        -0.5816
  73   0.0000      -0.001323        -0.0360
  74   0.0000       0.016604         0.4518
  75   0.0000       0.020843         0.5672
  76   0.0000       0.024872         0.6768

MULLIKEN ATOMIC CHARGES
-----------------------
   0 C :   -0.269637
   1 C :   -0.338463
   2 C :   -0.163782
   3 C :   -0.197710
   4 H :    0.134185
   5 H :    0.142369
   6 S :    0.728029
   7 C :    0.251691
   8 N :   -0.426211
   9 N :   -0.442119
  10 H :    0.225940
  11 H :    0.194275
  12 H :    0.143204
  13 H :    0.233453
  14 H :    0.183570
  15 O :   -0.405711
  16 F :   -0.046832
  17 C :   -0.057246
  18 H :    0.084152
  19 H :    0.063662
  20 C :   -0.183800
  21 C :   -0.297374
  22 H :    0.078212
  23 H :    0.156511
  24 H :    0.108762
  25 H :    0.127661
  26 C :   -0.177968
  27 H :    0.050160
  28 H :    0.079976
  29 C :   -0.243263
  30 H :    0.072513
  31 H :    0.109376
  32 C :   -0.101019
  33 H :    0.081453
  34 H :    0.107681
  35 H :    0.107250
  36 H :    0.083316
  37 H :    0.078723
  38 H :    0.085073
  39 O :   -0.360061
Sum of atomic charges:   -0.0000000

LOEWDIN ATOMIC CHARGES
----------------------
   0 C :   -0.294743
   1 C :   -0.287772
   2 C :   -0.276728
   3 C :   -0.376109
   4 H :    0.144089
   5 H :    0.141292
   6 S :    0.496348
   7 C :   -0.476986
   8 N :   -0.007572
   9 N :   -0.016358
  10 H :    0.167779
  11 H :    0.153293
  12 H :    0.111932
  13 H :    0.143382
  14 H :    0.150318
  15 O :   -0.246621
  16 F :    0.129609
  17 C :   -0.268756
  18 H :    0.141344
  19 H :    0.124244
  20 C :   -0.273229
  21 C :   -0.273787
  22 H :    0.137051
  23 H :    0.147728
  24 H :    0.147935
  25 H :    0.150697
  26 C :   -0.271506
  27 H :    0.127092
  28 H :    0.133548
  29 C :   -0.274265
  30 H :    0.133108
  31 H :    0.139899
  32 C :   -0.271298
  33 H :    0.135999
  34 H :    0.135137
  35 H :    0.139654
  36 H :    0.134322
  37 H :    0.135217
  38 H :    0.137106
  39 O :   -0.222391

  Mayer bond orders larger than 0.100000
B(  0-C ,  1-C ) :   1.0417 B(  0-C , 17-C ) :   0.9842 B(  0-C , 18-H ) :   0.9739
B(  0-C , 19-H ) :   0.9432 B(  1-C ,  7-C ) :   1.6353 B(  1-C , 12-H ) :   0.9510
B(  2-C ,  3-C ) :   0.9936 B(  2-C , 21-C ) :   1.0232 B(  2-C , 24-H ) :   0.9295
B(  2-C , 25-H ) :   0.9432 B(  3-C ,  4-H ) :   0.9231 B(  3-C ,  5-H ) :   0.9236
B(  3-C ,  6-S ) :   0.9157 B(  6-S , 15-O ) :   1.8048 B(  6-S , 16-F ) :   1.1916
B(  6-S , 39-O ) :   1.8832 B(  7-C ,  8-N ) :   1.2170 B(  7-C ,  9-N ) :   1.1505
B(  8-N , 13-H ) :   0.8562 B(  8-N , 14-H ) :   0.9245 B(  9-N , 10-H ) :   0.9108
B(  9-N , 11-H ) :   0.9260 B( 13-H , 15-O ) :   0.1146 B( 17-C , 26-C ) :   1.0226
B( 17-C , 27-H ) :   0.9374 B( 17-C , 28-H ) :   0.9383 B( 20-C , 21-C ) :   1.0178
B( 20-C , 32-C ) :   1.0131 B( 20-C , 35-H ) :   0.9570 B( 20-C , 36-H ) :   0.9443
B( 21-C , 22-H ) :   0.9452 B( 21-C , 23-H ) :   0.9505 B( 26-C , 29-C ) :   1.0073
B( 26-C , 30-H ) :   0.9450 B( 26-C , 31-H ) :   0.9471 B( 29-C , 32-C ) :   1.0013
B( 29-C , 33-H ) :   0.9404 B( 29-C , 34-H ) :   0.9674 B( 32-C , 37-H ) :   0.9494
B( 32-C , 38-H ) :   0.9450

Dispersion correction           -0.049033911
FINAL SINGLE POINT ENERGY     -1190.154556602375

DIPOLE MOMENT
-------------
                                X             Y             Z
Electronic contribution:    -20.58889       3.70887     -22.05592
Nuclear contribution   :     19.99734      -4.67125      20.55522
                        -----------------------------------------
Total Dipole Moment    :     -0.59155      -0.96238      -1.50070
                        -----------------------------------------
Magnitude (a.u.)       :      1.87835
Magnitude (Debye)      :      4.77439

Rotational constants in cm-1:     0.014213     0.012058     0.007367
Rotational constants in MHz :   426.102180   361.491761   220.844824

                             ****ORCA TERMINATED NORMALLY****
TOTAL RUN TIME: 0 days 0 hours 0 minutes 34 seconds 983 msec
