                         Program Version 5.0.0 -  RELEASE  -
|  1> !PBE D3BJ RIJCOSX def2-TZVP def2/J TightSCF xyzfile
|  2>
|  3> *xyzfile 0 1 D5.xyz
|  4>
|  5> %MaxCore 64000
|  6>
|  7> %pal nprocs 18
|  8> end
|  9>
| 10> %scf
| 11>   MaxIter 150
| 12> end
| 13>
| 14>
| 15>                          ****END OF INPUT****

CARTESIAN COORDINATES (ANGSTROEM)
---------------------------------
  C      4.490588    1.155899   -2.469290
  N      4.305394    1.222762   -3.908317
  C      4.906458   -3.102816   -5.954844
  C      3.511771   -2.806215   -6.492283
  H      2.736044   -3.373445   -5.973736
  H      3.444904   -3.040831   -7.555281
  S      3.004618   -1.096206   -6.389259
  C      4.631918    2.246365   -4.670958
  C      4.541686    2.143990   -5.987139
  N      5.084086    3.393584   -4.118545
  H      4.920675    3.570501   -3.135870
  H      5.254652    4.197390   -4.706956
  H      3.824530    0.449113   -4.350926
  H      4.343373    1.249318   -6.416646
  H      4.676712    2.956624   -6.574113
  O      4.128856   -0.329647   -6.953717
  F      1.781285   -1.000779   -7.136399
  C      5.942129    0.939500   -2.036893
  H      3.864305    0.328532   -2.136611
  H      4.076233    2.049994   -1.989010
  C      6.462677   -3.117775   -3.944671
  C      5.024977   -3.025679   -4.437625
  H      4.423321   -3.818693   -3.977648
  H      4.579350   -2.087131   -4.108727
  H      5.201533   -4.100207   -6.296905
  H      5.605922   -2.397822   -6.413368
  C      6.559957   -0.356290   -2.559086
  H      5.967976    0.952567   -0.942444
  H      6.547184    1.788331   -2.368849
  C      6.006283   -1.615917   -1.899301
  H      7.642360   -0.318000   -2.402059
  H      6.414855   -0.403433   -3.642587
  C      6.608718   -2.917014   -2.435655
  H      6.190324   -1.561115   -0.820948
  H      4.919250   -1.651245   -2.016586
  H      7.066975   -2.374258   -4.475514
  H      6.887808   -4.089747   -4.215332
  H      6.135197   -3.755573   -1.915159
  H      7.671142   -2.955503   -2.172291
  O      2.851546   -0.783683   -4.956789

 Total Charge           Charge          ....    0
 Multiplicity           Mult            ....    1
 Number of Electrons    NEL             ....  144
 Basis Dimension        Dim             ....  671

ORBITAL ENERGIES
----------------

  NO   OCC          E(Eh)            E(eV)
   0   2.0000     -88.281239     -2402.2547
   1   2.0000     -24.385380      -663.5599
   2   2.0000     -18.770686      -510.7763
   3   2.0000     -18.760856      -510.5089
   4   2.0000     -13.956755      -379.7826
   5   2.0000     -13.946577      -379.5056
   6   2.0000      -9.946402      -270.6554
   7   2.0000      -9.909921      -269.6627
   8   2.0000      -9.895338      -269.2658
   9   2.0000      -9.887124      -269.0423
  10   2.0000      -9.883362      -268.9400
  11   2.0000      -9.878565      -268.8094
  12   2.0000      -9.874854      -268.7084
  13   2.0000      -9.869217      -268.5551
  14   2.0000      -9.863403      -268.3968
  15   2.0000      -9.862598      -268.3749
  16   2.0000      -9.752163      -265.3698
  17   2.0000      -7.876956      -214.3429
  18   2.0000      -5.901257      -160.5814
  19   2.0000      -5.894865      -160.4074
  20   2.0000      -5.894433      -160.3957
  21   2.0000      -1.290749       -35.1231
  22   2.0000      -1.023212       -27.8430
  23   2.0000      -0.930314       -25.3151
  24   2.0000      -0.855243       -23.2724
  25   2.0000      -0.777655       -21.1611
  26   2.0000      -0.769029       -20.9264
  27   2.0000      -0.735809       -20.0224
  28   2.0000      -0.708988       -19.2925
  29   2.0000      -0.681905       -18.5556
  30   2.0000      -0.658184       -17.9101
  31   2.0000      -0.631996       -17.1975
  32   2.0000      -0.603810       -16.4305
  33   2.0000      -0.578684       -15.7468
  34   2.0000      -0.558672       -15.2022
  35   2.0000      -0.536964       -14.6115
  36   2.0000      -0.531261       -14.4564
  37   2.0000      -0.526321       -14.3219
  38   2.0000      -0.518391       -14.1061
  39   2.0000      -0.502610       -13.6767
  40   2.0000      -0.491466       -13.3735
  41   2.0000      -0.459722       -12.5097
  42   2.0000      -0.451266       -12.2796
  43   2.0000      -0.438900       -11.9431
  44   2.0000      -0.427263       -11.6264
  45   2.0000      -0.422010       -11.4835
  46   2.0000      -0.414131       -11.2691
  47   2.0000      -0.412009       -11.2113
  48   2.0000      -0.398835       -10.8528
  49   2.0000      -0.395839       -10.7713
  50   2.0000      -0.383677       -10.4404
  51   2.0000      -0.377482       -10.2718
  52   2.0000      -0.366716        -9.9788
  53   2.0000      -0.350316        -9.5326
  54   2.0000      -0.342695        -9.3252
  55   2.0000      -0.340863        -9.2753
  56   2.0000      -0.331336        -9.0161
  57   2.0000      -0.325688        -8.8624
  58   2.0000      -0.314912        -8.5692
  59   2.0000      -0.311615        -8.4795
  60   2.0000      -0.310076        -8.4376
  61   2.0000      -0.300351        -8.1730
  62   2.0000      -0.294908        -8.0248
  63   2.0000      -0.289883        -7.8881
  64   2.0000      -0.281806        -7.6683
  65   2.0000      -0.274153        -7.4601
  66   2.0000      -0.270403        -7.3581
  67   2.0000      -0.267900        -7.2899
  68   2.0000      -0.263272        -7.1640
  69   2.0000      -0.247536        -6.7358
  70   2.0000      -0.184848        -5.0300
  71   2.0000      -0.101928        -2.7736
  72   0.0000      -0.021836        -0.5942
  73   0.0000      -0.002136        -0.0581
  74   0.0000       0.017247         0.4693
  75   0.0000       0.018660         0.5078
  76   0.0000       0.022998         0.6258

MULLIKEN ATOMIC CHARGES
-----------------------
   0 C :   -0.252320
   1 N :   -0.226288
   2 C :   -0.166440
   3 C :   -0.200617
   4 H :    0.130265
   5 H :    0.146551
   6 S :    0.736056
   7 C :    0.343347
   8 C :   -0.610704
   9 N :   -0.455856
  10 H :    0.206768
  11 H :    0.216943
  12 H :    0.211787
  13 H :    0.150739
  14 H :    0.067874
  15 O :   -0.356661
  16 F :   -0.045250
  17 C :   -0.039634
  18 H :    0.116624
  19 H :    0.100621
  20 C :   -0.191015
  21 C :   -0.283817
  22 H :    0.081369
  23 H :    0.130699
  24 H :    0.109650
  25 H :    0.134122
  26 C :   -0.236262
  27 H :    0.062299
  28 H :    0.094582
  29 C :   -0.236396
  30 H :    0.086376
  31 H :    0.123958
  32 C :   -0.104116
  33 H :    0.086758
  34 H :    0.104498
  35 H :    0.112841
  36 H :    0.088019
  37 H :    0.083162
  38 H :    0.090049
  39 O :   -0.410581
Sum of atomic charges:   -0.0000000

LOEWDIN ATOMIC CHARGES
----------------------
   0 C :   -0.307710
   1 N :    0.134744
   2 C :   -0.275874
   3 C :   -0.377228
   4 H :    0.141882
   5 H :    0.143189
   6 S :    0.500249
   7 C :   -0.482256
   8 C :   -0.355858
   9 N :   -0.016131
  10 H :    0.153533
  11 H :    0.168721
  12 H :    0.164616
  13 H :    0.085447
  14 H :    0.090640
  15 O :   -0.218541
  16 F :    0.132650
  17 C :   -0.275876
  18 H :    0.134090
  19 H :    0.122469
  20 C :   -0.272509
  21 C :   -0.274625
  22 H :    0.137624
  23 H :    0.142539
  24 H :    0.148492
  25 H :    0.152459
  26 C :   -0.271995
  27 H :    0.133919
  28 H :    0.137230
  29 C :   -0.275522
  30 H :    0.137597
  31 H :    0.142644
  32 C :   -0.269939
  33 H :    0.137023
  34 H :    0.133716
  35 H :    0.140585
  36 H :    0.136093
  37 H :    0.136629
  38 H :    0.138469
  39 O :   -0.253184

  Mayer bond orders larger than 0.100000
B(  0-C ,  1-N ) :   0.9992 B(  0-C , 17-C ) :   0.9590 B(  0-C , 18-H ) :   0.9689
B(  0-C , 19-H ) :   0.9621 B(  1-N ,  7-C ) :   1.2172 B(  1-N , 12-H ) :   0.8727
B(  2-C ,  3-C ) :   0.9947 B(  2-C , 21-C ) :   1.0270 B(  2-C , 24-H ) :   0.9294
B(  2-C , 25-H ) :   0.9414 B(  3-C ,  4-H ) :   0.9216 B(  3-C ,  5-H ) :   0.9246
B(  3-C ,  6-S ) :   0.9190 B(  6-S , 15-O ) :   1.8737 B(  6-S , 16-F ) :   1.1969
B(  6-S , 39-O ) :   1.7985 B(  7-C ,  8-C ) :   1.5838 B(  7-C ,  9-N ) :   1.1341
B(  8-C , 13-H ) :   0.9869 B(  8-C , 14-H ) :   0.9815 B(  9-N , 10-H ) :   0.9148
B(  9-N , 11-H ) :   0.9225 B( 17-C , 26-C ) :   1.0012 B( 17-C , 27-H ) :   0.9336
B( 17-C , 28-H ) :   0.9365 B( 20-C , 21-C ) :   1.0161 B( 20-C , 32-C ) :   1.0076
B( 20-C , 35-H ) :   0.9595 B( 20-C , 36-H ) :   0.9441 B( 21-C , 22-H ) :   0.9453
B( 21-C , 23-H ) :   0.9521 B( 26-C , 29-C ) :   1.0075 B( 26-C , 30-H ) :   0.9444
B( 26-C , 31-H ) :   0.9531 B( 29-C , 32-C ) :   1.0045 B( 29-C , 33-H ) :   0.9404
B( 29-C , 34-H ) :   0.9660 B( 32-C , 37-H ) :   0.9499 B( 32-C , 38-H ) :   0.9466

Dispersion correction           -0.048812875
FINAL SINGLE POINT ENERGY     -1190.146143312558

DIPOLE MOMENT
-------------
                                X             Y             Z
Electronic contribution:    -20.61648       2.78120     -20.20883
Nuclear contribution   :     20.03262      -4.53368      20.24480
                        -----------------------------------------
Total Dipole Moment    :     -0.58386      -1.75248       0.03596
                        -----------------------------------------
Magnitude (a.u.)       :      1.84753
Magnitude (Debye)      :      4.69606

Rotational constants in cm-1:     0.014367     0.012055     0.007393
Rotational constants in MHz :   430.711297   361.391195   221.649333

                             ****ORCA TERMINATED NORMALLY****
TOTAL RUN TIME: 0 days 0 hours 0 minutes 35 seconds 295 msec
