                         Program Version 5.0.0 -  RELEASE  -
|  1> !PBE D3BJ RIJCOSX def2-TZVP def2/J TightSCF xyzfile
|  2>
|  3> *xyzfile 0 1 D6.xyz
|  4>
|  5> %MaxCore 64000
|  6>
|  7> %pal nprocs 18
|  8> end
|  9>
| 10> %scf
| 11>   MaxIter 150
| 12> end
| 13>
| 14>
| 15>                          ****END OF INPUT****

CARTESIAN COORDINATES (ANGSTROEM)
---------------------------------
  C      4.490588    1.155899   -2.469290
  N      4.305394    1.222762   -3.908317
  C      4.906458   -3.102816   -5.954844
  C      3.511771   -2.806215   -6.492283
  H      2.736044   -3.373445   -5.973736
  H      3.444904   -3.040831   -7.555281
  S      3.004618   -1.096206   -6.389259
  C      4.631918    2.246365   -4.670958
  N      4.541686    2.143990   -5.987139
  C      5.084086    3.393584   -4.118545
  H      4.920675    3.570501   -3.135870
  H      5.254652    4.197390   -4.706956
  H      3.824530    0.449113   -4.350926
  H      4.343373    1.249318   -6.416646
  H      4.676712    2.956624   -6.574113
  O      4.128856   -0.329647   -6.953717
  F      1.781285   -1.000779   -7.136399
  C      5.942129    0.939500   -2.036893
  H      3.864305    0.328532   -2.136611
  H      4.076233    2.049994   -1.989010
  C      6.462677   -3.117775   -3.944671
  C      5.024977   -3.025679   -4.437625
  H      4.423321   -3.818693   -3.977648
  H      4.579350   -2.087131   -4.108727
  H      5.201533   -4.100207   -6.296905
  H      5.605922   -2.397822   -6.413368
  C      6.559957   -0.356290   -2.559086
  H      5.967976    0.952567   -0.942444
  H      6.547184    1.788331   -2.368849
  C      6.006283   -1.615917   -1.899301
  H      7.642360   -0.318000   -2.402059
  H      6.414855   -0.403433   -3.642587
  C      6.608718   -2.917014   -2.435655
  H      6.190324   -1.561115   -0.820948
  H      4.919250   -1.651245   -2.016586
  H      7.066975   -2.374258   -4.475514
  H      6.887808   -4.089747   -4.215332
  H      6.135197   -3.755573   -1.915159
  H      7.671142   -2.955503   -2.172291
  O      2.851546   -0.783683   -4.956789

 Total Charge           Charge          ....    0
 Multiplicity           Mult            ....    1
 Number of Electrons    NEL             ....  144
 Basis Dimension        Dim             ....  671

ORBITAL ENERGIES
----------------

  NO   OCC          E(Eh)            E(eV)
   0   2.0000     -88.300937     -2402.7907
   1   2.0000     -24.402543      -664.0270
   2   2.0000     -18.787284      -511.2280
   3   2.0000     -18.787034      -511.2212
   4   2.0000     -13.948619      -379.5612
   5   2.0000     -13.940823      -379.3491
   6   2.0000      -9.960467      -271.0381
   7   2.0000      -9.919785      -269.9311
   8   2.0000      -9.889655      -269.1112
   9   2.0000      -9.888325      -269.0750
  10   2.0000      -9.887261      -269.0461
  11   2.0000      -9.882159      -268.9072
  12   2.0000      -9.875596      -268.7286
  13   2.0000      -9.867468      -268.5075
  14   2.0000      -9.859375      -268.2872
  15   2.0000      -9.853008      -268.1140
  16   2.0000      -9.763436      -265.6766
  17   2.0000      -7.896695      -214.8800
  18   2.0000      -5.920922      -161.1165
  19   2.0000      -5.914817      -160.9504
  20   2.0000      -5.914046      -160.9294
  21   2.0000      -1.308031       -35.5933
  22   2.0000      -1.043867       -28.4051
  23   2.0000      -0.951685       -25.8967
  24   2.0000      -0.854317       -23.2471
  25   2.0000      -0.781236       -21.2585
  26   2.0000      -0.776785       -21.1374
  27   2.0000      -0.739741       -20.1294
  28   2.0000      -0.710854       -19.3433
  29   2.0000      -0.686321       -18.6758
  30   2.0000      -0.659662       -17.9503
  31   2.0000      -0.625708       -17.0264
  32   2.0000      -0.609219       -16.5777
  33   2.0000      -0.590656       -16.0726
  34   2.0000      -0.566613       -15.4183
  35   2.0000      -0.553248       -15.0546
  36   2.0000      -0.540769       -14.7151
  37   2.0000      -0.532517       -14.4905
  38   2.0000      -0.527277       -14.3479
  39   2.0000      -0.498619       -13.5681
  40   2.0000      -0.480027       -13.0622
  41   2.0000      -0.468677       -12.7534
  42   2.0000      -0.462671       -12.5899
  43   2.0000      -0.451302       -12.2805
  44   2.0000      -0.441815       -12.0224
  45   2.0000      -0.428455       -11.6589
  46   2.0000      -0.422279       -11.4908
  47   2.0000      -0.413307       -11.2467
  48   2.0000      -0.403805       -10.9881
  49   2.0000      -0.390183       -10.6174
  50   2.0000      -0.383443       -10.4340
  51   2.0000      -0.380436       -10.3522
  52   2.0000      -0.369608       -10.0575
  53   2.0000      -0.359010        -9.7692
  54   2.0000      -0.345441        -9.3999
  55   2.0000      -0.339776        -9.2458
  56   2.0000      -0.338360        -9.2072
  57   2.0000      -0.326271        -8.8783
  58   2.0000      -0.320449        -8.7199
  59   2.0000      -0.313241        -8.5237
  60   2.0000      -0.307119        -8.3571
  61   2.0000      -0.301680        -8.2091
  62   2.0000      -0.299720        -8.1558
  63   2.0000      -0.293702        -7.9920
  64   2.0000      -0.287846        -7.8327
  65   2.0000      -0.285489        -7.7686
  66   2.0000      -0.280322        -7.6280
  67   2.0000      -0.268356        -7.3023
  68   2.0000      -0.265845        -7.2340
  69   2.0000      -0.257705        -7.0125
  70   2.0000      -0.175771        -4.7830
  71   2.0000      -0.103827        -2.8253
  72   0.0000      -0.038876        -1.0579
  73   0.0000      -0.014056        -0.3825
  74   0.0000       0.000583         0.0159
  75   0.0000       0.008513         0.2316
  76   0.0000       0.017491         0.4759

MULLIKEN ATOMIC CHARGES
-----------------------
   0 C :   -0.192382
   1 N :   -0.238056
   2 C :   -0.171505
   3 C :   -0.195919
   4 H :    0.139293
   5 H :    0.150378
   6 S :    0.744290
   7 C :    0.305365
   8 N :   -0.446608
   9 C :   -0.549119
  10 H :    0.089590
  11 H :    0.060919
  12 H :    0.188742
  13 H :    0.217970
  14 H :    0.214277
  15 O :   -0.395878
  16 F :   -0.040484
  17 C :   -0.058730
  18 H :    0.108303
  19 H :    0.106636
  20 C :   -0.189220
  21 C :   -0.288854
  22 H :    0.084243
  23 H :    0.132777
  24 H :    0.114814
  25 H :    0.133397
  26 C :   -0.229215
  27 H :    0.065075
  28 H :    0.115500
  29 C :   -0.237858
  30 H :    0.086604
  31 H :    0.106637
  32 C :   -0.104732
  33 H :    0.087782
  34 H :    0.103196
  35 H :    0.112039
  36 H :    0.088782
  37 H :    0.082959
  38 H :    0.091129
  39 O :   -0.392137
Sum of atomic charges:   -0.0000000

LOEWDIN ATOMIC CHARGES
----------------------
   0 C :   -0.289010
   1 N :    0.132414
   2 C :   -0.275336
   3 C :   -0.373118
   4 H :    0.145538
   5 H :    0.144424
   6 S :    0.502606
   7 C :   -0.485952
   8 N :   -0.005449
   9 C :   -0.373287
  10 H :    0.094670
  11 H :    0.089207
  12 H :    0.154077
  13 H :    0.132373
  14 H :    0.168552
  15 O :   -0.241416
  16 F :    0.136334
  17 C :   -0.270201
  18 H :    0.130357
  19 H :    0.131156
  20 C :   -0.272371
  21 C :   -0.274685
  22 H :    0.138440
  23 H :    0.142904
  24 H :    0.150353
  25 H :    0.151817
  26 C :   -0.273329
  27 H :    0.135196
  28 H :    0.145663
  29 C :   -0.275949
  30 H :    0.137368
  31 H :    0.137667
  32 C :   -0.270022
  33 H :    0.137719
  34 H :    0.132887
  35 H :    0.140450
  36 H :    0.136154
  37 H :    0.136352
  38 H :    0.138993
  39 O :   -0.243544

  Mayer bond orders larger than 0.100000
B(  0-C ,  1-N ) :   0.9978 B(  0-C , 17-C ) :   0.9887 B(  0-C , 18-H ) :   0.9678
B(  0-C , 19-H ) :   0.9464 B(  1-N ,  7-C ) :   1.1988 B(  1-N , 12-H ) :   0.8765
B(  2-C ,  3-C ) :   0.9918 B(  2-C , 21-C ) :   1.0212 B(  2-C , 24-H ) :   0.9284
B(  2-C , 25-H ) :   0.9441 B(  3-C ,  4-H ) :   0.9210 B(  3-C ,  5-H ) :   0.9238
B(  3-C ,  6-S ) :   0.9177 B(  6-S , 15-O ) :   1.8180 B(  6-S , 16-F ) :   1.2048
B(  6-S , 39-O ) :   1.8197 B(  7-C ,  8-N ) :   1.1869 B(  7-C ,  9-C ) :   1.6120
B(  8-N , 13-H ) :   0.8630 B(  8-N , 14-H ) :   0.9239 B(  9-C , 10-H ) :   0.9829
B(  9-C , 11-H ) :   0.9852 B( 13-H , 15-O ) :   0.1019 B( 17-C , 26-C ) :   1.0090
B( 17-C , 27-H ) :   0.9424 B( 17-C , 28-H ) :   0.9306 B( 20-C , 21-C ) :   1.0165
B( 20-C , 32-C ) :   1.0086 B( 20-C , 35-H ) :   0.9586 B( 20-C , 36-H ) :   0.9440
B( 21-C , 22-H ) :   0.9451 B( 21-C , 23-H ) :   0.9530 B( 26-C , 29-C ) :   1.0048
B( 26-C , 30-H ) :   0.9452 B( 26-C , 31-H ) :   0.9515 B( 29-C , 32-C ) :   1.0020
B( 29-C , 33-H ) :   0.9409 B( 29-C , 34-H ) :   0.9666 B( 32-C , 37-H ) :   0.9501
B( 32-C , 38-H ) :   0.9462

Dispersion correction           -0.048747806
FINAL SINGLE POINT ENERGY     -1190.160122602011

DIPOLE MOMENT
-------------
                                X             Y             Z
Electronic contribution:    -21.14930       1.40999     -21.91806
Nuclear contribution   :     20.11362      -4.34709      20.52383
                        -----------------------------------------
Total Dipole Moment    :     -1.03568      -2.93709      -1.39423
                        -----------------------------------------
Magnitude (a.u.)       :      3.41219
Magnitude (Debye)      :      8.67310

Rotational constants in cm-1:     0.014449     0.012108     0.007447
Rotational constants in MHz :   433.168496   362.988632   223.260798

                             ****ORCA TERMINATED NORMALLY****
TOTAL RUN TIME: 0 days 0 hours 0 minutes 27 seconds 407 msec
