                         Program Version 5.0.0 -  RELEASE  -
|  1> !PBE D3BJ RIJCOSX def2-TZVP def2/J TightSCF xyzfile
|  2>
|  3> *xyzfile 0 1 D7.xyz
|  4>
|  5> %MaxCore 64000
|  6>
|  7> %pal nprocs 18
|  8> end
|  9>
| 10> %scf
| 11>   MaxIter 150
| 12> end
| 13>
| 14>
| 15>                          ****END OF INPUT****

CARTESIAN COORDINATES (ANGSTROEM)
---------------------------------
  C      4.490588    1.155899   -2.469290
  C      4.305394    1.222762   -3.908317
  C      4.906458   -3.102816   -5.954844
  C      3.511771   -2.806215   -6.492283
  H      2.736044   -3.373445   -5.973736
  H      3.444904   -3.040831   -7.555281
  S      3.004618   -1.096206   -6.389259
  C      4.631918    2.246365   -4.670958
  N      4.541686    2.143990   -5.987139
  N      5.084086    3.393584   -4.118545
  H      4.920675    3.570501   -3.135870
  H      5.254652    4.197390   -4.706956
  H      3.824530    0.449113   -4.350926
  H      4.343373    1.249318   -6.416646
  H      4.676712    2.956624   -6.574113
  O      4.128856   -0.329647   -6.953717
  O      1.781285   -1.000779   -7.136399
  C      5.942129    0.939500   -2.036893
  H      3.864305    0.328532   -2.136611
  H      4.076233    2.049994   -1.989010
  C      6.462677   -3.117775   -3.944671
  C      5.024977   -3.025679   -4.437625
  H      4.423321   -3.818693   -3.977648
  H      4.579350   -2.087131   -4.108727
  H      5.201533   -4.100207   -6.296905
  H      5.605922   -2.397822   -6.413368
  C      6.559957   -0.356290   -2.559086
  H      5.967976    0.952567   -0.942444
  H      6.547184    1.788331   -2.368849
  C      6.006283   -1.615917   -1.899301
  H      7.642360   -0.318000   -2.402059
  H      6.414855   -0.403433   -3.642587
  C      6.608718   -2.917014   -2.435655
  H      6.190324   -1.561115   -0.820948
  H      4.919250   -1.651245   -2.016586
  H      7.066975   -2.374258   -4.475514
  H      6.887808   -4.089747   -4.215332
  H      6.135197   -3.755573   -1.915159
  H      7.671142   -2.955503   -2.172291
  F      2.851546   -0.783683   -4.956789

 Total Charge           Charge          ....    0
 Multiplicity           Mult            ....    1
 Number of Electrons    NEL             ....  144
 Basis Dimension        Dim             ....  671

ORBITAL ENERGIES
----------------

  NO   OCC          E(Eh)            E(eV)
   0   2.0000     -88.276140     -2402.1159
   1   2.0000     -24.362683      -662.9423
   2   2.0000     -18.770702      -510.7768
   3   2.0000     -18.768272      -510.7107
   4   2.0000     -13.972447      -380.2096
   5   2.0000     -13.950981      -379.6255
   6   2.0000      -9.942588      -270.5516
   7   2.0000      -9.905830      -269.5513
   8   2.0000      -9.902644      -269.4646
   9   2.0000      -9.887803      -269.0608
  10   2.0000      -9.878867      -268.8176
  11   2.0000      -9.872847      -268.6538
  12   2.0000      -9.864844      -268.4360
  13   2.0000      -9.855905      -268.1928
  14   2.0000      -9.851279      -268.0669
  15   2.0000      -9.847965      -267.9767
  16   2.0000      -9.784755      -266.2567
  17   2.0000      -7.871992      -214.2078
  18   2.0000      -5.896388      -160.4489
  19   2.0000      -5.889935      -160.2733
  20   2.0000      -5.889420      -160.2593
  21   2.0000      -1.260097       -34.2890
  22   2.0000      -1.029919       -28.0255
  23   2.0000      -0.941805       -25.6278
  24   2.0000      -0.859989       -23.4015
  25   2.0000      -0.775808       -21.1108
  26   2.0000      -0.767788       -20.8926
  27   2.0000      -0.734290       -19.9811
  28   2.0000      -0.707346       -19.2479
  29   2.0000      -0.684141       -18.6164
  30   2.0000      -0.651882       -17.7386
  31   2.0000      -0.638438       -17.3728
  32   2.0000      -0.604191       -16.4409
  33   2.0000      -0.579369       -15.7654
  34   2.0000      -0.559463       -15.2238
  35   2.0000      -0.531336       -14.4584
  36   2.0000      -0.523188       -14.2367
  37   2.0000      -0.516703       -14.0602
  38   2.0000      -0.513294       -13.9674
  39   2.0000      -0.494719       -13.4620
  40   2.0000      -0.487906       -13.2766
  41   2.0000      -0.473142       -12.8749
  42   2.0000      -0.445494       -12.1225
  43   2.0000      -0.436619       -11.8810
  44   2.0000      -0.433700       -11.8016
  45   2.0000      -0.425459       -11.5773
  46   2.0000      -0.422456       -11.4956
  47   2.0000      -0.408727       -11.1220
  48   2.0000      -0.400954       -10.9105
  49   2.0000      -0.392326       -10.6757
  50   2.0000      -0.381408       -10.3786
  51   2.0000      -0.375675       -10.2226
  52   2.0000      -0.372645       -10.1402
  53   2.0000      -0.355706        -9.6793
  54   2.0000      -0.347606        -9.4588
  55   2.0000      -0.337040        -9.1713
  56   2.0000      -0.331463        -9.0196
  57   2.0000      -0.326534        -8.8855
  58   2.0000      -0.318507        -8.6670
  59   2.0000      -0.312102        -8.4927
  60   2.0000      -0.301878        -8.2145
  61   2.0000      -0.299616        -8.1530
  62   2.0000      -0.293895        -7.9973
  63   2.0000      -0.287143        -7.8135
  64   2.0000      -0.285560        -7.7705
  65   2.0000      -0.279766        -7.6128
  66   2.0000      -0.278407        -7.5758
  67   2.0000      -0.264281        -7.1914
  68   2.0000      -0.257160        -6.9977
  69   2.0000      -0.252656        -6.8751
  70   2.0000      -0.203769        -5.5448
  71   2.0000      -0.116760        -3.1772
  72   0.0000      -0.020579        -0.5600
  73   0.0000       0.004148         0.1129
  74   0.0000       0.011536         0.3139
  75   0.0000       0.021502         0.5851
  76   0.0000       0.024174         0.6578

MULLIKEN ATOMIC CHARGES
-----------------------
   0 C :   -0.261204
   1 C :   -0.363259
   2 C :   -0.145106
   3 C :   -0.221795
   4 H :    0.137358
   5 H :    0.164738
   6 S :    0.728875
   7 C :    0.269585
   8 N :   -0.418273
   9 N :   -0.438513
  10 H :    0.228033
  11 H :    0.200569
  12 H :    0.099914
  13 H :    0.238362
  14 H :    0.189327
  15 O :   -0.413354
  16 O :   -0.343652
  17 C :   -0.056603
  18 H :    0.076759
  19 H :    0.073545
  20 C :   -0.185898
  21 C :   -0.294189
  22 H :    0.089051
  23 H :    0.111116
  24 H :    0.105034
  25 H :    0.128390
  26 C :   -0.186328
  27 H :    0.056573
  28 H :    0.084156
  29 C :   -0.241152
  30 H :    0.078281
  31 H :    0.114769
  32 C :   -0.104330
  33 H :    0.086461
  34 H :    0.099957
  35 H :    0.110539
  36 H :    0.089542
  37 H :    0.082342
  38 H :    0.088574
  39 F :   -0.058192
Sum of atomic charges:    0.0000000

LOEWDIN ATOMIC CHARGES
----------------------
   0 C :   -0.295702
   1 C :   -0.304312
   2 C :   -0.286311
   3 C :   -0.370366
   4 H :    0.143470
   5 H :    0.155695
   6 S :    0.504456
   7 C :   -0.470676
   8 N :    0.001015
   9 N :   -0.010045
  10 H :    0.168976
  11 H :    0.156682
  12 H :    0.106530
  13 H :    0.143737
  14 H :    0.154058
  15 O :   -0.247452
  16 O :   -0.219200
  17 C :   -0.267734
  18 H :    0.139499
  19 H :    0.126863
  20 C :   -0.271477
  21 C :   -0.277976
  22 H :    0.138376
  23 H :    0.137416
  24 H :    0.146161
  25 H :    0.149636
  26 C :   -0.271502
  27 H :    0.128974
  28 H :    0.134808
  29 C :   -0.274626
  30 H :    0.134953
  31 H :    0.139788
  32 C :   -0.270823
  33 H :    0.137273
  34 H :    0.132212
  35 H :    0.140600
  36 H :    0.136828
  37 H :    0.136031
  38 H :    0.138266
  39 F :    0.105899

  Mayer bond orders larger than 0.100000
B(  0-C ,  1-C ) :   1.0456 B(  0-C , 17-C ) :   0.9832 B(  0-C , 18-H ) :   0.9666
B(  0-C , 19-H ) :   0.9500 B(  1-C ,  7-C ) :   1.6211 B(  1-C , 12-H ) :   0.9736
B(  2-C ,  3-C ) :   0.9755 B(  2-C , 21-C ) :   1.0170 B(  2-C , 24-H ) :   0.9275
B(  2-C , 25-H ) :   0.9415 B(  3-C ,  4-H ) :   0.9344 B(  3-C ,  5-H ) :   0.9324
B(  3-C ,  6-S ) :   0.9070 B(  6-S , 15-O ) :   1.7805 B(  6-S , 16-O ) :   2.0285
B(  6-S , 39-F ) :   1.1314 B(  7-C ,  8-N ) :   1.2342 B(  7-C ,  9-N ) :   1.1650
B(  8-N , 13-H ) :   0.8505 B(  8-N , 14-H ) :   0.9221 B(  9-N , 10-H ) :   0.9094
B(  9-N , 11-H ) :   0.9240 B( 13-H , 15-O ) :   0.1167 B( 17-C , 26-C ) :   1.0198
B( 17-C , 27-H ) :   0.9392 B( 17-C , 28-H ) :   0.9397 B( 20-C , 21-C ) :   1.0209
B( 20-C , 32-C ) :   1.0083 B( 20-C , 35-H ) :   0.9580 B( 20-C , 36-H ) :   0.9453
B( 21-C , 22-H ) :   0.9441 B( 21-C , 23-H ) :   0.9547 B( 26-C , 29-C ) :   1.0032
B( 26-C , 30-H ) :   0.9458 B( 26-C , 31-H ) :   0.9490 B( 29-C , 32-C ) :   1.0003
B( 29-C , 33-H ) :   0.9405 B( 29-C , 34-H ) :   0.9689 B( 32-C , 37-H ) :   0.9507
B( 32-C , 38-H ) :   0.9454

Dispersion correction           -0.048638824
FINAL SINGLE POINT ENERGY     -1190.171546326838

DIPOLE MOMENT
-------------
                                X             Y             Z
Electronic contribution:    -18.46707       4.21241     -18.14994
Nuclear contribution   :     18.74089      -4.92611      17.99644
                        -----------------------------------------
Total Dipole Moment    :      0.27383      -0.71370      -0.15349
                        -----------------------------------------
Magnitude (a.u.)       :      0.77969
Magnitude (Debye)      :      1.98181

Rotational constants in cm-1:     0.014210     0.012324     0.007480
Rotational constants in MHz :   425.991442   369.455467   224.259162

                             ****ORCA TERMINATED NORMALLY****
TOTAL RUN TIME: 0 days 0 hours 0 minutes 33 seconds 365 msec
