                         Program Version 5.0.0 -  RELEASE  -
|  1> !DLPNO-CCSD(T) aug-cc-pVTZ aug-cc-pVTZ/C TightSCF TightPNO RIJCOSX def2/J
|  2> *xyz -1 1
|  3> C          0.61188        1.65763       -4.50029
|  4> C          1.69499        1.54179       -5.57045
|  5> H          2.69733        1.73466       -5.18400
|  6> H          1.50666        2.27224       -6.35808
|  7> S          1.78029       -0.03313       -6.42874
|  8> O          2.56929        0.21366       -7.60736
|  9> O          0.41688       -0.46297       -6.61859
| 10> O          2.50513       -0.93326       -5.48257
| 11> H         -0.34424        1.45871       -4.93752
| 12> H          0.61845        2.64655       -4.09174
| 13> H          0.80247        0.94882       -3.72173
| 14> *
| 15> %MaxCore 64000
| 16>
| 17> %pal nprocs 18
| 18> end
| 19>
| 20> %scf
| 21>   MaxIter 150
| 22> end
| 23>
| 24>
| 25>                          ****END OF INPUT****

CARTESIAN COORDINATES (ANGSTROEM)
---------------------------------
  C      0.611880    1.657630   -4.500290
  C      1.694990    1.541790   -5.570450
  H      2.697330    1.734660   -5.184000
  H      1.506660    2.272240   -6.358080
  S      1.780290   -0.033130   -6.428740
  O      2.569290    0.213660   -7.607360
  O      0.416880   -0.462970   -6.618590
  O      2.505130   -0.933260   -5.482570
  H     -0.344240    1.458710   -4.937520
  H      0.618450    2.646550   -4.091740
  H      0.802470    0.948820   -3.721730

 Total Charge           Charge          ....   -1
 Multiplicity           Mult            ....    1
 Number of Electrons    NEL             ....   58
 Basis Dimension        Dim             ....  395

ORBITAL ENERGIES
----------------

  NO   OCC          E(Eh)            E(eV)
   0   2.0000     -91.981701     -2502.9493
   1   2.0000     -20.334301      -553.3245
   2   2.0000     -20.333772      -553.3101
   3   2.0000     -20.314105      -552.7749
   4   2.0000     -11.093172      -301.8606
   5   2.0000     -11.083686      -301.6024
   6   2.0000      -8.945141      -243.4097
   7   2.0000      -6.631253      -180.4456
   8   2.0000      -6.630052      -180.4129
   9   2.0000      -6.629953      -180.4102
  10   2.0000      -1.273422       -34.6516
  11   2.0000      -1.135572       -30.9005
  12   2.0000      -1.097609       -29.8675
  13   2.0000      -0.906784       -24.6748
  14   2.0000      -0.748152       -20.3583
  15   2.0000      -0.595780       -16.2120
  16   2.0000      -0.501385       -13.6434
  17   2.0000      -0.492277       -13.3955
  18   2.0000      -0.459639       -12.5074
  19   2.0000      -0.444856       -12.1051
  20   2.0000      -0.425667       -11.5830
  21   2.0000      -0.383221       -10.4280
  22   2.0000      -0.369629       -10.0581
  23   2.0000      -0.323451        -8.8016
  24   2.0000      -0.319079        -8.6826
  25   2.0000      -0.282090        -7.6760
  26   2.0000      -0.262994        -7.1564
  27   2.0000      -0.246729        -6.7138
  28   2.0000      -0.227278        -6.1846
  29   0.0000       0.113002         3.0749
  30   0.0000       0.132404         3.6029
  31   0.0000       0.134422         3.6578
  32   0.0000       0.145575         3.9613
  33   0.0000       0.154850         4.2137

MULLIKEN ATOMIC CHARGES
-----------------------
   0 C :   -0.948840
   1 C :   -0.569353
   2 H :    0.280976
   3 H :    0.253110
   4 S :    2.189411
   5 O :   -1.040821
   6 O :   -1.041630
   7 O :   -1.037582
   8 H :    0.331764
   9 H :    0.290015
  10 H :    0.292949
Sum of atomic charges:   -1.0000000

LOEWDIN ATOMIC CHARGES
----------------------
   0 C :    0.532781
   1 C :    0.111499
   2 H :   -0.207285
   3 H :   -0.221446
   4 S :   -0.407279
   5 O :   -0.053151
   6 O :   -0.044492
   7 O :   -0.093798
   8 H :   -0.211588
   9 H :   -0.206863
  10 H :   -0.198378

  Mayer bond orders larger than 0.100000
B(  0-C ,  1-C ) :   0.8720 B(  0-C ,  8-H ) :   0.9076 B(  0-C ,  9-H ) :   0.9558
B(  0-C , 10-H ) :   0.9349 B(  1-C ,  2-H ) :   0.9201 B(  1-C ,  3-H ) :   0.9570
B(  1-C ,  4-S ) :   0.7785 B(  4-S ,  5-O ) :   1.3300 B(  4-S ,  6-O ) :   1.3752
B(  4-S ,  7-O ) :   1.3036

E(0)                                       ...   -700.923272728
E(0)                                       ...   -700.923272728
E(CORR)(strong-pairs)                      ...     -1.301951700
E(CORR)(weak-pairs)                        ...     -0.001280338
E(CORR)(corrected)                         ...     -1.303232037
E(TOT)                                     ...   -702.226504765
E(CCSD(T))                                 ...   -702.282051425
FINAL SINGLE POINT ENERGY      -702.282051425158

DIPOLE MOMENT
-------------
                                X             Y             Z
Electronic contribution:      2.18721      -5.43759      -4.89744
Nuclear contribution   :     -2.69163       7.29476       5.86550
                        -----------------------------------------
Total Dipole Moment    :     -0.50442       1.85717       0.96806
                        -----------------------------------------
Magnitude (a.u.)       :      2.15422
Magnitude (Debye)      :      5.47559

Rotational constants in cm-1:     0.163060     0.082831     0.081111
Rotational constants in MHz :  4888.419330  2483.225008  2431.646841

                             ****ORCA TERMINATED NORMALLY****
TOTAL RUN TIME: 0 days 0 hours 6 minutes 30 seconds 569 msec
