                         Program Version 5.0.0 -  RELEASE  -
|  1> !DLPNO-CCSD(T) aug-cc-pVTZ aug-cc-pVTZ/C TightSCF TightPNO RIJCOSX def2/J
|  2> *xyz 1 1
|  3> C          1.96337       -1.74915       -1.89689
|  4> N          2.73849       -2.01517       -3.09711
|  5> C          4.04974       -2.15472       -3.15204
|  6> N          4.65821       -1.98629       -4.31866
|  7> N          4.76423       -2.45444       -2.05049
|  8> H          4.28736       -2.77626       -1.21750
|  9> H          5.75082       -2.65835       -2.12599
| 10> H          2.34518       -1.69027       -3.97145
| 11> H          4.10900       -1.59268       -5.07176
| 12> H          5.64910       -2.15646       -4.42724
| 13> C          2.08852       -0.30091       -1.41520
| 14> H          2.23127       -2.45162       -1.10264
| 15> H          0.93025       -1.97780       -2.15544
| 16> H          1.82118        0.36368       -2.21003
| 17> H          3.09792       -0.11068       -1.11551
| 18> H          1.43391       -0.14382       -0.58352
| 19> *
| 20> %MaxCore 64000
| 21>
| 22> %pal nprocs 18
| 23> end
| 24>
| 25> %scf
| 26>   MaxIter 150
| 27> end
| 28>
| 29>
| 30>                          ****END OF INPUT****

CARTESIAN COORDINATES (ANGSTROEM)
---------------------------------
  C      1.963370   -1.749150   -1.896890
  N      2.738490   -2.015170   -3.097110
  C      4.049740   -2.154720   -3.152040
  N      4.658210   -1.986290   -4.318660
  N      4.764230   -2.454440   -2.050490
  H      4.287360   -2.776260   -1.217500
  H      5.750820   -2.658350   -2.125990
  H      2.345180   -1.690270   -3.971450
  H      4.109000   -1.592680   -5.071760
  H      5.649100   -2.156460   -4.427240
  C      2.088520   -0.300910   -1.415200
  H      2.231270   -2.451620   -1.102640
  H      0.930250   -1.977800   -2.155440
  H      1.821180    0.363680   -2.210030
  H      3.097920   -0.110680   -1.115510
  H      1.433910   -0.143820   -0.583520

 Total Charge           Charge          ....    1
 Multiplicity           Mult            ....    1
 Number of Electrons    NEL             ....   48
 Basis Dimension        Dim             ....  506

ORBITAL ENERGIES
----------------

  NO   OCC          E(Eh)            E(eV)
   0   2.0000     -15.788123      -429.6167
   1   2.0000     -15.785542      -429.5464
   2   2.0000     -15.782927      -429.4753
   3   2.0000     -11.588025      -315.3262
   4   2.0000     -11.433302      -311.1160
   5   2.0000     -11.357037      -309.0407
   6   2.0000      -1.543462       -41.9997
   7   2.0000      -1.406213       -38.2650
   8   2.0000      -1.390061       -37.8255
   9   2.0000      -1.189900       -32.3788
  10   2.0000      -1.067021       -29.0351
  11   2.0000      -1.016337       -27.6559
  12   2.0000      -0.972485       -26.4627
  13   2.0000      -0.934841       -25.4383
  14   2.0000      -0.865434       -23.5496
  15   2.0000      -0.856803       -23.3148
  16   2.0000      -0.825125       -22.4528
  17   2.0000      -0.789950       -21.4956
  18   2.0000      -0.762708       -20.7543
  19   2.0000      -0.716712       -19.5027
  20   2.0000      -0.682353       -18.5678
  21   2.0000      -0.659608       -17.9489
  22   2.0000      -0.623342       -16.9620
  23   2.0000      -0.584362       -15.9013
  24   0.0000      -0.093779        -2.5518
  25   0.0000      -0.076100        -2.0708
  26   0.0000      -0.068572        -1.8660
  27   0.0000      -0.060215        -1.6385
  28   0.0000      -0.048405        -1.3172

MULLIKEN ATOMIC CHARGES
-----------------------
   0 C :   -0.345865
   1 N :   -0.063322
   2 C :    0.622678
   3 N :   -0.419699
   4 N :   -0.312133
   5 H :    0.202266
   6 H :    0.175690
   7 H :    0.115391
   8 H :    0.139567
   9 H :    0.178079
  10 C :   -0.908727
  11 H :    0.298649
  12 H :    0.368921
  13 H :    0.286937
  14 H :    0.307970
  15 H :    0.353599
Sum of atomic charges:    1.0000000

LOEWDIN ATOMIC CHARGES
----------------------
   0 C :    0.235514
   1 N :    0.617204
   2 C :   -0.368042
   3 N :    0.939156
   4 N :    0.944715
   5 H :   -0.266445
   6 H :   -0.241563
   7 H :   -0.245295
   8 H :   -0.244924
   9 H :   -0.233284
  10 C :    0.645849
  11 H :   -0.140359
  12 H :   -0.126804
  13 H :   -0.172007
  14 H :   -0.178897
  15 H :   -0.164818

  Mayer bond orders larger than 0.100000
B(  0-C ,  1-N ) :   0.8665 B(  0-C ,  2-C ) :  -0.1360 B(  0-C , 10-C ) :   0.8746
B(  0-C , 11-H ) :   0.8947 B(  0-C , 12-H ) :   0.8981 B(  1-N ,  2-C ) :   0.9055
B(  1-N ,  7-H ) :   1.0297 B(  2-C ,  3-N ) :   1.0443 B(  2-C ,  4-N ) :   0.9991
B(  3-N ,  8-H ) :   1.0927 B(  3-N ,  9-H ) :   1.0567 B(  4-N ,  5-H ) :   1.0304
B(  4-N ,  6-H ) :   1.0115 B( 10-C , 13-H ) :   0.9547 B( 10-C , 14-H ) :   0.9365
B( 10-C , 15-H ) :   0.8858

E(0)                                       ...   -282.707189318
E(0)                                       ...   -282.707189318
E(CORR)(strong-pairs)                      ...     -1.182305143
E(CORR)(weak-pairs)                        ...     -0.001259009
E(CORR)(corrected)                         ...     -1.183564152
E(TOT)                                     ...   -283.890753469
E(CCSD(T))                                 ...   -283.938081459
FINAL SINGLE POINT ENERGY      -283.938081459277

DIPOLE MOMENT
-------------
                                X             Y             Z
Electronic contribution:      3.04331      -2.71909      -3.10356
Nuclear contribution   :     -2.17768       2.37118       2.44574
                        -----------------------------------------
Total Dipole Moment    :      0.86562      -0.34791      -0.65782
                        -----------------------------------------
Magnitude (a.u.)       :      1.14152
Magnitude (Debye)      :      2.90152

Rotational constants in cm-1:     0.215650     0.075183     0.066454
Rotational constants in MHz :  6465.033740  2253.919004  1992.232519

                             ****ORCA TERMINATED NORMALLY****
TOTAL RUN TIME: 0 days 0 hours 11 minutes 55 seconds 70 msec
