                         Program Version 5.0.0 -  RELEASE  -
|  1> !DLPNO-CCSD(T) aug-cc-pVTZ aug-cc-pVTZ/C TightSCF TightPNO RIJCOSX def2/J
|  2>
|  3> *xyzfile 0 1 B.xyz
|  4>
|  5> %MaxCore 64000
|  6>
|  7> %pal nprocs 18
|  8> end
|  9>
| 10> %scf
| 11>   MaxIter 150
| 12> end
| 13>
| 14>
| 15>                          ****END OF INPUT****

CARTESIAN COORDINATES (ANGSTROEM)
---------------------------------
  C      1.963365   -1.749150   -1.896887
  N      2.738490   -2.015170   -3.097113
  C      0.611877    1.657634   -4.500288
  C      1.694991    1.541794   -5.570447
  H      2.697326    1.734659   -5.183996
  H      1.506656    2.272239   -6.358076
  S      1.780287   -0.033128   -6.428739
  C      4.049736   -2.154717   -3.152044
  N      4.658206   -1.986293   -4.318655
  N      4.764231   -2.454435   -2.050491
  H      4.287363   -2.776259   -1.217496
  H      5.750825   -2.658351   -2.125988
  H      2.345176   -1.690274   -3.971447
  H      4.109004   -1.592677   -5.071760
  H      5.649095   -2.156462   -4.427237
  O      2.569287    0.213657   -7.607360
  O      0.416880   -0.462969   -6.618595
  C      2.088520   -0.300912   -1.415204
  H      2.231272   -2.451616   -1.102643
  H      0.930249   -1.977801   -2.155438
  C      0.680356    0.655418   -3.348038
  H     -0.356865    1.549231   -4.991128
  H      0.650228    2.675438   -4.096000
  C      1.968993    0.733582   -2.535654
  H      3.051356   -0.168602   -0.911868
  H      1.316501   -0.136231   -0.657252
  O      2.505129   -0.933263   -5.482570
  H      2.824195    0.624726   -3.208464
  H      2.058919    1.730331   -2.093112
  H      0.542252   -0.344731   -3.766662
  H     -0.174219    0.829692   -2.685182

 Total Charge           Charge          ....    0
 Multiplicity           Mult            ....    1
 Number of Electrons    NEL             ....  120
 Basis Dimension        Dim             .... 1039

ORBITAL ENERGIES
----------------

  NO   OCC          E(Eh)            E(eV)
   0   2.0000     -92.127695     -2506.9220
   1   2.0000     -20.488455      -557.5192
   2   2.0000     -20.468854      -556.9858
   3   2.0000     -20.467853      -556.9586
   4   2.0000     -15.653470      -425.9526
   5   2.0000     -15.622259      -425.1033
   6   2.0000     -15.614255      -424.8855
   7   2.0000     -11.436876      -311.2132
   8   2.0000     -11.300950      -307.5145
   9   2.0000     -11.247519      -306.0605
  10   2.0000     -11.228113      -305.5325
  11   2.0000     -11.218563      -305.2726
  12   2.0000     -11.216299      -305.2110
  13   2.0000     -11.213789      -305.1427
  14   2.0000      -9.091012      -247.3790
  15   2.0000      -6.777104      -184.4144
  16   2.0000      -6.776357      -184.3940
  17   2.0000      -6.775345      -184.3665
  18   2.0000      -1.420888       -38.6643
  19   2.0000      -1.392303       -37.8865
  20   2.0000      -1.274351       -34.6769
  21   2.0000      -1.269782       -34.5525
  22   2.0000      -1.255686       -34.1689
  23   2.0000      -1.240920       -33.7672
  24   2.0000      -1.100951       -29.9584
  25   2.0000      -1.053262       -28.6607
  26   2.0000      -0.989862       -26.9355
  27   2.0000      -0.934519       -25.4296
  28   2.0000      -0.891914       -24.2702
  29   2.0000      -0.850830       -23.1523
  30   2.0000      -0.826098       -22.4793
  31   2.0000      -0.798385       -21.7252
  32   2.0000      -0.776981       -21.1427
  33   2.0000      -0.750502       -20.4222
  34   2.0000      -0.717682       -19.5291
  35   2.0000      -0.704107       -19.1597
  36   2.0000      -0.685720       -18.6594
  37   2.0000      -0.650608       -17.7039
  38   2.0000      -0.646629       -17.5957
  39   2.0000      -0.637271       -17.3410
  40   2.0000      -0.628003       -17.0888
  41   2.0000      -0.617217       -16.7953
  42   2.0000      -0.600049       -16.3282
  43   2.0000      -0.586737       -15.9659
  44   2.0000      -0.572264       -15.5721
  45   2.0000      -0.555808       -15.1243
  46   2.0000      -0.528595       -14.3838
  47   2.0000      -0.522079       -14.2065
  48   2.0000      -0.513136       -13.9631
  49   2.0000      -0.488850       -13.3023
  50   2.0000      -0.484661       -13.1883
  51   2.0000      -0.473163       -12.8754
  52   2.0000      -0.468586       -12.7509
  53   2.0000      -0.460603       -12.5336
  54   2.0000      -0.451855       -12.2956
  55   2.0000      -0.430774       -11.7220
  56   2.0000      -0.422800       -11.5050
  57   2.0000      -0.414873       -11.2893
  58   2.0000      -0.386985       -10.5304
  59   2.0000      -0.382022       -10.3953
  60   0.0000      -0.001648        -0.0448
  61   0.0000       0.015303         0.4164
  62   0.0000       0.024609         0.6697
  63   0.0000       0.029161         0.7935
  64   0.0000       0.039233         1.0676

MULLIKEN ATOMIC CHARGES
-----------------------
   0 C :   -0.572465
   1 N :   -0.165941
   2 C :   -0.561620
   3 C :   -0.565434
   4 H :    0.104158
   5 H :    0.301278
   6 S :    2.418019
   7 C :    0.647520
   8 N :   -0.673639
   9 N :   -0.528514
  10 H :    0.138370
  11 H :    0.171319
  12 H :    0.957014
  13 H :    0.298433
  14 H :    0.123997
  15 O :   -1.116472
  16 O :   -1.131526
  17 C :   -0.553830
  18 H :    0.359071
  19 H :    0.199668
  20 C :   -0.371541
  21 H :    0.240417
  22 H :    0.217996
  23 C :   -0.385529
  24 H :    0.179199
  25 H :    0.260390
  26 O :   -1.036295
  27 H :    0.230448
  28 H :    0.353839
  29 H :    0.133474
  30 H :    0.328197
Sum of atomic charges:   -0.0000000

LOEWDIN ATOMIC CHARGES
----------------------
   0 C :    0.241073
   1 N :    0.627186
   2 C :    0.253937
   3 C :    0.171407
   4 H :   -0.199640
   5 H :   -0.193488
   6 S :   -0.226443
   7 C :   -0.367489
   8 N :    0.935631
   9 N :    0.923264
  10 H :   -0.280768
  11 H :   -0.257377
  12 H :   -0.548989
  13 H :   -0.479092
  14 H :   -0.243397
  15 O :   -0.003104
  16 O :    0.011819
  17 C :    0.314939
  18 H :   -0.145713
  19 H :   -0.132663
  20 C :    0.273460
  21 H :   -0.158232
  22 H :   -0.145276
  23 C :    0.282189
  24 H :   -0.144778
  25 H :   -0.136473
  26 O :    0.241674
  27 H :   -0.171287
  28 H :   -0.130794
  29 H :   -0.181017
  30 H :   -0.130558

  Mayer bond orders larger than 0.100000
B(  0-C ,  1-N ) :   1.2507 B(  0-C , 12-H ) :  -0.1580 B(  0-C , 17-C ) :   0.9144
B(  0-C , 18-H ) :   0.8573 B(  0-C , 19-H ) :   1.0651 B(  1-N ,  7-C ) :   0.9611
B(  1-N ,  8-N ) :  -0.1419 B(  1-N , 19-H ) :   0.1189 B(  1-N , 26-O ) :  -0.1148
B(  2-C ,  3-C ) :   0.9561 B(  2-C ,  6-S ) :   0.1176 B(  2-C , 20-C ) :   0.8923
B(  2-C , 21-H ) :   1.0360 B(  2-C , 22-H ) :   0.9753 B(  3-C ,  4-H ) :   1.0617
B(  3-C ,  5-H ) :   0.8685 B(  3-C ,  6-S ) :   0.7387 B(  3-C , 16-O ) :   0.1647
B(  3-C , 20-C ) :   0.1014 B(  6-S , 15-O ) :   1.0824 B(  6-S , 16-O ) :   1.1747
B(  6-S , 26-O ) :   1.3506 B(  7-C ,  8-N ) :   0.9448 B(  7-C ,  9-N ) :   0.8333
B(  7-C , 12-H ) :  -0.2549 B(  8-N , 13-H ) :   0.8886 B(  8-N , 14-H ) :   1.0988
B(  9-N , 10-H ) :   1.1081 B(  9-N , 11-H ) :   0.9958 B( 12-H , 26-O ) :  -0.1812
B( 16-O , 26-O ) :   0.1208 B( 17-C , 23-C ) :   0.8949 B( 17-C , 24-H ) :   1.0397
B( 17-C , 25-H ) :   0.9331 B( 20-C , 23-C ) :   0.8543 B( 20-C , 29-H ) :   1.0812
B( 20-C , 30-H ) :   0.8871 B( 23-C , 27-H ) :   1.0259 B( 23-C , 28-H ) :   0.8756

E(0)                                       ...  -1060.704297650
E(0)                                       ...  -1060.704297650
E(CORR)(strong-pairs)                      ...     -2.841589008
E(CORR)(weak-pairs)                        ...     -0.005058013
E(CORR)(corrected)                         ...     -2.846647020
E(TOT)                                     ...  -1063.550944670
E(CCSD(T))                                 ...  -1063.673110927
FINAL SINGLE POINT ENERGY     -1063.673110926529

DIPOLE MOMENT
-------------
                                X             Y             Z
Electronic contribution:      2.34414      -4.94341     -13.95920
Nuclear contribution   :      0.44641       3.59123      19.13564
                        -----------------------------------------
Total Dipole Moment    :      2.79055      -1.35218       5.17644
                        -----------------------------------------
Magnitude (a.u.)       :      6.03416
Magnitude (Debye)      :     15.33761

Rotational constants in cm-1:     0.029186     0.014646     0.011115
Rotational constants in MHz :   874.975540   439.070287   333.231642

                             ****ORCA TERMINATED NORMALLY****
TOTAL RUN TIME: 0 days 3 hours 53 minutes 20 seconds 999 msec
