                         Program Version 5.0.0 -  RELEASE  -
|  1> !DLPNO-CCSD(T) aug-cc-pVTZ aug-cc-pVTZ/C TightSCF TightPNO RIJCOSX def2/J
|  2> *xyz 0 1
|  3> C          0.61188        1.65763       -4.50029
|  4> C          1.69499        1.54179       -5.57045
|  5> H          2.69733        1.73466       -5.18400
|  6> H          1.50666        2.27224       -6.35808
|  7> S          1.78029       -0.03313       -6.42874
|  8> F          2.56929        0.21366       -7.60736
|  9> O          0.41688       -0.46297       -6.61859
| 10> O          2.50513       -0.93326       -5.48257
| 11> H         -0.34424        1.45871       -4.93752
| 12> H          0.61845        2.64655       -4.09174
| 13> H          0.80247        0.94882       -3.72173
| 14> *
| 15> %MaxCore 64000
| 16>
| 17> %pal nprocs 18
| 18> end
| 19>
| 20> %scf
| 21>   MaxIter 150
| 22> end
| 23>
| 24>
| 25>                          ****END OF INPUT****

CARTESIAN COORDINATES (ANGSTROEM)
---------------------------------
  C      0.611880    1.657630   -4.500290
  C      1.694990    1.541790   -5.570450
  H      2.697330    1.734660   -5.184000
  H      1.506660    2.272240   -6.358080
  S      1.780290   -0.033130   -6.428740
  F      2.569290    0.213660   -7.607360
  O      0.416880   -0.462970   -6.618590
  O      2.505130   -0.933260   -5.482570
  H     -0.344240    1.458710   -4.937520
  H      0.618450    2.646550   -4.091740
  H      0.802470    0.948820   -3.721730

 Total Charge           Charge          ....    0
 Multiplicity           Mult            ....    1
 Number of Electrons    NEL             ....   58
 Basis Dimension        Dim             ....  395

ORBITAL ENERGIES
----------------

  NO   OCC          E(Eh)            E(eV)
   0   2.0000     -92.251088     -2510.2797
   1   2.0000     -26.436435      -719.3720
   2   2.0000     -20.571264      -559.7726
   3   2.0000     -20.550464      -559.2066
   4   2.0000     -11.297097      -307.4096
   5   2.0000     -11.246790      -306.0407
   6   2.0000      -9.214643      -250.7432
   7   2.0000      -6.902094      -187.8155
   8   2.0000      -6.898271      -187.7115
   9   2.0000      -6.897422      -187.6884
  10   2.0000      -1.805664       -49.1346
  11   2.0000      -1.451216       -39.4896
  12   2.0000      -1.334587       -36.3160
  13   2.0000      -1.100223       -29.9386
  14   2.0000      -0.994394       -27.0588
  15   2.0000      -0.914608       -24.8877
  16   2.0000      -0.833060       -22.6687
  17   2.0000      -0.824299       -22.4303
  18   2.0000      -0.765816       -20.8389
  19   2.0000      -0.672988       -18.3129
  20   2.0000      -0.669349       -18.2139
  21   2.0000      -0.621976       -16.9248
  22   2.0000      -0.595706       -16.2100
  23   2.0000      -0.566329       -15.4106
  24   2.0000      -0.550881       -14.9902
  25   2.0000      -0.544239       -14.8095
  26   2.0000      -0.498534       -13.5658
  27   2.0000      -0.473733       -12.8909
  28   2.0000      -0.469587       -12.7781
  29   0.0000       0.022473         0.6115
  30   0.0000       0.036729         0.9994
  31   0.0000       0.039699         1.0803
  32   0.0000       0.049959         1.3595
  33   0.0000       0.063900         1.7388

MULLIKEN ATOMIC CHARGES
-----------------------
   0 C :   -0.912792
   1 C :   -0.526750
   2 H :    0.319035
   3 H :    0.289343
   4 S :    2.112582
   5 F :   -0.494491
   6 O :   -0.884521
   7 O :   -0.881819
   8 H :    0.343568
   9 H :    0.325178
  10 H :    0.310668
Sum of atomic charges:   -0.0000000

LOEWDIN ATOMIC CHARGES
----------------------
   0 C :    0.582502
   1 C :    0.166479
   2 H :   -0.190524
   3 H :   -0.204917
   4 S :   -0.116438
   5 F :    0.289151
   6 O :    0.036267
   7 O :   -0.006066
   8 H :   -0.195545
   9 H :   -0.178384
  10 H :   -0.182523

  Mayer bond orders larger than 0.100000
B(  0-C ,  1-C ) :   0.8790 B(  0-C ,  8-H ) :   0.8982 B(  0-C ,  9-H ) :   0.9237
B(  0-C , 10-H ) :   0.9228 B(  1-C ,  2-H ) :   0.8928 B(  1-C ,  3-H ) :   0.9141
B(  1-C ,  4-S ) :   0.8588 B(  4-S ,  5-F ) :   0.5641 B(  4-S ,  6-O ) :   1.5848
B(  4-S ,  7-O ) :   1.5009

E(0)                                       ...   -725.418962865
E(0)                                       ...   -725.418962865
E(CORR)(strong-pairs)                      ...     -1.307139849
E(CORR)(weak-pairs)                        ...     -0.001262480
E(CORR)(corrected)                         ...     -1.308402329
E(TOT)                                     ...   -726.727365194
E(CCSD(T))                                 ...   -726.780564705
FINAL SINGLE POINT ENERGY      -726.780564705386

DIPOLE MOMENT
-------------
                                X             Y             Z
Electronic contribution:      3.89078      -5.44747      -7.55721
Nuclear contribution   :     -3.66946       7.33549       7.42434
                        -----------------------------------------
Total Dipole Moment    :      0.22132       1.88802      -0.13287
                        -----------------------------------------
Magnitude (a.u.)       :      1.90559
Magnitude (Debye)      :      4.84362

Rotational constants in cm-1:     0.158379     0.080294     0.077843
Rotational constants in MHz :  4748.076444  2407.152850  2333.668303

                             ****ORCA TERMINATED NORMALLY****
TOTAL RUN TIME: 0 days 0 hours 6 minutes 2 seconds 828 msec
