                         Program Version 5.0.0 -  RELEASE  -
|  1> !DLPNO-CCSD(T) aug-cc-pVTZ aug-cc-pVTZ/C TightSCF TightPNO RIJCOSX def2/J
|  2> *xyz 0 1
|  3> C          1.96337       -1.74915       -1.89689
|  4> C          2.73849       -2.01517       -3.09711
|  5> C          4.04974       -2.15472       -3.15204
|  6> N          4.65821       -1.98629       -4.31866
|  7> N          4.76423       -2.45444       -2.05049
|  8> H          4.28736       -2.77626       -1.21750
|  9> H          5.75082       -2.65835       -2.12599
| 10> H          2.34518       -1.69027       -3.97145
| 11> H          4.10900       -1.59268       -5.07176
| 12> H          5.64910       -2.15646       -4.42724
| 13> C          2.08852       -0.30091       -1.41520
| 14> H          2.23127       -2.45162       -1.10264
| 15> H          0.93025       -1.97780       -2.15544
| 16> H          1.82118        0.36368       -2.21003
| 17> H          3.09792       -0.11068       -1.11551
| 18> H          1.43391       -0.14382       -0.58352
| 19> *
| 20> %MaxCore 64000
| 21>
| 22> %pal nprocs 18
| 23> end
| 24>
| 25> %scf
| 26>   MaxIter 150
| 27> end
| 28>
| 29>
| 30>                          ****END OF INPUT****

CARTESIAN COORDINATES (ANGSTROEM)
---------------------------------
  C      1.963370   -1.749150   -1.896890
  C      2.738490   -2.015170   -3.097110
  C      4.049740   -2.154720   -3.152040
  N      4.658210   -1.986290   -4.318660
  N      4.764230   -2.454440   -2.050490
  H      4.287360   -2.776260   -1.217500
  H      5.750820   -2.658350   -2.125990
  H      2.345180   -1.690270   -3.971450
  H      4.109000   -1.592680   -5.071760
  H      5.649100   -2.156460   -4.427240
  C      2.088520   -0.300910   -1.415200
  H      2.231270   -2.451620   -1.102640
  H      0.930250   -1.977800   -2.155440
  H      1.821180    0.363680   -2.210030
  H      3.097920   -0.110680   -1.115510
  H      1.433910   -0.143820   -0.583520

 Total Charge           Charge          ....    0
 Multiplicity           Mult            ....    1
 Number of Electrons    NEL             ....   48
 Basis Dimension        Dim             ....  506

ORBITAL ENERGIES
----------------

  NO   OCC          E(Eh)            E(eV)
   0   2.0000     -15.563210      -423.4965
   1   2.0000     -15.560676      -423.4275
   2   2.0000     -11.282884      -307.0229
   3   2.0000     -11.195491      -304.6448
   4   2.0000     -11.184552      -304.3471
   5   2.0000     -11.134618      -302.9884
   6   2.0000      -1.277067       -34.7508
   7   2.0000      -1.165110       -31.7043
   8   2.0000      -1.048207       -28.5232
   9   2.0000      -0.947200       -25.7746
  10   2.0000      -0.840732       -22.8775
  11   2.0000      -0.778110       -21.1735
  12   2.0000      -0.722988       -19.6735
  13   2.0000      -0.693370       -18.8676
  14   2.0000      -0.640243       -17.4219
  15   2.0000      -0.603762       -16.4292
  16   2.0000      -0.583080       -15.8664
  17   2.0000      -0.545376       -14.8404
  18   2.0000      -0.538436       -14.6516
  19   2.0000      -0.498424       -13.5628
  20   2.0000      -0.472211       -12.8495
  21   2.0000      -0.460675       -12.5356
  22   2.0000      -0.415175       -11.2975
  23   2.0000      -0.258726        -7.0403
  24   0.0000       0.023712         0.6452
  25   0.0000       0.034899         0.9497
  26   0.0000       0.039796         1.0829
  27   0.0000       0.046652         1.2695
  28   0.0000       0.052349         1.4245

MULLIKEN ATOMIC CHARGES
-----------------------
   0 C :   -0.244346
   1 C :   -0.354750
   2 C :    0.656576
   3 N :   -0.551816
   4 N :   -0.453544
   5 H :    0.110439
   6 H :    0.133240
   7 H :    0.145663
   8 H :    0.060329
   9 H :    0.096512
  10 C :   -0.971832
  11 H :    0.196765
  12 H :    0.294650
  13 H :    0.284390
  14 H :    0.317225
  15 H :    0.280499
Sum of atomic charges:   -0.0000000

LOEWDIN ATOMIC CHARGES
----------------------
   0 C :    0.207198
   1 C :    0.185960
   2 C :   -0.429949
   3 N :    0.854117
   4 N :    0.870520
   5 H :   -0.291691
   6 H :   -0.282338
   7 H :   -0.281235
   8 H :   -0.277333
   9 H :   -0.277154
  10 C :    0.602516
  11 H :   -0.164344
  12 H :   -0.157379
  13 H :   -0.182271
  14 H :   -0.186290
  15 H :   -0.190326

  Mayer bond orders larger than 0.100000
B(  0-C ,  1-C ) :   0.7622 B(  0-C , 10-C ) :   0.7918 B(  0-C , 11-H ) :   0.9635
B(  0-C , 12-H ) :   1.0085 B(  1-C ,  2-C ) :   1.1583 B(  1-C ,  3-N ) :  -0.2058
B(  1-C ,  4-N ) :  -0.1679 B(  1-C ,  7-H ) :   1.1008 B(  1-C , 10-C ) :   0.1277
B(  1-C , 12-H ) :  -0.1058 B(  2-C ,  3-N ) :   0.8531 B(  2-C ,  4-N ) :   0.8299
B(  2-C ,  9-H ) :  -0.1035 B(  3-N ,  4-N ) :  -0.1439 B(  3-N ,  8-H ) :   1.1668
B(  3-N ,  9-H ) :   1.1333 B(  4-N ,  5-H ) :   1.1303 B(  4-N ,  6-H ) :   1.0394
B( 10-C , 13-H ) :   0.9504 B( 10-C , 14-H ) :   0.9298 B( 10-C , 15-H ) :   0.9727

E(0)                                       ...   -266.250804264
E(0)                                       ...   -266.250804264
E(CORR)(strong-pairs)                      ...     -1.166024805
E(CORR)(weak-pairs)                        ...     -0.001251215
E(CORR)(corrected)                         ...     -1.167276020
E(TOT)                                     ...   -267.418080284
E(CCSD(T))                                 ...   -267.465866306
FINAL SINGLE POINT ENERGY      -267.465866305941

DIPOLE MOMENT
-------------
                                X             Y             Z
Electronic contribution:      3.33611      -2.41695      -2.51960
Nuclear contribution   :     -2.31778       2.31977       2.35294
                        -----------------------------------------
Total Dipole Moment    :      1.01833      -0.09718      -0.16666
                        -----------------------------------------
Magnitude (a.u.)       :      1.03645
Magnitude (Debye)      :      2.63443

Rotational constants in cm-1:     0.219415     0.075373     0.066689
Rotational constants in MHz :  6577.897266  2259.621393  1999.290981

                             ****ORCA TERMINATED NORMALLY****
TOTAL RUN TIME: 0 days 0 hours 13 minutes 25 seconds 658 msec
