                         Program Version 5.0.0 -  RELEASE  -
|  1> !DLPNO-CCSD(T) aug-cc-pVTZ aug-cc-pVTZ/C TightSCF TightPNO RIJCOSX def2/J
|  2> *xyz 0 1
|  3> C          0.61188        1.65763       -4.50029
|  4> C          1.69499        1.54179       -5.57045
|  5> H          2.69733        1.73466       -5.18400
|  6> H          1.50666        2.27224       -6.35808
|  7> S          1.78029       -0.03313       -6.42874
|  8> O          2.56929        0.21366       -7.60736
|  9> F          0.41688       -0.46297       -6.61859
| 10> O          2.50513       -0.93326       -5.48257
| 11> H         -0.34424        1.45871       -4.93752
| 12> H          0.61845        2.64655       -4.09174
| 13> H          0.80247        0.94882       -3.72173
| 14> *
| 15> %MaxCore 64000
| 16>
| 17> %pal nprocs 18
| 18> end
| 19>
| 20> %scf
| 21>   MaxIter 150
| 22> end
| 23>
| 24>
| 25>                          ****END OF INPUT****

CARTESIAN COORDINATES (ANGSTROEM)
---------------------------------
  C      0.611880    1.657630   -4.500290
  C      1.694990    1.541790   -5.570450
  H      2.697330    1.734660   -5.184000
  H      1.506660    2.272240   -6.358080
  S      1.780290   -0.033130   -6.428740
  O      2.569290    0.213660   -7.607360
  F      0.416880   -0.462970   -6.618590
  O      2.505130   -0.933260   -5.482570
  H     -0.344240    1.458710   -4.937520
  H      0.618450    2.646550   -4.091740
  H      0.802470    0.948820   -3.721730

 Total Charge           Charge          ....    0
 Multiplicity           Mult            ....    1
 Number of Electrons    NEL             ....   58
 Basis Dimension        Dim             ....  395

ORBITAL ENERGIES
----------------

  NO   OCC          E(Eh)            E(eV)
   0   2.0000     -92.250705     -2510.2693
   1   2.0000     -26.435547      -719.3478
   2   2.0000     -20.571001      -559.7654
   3   2.0000     -20.550513      -559.2079
   4   2.0000     -11.296902      -307.4043
   5   2.0000     -11.253354      -306.2193
   6   2.0000      -9.214298      -250.7338
   7   2.0000      -6.901954      -187.8117
   8   2.0000      -6.897735      -187.6969
   9   2.0000      -6.897040      -187.6780
  10   2.0000      -1.803932       -49.0875
  11   2.0000      -1.452275       -39.5184
  12   2.0000      -1.334279       -36.3076
  13   2.0000      -1.104865       -30.0649
  14   2.0000      -0.990241       -26.9458
  15   2.0000      -0.919428       -25.0189
  16   2.0000      -0.835743       -22.7417
  17   2.0000      -0.830821       -22.6078
  18   2.0000      -0.756286       -20.5796
  19   2.0000      -0.673767       -18.3341
  20   2.0000      -0.663679       -18.0596
  21   2.0000      -0.629738       -17.1361
  22   2.0000      -0.607024       -16.5180
  23   2.0000      -0.573969       -15.6185
  24   2.0000      -0.553928       -15.0731
  25   2.0000      -0.545290       -14.8381
  26   2.0000      -0.495464       -13.4823
  27   2.0000      -0.474562       -12.9135
  28   2.0000      -0.469985       -12.7890
  29   0.0000       0.021592         0.5876
  30   0.0000       0.035855         0.9757
  31   0.0000       0.038652         1.0518
  32   0.0000       0.047638         1.2963
  33   0.0000       0.061488         1.6732

MULLIKEN ATOMIC CHARGES
-----------------------
   0 C :   -0.931474
   1 C :   -0.504853
   2 H :    0.332599
   3 H :    0.288271
   4 S :    2.136948
   5 O :   -0.885274
   6 F :   -0.512353
   7 O :   -0.881001
   8 H :    0.321670
   9 H :    0.328687
  10 H :    0.306779
Sum of atomic charges:    0.0000000

LOEWDIN ATOMIC CHARGES
----------------------
   0 C :    0.573233
   1 C :    0.168690
   2 H :   -0.173958
   3 H :   -0.202708
   4 S :   -0.119022
   5 O :    0.031074
   6 F :    0.290671
   7 O :   -0.005672
   8 H :   -0.196685
   9 H :   -0.178494
  10 H :   -0.187129

  Mayer bond orders larger than 0.100000
B(  0-C ,  1-C ) :   0.8783 B(  0-C ,  8-H ) :   0.9141 B(  0-C ,  9-H ) :   0.9350
B(  0-C , 10-H ) :   0.9188 B(  1-C ,  2-H ) :   0.8754 B(  1-C ,  3-H ) :   0.9305
B(  1-C ,  4-S ) :   0.8773 B(  4-S ,  5-O ) :   1.5298 B(  4-S ,  6-F ) :   0.5806
B(  4-S ,  7-O ) :   1.4975

E(0)                                       ...   -725.419078891
E(0)                                       ...   -725.419078891
E(CORR)(strong-pairs)                      ...     -1.306883013
E(CORR)(weak-pairs)                        ...     -0.001259567
E(CORR)(corrected)                         ...     -1.308142580
E(TOT)                                     ...   -726.727221471
E(CCSD(T))                                 ...   -726.780334187
FINAL SINGLE POINT ENERGY      -726.780334187351

DIPOLE MOMENT
-------------
                                X             Y             Z
Electronic contribution:      0.09986      -6.62245      -5.78671
Nuclear contribution   :     -1.42658       8.04056       6.39401
                        -----------------------------------------
Total Dipole Moment    :     -1.32672       1.41811       0.60731
                        -----------------------------------------
Magnitude (a.u.)       :      2.03471
Magnitude (Debye)      :      5.17183

Rotational constants in cm-1:     0.153659     0.082363     0.078978
Rotational constants in MHz :  4606.587369  2469.179541  2367.702074

                             ****ORCA TERMINATED NORMALLY****
TOTAL RUN TIME: 0 days 0 hours 6 minutes 5 seconds 673 msec
