                         Program Version 5.0.0 -  RELEASE  -
|  1> !DLPNO-CCSD(T) aug-cc-pVTZ aug-cc-pVTZ/C TightSCF TightPNO RIJCOSX def2/J
|  2> *xyz 0 1
|  3> C          1.96337       -1.74915       -1.89689
|  4> N          2.73849       -2.01517       -3.09711
|  5> C          4.04974       -2.15472       -3.15204
|  6> C          4.65821       -1.98629       -4.31866
|  7> N          4.76423       -2.45444       -2.05049
|  8> H          4.28736       -2.77626       -1.21750
|  9> H          5.75082       -2.65835       -2.12599
| 10> H          2.34518       -1.69027       -3.97145
| 11> H          4.10900       -1.59268       -5.07176
| 12> H          5.64910       -2.15646       -4.42724
| 13> C          2.08852       -0.30091       -1.41520
| 14> H          2.23127       -2.45162       -1.10264
| 15> H          0.93025       -1.97780       -2.15544
| 16> H          1.82118        0.36368       -2.21003
| 17> H          3.09792       -0.11068       -1.11551
| 18> H          1.43391       -0.14382       -0.58352
| 19> *
| 20> %MaxCore 64000
| 21>
| 22> %pal nprocs 18
| 23> end
| 24>
| 25> %scf
| 26>   MaxIter 150
| 27> end
| 28>
| 29>
| 30>                          ****END OF INPUT****

CARTESIAN COORDINATES (ANGSTROEM)
---------------------------------
  C      1.963370   -1.749150   -1.896890
  N      2.738490   -2.015170   -3.097110
  C      4.049740   -2.154720   -3.152040
  C      4.658210   -1.986290   -4.318660
  N      4.764230   -2.454440   -2.050490
  H      4.287360   -2.776260   -1.217500
  H      5.750820   -2.658350   -2.125990
  H      2.345180   -1.690270   -3.971450
  H      4.109000   -1.592680   -5.071760
  H      5.649100   -2.156460   -4.427240
  C      2.088520   -0.300910   -1.415200
  H      2.231270   -2.451620   -1.102640
  H      0.930250   -1.977800   -2.155440
  H      1.821180    0.363680   -2.210030
  H      3.097920   -0.110680   -1.115510
  H      1.433910   -0.143820   -0.583520

 Total Charge           Charge          ....    0
 Multiplicity           Mult            ....    1
 Number of Electrons    NEL             ....   48
 Basis Dimension        Dim             ....  506

ORBITAL ENERGIES
----------------

  NO   OCC          E(Eh)            E(eV)
   0   2.0000     -15.561745      -423.4566
   1   2.0000     -15.557174      -423.3322
   2   2.0000     -11.285107      -307.0834
   3   2.0000     -11.267517      -306.6047
   4   2.0000     -11.211522      -305.0810
   5   2.0000     -11.128573      -302.8239
   6   2.0000      -1.287247       -35.0278
   7   2.0000      -1.180357       -32.1192
   8   2.0000      -1.037436       -28.2301
   9   2.0000      -0.958901       -26.0930
  10   2.0000      -0.857005       -23.3203
  11   2.0000      -0.799724       -21.7616
  12   2.0000      -0.718665       -19.5559
  13   2.0000      -0.671186       -18.2639
  14   2.0000      -0.647330       -17.6147
  15   2.0000      -0.603934       -16.4339
  16   2.0000      -0.597214       -16.2510
  17   2.0000      -0.563101       -15.3228
  18   2.0000      -0.540063       -14.6958
  19   2.0000      -0.526087       -14.3155
  20   2.0000      -0.509235       -13.8570
  21   2.0000      -0.504655       -13.7324
  22   2.0000      -0.398053       -10.8316
  23   2.0000      -0.264168        -7.1884
  24   0.0000       0.026334         0.7166
  25   0.0000       0.034028         0.9259
  26   0.0000       0.039512         1.0752
  27   0.0000       0.040967         1.1148
  28   0.0000       0.053472         1.4550

MULLIKEN ATOMIC CHARGES
-----------------------
   0 C :   -0.408722
   1 N :   -0.167433
   2 C :    0.619336
   3 C :   -1.295649
   4 N :   -0.447439
   5 H :    0.138971
   6 H :    0.068284
   7 H :    0.024335
   8 H :    0.300913
   9 H :    0.529545
  10 C :   -0.936490
  11 H :    0.304087
  12 H :    0.355429
  13 H :    0.271717
  14 H :    0.318098
  15 H :    0.325016
Sum of atomic charges:    0.0000000

LOEWDIN ATOMIC CHARGES
----------------------
   0 C :    0.199354
   1 N :    0.560247
   2 C :   -0.462974
   3 C :    0.538451
   4 N :    0.864859
   5 H :   -0.305138
   6 H :   -0.270154
   7 H :   -0.270871
   8 H :   -0.314209
   9 H :   -0.306263
  10 C :    0.619349
  11 H :   -0.154775
  12 H :   -0.146767
  13 H :   -0.180662
  14 H :   -0.183612
  15 H :   -0.186836

  Mayer bond orders larger than 0.100000
B(  0-C ,  1-N ) :   0.9470 B(  0-C ,  2-C ) :  -0.1472 B(  0-C , 10-C ) :   0.8648
B(  0-C , 11-H ) :   0.9046 B(  0-C , 12-H ) :   0.9132 B(  1-N ,  2-C ) :   0.6842
B(  1-N ,  3-C ) :  -0.2220 B(  1-N ,  4-N ) :  -0.1079 B(  1-N ,  7-H ) :   1.1269
B(  2-C ,  3-C ) :   1.1379 B(  2-C ,  4-N ) :   0.8556 B(  3-C ,  4-N ) :  -0.2275
B(  3-C ,  8-H ) :   1.1308 B(  3-C ,  9-H ) :   0.6918 B(  4-N ,  5-H ) :   1.0831
B(  4-N ,  6-H ) :   1.1257 B( 10-C , 13-H ) :   0.9640 B( 10-C , 14-H ) :   0.9369
B( 10-C , 15-H ) :   0.9074

E(0)                                       ...   -266.249780023
E(0)                                       ...   -266.249780023
E(CORR)(strong-pairs)                      ...     -1.162246808
E(CORR)(weak-pairs)                        ...     -0.001236205
E(CORR)(corrected)                         ...     -1.163483013
E(TOT)                                     ...   -267.413263037
E(CCSD(T))                                 ...   -267.460697516
FINAL SINGLE POINT ENERGY      -267.460697515898

DIPOLE MOMENT
-------------
                                X             Y             Z
Electronic contribution:      1.36335      -2.32837      -1.13830
Nuclear contribution   :     -1.91052       2.32590       2.09379
                        -----------------------------------------
Total Dipole Moment    :     -0.54717      -0.00247       0.95550
                        -----------------------------------------
Magnitude (a.u.)       :      1.10108
Magnitude (Debye)      :      2.79873

Rotational constants in cm-1:     0.219448     0.077923     0.068804
Rotational constants in MHz :  6578.886179  2336.083179  2062.700476

                             ****ORCA TERMINATED NORMALLY****
TOTAL RUN TIME: 0 days 0 hours 12 minutes 42 seconds 3 msec
