                         Program Version 5.0.0 -  RELEASE  -
|  1> !DLPNO-CCSD(T) aug-cc-pVTZ aug-cc-pVTZ/C TightSCF TightPNO RIJCOSX def2/J
|  2> *xyz 0 1
|  3> C          0.61188        1.65763       -4.50029
|  4> C          1.69499        1.54179       -5.57045
|  5> H          2.69733        1.73466       -5.18400
|  6> H          1.50666        2.27224       -6.35808
|  7> S          1.78029       -0.03313       -6.42874
|  8> O          2.56929        0.21366       -7.60736
|  9> O          0.41688       -0.46297       -6.61859
| 10> F          2.50513       -0.93326       -5.48257
| 11> H         -0.34424        1.45871       -4.93752
| 12> H          0.61845        2.64655       -4.09174
| 13> H          0.80247        0.94882       -3.72173
| 14> *
| 15> %MaxCore 64000
| 16>
| 17> %pal nprocs 18
| 18> end
| 19>
| 20> %scf
| 21>   MaxIter 150
| 22> end
| 23>
| 24>
| 25>                          ****END OF INPUT****

CARTESIAN COORDINATES (ANGSTROEM)
---------------------------------
  C      0.611880    1.657630   -4.500290
  C      1.694990    1.541790   -5.570450
  H      2.697330    1.734660   -5.184000
  H      1.506660    2.272240   -6.358080
  S      1.780290   -0.033130   -6.428740
  O      2.569290    0.213660   -7.607360
  O      0.416880   -0.462970   -6.618590
  F      2.505130   -0.933260   -5.482570
  H     -0.344240    1.458710   -4.937520
  H      0.618450    2.646550   -4.091740
  H      0.802470    0.948820   -3.721730

 Total Charge           Charge          ....    0
 Multiplicity           Mult            ....    1
 Number of Electrons    NEL             ....   58
 Basis Dimension        Dim             ....  395

ORBITAL ENERGIES
----------------

  NO   OCC          E(Eh)            E(eV)
   0   2.0000     -92.249572     -2510.2385
   1   2.0000     -26.406530      -718.5582
   2   2.0000     -20.570788      -559.7596
   3   2.0000     -20.570249      -559.7449
   4   2.0000     -11.295714      -307.3720
   5   2.0000     -11.247807      -306.0684
   6   2.0000      -9.212739      -250.6914
   7   2.0000      -6.900393      -187.7692
   8   2.0000      -6.896495      -187.6632
   9   2.0000      -6.895515      -187.6365
  10   2.0000      -1.756194       -47.7885
  11   2.0000      -1.466801       -39.9137
  12   2.0000      -1.366169       -37.1754
  13   2.0000      -1.100566       -29.9479
  14   2.0000      -0.971417       -26.4336
  15   2.0000      -0.904068       -24.6009
  16   2.0000      -0.801944       -21.8220
  17   2.0000      -0.797024       -21.6881
  18   2.0000      -0.759891       -20.6777
  19   2.0000      -0.678665       -18.4674
  20   2.0000      -0.661161       -17.9911
  21   2.0000      -0.647726       -17.6255
  22   2.0000      -0.600408       -16.3379
  23   2.0000      -0.572338       -15.5741
  24   2.0000      -0.560747       -15.2587
  25   2.0000      -0.542388       -14.7591
  26   2.0000      -0.510175       -13.8826
  27   2.0000      -0.491997       -13.3879
  28   2.0000      -0.484640       -13.1877
  29   0.0000       0.022874         0.6224
  30   0.0000       0.037826         1.0293
  31   0.0000       0.038350         1.0435
  32   0.0000       0.048394         1.3169
  33   0.0000       0.062219         1.6931

MULLIKEN ATOMIC CHARGES
-----------------------
   0 C :   -0.930810
   1 C :   -0.523866
   2 H :    0.312677
   3 H :    0.303878
   4 S :    2.180507
   5 O :   -0.899918
   6 O :   -0.891447
   7 F :   -0.512692
   8 H :    0.346672
   9 H :    0.323991
  10 H :    0.291009
Sum of atomic charges:    0.0000000

LOEWDIN ATOMIC CHARGES
----------------------
   0 C :    0.571873
   1 C :    0.170946
   2 H :   -0.190419
   3 H :   -0.188578
   4 S :   -0.111802
   5 O :    0.031042
   6 O :    0.037960
   7 F :    0.244764
   8 H :   -0.196881
   9 H :   -0.180296
  10 H :   -0.188608

  Mayer bond orders larger than 0.100000
B(  0-C ,  1-C ) :   0.8867 B(  0-C ,  8-H ) :   0.8980 B(  0-C ,  9-H ) :   0.9312
B(  0-C , 10-H ) :   0.9377 B(  1-C ,  2-H ) :   0.8890 B(  1-C ,  3-H ) :   0.9130
B(  1-C ,  4-S ) :   0.8676 B(  4-S ,  5-O ) :   1.5269 B(  4-S ,  6-O ) :   1.5659
B(  4-S ,  7-F ) :   0.5642

E(0)                                       ...   -725.443268227
E(0)                                       ...   -725.443268227
E(CORR)(strong-pairs)                      ...     -1.305828448
E(CORR)(weak-pairs)                        ...     -0.001256967
E(CORR)(corrected)                         ...     -1.307085416
E(TOT)                                     ...   -726.750353642
E(CCSD(T))                                 ...   -726.803175493
FINAL SINGLE POINT ENERGY      -726.803175492632

DIPOLE MOMENT
-------------
                                X             Y             Z
Electronic contribution:      3.79890      -7.49575      -3.76762
Nuclear contribution   :     -3.60260       8.53062       5.21025
                        -----------------------------------------
Total Dipole Moment    :      0.19629       1.03487       1.44262
                        -----------------------------------------
Magnitude (a.u.)       :      1.78624
Magnitude (Debye)      :      4.54025

Rotational constants in cm-1:     0.154011     0.080858     0.079602
Rotational constants in MHz :  4617.134198  2424.070332  2386.404775

                             ****ORCA TERMINATED NORMALLY****
TOTAL RUN TIME: 0 days 0 hours 6 minutes 2 seconds 32 msec
