                         Program Version 5.0.0 -  RELEASE  -
|  1> !DLPNO-CCSD(T) aug-cc-pVTZ aug-cc-pVTZ/C TightSCF TightPNO RIJCOSX def2/J
|  2> *xyz 0 1
|  3> C          1.96337       -1.74915       -1.89689
|  4> N          2.73849       -2.01517       -3.09711
|  5> C          4.04974       -2.15472       -3.15204
|  6> N          4.65821       -1.98629       -4.31866
|  7> C          4.76423       -2.45444       -2.05049
|  8> H          4.28736       -2.77626       -1.21750
|  9> H          5.75082       -2.65835       -2.12599
| 10> H          2.34518       -1.69027       -3.97145
| 11> H          4.10900       -1.59268       -5.07176
| 12> H          5.64910       -2.15646       -4.42724
| 13> C          2.08852       -0.30091       -1.41520
| 14> H          2.23127       -2.45162       -1.10264
| 15> H          0.93025       -1.97780       -2.15544
| 16> H          1.82118        0.36368       -2.21003
| 17> H          3.09792       -0.11068       -1.11551
| 18> H          1.43391       -0.14382       -0.58352
| 19> *
| 20> %MaxCore 64000
| 21>
| 22> %pal nprocs 18
| 23> end
| 24>
| 25> %scf
| 26>   MaxIter 150
| 27> end
| 28>
| 29>
| 30>                          ****END OF INPUT****

CARTESIAN COORDINATES (ANGSTROEM)
---------------------------------
  C      1.963370   -1.749150   -1.896890
  N      2.738490   -2.015170   -3.097110
  C      4.049740   -2.154720   -3.152040
  N      4.658210   -1.986290   -4.318660
  C      4.764230   -2.454440   -2.050490
  H      4.287360   -2.776260   -1.217500
  H      5.750820   -2.658350   -2.125990
  H      2.345180   -1.690270   -3.971450
  H      4.109000   -1.592680   -5.071760
  H      5.649100   -2.156460   -4.427240
  C      2.088520   -0.300910   -1.415200
  H      2.231270   -2.451620   -1.102640
  H      0.930250   -1.977800   -2.155440
  H      1.821180    0.363680   -2.210030
  H      3.097920   -0.110680   -1.115510
  H      1.433910   -0.143820   -0.583520

 Total Charge           Charge          ....    0
 Multiplicity           Mult            ....    1
 Number of Electrons    NEL             ....   48
 Basis Dimension        Dim             ....  506

ORBITAL ENERGIES
----------------

  NO   OCC          E(Eh)            E(eV)
   0   2.0000     -15.564353      -423.5276
   1   2.0000     -15.561952      -423.4622
   2   2.0000     -11.287517      -307.1490
   3   2.0000     -11.260639      -306.4176
   4   2.0000     -11.204013      -304.8767
   5   2.0000     -11.128076      -302.8103
   6   2.0000      -1.294028       -35.2123
   7   2.0000      -1.185316       -32.2541
   8   2.0000      -1.017123       -27.6773
   9   2.0000      -0.965002       -26.2590
  10   2.0000      -0.869092       -23.6492
  11   2.0000      -0.764187       -20.7946
  12   2.0000      -0.728878       -19.8338
  13   2.0000      -0.706127       -19.2147
  14   2.0000      -0.633812       -17.2469
  15   2.0000      -0.604915       -16.4606
  16   2.0000      -0.578786       -15.7496
  17   2.0000      -0.559419       -15.2226
  18   2.0000      -0.537100       -14.6152
  19   2.0000      -0.523515       -14.2456
  20   2.0000      -0.511058       -13.9066
  21   2.0000      -0.493359       -13.4250
  22   2.0000      -0.394030       -10.7221
  23   2.0000      -0.264535        -7.1984
  24   0.0000       0.024141         0.6569
  25   0.0000       0.034253         0.9321
  26   0.0000       0.040672         1.1067
  27   0.0000       0.042881         1.1669
  28   0.0000       0.053047         1.4435

MULLIKEN ATOMIC CHARGES
-----------------------
   0 C :   -0.388422
   1 N :   -0.235411
   2 C :    0.650871
   3 N :   -0.558950
   4 C :   -1.224609
   5 H :    0.607475
   6 H :    0.248489
   7 H :    0.061693
   8 H :    0.125382
   9 H :    0.089217
  10 C :   -0.968836
  11 H :    0.300131
  12 H :    0.371033
  13 H :    0.262385
  14 H :    0.328587
  15 H :    0.330966
Sum of atomic charges:    0.0000000

LOEWDIN ATOMIC CHARGES
----------------------
   0 C :    0.202870
   1 N :    0.560613
   2 C :   -0.461978
   3 N :    0.858873
   4 C :    0.545241
   5 H :   -0.327882
   6 H :   -0.313583
   7 H :   -0.276011
   8 H :   -0.286113
   9 H :   -0.262240
  10 C :    0.617682
  11 H :   -0.153256
  12 H :   -0.147570
  13 H :   -0.184404
  14 H :   -0.186775
  15 H :   -0.185468

  Mayer bond orders larger than 0.100000
B(  0-C ,  1-N ) :   0.9557 B(  0-C ,  2-C ) :  -0.1370 B(  0-C , 10-C ) :   0.8541
B(  0-C , 11-H ) :   0.9142 B(  0-C , 12-H ) :   0.8955 B(  1-N ,  2-C ) :   0.7539
B(  1-N ,  3-N ) :  -0.1566 B(  1-N ,  4-C ) :  -0.1873 B(  1-N ,  7-H ) :   1.1071
B(  2-C ,  3-N ) :   0.8389 B(  2-C ,  4-C ) :   1.1685 B(  2-C ,  7-H ) :  -0.1086
B(  3-N ,  4-C ) :  -0.1049 B(  3-N ,  8-H ) :   1.1000 B(  3-N ,  9-H ) :   1.1434
B(  4-C ,  5-H ) :   0.6100 B(  4-C ,  6-H ) :   1.1382 B( 10-C , 13-H ) :   0.9750
B( 10-C , 14-H ) :   0.9314 B( 10-C , 15-H ) :   0.9032

E(0)                                       ...   -266.248668871
E(0)                                       ...   -266.248668871
E(CORR)(strong-pairs)                      ...     -1.162937397
E(CORR)(weak-pairs)                        ...     -0.001256084
E(CORR)(corrected)                         ...     -1.164193481
E(TOT)                                     ...   -267.412862352
E(CCSD(T))                                 ...   -267.460510505
FINAL SINGLE POINT ENERGY      -267.460510505251

DIPOLE MOMENT
-------------
                                X             Y             Z
Electronic contribution:      1.29459      -1.79758      -3.45861
Nuclear contribution   :     -1.88803       2.22658       2.57497
                        -----------------------------------------
Total Dipole Moment    :     -0.59344       0.42900      -0.88364
                        -----------------------------------------
Magnitude (a.u.)       :      1.14762
Magnitude (Debye)      :      2.91701

Rotational constants in cm-1:     0.226509     0.075782     0.067928
Rotational constants in MHz :  6790.555051  2271.890226  2036.439218

                             ****ORCA TERMINATED NORMALLY****
TOTAL RUN TIME: 0 days 0 hours 12 minutes 45 seconds 516 msec
