                         Program Version 5.0.0 -  RELEASE  -
|  1> !DLPNO-CCSD(T) aug-cc-pVTZ aug-cc-pVTZ/C TightSCF TightPNO RIJCOSX def2/J
|  2>
|  3> *xyzfile 0 1 D6.xyz
|  4>
|  5> %MaxCore 64000
|  6>
|  7> %pal nprocs 18
|  8> end
|  9>
| 10> %scf
| 11>   MaxIter 150
| 12> end
| 13>
| 14>
| 15>                          ****END OF INPUT****

CARTESIAN COORDINATES (ANGSTROEM)
---------------------------------
  C      1.963365   -1.749150   -1.896887
  N      2.738490   -2.015170   -3.097113
  C      0.611877    1.657634   -4.500288
  C      1.694991    1.541794   -5.570447
  H      2.697326    1.734659   -5.183996
  H      1.506656    2.272239   -6.358076
  S      1.780287   -0.033128   -6.428739
  C      4.049736   -2.154717   -3.152044
  N      4.658206   -1.986293   -4.318655
  C      4.764231   -2.454435   -2.050491
  H      4.287363   -2.776259   -1.217496
  H      5.750825   -2.658351   -2.125988
  H      2.345176   -1.690274   -3.971447
  H      4.109004   -1.592677   -5.071760
  H      5.649095   -2.156462   -4.427237
  O      2.569287    0.213657   -7.607360
  F      0.416880   -0.462969   -6.618595
  C      2.088520   -0.300912   -1.415204
  H      2.231272   -2.451616   -1.102643
  H      0.930249   -1.977801   -2.155438
  C      0.680356    0.655418   -3.348038
  H     -0.356865    1.549231   -4.991128
  H      0.650228    2.675438   -4.096000
  C      1.968993    0.733582   -2.535654
  H      3.051356   -0.168602   -0.911868
  H      1.316501   -0.136231   -0.657252
  O      2.505129   -0.933263   -5.482570
  H      2.824195    0.624726   -3.208464
  H      2.058919    1.730331   -2.093112
  H      0.542252   -0.344731   -3.766662
  H     -0.174219    0.829692   -2.685182

 Total Charge           Charge          ....    0
 Multiplicity           Mult            ....    1
 Number of Electrons    NEL             ....  120
 Basis Dimension        Dim             .... 1039

ORBITAL ENERGIES
----------------

  NO   OCC          E(Eh)            E(eV)
   0   2.0000     -92.279993     -2511.0663
   1   2.0000     -26.459271      -719.9934
   2   2.0000     -20.595662      -560.4364
   3   2.0000     -20.584796      -560.1408
   4   2.0000     -15.525826      -422.4792
   5   2.0000     -15.524156      -422.4338
   6   2.0000     -11.311500      -307.8016
   7   2.0000     -11.271505      -306.7132
   8   2.0000     -11.262391      -306.4652
   9   2.0000     -11.245813      -306.0141
  10   2.0000     -11.244453      -305.9771
  11   2.0000     -11.226774      -305.4961
  12   2.0000     -11.213638      -305.1386
  13   2.0000     -11.104589      -302.1712
  14   2.0000      -9.243356      -251.5245
  15   2.0000      -6.930896      -188.5993
  16   2.0000      -6.926837      -188.4888
  17   2.0000      -6.926147      -188.4700
  18   2.0000      -1.827638       -49.7326
  19   2.0000      -1.482955       -40.3532
  20   2.0000      -1.375142       -37.4195
  21   2.0000      -1.264927       -34.4204
  22   2.0000      -1.159296       -31.5460
  23   2.0000      -1.138062       -30.9682
  24   2.0000      -1.071719       -29.1630
  25   2.0000      -1.020589       -27.7716
  26   2.0000      -0.981064       -26.6961
  27   2.0000      -0.945688       -25.7335
  28   2.0000      -0.922403       -25.0999
  29   2.0000      -0.870546       -23.6887
  30   2.0000      -0.856923       -23.3180
  31   2.0000      -0.848786       -23.0966
  32   2.0000      -0.802906       -21.8482
  33   2.0000      -0.783021       -21.3071
  34   2.0000      -0.736055       -20.0291
  35   2.0000      -0.709838       -19.3157
  36   2.0000      -0.696727       -18.9589
  37   2.0000      -0.687666       -18.7123
  38   2.0000      -0.676787       -18.4163
  39   2.0000      -0.662552       -18.0290
  40   2.0000      -0.644288       -17.5320
  41   2.0000      -0.625037       -17.0081
  42   2.0000      -0.606071       -16.4920
  43   2.0000      -0.600056       -16.3284
  44   2.0000      -0.584885       -15.9155
  45   2.0000      -0.574649       -15.6370
  46   2.0000      -0.553145       -15.0518
  47   2.0000      -0.546091       -14.8599
  48   2.0000      -0.536448       -14.5975
  49   2.0000      -0.526353       -14.3228
  50   2.0000      -0.520454       -14.1623
  51   2.0000      -0.514139       -13.9904
  52   2.0000      -0.502746       -13.6804
  53   2.0000      -0.493081       -13.4174
  54   2.0000      -0.487745       -13.2722
  55   2.0000      -0.475585       -12.9413
  56   2.0000      -0.469956       -12.7881
  57   2.0000      -0.457420       -12.4470
  58   2.0000      -0.363929        -9.9030
  59   2.0000      -0.240391        -6.5414
  60   0.0000       0.015304         0.4165
  61   0.0000       0.026826         0.7300
  62   0.0000       0.030027         0.8171
  63   0.0000       0.037507         1.0206
  64   0.0000       0.044050         1.1987

MULLIKEN ATOMIC CHARGES
-----------------------
   0 C :   -0.477655
   1 N :   -0.444578
   2 C :   -0.556846
   3 C :   -0.520509
   4 H :    0.190659
   5 H :    0.339594
   6 S :    2.306843
   7 C :    1.003331
   8 N :   -0.852301
   9 C :   -1.629126
  10 H :    0.597471
  11 H :    0.200194
  12 H :    0.863598
  13 H :    0.305186
  14 H :    0.038192
  15 O :   -1.008473
  16 F :   -0.557520
  17 C :   -0.596462
  18 H :    0.286455
  19 H :    0.216573
  20 C :   -0.336145
  21 H :    0.245218
  22 H :    0.217646
  23 C :   -0.419490
  24 H :    0.207655
  25 H :    0.240930
  26 O :   -0.871524
  27 H :    0.289477
  28 H :    0.316027
  29 H :    0.061206
  30 H :    0.344374
Sum of atomic charges:    0.0000000

LOEWDIN ATOMIC CHARGES
----------------------
   0 C :    0.222639
   1 N :    0.573203
   2 C :    0.263059
   3 C :    0.212143
   4 H :   -0.170377
   5 H :   -0.187698
   6 S :    0.038417
   7 C :   -0.448530
   8 N :    0.867376
   9 C :    0.540198
  10 H :   -0.333316
  11 H :   -0.319314
  12 H :   -0.563504
  13 H :   -0.498734
  14 H :   -0.259929
  15 O :    0.058898
  16 F :    0.315984
  17 C :    0.315210
  18 H :   -0.147285
  19 H :   -0.149204
  20 C :    0.273592
  21 H :   -0.157301
  22 H :   -0.132224
  23 C :    0.284906
  24 H :   -0.141445
  25 H :   -0.143419
  26 O :    0.292983
  27 H :   -0.166964
  28 H :   -0.132898
  29 H :   -0.181437
  30 H :   -0.125027

  Mayer bond orders larger than 0.100000
B(  0-C ,  1-N ) :   1.3111 B(  0-C ,  9-C ) :  -0.1139 B(  0-C , 12-H ) :  -0.1582
B(  0-C , 17-C ) :   0.9176 B(  0-C , 18-H ) :   0.9252 B(  0-C , 19-H ) :   1.0256
B(  1-N ,  7-C ) :   0.7108 B(  1-N ,  8-N ) :  -0.1589 B(  1-N , 12-H ) :   0.1247
B(  1-N , 26-O ) :  -0.1315 B(  2-C ,  3-C ) :   0.9333 B(  2-C ,  6-S ) :   0.1089
B(  2-C , 20-C ) :   0.8772 B(  2-C , 21-H ) :   1.0235 B(  2-C , 22-H ) :   0.9793
B(  3-C ,  4-H ) :   1.0139 B(  3-C ,  5-H ) :   0.8566 B(  3-C ,  6-S ) :   0.8245
B(  3-C , 16-F ) :   0.1834 B(  4-H ,  6-S ) :   0.1006 B(  6-S , 15-O ) :   1.2355
B(  6-S , 16-F ) :   0.3502 B(  6-S , 26-O ) :   1.5714 B(  7-C ,  8-N ) :   0.6594
B(  7-C ,  9-C ) :   0.7281 B(  7-C , 12-H ) :  -0.2184 B(  7-C , 13-H ) :  -0.1311
B(  7-C , 14-H ) :  -0.1258 B(  8-N , 13-H ) :   0.8507 B(  8-N , 14-H ) :   1.2327
B(  9-C , 10-H ) :   0.5787 B(  9-C , 11-H ) :   1.2880 B( 12-H , 26-O ) :  -0.2716
B( 16-F , 26-O ) :   0.1101 B( 17-C , 23-C ) :   0.9015 B( 17-C , 24-H ) :   1.0271
B( 17-C , 25-H ) :   0.9394 B( 20-C , 23-C ) :   0.8511 B( 20-C , 29-H ) :   1.1082
B( 20-C , 30-H ) :   0.8751 B( 23-C , 27-H ) :   0.9745 B( 23-C , 28-H ) :   0.9059

E(0)                                       ...  -1068.584046592
E(0)                                       ...  -1068.584046592
E(CORR)(strong-pairs)                      ...     -2.825828721
E(CORR)(weak-pairs)                        ...     -0.005008451
E(CORR)(corrected)                         ...     -2.830837172
E(TOT)                                     ...  -1071.414883764
E(CCSD(T))                                 ...  -1071.534647563
FINAL SINGLE POINT ENERGY     -1071.534647563097

DIPOLE MOMENT
-------------
                                X             Y             Z
Electronic contribution:     -5.04698      -1.24969     -22.73550
Nuclear contribution   :      2.90585       3.30398      21.99296
                        -----------------------------------------
Total Dipole Moment    :     -2.14113       2.05429      -0.74254
                        -----------------------------------------
Magnitude (a.u.)       :      3.05875
Magnitude (Debye)      :      7.77471

Rotational constants in cm-1:     0.029065     0.014689     0.011200
Rotational constants in MHz :   871.338526   440.374927   335.770911

                             ****ORCA TERMINATED NORMALLY****
TOTAL RUN TIME: 0 days 5 hours 2 minutes 16 seconds 796 msec
