                         Program Version 5.0.0 -  RELEASE  -
|  1> !DLPNO-CCSD(T) aug-cc-pVTZ aug-cc-pVTZ/C TightSCF TightPNO RIJCOSX def2/J
|  2>
|  3> *xyzfile 0 1 D8.xyz
|  4>
|  5> %MaxCore 64000
|  6>
|  7> %pal nprocs 18
|  8> end
|  9>
| 10> %scf
| 11>   MaxIter 150
| 12> end
| 13>
| 14>
| 15>                          ****END OF INPUT****

CARTESIAN COORDINATES (ANGSTROEM)
---------------------------------
  C      1.963365   -1.749150   -1.896887
  N      2.738490   -2.015170   -3.097113
  C      0.611877    1.657634   -4.500288
  C      1.694991    1.541794   -5.570447
  H      2.697326    1.734659   -5.183996
  H      1.506656    2.272239   -6.358076
  S      1.780287   -0.033128   -6.428739
  C      4.049736   -2.154717   -3.152044
  C      4.658206   -1.986293   -4.318655
  N      4.764231   -2.454435   -2.050491
  H      4.287363   -2.776259   -1.217496
  H      5.750825   -2.658351   -2.125988
  H      2.345176   -1.690274   -3.971447
  H      4.109004   -1.592677   -5.071760
  H      5.649095   -2.156462   -4.427237
  O      2.569287    0.213657   -7.607360
  O      0.416880   -0.462969   -6.618595
  C      2.088520   -0.300912   -1.415204
  H      2.231272   -2.451616   -1.102643
  H      0.930249   -1.977801   -2.155438
  C      0.680356    0.655418   -3.348038
  H     -0.356865    1.549231   -4.991128
  H      0.650228    2.675438   -4.096000
  C      1.968993    0.733582   -2.535654
  H      3.051356   -0.168602   -0.911868
  H      1.316501   -0.136231   -0.657252
  F      2.505129   -0.933263   -5.482570
  H      2.824195    0.624726   -3.208464
  H      2.058919    1.730331   -2.093112
  H      0.542252   -0.344731   -3.766662
  H     -0.174219    0.829692   -2.685182

 Total Charge           Charge          ....    0
 Multiplicity           Mult            ....    1
 Number of Electrons    NEL             ....  120
 Basis Dimension        Dim             .... 1039

ORBITAL ENERGIES
----------------

  NO   OCC          E(Eh)            E(eV)
   0   2.0000     -92.253110     -2510.3347
   1   2.0000     -26.415693      -718.8076
   2   2.0000     -20.574580      -559.8628
   3   2.0000     -20.572519      -559.8067
   4   2.0000     -15.562547      -423.4784
   5   2.0000     -15.554014      -423.2462
   6   2.0000     -11.294719      -307.3449
   7   2.0000     -11.285883      -307.1045
   8   2.0000     -11.269348      -306.6545
   9   2.0000     -11.257807      -306.3405
  10   2.0000     -11.243319      -305.9463
  11   2.0000     -11.235695      -305.7388
  12   2.0000     -11.231658      -305.6290
  13   2.0000     -11.125664      -302.7447
  14   2.0000      -9.216486      -250.7933
  15   2.0000      -6.904241      -187.8740
  16   2.0000      -6.900122      -187.7619
  17   2.0000      -6.899084      -187.7336
  18   2.0000      -1.773696       -48.2647
  19   2.0000      -1.471252       -40.0348
  20   2.0000      -1.369360       -37.2622
  21   2.0000      -1.289645       -35.0930
  22   2.0000      -1.183937       -32.2166
  23   2.0000      -1.127994       -30.6943
  24   2.0000      -1.075355       -29.2619
  25   2.0000      -1.028957       -27.9993
  26   2.0000      -0.977031       -26.5864
  27   2.0000      -0.959568       -26.1112
  28   2.0000      -0.915308       -24.9068
  29   2.0000      -0.861770       -23.4500
  30   2.0000      -0.825181       -22.4543
  31   2.0000      -0.814056       -22.1516
  32   2.0000      -0.797909       -21.7122
  33   2.0000      -0.790275       -21.5045
  34   2.0000      -0.757802       -20.6208
  35   2.0000      -0.718531       -19.5522
  36   2.0000      -0.686578       -18.6827
  37   2.0000      -0.675233       -18.3740
  38   2.0000      -0.666472       -18.1356
  39   2.0000      -0.655557       -17.8386
  40   2.0000      -0.650709       -17.7067
  41   2.0000      -0.643578       -17.5126
  42   2.0000      -0.615304       -16.7433
  43   2.0000      -0.603477       -16.4214
  44   2.0000      -0.585386       -15.9292
  45   2.0000      -0.572592       -15.5810
  46   2.0000      -0.564451       -15.3595
  47   2.0000      -0.553815       -15.0701
  48   2.0000      -0.540647       -14.7117
  49   2.0000      -0.531314       -14.4578
  50   2.0000      -0.521732       -14.1971
  51   2.0000      -0.520486       -14.1631
  52   2.0000      -0.510927       -13.9030
  53   2.0000      -0.496728       -13.5166
  54   2.0000      -0.490003       -13.3337
  55   2.0000      -0.482592       -13.1320
  56   2.0000      -0.476087       -12.9550
  57   2.0000      -0.470103       -12.7921
  58   2.0000      -0.398306       -10.8385
  59   2.0000      -0.265191        -7.2162
  60   0.0000       0.020364         0.5541
  61   0.0000       0.025427         0.6919
  62   0.0000       0.030282         0.8240
  63   0.0000       0.035398         0.9632
  64   0.0000       0.041879         1.1396

MULLIKEN ATOMIC CHARGES
-----------------------
   0 C :   -0.572087
   1 N :   -0.346197
   2 C :   -0.589324
   3 C :   -0.514850
   4 H :    0.168391
   5 H :    0.340072
   6 S :    2.578775
   7 C :    0.782742
   8 C :   -1.673928
   9 N :   -0.633713
  10 H :    0.044175
  11 H :    0.071866
  12 H :    0.808958
  13 H :    0.862659
  14 H :    0.197378
  15 O :   -1.018565
  16 O :   -1.019926
  17 C :   -0.551489
  18 H :    0.395463
  19 H :    0.155986
  20 C :   -0.326031
  21 H :    0.248512
  22 H :    0.241488
  23 C :   -0.385902
  24 H :    0.185149
  25 H :    0.276779
  26 F :   -0.716696
  27 H :    0.233646
  28 H :    0.339540
  29 H :    0.120388
  30 H :    0.296742
Sum of atomic charges:    0.0000000

LOEWDIN ATOMIC CHARGES
----------------------
   0 C :    0.223091
   1 N :    0.570810
   2 C :    0.262788
   3 C :    0.206235
   4 H :   -0.187249
   5 H :   -0.176328
   6 S :   -0.019130
   7 C :   -0.443985
   8 C :    0.541290
   9 N :    0.870154
  10 H :   -0.304425
  11 H :   -0.269791
  12 H :   -0.497863
  13 H :   -0.469825
  14 H :   -0.297743
  15 O :    0.052738
  16 O :    0.061555
  17 C :    0.315262
  18 H :   -0.145560
  19 H :   -0.145277
  20 C :    0.276102
  21 H :   -0.156144
  22 H :   -0.135195
  23 C :    0.282985
  24 H :   -0.140197
  25 H :   -0.141857
  26 F :    0.469441
  27 H :   -0.169155
  28 H :   -0.130793
  29 H :   -0.178651
  30 H :   -0.123287

  Mayer bond orders larger than 0.100000
B(  0-C ,  1-N ) :   1.2622 B(  0-C , 12-H ) :  -0.1259 B(  0-C , 17-C ) :   0.8889
B(  0-C , 18-H ) :   0.8450 B(  0-C , 19-H ) :   1.0994 B(  1-N ,  7-C ) :   0.8756
B(  1-N ,  9-N ) :  -0.1728 B(  1-N , 12-H ) :   0.2564 B(  1-N , 18-H ) :  -0.1127
B(  1-N , 19-H ) :   0.1306 B(  1-N , 26-F ) :  -0.2077 B(  2-C ,  3-C ) :   0.9749
B(  2-C ,  6-S ) :   0.1369 B(  2-C , 20-C ) :   0.9083 B(  2-C , 21-H ) :   1.0293
B(  2-C , 22-H ) :   0.9536 B(  3-C ,  4-H ) :   1.0398 B(  3-C ,  5-H ) :   0.8323
B(  3-C ,  6-S ) :   0.8094 B(  3-C , 16-O ) :   0.1513 B(  6-S , 15-O ) :   1.1624
B(  6-S , 16-O ) :   1.2856 B(  6-S , 26-F ) :   0.6302 B(  7-C ,  8-C ) :   1.0568
B(  7-C ,  9-N ) :   0.7553 B(  7-C , 10-H ) :  -0.1100 B(  7-C , 12-H ) :  -0.1959
B(  8-C ,  9-N ) :  -0.3207 B(  8-C , 13-H ) :   0.2286 B(  8-C , 14-H ) :   1.4044
B(  9-N , 10-H ) :   1.2339 B(  9-N , 11-H ) :   1.1280 B( 12-H , 26-F ) :  -0.2483
B( 13-H , 26-F ) :  -0.1285 B( 15-O , 26-F ) :   0.1079 B( 16-O , 26-F ) :   0.1702
B( 17-C , 23-C ) :   0.9061 B( 17-C , 24-H ) :   1.0398 B( 17-C , 25-H ) :   0.9234
B( 20-C , 23-C ) :   0.8335 B( 20-C , 29-H ) :   1.0978 B( 20-C , 30-H ) :   0.9183
B( 23-C , 27-H ) :   1.0099 B( 23-C , 28-H ) :   0.8843

E(0)                                       ...  -1068.591102441
E(0)                                       ...  -1068.591102441
E(CORR)(strong-pairs)                      ...     -2.824835806
E(CORR)(weak-pairs)                        ...     -0.004880679
E(CORR)(corrected)                         ...     -2.829716484
E(TOT)                                     ...  -1071.420818926
E(CCSD(T))                                 ...  -1071.540044534
FINAL SINGLE POINT ENERGY     -1071.540044534282

DIPOLE MOMENT
-------------
                                X             Y             Z
Electronic contribution:     -0.88132      -2.85245     -18.12451
Nuclear contribution   :      0.50676       3.90127      20.40426
                        -----------------------------------------
Total Dipole Moment    :     -0.37456       1.04882       2.27975
                        -----------------------------------------
Magnitude (a.u.)       :      2.53724
Magnitude (Debye)      :      6.44916

Rotational constants in cm-1:     0.029548     0.014706     0.011197
Rotational constants in MHz :   885.834387   440.871746   335.667619

                             ****ORCA TERMINATED NORMALLY****
TOTAL RUN TIME: 0 days 3 hours 58 minutes 44 seconds 426 msec
