                         Program Version 5.0.0 -  RELEASE  -
|  1> !wB97X-D3 RIJCOSX def2-SVPD def2/J TightSCF CPCM(Water)
|  2> *xyz -1 1
|  3> C         -0.05915        1.50352        3.41058
|  4> C          1.08303        0.74964        4.08571
|  5> O          2.22817        1.26348        4.01983
|  6> O          0.81003       -0.34541        4.63627
|  7> H          0.31461        2.41205        2.98658
|  8> H         -0.81316        1.73160        4.13470
|  9> H         -0.47977        0.89552        2.63708
| 10> *
| 11>
| 12> %MaxCore 64000
| 13>
| 14> %pal nprocs 18
| 15> end
| 16>
| 17> %scf
| 18>   MaxIter 150
| 19> end
| 20>
| 21>
| 22>                          ****END OF INPUT****

CARTESIAN COORDINATES (ANGSTROEM)
---------------------------------
  C     -0.059150    1.503520    3.410580
  C      1.083030    0.749640    4.085710
  O      2.228170    1.263480    4.019830
  O      0.810030   -0.345410    4.636270
  H      0.314610    2.412050    2.986580
  H     -0.813160    1.731600    4.134700
  H     -0.479770    0.895520    2.637080

 Total Charge           Charge          ....   -1
 Multiplicity           Mult            ....    1
 Number of Electrons    NEL             ....   32
 Basis Dimension        Dim             ....  110

ORBITAL ENERGIES
----------------

  NO   OCC          E(Eh)            E(eV)
   0   2.0000     -19.178216      -521.8658
   1   2.0000     -19.177966      -521.8590
   2   2.0000     -10.369442      -282.1669
   3   2.0000     -10.260426      -279.2004
   4   2.0000      -1.124323       -30.5944
   5   2.0000      -1.028932       -27.9987
   6   2.0000      -0.817694       -22.2506
   7   2.0000      -0.588979       -16.0269
   8   2.0000      -0.531963       -14.4755
   9   2.0000      -0.523312       -14.2400
  10   2.0000      -0.520729       -14.1697
  11   2.0000      -0.469922       -12.7872
  12   2.0000      -0.449130       -12.2215
  13   2.0000      -0.344491        -9.3741
  14   2.0000      -0.333268        -9.0687
  15   2.0000      -0.323886        -8.8134
  16   0.0000       0.096782         2.6336
  17   0.0000       0.131718         3.5842
  18   0.0000       0.133596         3.6353
  19   0.0000       0.149818         4.0767
  20   0.0000       0.172436         4.6922

MULLIKEN ATOMIC CHARGES
-----------------------
   0 C :    0.405691
   1 C :    0.014985
   2 O :   -0.678179
   3 O :   -0.693148
   4 H :   -0.050409
   5 H :    0.000097
   6 H :    0.000964
Sum of atomic charges:   -1.0000000

LOEWDIN ATOMIC CHARGES
----------------------
   0 C :    0.156659
   1 C :   -0.353820
   2 O :   -0.373782
   3 O :   -0.375175
   4 H :   -0.026248
   5 H :   -0.014245
   6 H :   -0.013388

  Mayer bond orders larger than 0.100000
B(  0-C ,  1-C ) :   1.2252 B(  0-C ,  4-H ) :   0.8840 B(  0-C ,  5-H ) :   0.8215
B(  0-C ,  6-H ) :   0.8250 B(  1-C ,  2-O ) :   1.5114 B(  1-C ,  3-O ) :   1.5051
B(  1-C ,  4-H ) :   0.2157 B(  1-C ,  5-H ) :   0.1481 B(  1-C ,  6-H ) :   0.1448
B(  2-O ,  3-O ) :   0.1007

Dispersion correction           -0.000903992
FINAL SINGLE POINT ENERGY      -228.416073730724

DIPOLE MOMENT
-------------
                                X             Y             Z
Electronic contribution:      2.22168      -1.46941       1.31389
Nuclear contribution   :     -3.75920       2.48542      -2.19871
                        -----------------------------------------
Total Dipole Moment    :     -1.53752       1.01601      -0.88482
                        -----------------------------------------
Magnitude (a.u.)       :      2.04430
Magnitude (Debye)      :      5.19620

Rotational constants in cm-1:     0.392838     0.334689     0.186890
Rotational constants in MHz : 11776.984954 10033.729666  5602.815156

                             ****ORCA TERMINATED NORMALLY****
TOTAL RUN TIME: 0 days 0 hours 0 minutes 5 seconds 716 msec
