                         Program Version 5.0.0 -  RELEASE  -
|  1> !wB97X-D3 RIJCOSX def2-SVPD def2/J TightSCF CPCM(Water)
|  2> *xyz 1 1
|  3> C          4.60295       -2.44010        2.63478
|  4> C          3.86085       -1.59157        3.62289
|  5> N          2.75650       -2.04616        4.16633
|  6> N          4.25433       -0.36291        3.86046
|  7> H          3.56526        0.31099        4.16898
|  8> H          5.05429       -0.01606        3.33784
|  9> H          2.43970       -2.97389        3.89740
| 10> H          2.06687       -1.41253        4.54981
| 11> H          5.47239       -1.91604        2.29664
| 12> H          3.96816       -2.65362        1.80030
| 13> H          4.89801       -3.35632        3.10209
| 14> *
| 15>
| 16> %MaxCore 64000
| 17>
| 18> %pal nprocs 18
| 19> end
| 20>
| 21> %scf
| 22>   MaxIter 150
| 23> end
| 24>
| 25>
| 26>                          ****END OF INPUT****

CARTESIAN COORDINATES (ANGSTROEM)
---------------------------------
  C      4.602950   -2.440100    2.634780
  C      3.860850   -1.591570    3.622890
  N      2.756500   -2.046160    4.166330
  N      4.254330   -0.362910    3.860460
  H      3.565260    0.310990    4.168980
  H      5.054290   -0.016060    3.337840
  H      2.439700   -2.973890    3.897400
  H      2.066870   -1.412530    4.549810
  H      5.472390   -1.916040    2.296640
  H      3.968160   -2.653620    1.800300
  H      4.898010   -3.356320    3.102090

 Total Charge           Charge          ....    1
 Multiplicity           Mult            ....    1
 Number of Electrons    NEL             ....   32
 Basis Dimension        Dim             ....  136

ORBITAL ENERGIES
----------------

  NO   OCC          E(Eh)            E(eV)
   0   2.0000     -14.498443      -394.5227
   1   2.0000     -14.497541      -394.4981
   2   2.0000     -10.439400      -284.0705
   3   2.0000     -10.312035      -280.6047
   4   2.0000      -1.135926       -30.9101
   5   2.0000      -1.033852       -28.1325
   6   2.0000      -0.884002       -24.0549
   7   2.0000      -0.759932       -20.6788
   8   2.0000      -0.692225       -18.8364
   9   2.0000      -0.687730       -18.7141
  10   2.0000      -0.611071       -16.6281
  11   2.0000      -0.586495       -15.9593
  12   2.0000      -0.536122       -14.5886
  13   2.0000      -0.523429       -14.2432
  14   2.0000      -0.491365       -13.3707
  15   2.0000      -0.408126       -11.1057
  16   0.0000       0.043257         1.1771
  17   0.0000       0.089608         2.4384
  18   0.0000       0.129771         3.5312
  19   0.0000       0.137532         3.7424
  20   0.0000       0.156858         4.2683

MULLIKEN ATOMIC CHARGES
-----------------------
   0 C :    0.435783
   1 C :    0.166277
   2 N :    0.004583
   3 N :   -0.074090
   4 H :    0.023248
   5 H :    0.137261
   6 H :    0.112550
   7 H :   -0.051729
   8 H :    0.089927
   9 H :    0.060747
  10 H :    0.095443
Sum of atomic charges:    1.0000000

LOEWDIN ATOMIC CHARGES
----------------------
   0 C :    0.225437
   1 C :   -0.063502
   2 N :    0.274942
   3 N :    0.275886
   4 H :    0.059798
   5 H :    0.057619
   6 H :    0.063643
   7 H :    0.059530
   8 H :    0.005594
   9 H :    0.023323
  10 H :    0.017730

  Mayer bond orders larger than 0.100000
B(  0-C ,  1-C ) :   1.3205 B(  0-C ,  8-H ) :   0.8064 B(  0-C ,  9-H ) :   0.8516
B(  0-C , 10-H ) :   0.7185 B(  1-C ,  2-N ) :   1.1725 B(  1-C ,  3-N ) :   1.0907
B(  1-C ,  4-H ) :  -0.1040 B(  1-C ,  7-H ) :  -0.1190 B(  1-C ,  8-H ) :   0.2176
B(  1-C ,  9-H ) :   0.1193 B(  1-C , 10-H ) :   0.2245 B(  2-N ,  3-N ) :   0.1573
B(  2-N ,  6-H ) :   1.0206 B(  2-N ,  7-H ) :   1.2317 B(  3-N ,  4-H ) :   1.1987
B(  3-N ,  5-H ) :   0.9767 B(  4-H ,  5-H ) :  -0.1268 B(  6-H ,  7-H ) :  -0.1387
B(  8-H , 10-H ) :   0.1132

Dispersion correction           -0.001674059
FINAL SINGLE POINT ENERGY      -189.638076736084

DIPOLE MOMENT
-------------
                                X             Y             Z
Electronic contribution:     -1.10937       1.27780       1.62282
Nuclear contribution   :      0.47466      -0.79212      -1.71537
                        -----------------------------------------
Total Dipole Moment    :     -0.63471       0.48568      -0.09255
                        -----------------------------------------
Magnitude (a.u.)       :      0.80456
Magnitude (Debye)      :      2.04503

Rotational constants in cm-1:     0.335502     0.299428     0.163704
Rotational constants in MHz : 10058.111638  8976.630214  4907.722182

                             ****ORCA TERMINATED NORMALLY****
TOTAL RUN TIME: 0 days 0 hours 0 minutes 7 seconds 47 msec
