                         Program Version 5.0.0 -  RELEASE  -
|  1> !wB97X-D3 RIJCOSX def2-SVPD def2/J TightSCF CPCM(Water)
|  2> *xyz 0 1
|  3> C         -0.05915        1.50352        3.41058
|  4> C          1.08303        0.74964        4.08571
|  5> F          2.22817        1.26348        4.01983
|  6> O          0.81003       -0.34541        4.63627
|  7> H          0.31461        2.41205        2.98658
|  8> H         -0.81316        1.73160        4.13470
|  9> H         -0.47977        0.89552        2.63708
| 10> *
| 11>
| 12> %MaxCore 64000
| 13>
| 14> %pal nprocs 18
| 15> end
| 16>
| 17> %scf
| 18>   MaxIter 150
| 19> end
| 20>
| 21>
| 22>                          ****END OF INPUT****

CARTESIAN COORDINATES (ANGSTROEM)
---------------------------------
  C     -0.059150    1.503520    3.410580
  C      1.083030    0.749640    4.085710
  F      2.228170    1.263480    4.019830
  O      0.810030   -0.345410    4.636270
  H      0.314610    2.412050    2.986580
  H     -0.813160    1.731600    4.134700
  H     -0.479770    0.895520    2.637080

 Total Charge           Charge          ....    0
 Multiplicity           Mult            ....    1
 Number of Electrons    NEL             ....   32
 Basis Dimension        Dim             ....  110

ORBITAL ENERGIES
----------------

  NO   OCC          E(Eh)            E(eV)
   0   2.0000     -24.877007      -676.9378
   1   2.0000     -19.263647      -524.1905
   2   2.0000     -10.484758      -285.3048
   3   2.0000     -10.301713      -280.3239
   4   2.0000      -1.426459       -38.8159
   5   2.0000      -1.151498       -31.3338
   6   2.0000      -0.873616       -23.7723
   7   2.0000      -0.767734       -20.8911
   8   2.0000      -0.658120       -17.9083
   9   2.0000      -0.651029       -17.7154
  10   2.0000      -0.613579       -16.6963
  11   2.0000      -0.533701       -14.5227
  12   2.0000      -0.522437       -14.2162
  13   2.0000      -0.504161       -13.7189
  14   2.0000      -0.458944       -12.4885
  15   2.0000      -0.404307       -11.0018
  16   0.0000       0.050757         1.3812
  17   0.0000       0.090958         2.4751
  18   0.0000       0.131076         3.5667
  19   0.0000       0.152542         4.1509
  20   0.0000       0.161203         4.3866

MULLIKEN ATOMIC CHARGES
-----------------------
   0 C :    0.228736
   1 C :    0.434209
   2 F :   -0.352635
   3 O :   -0.531689
   4 H :    0.038262
   5 H :    0.090276
   6 H :    0.092841
Sum of atomic charges:    0.0000000

LOEWDIN ATOMIC CHARGES
----------------------
   0 C :    0.219603
   1 C :   -0.018054
   2 F :   -0.036940
   3 O :   -0.190532
   4 H :   -0.001649
   5 H :    0.013503
   6 H :    0.014068

  Mayer bond orders larger than 0.100000
B(  0-C ,  1-C ) :   1.2762 B(  0-C ,  4-H ) :   0.8998 B(  0-C ,  5-H ) :   0.8202
B(  0-C ,  6-H ) :   0.8227 B(  1-C ,  2-F ) :   0.8086 B(  1-C ,  3-O ) :   1.7853
B(  1-C ,  4-H ) :   0.1386 B(  1-C ,  5-H ) :   0.1263 B(  1-C ,  6-H ) :   0.1222

Dispersion correction           -0.000908877
FINAL SINGLE POINT ENERGY      -252.847446136757

DIPOLE MOMENT
-------------
                                X             Y             Z
Electronic contribution:      4.62357      -0.73933       1.39676
Nuclear contribution   :     -5.01294       1.99942      -2.18092
                        -----------------------------------------
Total Dipole Moment    :     -0.38937       1.26009      -0.78417
                        -----------------------------------------
Magnitude (a.u.)       :      1.53439
Magnitude (Debye)      :      3.90011

Rotational constants in cm-1:     0.368501     0.321908     0.177384
Rotational constants in MHz : 11047.396090  9650.552559  5317.833075

                             ****ORCA TERMINATED NORMALLY****
TOTAL RUN TIME: 0 days 0 hours 0 minutes 5 seconds 740 msec
