                         Program Version 5.0.0 -  RELEASE  -
|  1> !wB97X-D3 RIJCOSX def2-SVPD def2/J TightSCF CPCM(Water)
|  2> *xyz 0 1
|  3> C          4.60295       -2.44010        2.63478
|  4> C          3.86085       -1.59157        3.62289
|  5> C          2.75650       -2.04616        4.16633
|  6> N          4.25433       -0.36291        3.86046
|  7> H          3.56526        0.31099        4.16898
|  8> H          5.05429       -0.01606        3.33784
|  9> H          2.43970       -2.97389        3.89740
| 10> H          2.06687       -1.41253        4.54981
| 11> H          5.47239       -1.91604        2.29664
| 12> H          3.96816       -2.65362        1.80030
| 13> H          4.89801       -3.35632        3.10209
| 14> *
| 15>
| 16> %MaxCore 64000
| 17>
| 18> %pal nprocs 18
| 19> end
| 20>
| 21> %scf
| 22>   MaxIter 150
| 23> end
| 24>
| 25>
| 26>                          ****END OF INPUT****

CARTESIAN COORDINATES (ANGSTROEM)
---------------------------------
  C      4.602950   -2.440100    2.634780
  C      3.860850   -1.591570    3.622890
  C      2.756500   -2.046160    4.166330
  N      4.254330   -0.362910    3.860460
  H      3.565260    0.310990    4.168980
  H      5.054290   -0.016060    3.337840
  H      2.439700   -2.973890    3.897400
  H      2.066870   -1.412530    4.549810
  H      5.472390   -1.916040    2.296640
  H      3.968160   -2.653620    1.800300
  H      4.898010   -3.356320    3.102090

 Total Charge           Charge          ....    0
 Multiplicity           Mult            ....    1
 Number of Electrons    NEL             ....   32
 Basis Dimension        Dim             ....  136

ORBITAL ENERGIES
----------------

  NO   OCC          E(Eh)            E(eV)
   0   2.0000     -14.432805      -392.7366
   1   2.0000     -10.315955      -280.7114
   2   2.0000     -10.276176      -279.6290
   3   2.0000     -10.220459      -278.1128
   4   2.0000      -1.040055       -28.3013
   5   2.0000      -0.866077       -23.5672
   6   2.0000      -0.798633       -21.7319
   7   2.0000      -0.670660       -18.2496
   8   2.0000      -0.622914       -16.9504
   9   2.0000      -0.575328       -15.6555
  10   2.0000      -0.531972       -14.4757
  11   2.0000      -0.491455       -13.3732
  12   2.0000      -0.486780       -13.2460
  13   2.0000      -0.457899       -12.4601
  14   2.0000      -0.427241       -11.6258
  15   2.0000      -0.283947        -7.7266
  16   0.0000       0.097473         2.6524
  17   0.0000       0.112213         3.0535
  18   0.0000       0.133943         3.6448
  19   0.0000       0.139785         3.8037
  20   0.0000       0.170383         4.6363

MULLIKEN ATOMIC CHARGES
-----------------------
   0 C :    0.668028
   1 C :   -0.565607
   2 C :    0.293758
   3 N :    0.061340
   4 H :   -0.012788
   5 H :   -0.001826
   6 H :   -0.115195
   7 H :   -0.341943
   8 H :   -0.044987
   9 H :   -0.005908
  10 H :    0.065129
Sum of atomic charges:   -0.0000000

LOEWDIN ATOMIC CHARGES
----------------------
   0 C :    0.167385
   1 C :   -0.300509
   2 C :    0.126201
   3 N :    0.164050
   4 H :    0.022096
   5 H :    0.014292
   6 H :   -0.084064
   7 H :   -0.088323
   8 H :   -0.017341
   9 H :   -0.000306
  10 H :   -0.003480

  Mayer bond orders larger than 0.100000
B(  0-C ,  1-C ) :   1.2118 B(  0-C ,  8-H ) :   0.7461 B(  0-C ,  9-H ) :   0.8302
B(  0-C , 10-H ) :   0.7047 B(  1-C ,  2-C ) :   1.9529 B(  1-C ,  3-N ) :   1.0939
B(  1-C ,  6-H ) :   0.1398 B(  1-C ,  7-H ) :   0.1502 B(  1-C ,  8-H ) :   0.2727
B(  1-C ,  9-H ) :   0.1324 B(  1-C , 10-H ) :   0.2337 B(  2-C ,  3-N ) :   0.2295
B(  2-C ,  6-H ) :   0.7925 B(  2-C ,  7-H ) :   0.8715 B(  3-N ,  4-H ) :   1.1157
B(  3-N ,  5-H ) :   1.0138 B(  4-H ,  5-H ) :  -0.1145 B(  6-H ,  7-H ) :   0.1193

Dispersion correction           -0.001671841
FINAL SINGLE POINT ENERGY      -173.087270175528

DIPOLE MOMENT
-------------
                                X             Y             Z
Electronic contribution:      0.28992       1.67740       0.84985
Nuclear contribution   :      0.22927      -0.89318      -1.58153
                        -----------------------------------------
Total Dipole Moment    :      0.51919       0.78422      -0.73168
                        -----------------------------------------
Magnitude (a.u.)       :      1.19160
Magnitude (Debye)      :      3.02880

Rotational constants in cm-1:     0.356805     0.302813     0.169682
Rotational constants in MHz : 10696.748191  9078.116910  5086.926242

                             ****ORCA TERMINATED NORMALLY****
TOTAL RUN TIME: 0 days 0 hours 0 minutes 7 seconds 419 msec
