                         Program Version 5.0.0 -  RELEASE  -
|  1> !wB97X-D3 RIJCOSX def2-SVPD def2/J TightSCF CPCM(Water)
|  2> *xyz 0 1
|  3> C         -0.05915        1.50352        3.41058
|  4> C          1.08303        0.74964        4.08571
|  5> O          2.22817        1.26348        4.01983
|  6> F          0.81003       -0.34541        4.63627
|  7> H          0.31461        2.41205        2.98658
|  8> H         -0.81316        1.73160        4.13470
|  9> H         -0.47977        0.89552        2.63708
| 10> *
| 11>
| 12> %MaxCore 64000
| 13>
| 14> %pal nprocs 18
| 15> end
| 16>
| 17> %scf
| 18>   MaxIter 150
| 19> end
| 20>
| 21>
| 22>                          ****END OF INPUT****

CARTESIAN COORDINATES (ANGSTROEM)
---------------------------------
  C     -0.059150    1.503520    3.410580
  C      1.083030    0.749640    4.085710
  O      2.228170    1.263480    4.019830
  F      0.810030   -0.345410    4.636270
  H      0.314610    2.412050    2.986580
  H     -0.813160    1.731600    4.134700
  H     -0.479770    0.895520    2.637080

 Total Charge           Charge          ....    0
 Multiplicity           Mult            ....    1
 Number of Electrons    NEL             ....   32
 Basis Dimension        Dim             ....  110

ORBITAL ENERGIES
----------------

  NO   OCC          E(Eh)            E(eV)
   0   2.0000     -24.877703      -676.9567
   1   2.0000     -19.263431      -524.1846
   2   2.0000     -10.484585      -285.3000
   3   2.0000     -10.301557      -280.3196
   4   2.0000      -1.427293       -38.8386
   5   2.0000      -1.150942       -31.3187
   6   2.0000      -0.873507       -23.7693
   7   2.0000      -0.768103       -20.9011
   8   2.0000      -0.659074       -17.9343
   9   2.0000      -0.650992       -17.7144
  10   2.0000      -0.613448       -16.6928
  11   2.0000      -0.531518       -14.4633
  12   2.0000      -0.523443       -14.2436
  13   2.0000      -0.504461       -13.7271
  14   2.0000      -0.461455       -12.5568
  15   2.0000      -0.402154       -10.9432
  16   0.0000       0.053418         1.4536
  17   0.0000       0.089689         2.4406
  18   0.0000       0.130979         3.5641
  19   0.0000       0.153849         4.1864
  20   0.0000       0.161354         4.3907

MULLIKEN ATOMIC CHARGES
-----------------------
   0 C :    0.246034
   1 C :    0.441509
   2 O :   -0.513440
   3 F :   -0.373095
   4 H :    0.003841
   5 H :    0.096621
   6 H :    0.098531
Sum of atomic charges:   -0.0000000

LOEWDIN ATOMIC CHARGES
----------------------
   0 C :    0.219142
   1 C :   -0.019753
   2 O :   -0.190963
   3 F :   -0.034582
   4 H :    0.003099
   5 H :    0.011074
   6 H :    0.011982

  Mayer bond orders larger than 0.100000
B(  0-C ,  1-C ) :   1.2623 B(  0-C ,  4-H ) :   0.9134 B(  0-C ,  5-H ) :   0.8168
B(  0-C ,  6-H ) :   0.8179 B(  1-C ,  2-O ) :   1.8132 B(  1-C ,  3-F ) :   0.7720
B(  1-C ,  4-H ) :   0.1816 B(  1-C ,  5-H ) :   0.1138 B(  1-C ,  6-H ) :   0.1117

Dispersion correction           -0.000897369
FINAL SINGLE POINT ENERGY      -252.847359481616

DIPOLE MOMENT
-------------
                                X             Y             Z
Electronic contribution:      2.02307      -3.68652       2.52490
Nuclear contribution   :     -3.54758       3.66189      -2.81789
                        -----------------------------------------
Total Dipole Moment    :     -1.52450      -0.02463      -0.29299
                        -----------------------------------------
Magnitude (a.u.)       :      1.55260
Magnitude (Debye)      :      3.94639

Rotational constants in cm-1:     0.369278     0.321254     0.177365
Rotational constants in MHz : 11070.686557  9630.951649  5317.254673

                             ****ORCA TERMINATED NORMALLY****
TOTAL RUN TIME: 0 days 0 hours 0 minutes 5 seconds 863 msec
