                         Program Version 5.0.0 -  RELEASE  -
|  1> !wB97X-D3 RIJCOSX def2-SVPD def2/J TightSCF CPCM(Water)
|  2> *xyz 0 1
|  3> C          4.60295       -2.44010        2.63478
|  4> C          3.86085       -1.59157        3.62289
|  5> N          2.75650       -2.04616        4.16633
|  6> C          4.25433       -0.36291        3.86046
|  7> H          3.56526        0.31099        4.16898
|  8> H          5.05429       -0.01606        3.33784
|  9> H          2.43970       -2.97389        3.89740
| 10> H          2.06687       -1.41253        4.54981
| 11> H          5.47239       -1.91604        2.29664
| 12> H          3.96816       -2.65362        1.80030
| 13> H          4.89801       -3.35632        3.10209
| 14> *
| 15>
| 16> %MaxCore 64000
| 17>
| 18> %pal nprocs 18
| 19> end
| 20>
| 21> %scf
| 22>   MaxIter 150
| 23> end
| 24>
| 25>
| 26>                          ****END OF INPUT****

CARTESIAN COORDINATES (ANGSTROEM)
---------------------------------
  C      4.602950   -2.440100    2.634780
  C      3.860850   -1.591570    3.622890
  N      2.756500   -2.046160    4.166330
  C      4.254330   -0.362910    3.860460
  H      3.565260    0.310990    4.168980
  H      5.054290   -0.016060    3.337840
  H      2.439700   -2.973890    3.897400
  H      2.066870   -1.412530    4.549810
  H      5.472390   -1.916040    2.296640
  H      3.968160   -2.653620    1.800300
  H      4.898010   -3.356320    3.102090

 Total Charge           Charge          ....    0
 Multiplicity           Mult            ....    1
 Number of Electrons    NEL             ....   32
 Basis Dimension        Dim             ....  136

ORBITAL ENERGIES
----------------

  NO   OCC          E(Eh)            E(eV)
   0   2.0000     -14.432451      -392.7270
   1   2.0000     -10.317433      -280.7516
   2   2.0000     -10.276383      -279.6346
   3   2.0000     -10.222346      -278.1642
   4   2.0000      -1.039079       -28.2748
   5   2.0000      -0.866902       -23.5896
   6   2.0000      -0.799814       -21.7641
   7   2.0000      -0.673421       -18.3247
   8   2.0000      -0.621170       -16.9029
   9   2.0000      -0.574919       -15.6443
  10   2.0000      -0.533085       -14.5060
  11   2.0000      -0.491056       -13.3623
  12   2.0000      -0.489318       -13.3150
  13   2.0000      -0.456302       -12.4166
  14   2.0000      -0.425079       -11.5670
  15   2.0000      -0.286569        -7.7979
  16   0.0000       0.097460         2.6520
  17   0.0000       0.114111         3.1051
  18   0.0000       0.134853         3.6695
  19   0.0000       0.140336         3.8187
  20   0.0000       0.169427         4.6103

MULLIKEN ATOMIC CHARGES
-----------------------
   0 C :    0.647946
   1 C :   -0.625276
   2 N :    0.150064
   3 C :    0.318171
   4 H :   -0.348962
   5 H :   -0.080846
   6 H :   -0.049600
   7 H :   -0.091370
   8 H :    0.053185
   9 H :    0.007602
  10 H :    0.019086
Sum of atomic charges:   -0.0000000

LOEWDIN ATOMIC CHARGES
----------------------
   0 C :    0.166577
   1 C :   -0.305092
   2 N :    0.164377
   3 C :    0.130396
   4 H :   -0.087035
   5 H :   -0.091210
   6 H :    0.020099
   7 H :    0.021988
   8 H :   -0.012197
   9 H :    0.000167
  10 H :   -0.008070

  Mayer bond orders larger than 0.100000
B(  0-C ,  1-C ) :   1.3553 B(  0-C ,  8-H ) :   0.8084 B(  0-C ,  9-H ) :   0.7495
B(  0-C , 10-H ) :   0.6804 B(  1-C ,  2-N ) :   1.1841 B(  1-C ,  3-C ) :   1.9431
B(  1-C ,  4-H ) :   0.1911 B(  1-C ,  8-H ) :   0.2192 B(  1-C ,  9-H ) :   0.2363
B(  1-C , 10-H ) :   0.2649 B(  2-N ,  3-C ) :   0.2269 B(  2-N ,  6-H ) :   1.0746
B(  2-N ,  7-H ) :   1.1595 B(  3-C ,  4-H ) :   0.8238 B(  3-C ,  5-H ) :   0.8869
B(  4-H ,  5-H ) :   0.1132 B(  6-H ,  7-H ) :  -0.1207 B(  8-H ,  9-H ) :   0.1017

Dispersion correction           -0.001684059
FINAL SINGLE POINT ENERGY      -173.088152393960

DIPOLE MOMENT
-------------
                                X             Y             Z
Electronic contribution:     -1.43348      -0.24838       1.23570
Nuclear contribution   :      0.56519      -0.51568      -1.65012
                        -----------------------------------------
Total Dipole Moment    :     -0.86830      -0.76407      -0.41442
                        -----------------------------------------
Magnitude (a.u.)       :      1.22861
Magnitude (Debye)      :      3.12288

Rotational constants in cm-1:     0.356673     0.303029     0.169717
Rotational constants in MHz : 10692.789749  9084.577259  5087.998414

                             ****ORCA TERMINATED NORMALLY****
TOTAL RUN TIME: 0 days 0 hours 0 minutes 7 seconds 489 msec
