                         Program Version 5.0.0 -  RELEASE  -
|  1> !wB97X-D3 RIJCOSX def2-SVPD def2/J TightSCF CPCM(Water) xyzfile
|  2>
|  3> *xyzfile 0 1 D2.xyz
|  4>
|  5> %MaxCore 64000
|  6>
|  7> %pal nprocs 18
|  8> end
|  9>
| 10> %scf
| 11>   MaxIter 150
| 12> end
| 13>
| 14>
| 15>                          ****END OF INPUT****

CARTESIAN COORDINATES (ANGSTROEM)
---------------------------------
  C      4.602954   -2.440100    2.634780
  C     -0.914947    0.615112    2.505538
  C     -0.059146    1.503524    3.410578
  H      0.365364    2.344315    2.861161
  H     -0.692261    1.920207    4.198985
  C      1.083027    0.749640    4.085705
  C      3.860851   -1.591565    3.622893
  N      2.756502   -2.046159    4.166333
  C      4.254325   -0.362905    3.860455
  H      3.565256    0.310994    4.168983
  H      5.054292   -0.016059    3.337838
  H      2.439696   -2.973894    3.897395
  H      2.066869   -1.412532    4.549813
  F      2.228167    1.263475    4.019826
  O      0.810034   -0.345411    4.636269
  C      3.744685   -2.580557    1.361882
  C      0.772139    0.636882    0.562129
  C     -0.130740   -0.193985    1.470763
  H     -0.840563   -0.760165    0.856377
  H      0.466691   -0.938942    2.006959
  H     -1.647961    1.245963    1.991076
  H     -1.478180   -0.081046    3.130424
  C      3.203721   -1.256004    0.826211
  H      2.898939   -3.239289    1.583074
  H      4.334962   -3.095523    0.600188
  C      2.107815   -1.442385   -0.216865
  H      2.786775   -0.672760    1.650711
  H      4.021008   -0.652993    0.414046
  C      1.390662   -0.145912   -0.602422
  H      1.372179   -2.152184    0.176151
  H      2.523302   -1.906787   -1.117115
  H      1.561361    1.100094    1.161831
  H      0.195516    1.468325    0.142758
  H      0.602893   -0.398214   -1.319716
  H      2.087247    0.508272   -1.137335
  H      5.561557   -1.971347    2.407084
  H      4.810498   -3.422552    3.063099

 Total Charge           Charge          ....    0
 Multiplicity           Mult            ....    1
 Number of Electrons    NEL             ....  118
 Basis Dimension        Dim             ....  482

ORBITAL ENERGIES
----------------

  NO   OCC          E(Eh)            E(eV)
   0   2.0000     -24.885788      -677.1767
   1   2.0000     -19.275617      -524.5162
   2   2.0000     -14.412833      -392.1931
   3   2.0000     -10.493048      -285.5304
   4   2.0000     -10.312789      -280.6253
   5   2.0000     -10.305292      -280.4212
   6   2.0000     -10.293901      -280.1113
   7   2.0000     -10.281537      -279.7748
   8   2.0000     -10.280755      -279.7536
   9   2.0000     -10.280221      -279.7390
  10   2.0000     -10.278616      -279.6954
  11   2.0000     -10.276843      -279.6471
  12   2.0000     -10.273894      -279.5669
  13   2.0000     -10.271486      -279.5013
  14   2.0000     -10.207383      -277.7570
  15   2.0000      -1.438876       -39.1538
  16   2.0000      -1.169074       -31.8121
  17   2.0000      -1.029113       -28.0036
  18   2.0000      -0.933641       -25.4057
  19   2.0000      -0.912484       -24.8300
  20   2.0000      -0.887458       -24.1490
  21   2.0000      -0.852849       -23.2072
  22   2.0000      -0.824697       -22.4411
  23   2.0000      -0.810861       -22.0647
  24   2.0000      -0.775105       -21.0917
  25   2.0000      -0.750484       -20.4217
  26   2.0000      -0.713190       -19.4069
  27   2.0000      -0.689242       -18.7552
  28   2.0000      -0.674522       -18.3547
  29   2.0000      -0.664987       -18.0952
  30   2.0000      -0.662138       -18.0177
  31   2.0000      -0.649571       -17.6757
  32   2.0000      -0.628567       -17.1042
  33   2.0000      -0.604405       -16.4467
  34   2.0000      -0.581265       -15.8170
  35   2.0000      -0.570951       -15.5364
  36   2.0000      -0.563495       -15.3335
  37   2.0000      -0.552572       -15.0363
  38   2.0000      -0.541063       -14.7231
  39   2.0000      -0.530046       -14.4233
  40   2.0000      -0.524385       -14.2692
  41   2.0000      -0.502863       -13.6836
  42   2.0000      -0.500967       -13.6320
  43   2.0000      -0.490137       -13.3373
  44   2.0000      -0.478435       -13.0189
  45   2.0000      -0.470355       -12.7990
  46   2.0000      -0.464005       -12.6262
  47   2.0000      -0.459671       -12.5083
  48   2.0000      -0.443173       -12.0593
  49   2.0000      -0.437652       -11.9091
  50   2.0000      -0.435109       -11.8399
  51   2.0000      -0.422402       -11.4941
  52   2.0000      -0.412395       -11.2218
  53   2.0000      -0.411276       -11.1914
  54   2.0000      -0.405756       -11.0412
  55   2.0000      -0.397183       -10.8079
  56   2.0000      -0.393029       -10.6949
  57   2.0000      -0.389363       -10.5951
  58   2.0000      -0.275214        -7.4890
  59   0.0000       0.035992         0.9794
  60   0.0000       0.090466         2.4617
  61   0.0000       0.100325         2.7300
  62   0.0000       0.105613         2.8739
  63   0.0000       0.108048         2.9401

MULLIKEN ATOMIC CHARGES
-----------------------
   0 C :    0.559892
   1 C :    0.454102
   2 C :    0.012858
   3 H :    0.252450
   4 H :   -0.052790
   5 C :    0.743278
   6 C :   -0.511513
   7 N :    0.386601
   8 C :    0.953232
   9 H :   -0.765221
  10 H :   -0.086674
  11 H :    0.097498
  12 H :   -0.545417
  13 F :   -0.473134
  14 O :   -0.586968
  15 C :    0.115959
  16 C :   -0.238814
  17 C :   -0.204101
  18 H :   -0.157827
  19 H :   -0.050866
  20 H :   -0.024443
  21 H :    0.073345
  22 C :    0.179660
  23 H :    0.080135
  24 H :   -0.275986
  25 C :   -0.033053
  26 H :   -0.435804
  27 H :   -0.003285
  28 C :    0.751995
  29 H :    0.157272
  30 H :   -0.319526
  31 H :    0.167350
  32 H :   -0.449949
  33 H :    0.104384
  34 H :    0.004952
  35 H :    0.161960
  36 H :   -0.041553
Sum of atomic charges:   -0.0000000

LOEWDIN ATOMIC CHARGES
----------------------
   0 C :    0.015512
   1 C :   -0.012776
   2 C :    0.065539
   3 H :    0.034631
   4 H :    0.055393
   5 C :    0.073544
   6 C :   -0.267781
   7 N :    0.207090
   8 C :    0.157646
   9 H :   -0.145621
  10 H :   -0.081473
  11 H :    0.020078
  12 H :   -0.110996
  13 F :   -0.034140
  14 O :   -0.136670
  15 C :   -0.018017
  16 C :   -0.035191
  17 C :   -0.031240
  18 H :    0.034504
  19 H :    0.008082
  20 H :    0.035407
  21 H :    0.028313
  22 C :   -0.030864
  23 H :    0.017558
  24 H :    0.025001
  25 C :   -0.041244
  26 H :   -0.016057
  27 H :    0.038008
  28 C :   -0.030956
  29 H :    0.016768
  30 H :    0.024678
  31 H :    0.010979
  32 H :    0.027595
  33 H :    0.023149
  34 H :    0.023957
  35 H :    0.024489
  36 H :    0.025105

  Mayer bond orders larger than 0.100000
B(  0-C ,  6-C ) :   1.3284 B(  0-C ,  8-C ) :   0.1115 B(  0-C , 15-C ) :   1.1105
B(  0-C , 23-H ) :   0.1072 B(  0-C , 24-H ) :   0.1194 B(  0-C , 35-H ) :   0.7460
B(  0-C , 36-H ) :   0.5693 B(  1-C ,  2-C ) :   1.2075 B(  1-C ,  4-H ) :   0.1661
B(  1-C , 17-C ) :   1.2374 B(  1-C , 20-H ) :   0.7829 B(  1-C , 21-H ) :   0.6645
B(  2-C ,  3-H ) :   0.8268 B(  2-C ,  4-H ) :   0.7233 B(  2-C ,  5-C ) :   1.2279
B(  2-C , 20-H ) :   0.1382 B(  2-C , 21-H ) :   0.1111 B(  3-H ,  5-C ) :   0.1291
B(  4-H ,  5-C ) :   0.2421 B(  5-C , 13-F ) :   0.6442 B(  5-C , 14-O ) :   1.5841
B(  6-C ,  7-N ) :   0.9614 B(  6-C ,  8-C ) :   2.0829 B(  6-C ,  9-H ) :   0.3798
B(  6-C , 10-H ) :   0.2778 B(  6-C , 35-H ) :   0.1513 B(  6-C , 36-H ) :   0.2949
B(  7-N ,  8-C ) :   0.3648 B(  7-N , 11-H ) :   0.9639 B(  7-N , 12-H ) :   1.0416
B(  8-C , 10-H ) :   0.7020 B(  9-H , 13-F ) :   0.2178 B( 11-H , 12-H ) :  -0.2362
B( 12-H , 14-O ) :   0.1979 B( 15-C , 22-C ) :   1.1129 B( 15-C , 23-H ) :   0.8411
B( 15-C , 24-H ) :   0.9425 B( 15-C , 26-H ) :   0.1208 B( 15-C , 27-H ) :   0.1024
B( 15-C , 35-H ) :   0.1450 B( 15-C , 36-H ) :   0.1756 B( 16-C , 17-C ) :   1.2596
B( 16-C , 18-H ) :   0.1773 B( 16-C , 19-H ) :   0.1199 B( 16-C , 25-C ) :   0.1185
B( 16-C , 28-C ) :   1.0763 B( 16-C , 31-H ) :   0.8166 B( 16-C , 32-H ) :   1.1576
B( 16-C , 33-H ) :   0.1434 B( 16-C , 34-H ) :   0.2649 B( 17-C , 18-H ) :   0.9008
B( 17-C , 19-H ) :   0.9440 B( 17-C , 20-H ) :   0.1952 B( 17-C , 21-H ) :   0.2360
B( 17-C , 32-H ) :   0.1321 B( 20-H , 21-H ) :  -0.1078 B( 22-C , 23-H ) :   0.1185
B( 22-C , 24-H ) :   0.2036 B( 22-C , 25-C ) :   1.1770 B( 22-C , 26-H ) :   0.9553
B( 22-C , 27-H ) :   0.7418 B( 22-C , 29-H ) :   0.1210 B( 22-C , 30-H ) :   0.2411
B( 25-C , 27-H ) :   0.1122 B( 25-C , 28-C ) :   1.1496 B( 25-C , 29-H ) :   0.8191
B( 25-C , 30-H ) :   0.9780 B( 25-C , 33-H ) :   0.2055 B( 25-C , 34-H ) :   0.1538
B( 26-H , 27-H ) :   0.2038 B( 26-H , 31-H ) :   0.1719 B( 28-C , 33-H ) :   0.6626
B( 28-C , 34-H ) :   0.6410 B( 33-H , 34-H ) :  -0.1022

Dispersion correction           -0.019723586
FINAL SINGLE POINT ENERGY      -699.673566471677

DIPOLE MOMENT
-------------
                                X             Y             Z
Electronic contribution:     -0.33973       6.38284      14.73521
Nuclear contribution   :     -1.39991      -5.60370     -16.00470
                        -----------------------------------------
Total Dipole Moment    :     -1.73964       0.77914      -1.26948
                        -----------------------------------------
Magnitude (a.u.)       :      2.29019
Magnitude (Debye)      :      5.82121

Rotational constants in cm-1:     0.021622     0.017313     0.011402
Rotational constants in MHz :   648.226014   519.043632   341.814105

                             ****ORCA TERMINATED NORMALLY****
TOTAL RUN TIME: 0 days 0 hours 1 minutes 38 seconds 320 msec
