                         Program Version 5.0.0 -  RELEASE  -
|  1> !LC-BLYP RIJCOSX def2-SVPD def2/J TightSCF
|  2> *xyz -1 1
|  3> C          0.28725       -1.71177       -2.52740
|  4> O          0.71050       -0.92751       -1.48177
|  5> H          0.92384       -1.55316       -3.37267
|  6> H         -0.71828       -1.45137       -2.78433
|  7> H          0.32655       -2.74158       -2.23955
|  8> *
|  9> %MaxCore 64000
| 10>
| 11> %pal nprocs 4
| 12> end
| 13>
| 14> %scf
| 15>   MaxIter 150
| 16> end
| 17>
| 18>
| 19>                          ****END OF INPUT****

CARTESIAN COORDINATES (ANGSTROEM)
---------------------------------
  C      0.287250   -1.711770   -2.527400
  O      0.710500   -0.927510   -1.481770
  H      0.923840   -1.553160   -3.372670
  H     -0.718280   -1.451370   -2.784330
  H      0.326550   -2.741580   -2.239550

 Total Charge           Charge          ....   -1
 Multiplicity           Mult            ....    1
 Number of Electrons    NEL             ....   18
 Basis Dimension        Dim             ....   67

ORBITAL ENERGIES
----------------

  NO   OCC          E(Eh)            E(eV)
   0   2.0000     -18.602840      -506.2090
   1   2.0000      -9.872868      -268.6544
   2   2.0000      -0.744488       -20.2586
   3   2.0000      -0.497594       -13.5402
   4   2.0000      -0.302136        -8.2215
   5   2.0000      -0.302133        -8.2215
   6   2.0000      -0.198992        -5.4148
   7   2.0000      -0.047139        -1.2827
   8   2.0000      -0.047135        -1.2826
   9   0.0000       0.247453         6.7335
  10   0.0000       0.324408         8.8276
  11   0.0000       0.324409         8.8276
  12   0.0000       0.333061         9.0630
  13   0.0000       0.367903        10.0111

MULLIKEN ATOMIC CHARGES
-----------------------
   0 C :    0.921629
   1 O :   -0.970885
   2 H :   -0.316932
   3 H :   -0.316936
   4 H :   -0.316875
Sum of atomic charges:   -1.0000000

LOEWDIN ATOMIC CHARGES
----------------------
   0 C :   -0.136506
   1 O :   -0.646361
   2 H :   -0.072380
   3 H :   -0.072375
   4 H :   -0.072377

  Mayer bond orders larger than 0.100000
B(  0-C ,  1-O ) :   1.2728 B(  0-C ,  2-H ) :   0.8740 B(  0-C ,  3-H ) :   0.8740
B(  0-C ,  4-H ) :   0.8741

FINAL SINGLE POINT ENERGY      -114.757956983310

DIPOLE MOMENT
-------------
                                X             Y             Z
Electronic contribution:      0.53970       1.00002       1.33322
Nuclear contribution   :     -0.89006      -1.64923      -2.19886
                        -----------------------------------------
Total Dipole Moment    :     -0.35036      -0.64922      -0.86564
                        -----------------------------------------
Magnitude (a.u.)       :      1.13735
Magnitude (Debye)      :      2.89091

Rotational constants in cm-1:     5.477712     0.934243     0.934241
Rotational constants in MHz : 164217.678885 28007.889263 28007.851448

                             ****ORCA TERMINATED NORMALLY****
TOTAL RUN TIME: 0 days 0 hours 0 minutes 3 seconds 676 msec
