                         Program Version 5.0.0 -  RELEASE  -
|  1> !LC-BLYP RIJCOSX def2-SVPD def2/J TightSCF
|  2> *xyz 1 1
|  3> C          3.48828        1.60092       -1.52204
|  4> N          2.81029        0.42878       -1.01420
|  5> C          3.29098       -0.41802       -0.12908
|  6> N          2.51754       -1.43202        0.23936
|  7> N          4.53549       -0.28441        0.39580
|  8> H          5.04363        0.57189        0.22290
|  9> H          4.72335       -0.73327        1.28180
| 10> H          1.93479        0.10230       -1.40379
| 11> H          1.67464       -1.50562       -0.31610
| 12> H          2.92850       -2.21850        0.72549
| 13> H          2.85802        2.09943       -2.22855
| 14> H          4.39853        1.30677       -2.00144
| 15> H          3.70992        2.26379       -0.71187
| 16> *
| 17> %MaxCore 64000
| 18>
| 19> %pal nprocs 4
| 20> end
| 21>
| 22> %scf
| 23>   MaxIter 150
| 24> end
| 25>
| 26>
| 27>                          ****END OF INPUT****

CARTESIAN COORDINATES (ANGSTROEM)
---------------------------------
  C      3.488280    1.600920   -1.522040
  N      2.810290    0.428780   -1.014200
  C      3.290980   -0.418020   -0.129080
  N      2.517540   -1.432020    0.239360
  N      4.535490   -0.284410    0.395800
  H      5.043630    0.571890    0.222900
  H      4.723350   -0.733270    1.281800
  H      1.934790    0.102300   -1.403790
  H      1.674640   -1.505620   -0.316100
  H      2.928500   -2.218500    0.725490
  H      2.858020    2.099430   -2.228550
  H      4.398530    1.306770   -2.001440
  H      3.709920    2.263790   -0.711870

 Total Charge           Charge          ....    1
 Multiplicity           Mult            ....    1
 Number of Electrons    NEL             ....   40
 Basis Dimension        Dim             ....  164

ORBITAL ENERGIES
----------------

  NO   OCC          E(Eh)            E(eV)
   0   2.0000     -14.424601      -392.5133
   1   2.0000     -14.416594      -392.2955
   2   2.0000     -14.416217      -392.2852
   3   2.0000     -10.428255      -283.7672
   4   2.0000     -10.293883      -280.1108
   5   2.0000      -1.320210       -35.9247
   6   2.0000      -1.206777       -32.8381
   7   2.0000      -1.192918       -32.4610
   8   2.0000      -1.018032       -27.7020
   9   2.0000      -0.934606       -25.4319
  10   2.0000      -0.892533       -24.2871
  11   2.0000      -0.865522       -23.5521
  12   2.0000      -0.802294       -21.8315
  13   2.0000      -0.789423       -21.4813
  14   2.0000      -0.774429       -21.0733
  15   2.0000      -0.753266       -20.4974
  16   2.0000      -0.701913       -19.1000
  17   2.0000      -0.685437       -18.6517
  18   2.0000      -0.585446       -15.9308
  19   2.0000      -0.559734       -15.2311
  20   0.0000      -0.102273        -2.7830
  21   0.0000      -0.098119        -2.6700
  22   0.0000      -0.064190        -1.7467
  23   0.0000      -0.056777        -1.5450
  24   0.0000      -0.026859        -0.7309

MULLIKEN ATOMIC CHARGES
-----------------------
   0 C :    1.275906
   1 N :   -0.404926
   2 C :    0.821802
   3 N :    0.210286
   4 N :    0.133274
   5 H :   -0.074937
   6 H :   -0.093131
   7 H :   -0.204626
   8 H :   -0.005332
   9 H :   -0.118930
  10 H :   -0.413109
  11 H :   -0.057235
  12 H :   -0.069043
Sum of atomic charges:    1.0000000

LOEWDIN ATOMIC CHARGES
----------------------
   0 C :    0.236572
   1 N :    0.027799
   2 C :   -0.064324
   3 N :    0.273338
   4 N :    0.293345
   5 H :    0.014905
   6 H :    0.036898
   7 H :    0.056964
   8 H :    0.034158
   9 H :    0.046706
  10 H :    0.019487
  11 H :    0.012546
  12 H :    0.011605

  Mayer bond orders larger than 0.100000
B(  0-C ,  1-N ) :   1.0547 B(  0-C ,  7-H ) :  -0.1286 B(  0-C , 10-H ) :   0.7558
B(  0-C , 11-H ) :   0.7814 B(  0-C , 12-H ) :   0.7645 B(  1-N ,  2-C ) :   1.1382
B(  1-N ,  3-N ) :   0.2399 B(  1-N ,  4-N ) :   0.2205 B(  1-N ,  7-H ) :   1.2516
B(  1-N , 10-H ) :   0.2071 B(  1-N , 11-H ) :   0.1513 B(  1-N , 12-H ) :   0.1625
B(  2-C ,  3-N ) :   1.0414 B(  2-C ,  4-N ) :   1.0841 B(  2-C ,  5-H ) :  -0.1245
B(  2-C ,  7-H ) :  -0.2404 B(  2-C ,  9-H ) :  -0.1092 B(  3-N ,  4-N ) :   0.1370
B(  3-N ,  8-H ) :   1.0695 B(  3-N ,  9-H ) :   1.1869 B(  4-N ,  5-H ) :   1.0746
B(  4-N ,  6-H ) :   1.1667 B(  5-H ,  6-H ) :  -0.1445 B(  8-H ,  9-H ) :  -0.1485

FINAL SINGLE POINT ENERGY      -244.306832164023

DIPOLE MOMENT
-------------
                                X             Y             Z
Electronic contribution:     -0.68707      -2.28721       1.33561
Nuclear contribution   :      0.56176       1.95858      -1.15445
                        -----------------------------------------
Total Dipole Moment    :     -0.12531      -0.32863       0.18116
                        -----------------------------------------
Magnitude (a.u.)       :      0.39562
Magnitude (Debye)      :      1.00559

Rotational constants in cm-1:     0.309570     0.135399     0.096056
Rotational constants in MHz :  9280.673410  4059.171112  2879.675555

                             ****ORCA TERMINATED NORMALLY****
TOTAL RUN TIME: 0 days 0 hours 0 minutes 15 seconds 699 msec
