                         Program Version 5.0.0 -  RELEASE  -
|  1> !LC-BLYP RIJCOSX def2-SVPD def2/J TightSCF xyzfile
|  2>
|  3> *xyzfile 0 1 B.xyz
|  4>
|  5> %MaxCore 64000
|  6>
|  7> %pal nprocs 4
|  8> end
|  9>
| 10> %scf
| 11>   MaxIter 150
| 12> end
| 13>
| 14>
| 15>                          ****END OF INPUT****

CARTESIAN COORDINATES (ANGSTROEM)
---------------------------------
  C      3.488276    1.600919   -1.522040
  C      4.342970    1.313419   -2.756826
  N      2.810285    0.428783   -1.014196
  H      5.132033    0.604994   -2.484466
  C      3.535896    0.749253   -3.924604
  H      4.841247    2.242136   -3.054083
  H      2.991617   -0.132199   -3.574137
  H      4.225505    0.392784   -4.695962
  C      2.564776    1.750890   -4.544523
  H      1.918749    2.171679   -3.769419
  C      1.686235    1.161657   -5.650111
  H      3.132494    2.594775   -4.951604
  C      0.839616   -0.037582   -5.220473
  H      2.323886    0.866395   -6.490796
  H      1.029518    1.951850   -6.029329
  C     -0.151019    0.254955   -4.094256
  H      1.499442   -0.857141   -4.922958
  H      0.290097   -0.410143   -6.091131
  H      0.328265    0.833022   -3.299125
  C     -0.721843   -0.999513   -3.439309
  H     -0.957367    0.884951   -4.485450
  H     -1.083403   -1.697555   -4.205656
  H     -1.581056   -0.723848   -2.820490
  C      0.287250   -1.711771   -2.527405
  H      1.131780   -2.067380   -3.159396
  H     -0.204137   -2.637326   -2.170480
  O      0.710505   -0.927506   -1.481767
  H      2.714548    2.331455   -1.760302
  H      4.090991    2.063151   -0.733382
  C      3.290978   -0.418021   -0.129083
  N      2.517536   -1.432017    0.239360
  N      4.535490   -0.284410    0.395800
  H      5.043627    0.571888    0.222899
  H      4.723346   -0.733273    1.281800
  H      1.934787    0.102305   -1.403788
  H      1.674638   -1.505616   -0.316095
  H      2.928503   -2.218502    0.725494

 Total Charge           Charge          ....    0
 Multiplicity           Mult            ....    1
 Number of Electrons    NEL             ....  112
 Basis Dimension        Dim             ....  467

ORBITAL ENERGIES
----------------

  NO   OCC          E(Eh)            E(eV)
   0   2.0000     -18.826096      -512.2841
   1   2.0000     -14.248723      -387.7275
   2   2.0000     -14.208262      -386.6265
   3   2.0000     -14.201761      -386.4496
   4   2.0000     -10.236600      -278.5521
   5   2.0000     -10.138263      -275.8762
   6   2.0000     -10.094194      -274.6770
   7   2.0000     -10.077210      -274.2148
   8   2.0000     -10.071640      -274.0633
   9   2.0000     -10.064841      -273.8782
  10   2.0000     -10.064287      -273.8632
  11   2.0000     -10.053180      -273.5609
  12   2.0000     -10.042592      -273.2728
  13   2.0000     -10.030873      -272.9539
  14   2.0000      -1.128599       -30.7108
  15   2.0000      -1.023556       -27.8524
  16   2.0000      -1.004571       -27.3358
  17   2.0000      -0.968867       -26.3642
  18   2.0000      -0.916863       -24.9491
  19   2.0000      -0.882295       -24.0085
  20   2.0000      -0.843571       -22.9547
  21   2.0000      -0.806178       -21.9372
  22   2.0000      -0.764961       -20.8157
  23   2.0000      -0.753860       -20.5136
  24   2.0000      -0.717460       -19.5231
  25   2.0000      -0.705441       -19.1960
  26   2.0000      -0.702254       -19.1093
  27   2.0000      -0.670112       -18.2347
  28   2.0000      -0.648148       -17.6370
  29   2.0000      -0.625203       -17.0127
  30   2.0000      -0.615779       -16.7562
  31   2.0000      -0.599331       -16.3086
  32   2.0000      -0.590005       -16.0549
  33   2.0000      -0.578719       -15.7477
  34   2.0000      -0.569557       -15.4984
  35   2.0000      -0.563156       -15.3243
  36   2.0000      -0.540408       -14.7053
  37   2.0000      -0.527431       -14.3521
  38   2.0000      -0.519482       -14.1358
  39   2.0000      -0.497469       -13.5368
  40   2.0000      -0.492042       -13.3891
  41   2.0000      -0.481587       -13.1047
  42   2.0000      -0.460173       -12.5219
  43   2.0000      -0.453306       -12.3351
  44   2.0000      -0.446806       -12.1582
  45   2.0000      -0.433243       -11.7892
  46   2.0000      -0.419874       -11.4254
  47   2.0000      -0.411428       -11.1955
  48   2.0000      -0.410254       -11.1636
  49   2.0000      -0.404623       -11.0104
  50   2.0000      -0.386678       -10.5220
  51   2.0000      -0.383543       -10.4367
  52   2.0000      -0.377119       -10.2619
  53   2.0000      -0.362879        -9.8744
  54   2.0000      -0.276540        -7.5250
  55   2.0000      -0.269645        -7.3374
  56   0.0000       0.045634         1.2418
  57   0.0000       0.071725         1.9517
  58   0.0000       0.079766         2.1705
  59   0.0000       0.090095         2.4516
  60   0.0000       0.092214         2.5093

MULLIKEN ATOMIC CHARGES
-----------------------
   0 C :    1.324650
   1 C :    0.512736
   2 N :    0.458998
   3 H :   -0.147244
   4 C :    0.646843
   5 H :   -0.197382
   6 H :   -0.569324
   7 H :   -0.230512
   8 C :    0.101220
   9 H :   -0.062351
  10 C :    0.831648
  11 H :   -0.313747
  12 C :    0.176813
  13 H :   -0.118198
  14 H :   -0.229171
  15 C :    0.446579
  16 H :   -0.165955
  17 H :   -0.310990
  18 H :   -0.475566
  19 C :    0.473543
  20 H :   -0.202341
  21 H :   -0.136316
  22 H :   -0.111555
  23 C :    0.777786
  24 H :   -0.249095
  25 H :   -0.372549
  26 O :   -0.737747
  27 H :   -0.403877
  28 H :   -0.400889
  29 C :    0.747694
  30 N :    0.633037
  31 N :    0.349916
  32 H :   -0.122765
  33 H :   -0.196541
  34 H :   -1.128359
  35 H :   -0.390980
  36 H :   -0.208011
Sum of atomic charges:    0.0000000

LOEWDIN ATOMIC CHARGES
----------------------
   0 C :    0.058067
   1 C :   -0.027396
   2 N :    0.086848
   3 H :    0.021690
   4 C :   -0.034231
   5 H :    0.030807
   6 H :    0.009472
   7 H :    0.035197
   8 C :   -0.045862
   9 H :    0.003022
  10 C :   -0.041934
  11 H :    0.028973
  12 C :   -0.045902
  13 H :    0.025510
  14 H :    0.027251
  15 C :   -0.041068
  16 H :    0.000646
  17 H :    0.027937
  18 H :   -0.000191
  19 C :   -0.042545
  20 H :    0.027013
  21 H :    0.024794
  22 H :    0.026457
  23 C :   -0.088400
  24 H :    0.003760
  25 H :    0.014043
  26 O :   -0.407769
  27 H :    0.028189
  28 H :    0.015886
  29 C :   -0.060915
  30 N :    0.280475
  31 N :    0.255966
  32 H :   -0.016291
  33 H :    0.010231
  34 H :   -0.096620
  35 H :   -0.111050
  36 H :    0.017943

  Mayer bond orders larger than 0.100000
B(  0-C ,  1-C ) :   1.0254 B(  0-C ,  2-N ) :   1.0232 B(  0-C ,  4-C ) :   0.1803
B(  0-C ,  5-H ) :   0.1006 B(  0-C , 27-H ) :   0.5823 B(  0-C , 28-H ) :   0.6916
B(  0-C , 34-H ) :  -0.6798 B(  1-C ,  3-H ) :   0.6783 B(  1-C ,  4-C ) :   1.1976
B(  1-C ,  5-H ) :   0.8706 B(  1-C ,  6-H ) :   0.1206 B(  1-C , 27-H ) :   0.1125
B(  1-C , 28-H ) :   0.1576 B(  2-N , 27-H ) :   0.2320 B(  2-N , 28-H ) :   0.1018
B(  2-N , 29-C ) :   1.3332 B(  2-N , 31-N ) :   0.2055 B(  2-N , 34-H ) :   0.9424
B(  3-H ,  4-C ) :   0.2480 B(  4-C ,  6-H ) :   0.5784 B(  4-C ,  7-H ) :   0.6980
B(  4-C ,  8-C ) :   1.1475 B(  4-C , 11-H ) :   0.1830 B(  6-H ,  8-C ) :   0.2303
B(  7-H ,  8-C ) :   0.1512 B(  8-C ,  9-H ) :   0.7957 B(  8-C , 10-C ) :   1.1419
B(  8-C , 11-H ) :   0.8447 B(  8-C , 12-C ) :   0.1624 B(  8-C , 13-H ) :   0.1199
B(  8-C , 14-H ) :   0.3723 B( 10-C , 12-C ) :   1.1681 B( 10-C , 13-H ) :   0.6247
B( 10-C , 14-H ) :   0.5678 B( 12-C , 13-H ) :   0.2875 B( 12-C , 14-H ) :   0.1159
B( 12-C , 15-C ) :   1.1616 B( 12-C , 16-H ) :   0.8387 B( 12-C , 17-H ) :   0.7761
B( 12-C , 18-H ) :   0.2021 B( 12-C , 20-H ) :   0.2260 B( 13-H , 14-H ) :  -0.1682
B( 15-C , 16-H ) :   0.1224 B( 15-C , 17-H ) :   0.2923 B( 15-C , 18-H ) :   0.7157
B( 15-C , 19-C ) :   1.2046 B( 15-C , 20-H ) :   0.7119 B( 15-C , 22-H ) :   0.2724
B( 15-C , 23-C ) :   0.1294 B( 18-H , 19-C ) :   0.1878 B( 19-C , 21-H ) :   0.7333
B( 19-C , 22-H ) :   0.6391 B( 19-C , 23-C ) :   1.1137 B( 19-C , 24-H ) :   0.1303
B( 19-C , 25-H ) :   0.1386 B( 21-H , 23-C ) :   0.1796 B( 22-H , 23-C ) :   0.1738
B( 23-C , 24-H ) :   0.8009 B( 23-C , 25-H ) :   0.8664 B( 23-C , 26-O ) :   1.0654
B( 24-H , 26-O ) :   0.1114 B( 26-O , 34-H ) :   0.2841 B( 26-O , 35-H ) :   0.3303
B( 27-H , 28-H ) :  -0.1465 B( 27-H , 34-H ) :   0.1650 B( 29-C , 30-N ) :   1.0010
B( 29-C , 31-N ) :   0.9910 B( 29-C , 32-H ) :  -0.1178 B( 29-C , 34-H ) :  -0.8487
B( 29-C , 35-H ) :  -0.1610 B( 30-N , 31-N ) :   0.1137 B( 30-N , 35-H ) :   1.0223
B( 30-N , 36-H ) :   1.1601 B( 31-N , 32-H ) :   1.0609 B( 31-N , 33-H ) :   1.1636
B( 32-H , 33-H ) :  -0.1605 B( 35-H , 36-H ) :  -0.1628

FINAL SINGLE POINT ENERGY      -632.313152633348

DIPOLE MOMENT
-------------
                                X             Y             Z
Electronic contribution:      3.61385      -2.06656      11.30634
Nuclear contribution   :     -0.74583       2.62534      -9.91488
                        -----------------------------------------
Total Dipole Moment    :      2.86802       0.55878       1.39145
                        -----------------------------------------
Magnitude (a.u.)       :      3.23634
Magnitude (Debye)      :      8.22613

Rotational constants in cm-1:     0.027028     0.016098     0.010898
Rotational constants in MHz :   810.278072   482.590922   326.703462

                             ****ORCA TERMINATED NORMALLY****
TOTAL RUN TIME: 0 days 0 hours 3 minutes 58 seconds 647 msec
