                         Program Version 5.0.0 -  RELEASE  -
|  1> !LC-BLYP RIJCOSX def2-SVPD def2/J TightSCF
|  2> *xyz 0 1
|  3> C          0.28725       -1.71177       -2.52740
|  4> F          0.71050       -0.92751       -1.48177
|  5> H          0.92384       -1.55316       -3.37267
|  6> H         -0.71828       -1.45137       -2.78433
|  7> H          0.32655       -2.74158       -2.23955
|  8> *
|  9> %MaxCore 64000
| 10>
| 11> %pal nprocs 4
| 12> end
| 13>
| 14> %scf
| 15>   MaxIter 150
| 16> end
| 17>
| 18>
| 19>                          ****END OF INPUT****

CARTESIAN COORDINATES (ANGSTROEM)
---------------------------------
  C      0.287250   -1.711770   -2.527400
  F      0.710500   -0.927510   -1.481770
  H      0.923840   -1.553160   -3.372670
  H     -0.718280   -1.451370   -2.784330
  H      0.326550   -2.741580   -2.239550

 Total Charge           Charge          ....    0
 Multiplicity           Mult            ....    1
 Number of Electrons    NEL             ....   18
 Basis Dimension        Dim             ....   67

ORBITAL ENERGIES
----------------

  NO   OCC          E(Eh)            E(eV)
   0   2.0000     -24.460052      -665.5919
   1   2.0000     -10.157142      -276.3899
   2   2.0000      -1.262199       -34.3462
   3   2.0000      -0.809696       -22.0329
   4   2.0000      -0.601667       -16.3722
   5   2.0000      -0.596636       -16.2353
   6   2.0000      -0.596634       -16.2352
   7   2.0000      -0.451258       -12.2794
   8   2.0000      -0.451255       -12.2793
   9   0.0000       0.075184         2.0459
  10   0.0000       0.123787         3.3684
  11   0.0000       0.157087         4.2745
  12   0.0000       0.157088         4.2746
  13   0.0000       0.195794         5.3278

MULLIKEN ATOMIC CHARGES
-----------------------
   0 C :    1.024928
   1 F :   -0.432337
   2 H :   -0.197577
   3 H :   -0.197504
   4 H :   -0.197510
Sum of atomic charges:    0.0000000

LOEWDIN ATOMIC CHARGES
----------------------
   0 C :    0.239542
   1 F :   -0.235420
   2 H :   -0.001378
   3 H :   -0.001372
   4 H :   -0.001372

  Mayer bond orders larger than 0.100000
B(  0-C ,  1-F ) :   0.9313 B(  0-C ,  2-H ) :   0.9026 B(  0-C ,  3-H ) :   0.9025
B(  0-C ,  4-H ) :   0.9026

FINAL SINGLE POINT ENERGY      -139.368275551750

DIPOLE MOMENT
-------------
                                X             Y             Z
Electronic contribution:      0.89562       1.65954       2.21255
Nuclear contribution   :     -1.12906      -2.09208      -2.78929
                        -----------------------------------------
Total Dipole Moment    :     -0.23343      -0.43253      -0.57674
                        -----------------------------------------
Magnitude (a.u.)       :      0.75776
Magnitude (Debye)      :      1.92608

Rotational constants in cm-1:     5.477712     0.869598     0.869597
Rotational constants in MHz : 164217.678885 26069.889584 26069.856821

                             ****ORCA TERMINATED NORMALLY****
TOTAL RUN TIME: 0 days 0 hours 0 minutes 3 seconds 309 msec
