                         Program Version 5.0.0 -  RELEASE  -
|  1> !LC-BLYP RIJCOSX def2-SVPD def2/J TightSCF
|  2> *xyz 0 1
|  3> C          3.48828        1.60092       -1.52204
|  4> C          2.81029        0.42878       -1.01420
|  5> C          3.29098       -0.41802       -0.12908
|  6> N          2.51754       -1.43202        0.23936
|  7> N          4.53549       -0.28441        0.39580
|  8> H          5.04363        0.57189        0.22290
|  9> H          4.72335       -0.73327        1.28180
| 10> H          1.93479        0.10230       -1.40379
| 11> H          1.67464       -1.50562       -0.31610
| 12> H          2.92850       -2.21850        0.72549
| 13> H          2.85802        2.09943       -2.22855
| 14> H          4.39853        1.30677       -2.00144
| 15> H          3.70992        2.26379       -0.71187
| 16> *
| 17> %MaxCore 64000
| 18>
| 19> %pal nprocs 4
| 20> end
| 21>
| 22> %scf
| 23>   MaxIter 150
| 24> end
| 25>
| 26>
| 27>                          ****END OF INPUT****

CARTESIAN COORDINATES (ANGSTROEM)
---------------------------------
  C      3.488280    1.600920   -1.522040
  C      2.810290    0.428780   -1.014200
  C      3.290980   -0.418020   -0.129080
  N      2.517540   -1.432020    0.239360
  N      4.535490   -0.284410    0.395800
  H      5.043630    0.571890    0.222900
  H      4.723350   -0.733270    1.281800
  H      1.934790    0.102300   -1.403790
  H      1.674640   -1.505620   -0.316100
  H      2.928500   -2.218500    0.725490
  H      2.858020    2.099430   -2.228550
  H      4.398530    1.306770   -2.001440
  H      3.709920    2.263790   -0.711870

 Total Charge           Charge          ....    0
 Multiplicity           Mult            ....    1
 Number of Electrons    NEL             ....   40
 Basis Dimension        Dim             ....  164

ORBITAL ENERGIES
----------------

  NO   OCC          E(Eh)            E(eV)
   0   2.0000     -14.190317      -386.1382
   1   2.0000     -14.182509      -385.9257
   2   2.0000     -10.125005      -275.5154
   3   2.0000     -10.052044      -273.5300
   4   2.0000     -10.011101      -272.4159
   5   2.0000      -1.052702       -28.6455
   6   2.0000      -0.963287       -26.2124
   7   2.0000      -0.858652       -23.3651
   8   2.0000      -0.759717       -20.6730
   9   2.0000      -0.689174       -18.7534
  10   2.0000      -0.642272       -17.4771
  11   2.0000      -0.611199       -16.6316
  12   2.0000      -0.565661       -15.3924
  13   2.0000      -0.534163       -14.5353
  14   2.0000      -0.520041       -14.1510
  15   2.0000      -0.479371       -13.0443
  16   2.0000      -0.468540       -12.7496
  17   2.0000      -0.441772       -12.0212
  18   2.0000      -0.366654        -9.9772
  19   2.0000      -0.255345        -6.9483
  20   0.0000       0.072378         1.9695
  21   0.0000       0.097692         2.6583
  22   0.0000       0.108317         2.9474
  23   0.0000       0.135612         3.6902
  24   0.0000       0.144714         3.9379

MULLIKEN ATOMIC CHARGES
-----------------------
   0 C :    1.063551
   1 C :   -0.560536
   2 C :    0.369614
   3 N :    0.262502
   4 N :    0.129632
   5 H :   -0.054444
   6 H :   -0.216867
   7 H :   -0.508557
   8 H :    0.022525
   9 H :   -0.221534
  10 H :   -0.125441
  11 H :   -0.088590
  12 H :   -0.071854
Sum of atomic charges:   -0.0000000

LOEWDIN ATOMIC CHARGES
----------------------
   0 C :    0.075941
   1 C :   -0.076099
   2 C :   -0.253889
   3 N :    0.182193
   4 N :    0.215617
   5 H :   -0.018817
   6 H :   -0.014228
   7 H :   -0.052574
   8 H :   -0.001727
   9 H :   -0.008117
  10 H :   -0.012791
  11 H :   -0.017119
  12 H :   -0.018388

  Mayer bond orders larger than 0.100000
B(  0-C ,  1-C ) :   1.2052 B(  0-C ,  2-C ) :   0.1028 B(  0-C ,  7-H ) :   0.1775
B(  0-C , 10-H ) :   0.6751 B(  0-C , 11-H ) :   0.6134 B(  0-C , 12-H ) :   0.5573
B(  1-C ,  2-C ) :   1.5114 B(  1-C ,  3-N ) :   0.3217 B(  1-C ,  4-N ) :   0.2330
B(  1-C ,  5-H ) :  -0.1268 B(  1-C ,  7-H ) :   0.9590 B(  1-C , 10-H ) :   0.3640
B(  1-C , 11-H ) :   0.2774 B(  1-C , 12-H ) :   0.3610 B(  2-C ,  3-N ) :   1.0472
B(  2-C ,  4-N ) :   1.0396 B(  2-C ,  7-H ) :   0.1992 B(  3-N ,  8-H ) :   1.0502
B(  3-N ,  9-H ) :   1.1312 B(  4-N ,  5-H ) :   1.0453 B(  4-N ,  6-H ) :   1.1704
B(  5-H ,  6-H ) :  -0.1249 B(  7-H , 10-H ) :  -0.1776 B(  8-H ,  9-H ) :  -0.1405
B( 10-H , 12-H ) :   0.1068

FINAL SINGLE POINT ENERGY      -227.849541324610

DIPOLE MOMENT
-------------
                                X             Y             Z
Electronic contribution:     -0.24087      -2.53920       1.78567
Nuclear contribution   :      0.45569       2.05070      -1.27895
                        -----------------------------------------
Total Dipole Moment    :      0.21482      -0.48851       0.50672
                        -----------------------------------------
Magnitude (a.u.)       :      0.73590
Magnitude (Debye)      :      1.87051

Rotational constants in cm-1:     0.314404     0.136412     0.097030
Rotational constants in MHz :  9425.600285  4089.541372  2908.875289

                             ****ORCA TERMINATED NORMALLY****
TOTAL RUN TIME: 0 days 0 hours 0 minutes 18 seconds 15 msec
