                         Program Version 5.0.0 -  RELEASE  -
|  1> !LC-BLYP RIJCOSX def2-SVPD def2/J TightSCF
|  2> *xyz 0 1
|  3> C          3.48828        1.60092       -1.52204
|  4> N          2.81029        0.42878       -1.01420
|  5> C          3.29098       -0.41802       -0.12908
|  6> C          2.51754       -1.43202        0.23936
|  7> N          4.53549       -0.28441        0.39580
|  8> H          5.04363        0.57189        0.22290
|  9> H          4.72335       -0.73327        1.28180
| 10> H          1.93479        0.10230       -1.40379
| 11> H          1.67464       -1.50562       -0.31610
| 12> H          2.92850       -2.21850        0.72549
| 13> H          2.85802        2.09943       -2.22855
| 14> H          4.39853        1.30677       -2.00144
| 15> H          3.70992        2.26379       -0.71187
| 16> *
| 17> %MaxCore 64000
| 18>
| 19> %pal nprocs 4
| 20> end
| 21>
| 22> %scf
| 23>   MaxIter 150
| 24> end
| 25>
| 26>
| 27>                          ****END OF INPUT****

CARTESIAN COORDINATES (ANGSTROEM)
---------------------------------
  C      3.488280    1.600920   -1.522040
  N      2.810290    0.428780   -1.014200
  C      3.290980   -0.418020   -0.129080
  C      2.517540   -1.432020    0.239360
  N      4.535490   -0.284410    0.395800
  H      5.043630    0.571890    0.222900
  H      4.723350   -0.733270    1.281800
  H      1.934790    0.102300   -1.403790
  H      1.674640   -1.505620   -0.316100
  H      2.928500   -2.218500    0.725490
  H      2.858020    2.099430   -2.228550
  H      4.398530    1.306770   -2.001440
  H      3.709920    2.263790   -0.711870

 Total Charge           Charge          ....    0
 Multiplicity           Mult            ....    1
 Number of Electrons    NEL             ....   40
 Basis Dimension        Dim             ....  164

ORBITAL ENERGIES
----------------

  NO   OCC          E(Eh)            E(eV)
   0   2.0000     -14.190110      -386.1325
   1   2.0000     -14.190035      -386.1305
   2   2.0000     -10.132396      -275.7165
   3   2.0000     -10.119715      -275.3714
   4   2.0000      -9.995153      -271.9819
   5   2.0000      -1.064602       -28.9693
   6   2.0000      -0.976981       -26.5850
   7   2.0000      -0.854419       -23.2499
   8   2.0000      -0.768279       -20.9059
   9   2.0000      -0.704209       -19.1625
  10   2.0000      -0.639976       -17.4146
  11   2.0000      -0.596871       -16.2417
  12   2.0000      -0.582722       -15.8567
  13   2.0000      -0.564596       -15.3634
  14   2.0000      -0.508288       -13.8312
  15   2.0000      -0.488667       -13.2973
  16   2.0000      -0.477397       -12.9906
  17   2.0000      -0.473214       -12.8768
  18   2.0000      -0.360226        -9.8023
  19   2.0000      -0.256295        -6.9741
  20   0.0000       0.064436         1.7534
  21   0.0000       0.100458         2.7336
  22   0.0000       0.105086         2.8595
  23   0.0000       0.138345         3.7646
  24   0.0000       0.138707         3.7744

MULLIKEN ATOMIC CHARGES
-----------------------
   0 C :    1.293573
   1 N :   -0.301565
   2 C :    0.371204
   3 C :    0.602261
   4 N :    0.194465
   5 H :   -0.204568
   6 H :   -0.086379
   7 H :   -0.243410
   8 H :   -0.356439
   9 H :   -0.555036
  10 H :   -0.464805
  11 H :   -0.115746
  12 H :   -0.133556
Sum of atomic charges:    0.0000000

LOEWDIN ATOMIC CHARGES
----------------------
   0 C :    0.183066
   1 N :   -0.036149
   2 C :   -0.251245
   3 C :    0.126221
   4 N :    0.212862
   5 H :   -0.030644
   6 H :    0.002911
   7 H :    0.027546
   8 H :   -0.103615
   9 H :   -0.096059
  10 H :   -0.007064
  11 H :   -0.013483
  12 H :   -0.014348

  Mayer bond orders larger than 0.100000
B(  0-C ,  1-N ) :   1.0368 B(  0-C ,  7-H ) :  -0.1473 B(  0-C , 10-H ) :   0.7373
B(  0-C , 11-H ) :   0.7813 B(  0-C , 12-H ) :   0.7678 B(  1-N ,  2-C ) :   1.1854
B(  1-N ,  3-C ) :   0.2375 B(  1-N ,  4-N ) :   0.1241 B(  1-N ,  7-H ) :   1.2223
B(  1-N , 10-H ) :   0.2054 B(  1-N , 11-H ) :   0.1712 B(  1-N , 12-H ) :   0.1634
B(  2-C ,  3-C ) :   1.5928 B(  2-C ,  4-N ) :   1.0117 B(  2-C ,  7-H ) :  -0.1680
B(  2-C ,  8-H ) :   0.2533 B(  2-C ,  9-H ) :   0.2294 B(  3-C ,  4-N ) :   0.2415
B(  3-C ,  8-H ) :   0.7399 B(  3-C ,  9-H ) :   0.6321 B(  4-N ,  5-H ) :   1.0706
B(  4-N ,  6-H ) :   1.1326 B(  5-H ,  6-H ) :  -0.1378

FINAL SINGLE POINT ENERGY      -227.834181487478

DIPOLE MOMENT
-------------
                                X             Y             Z
Electronic contribution:      0.10032      -0.71081       0.63854
Nuclear contribution   :      0.39640       1.67380      -1.02505
                        -----------------------------------------
Total Dipole Moment    :      0.49672       0.96299      -0.38651
                        -----------------------------------------
Magnitude (a.u.)       :      1.15042
Magnitude (Debye)      :      2.92414

Rotational constants in cm-1:     0.316500     0.141146     0.099607
Rotational constants in MHz :  9488.425850  4231.454938  2986.155520

                             ****ORCA TERMINATED NORMALLY****
TOTAL RUN TIME: 0 days 0 hours 0 minutes 18 seconds 447 msec
