                         Program Version 5.0.0 -  RELEASE  -
|  1> !LC-BLYP RIJCOSX def2-SVPD def2/J TightSCF
|  2> *xyz 0 1
|  3> C          3.48828        1.60092       -1.52204
|  4> N          2.81029        0.42878       -1.01420
|  5> C          3.29098       -0.41802       -0.12908
|  6> N          2.51754       -1.43202        0.23936
|  7> C          4.53549       -0.28441        0.39580
|  8> H          5.04363        0.57189        0.22290
|  9> H          4.72335       -0.73327        1.28180
| 10> H          1.93479        0.10230       -1.40379
| 11> H          1.67464       -1.50562       -0.31610
| 12> H          2.92850       -2.21850        0.72549
| 13> H          2.85802        2.09943       -2.22855
| 14> H          4.39853        1.30677       -2.00144
| 15> H          3.70992        2.26379       -0.71187
| 16> *
| 17> %MaxCore 64000
| 18>
| 19> %pal nprocs 4
| 20> end
| 21>
| 22> %scf
| 23>   MaxIter 150
| 24> end
| 25>
| 26>
| 27>                          ****END OF INPUT****

CARTESIAN COORDINATES (ANGSTROEM)
---------------------------------
  C      3.488280    1.600920   -1.522040
  N      2.810290    0.428780   -1.014200
  C      3.290980   -0.418020   -0.129080
  N      2.517540   -1.432020    0.239360
  C      4.535490   -0.284410    0.395800
  H      5.043630    0.571890    0.222900
  H      4.723350   -0.733270    1.281800
  H      1.934790    0.102300   -1.403790
  H      1.674640   -1.505620   -0.316100
  H      2.928500   -2.218500    0.725490
  H      2.858020    2.099430   -2.228550
  H      4.398530    1.306770   -2.001440
  H      3.709920    2.263790   -0.711870

 Total Charge           Charge          ....    0
 Multiplicity           Mult            ....    1
 Number of Electrons    NEL             ....   40
 Basis Dimension        Dim             ....  164

ORBITAL ENERGIES
----------------

  NO   OCC          E(Eh)            E(eV)
   0   2.0000     -14.197932      -386.3454
   1   2.0000     -14.191019      -386.1573
   2   2.0000     -10.135421      -275.7988
   3   2.0000     -10.112709      -275.1808
   4   2.0000      -9.998876      -272.0832
   5   2.0000      -1.073979       -29.2245
   6   2.0000      -0.982230       -26.7278
   7   2.0000      -0.822161       -22.3721
   8   2.0000      -0.805353       -21.9148
   9   2.0000      -0.671781       -18.2801
  10   2.0000      -0.650407       -17.6985
  11   2.0000      -0.633129       -17.2283
  12   2.0000      -0.565124       -15.3778
  13   2.0000      -0.554992       -15.1021
  14   2.0000      -0.517794       -14.0899
  15   2.0000      -0.490265       -13.3408
  16   2.0000      -0.473419       -12.8824
  17   2.0000      -0.466392       -12.6912
  18   2.0000      -0.351695        -9.5701
  19   2.0000      -0.262762        -7.1501
  20   0.0000       0.067154         1.8274
  21   0.0000       0.089031         2.4226
  22   0.0000       0.107400         2.9225
  23   0.0000       0.141659         3.8547
  24   0.0000       0.142252         3.8709

MULLIKEN ATOMIC CHARGES
-----------------------
   0 C :    1.249548
   1 N :   -0.347273
   2 C :    0.238206
   3 N :    0.245734
   4 C :    0.657435
   5 H :   -0.306355
   6 H :   -0.545124
   7 H :   -0.353482
   8 H :   -0.154391
   9 H :   -0.107330
  10 H :   -0.489874
  11 H :   -0.038291
  12 H :   -0.048803
Sum of atomic charges:   -0.0000000

LOEWDIN ATOMIC CHARGES
----------------------
   0 C :    0.190174
   1 N :   -0.038276
   2 C :   -0.263178
   3 N :    0.195449
   4 C :    0.152249
   5 H :   -0.124400
   6 H :   -0.106050
   7 H :    0.015719
   8 H :   -0.014462
   9 H :    0.012759
  10 H :   -0.008836
  11 H :   -0.005829
  12 H :   -0.005319

  Mayer bond orders larger than 0.100000
B(  0-C ,  1-N ) :   1.0602 B(  0-C ,  7-H ) :  -0.1437 B(  0-C , 10-H ) :   0.7522
B(  0-C , 11-H ) :   0.7882 B(  0-C , 12-H ) :   0.7729 B(  1-N ,  2-C ) :   1.1387
B(  1-N ,  3-N ) :   0.1575 B(  1-N ,  4-C ) :   0.3558 B(  1-N ,  7-H ) :   1.2935
B(  1-N , 10-H ) :   0.1929 B(  1-N , 11-H ) :   0.1439 B(  1-N , 12-H ) :   0.1488
B(  2-C ,  3-N ) :   0.9953 B(  2-C ,  4-C ) :   1.7709 B(  2-C ,  5-H ) :   0.3311
B(  2-C ,  6-H ) :   0.2911 B(  2-C ,  7-H ) :  -0.2233 B(  3-N ,  4-C ) :   0.2615
B(  3-N ,  8-H ) :   1.0876 B(  3-N ,  9-H ) :   1.1633 B(  4-C ,  5-H ) :   0.6712
B(  4-C ,  6-H ) :   0.6065 B(  5-H ,  6-H ) :   0.2151 B(  8-H ,  9-H ) :  -0.1395

FINAL SINGLE POINT ENERGY      -227.836532612157

DIPOLE MOMENT
-------------
                                X             Y             Z
Electronic contribution:     -1.84369      -1.94600       0.39305
Nuclear contribution   :      0.80512       1.90624      -0.99336
                        -----------------------------------------
Total Dipole Moment    :     -1.03857      -0.03975      -0.60031
                        -----------------------------------------
Magnitude (a.u.)       :      1.20024
Magnitude (Debye)      :      3.05076

Rotational constants in cm-1:     0.332728     0.136065     0.098521
Rotational constants in MHz :  9974.927067  4079.126590  2953.598000

                             ****ORCA TERMINATED NORMALLY****
TOTAL RUN TIME: 0 days 0 hours 0 minutes 18 seconds 628 msec
