                         Program Version 5.0.0 -  RELEASE  -
|  1> !LC-BLYP RIJCOSX def2-SVPD def2/J TightSCF xyzfile
|  2>
|  3> *xyzfile 0 1 D2.xyz
|  4>
|  5> %MaxCore 64000
|  6>
|  7> %pal nprocs 4
|  8> end
|  9>
| 10> %scf
| 11>   MaxIter 150
| 12> end
| 13>
| 14>
| 15>                          ****END OF INPUT****

CARTESIAN COORDINATES (ANGSTROEM)
---------------------------------
  C      3.488276    1.600919   -1.522040
  C      4.342970    1.313419   -2.756826
  N      2.810285    0.428783   -1.014196
  H      5.132033    0.604994   -2.484466
  C      3.535896    0.749253   -3.924604
  H      4.841247    2.242136   -3.054083
  H      2.991617   -0.132199   -3.574137
  H      4.225505    0.392784   -4.695962
  C      2.564776    1.750890   -4.544523
  H      1.918749    2.171679   -3.769419
  C      1.686235    1.161657   -5.650111
  H      3.132494    2.594775   -4.951604
  C      0.839616   -0.037582   -5.220473
  H      2.323886    0.866395   -6.490796
  H      1.029518    1.951850   -6.029329
  C     -0.151019    0.254955   -4.094256
  H      1.499442   -0.857141   -4.922958
  H      0.290097   -0.410143   -6.091131
  H      0.328265    0.833022   -3.299125
  C     -0.721843   -0.999513   -3.439309
  H     -0.957367    0.884951   -4.485450
  H     -1.083403   -1.697555   -4.205656
  H     -1.581056   -0.723848   -2.820490
  C      0.287250   -1.711771   -2.527405
  H      1.131780   -2.067380   -3.159396
  H     -0.204137   -2.637326   -2.170480
  F      0.710505   -0.927506   -1.481767
  H      2.714548    2.331455   -1.760302
  H      4.090991    2.063151   -0.733382
  C      3.290978   -0.418021   -0.129083
  C      2.517536   -1.432017    0.239360
  N      4.535490   -0.284410    0.395800
  H      5.043627    0.571888    0.222899
  H      4.723346   -0.733273    1.281800
  H      1.934787    0.102305   -1.403788
  H      1.674638   -1.505616   -0.316095
  H      2.928503   -2.218502    0.725494

 Total Charge           Charge          ....    0
 Multiplicity           Mult            ....    1
 Number of Electrons    NEL             ....  112
 Basis Dimension        Dim             ....  467

ORBITAL ENERGIES
----------------

  NO   OCC          E(Eh)            E(eV)
   0   2.0000     -24.491123      -666.4373
   1   2.0000     -14.173219      -385.6729
   2   2.0000     -14.160835      -385.3359
   3   2.0000     -10.175818      -276.8981
   4   2.0000     -10.112358      -275.1713
   5   2.0000     -10.111116      -275.1374
   6   2.0000     -10.099670      -274.8260
   7   2.0000     -10.089198      -274.5410
   8   2.0000     -10.085482      -274.4399
   9   2.0000     -10.083109      -274.3754
  10   2.0000     -10.080053      -274.2922
  11   2.0000     -10.077899      -274.2336
  12   2.0000     -10.076644      -274.1994
  13   2.0000      -9.967268      -271.2232
  14   2.0000      -1.299423       -35.3591
  15   2.0000      -1.046260       -28.4702
  16   2.0000      -0.962429       -26.1890
  17   2.0000      -0.933021       -25.3888
  18   2.0000      -0.904237       -24.6055
  19   2.0000      -0.877900       -23.8889
  20   2.0000      -0.831199       -22.6181
  21   2.0000      -0.808552       -22.0018
  22   2.0000      -0.773150       -21.0385
  23   2.0000      -0.747794       -20.3485
  24   2.0000      -0.716583       -19.4992
  25   2.0000      -0.704263       -19.1640
  26   2.0000      -0.681768       -18.5519
  27   2.0000      -0.665093       -18.0981
  28   2.0000      -0.643420       -17.5083
  29   2.0000      -0.629696       -17.1349
  30   2.0000      -0.617678       -16.8079
  31   2.0000      -0.604812       -16.4578
  32   2.0000      -0.591241       -16.0885
  33   2.0000      -0.580285       -15.7904
  34   2.0000      -0.572424       -15.5764
  35   2.0000      -0.558390       -15.1946
  36   2.0000      -0.542913       -14.7734
  37   2.0000      -0.535918       -14.5831
  38   2.0000      -0.532476       -14.4894
  39   2.0000      -0.516678       -14.0595
  40   2.0000      -0.499702       -13.5976
  41   2.0000      -0.483060       -13.1447
  42   2.0000      -0.476325       -12.9615
  43   2.0000      -0.471716       -12.8360
  44   2.0000      -0.468684       -12.7535
  45   2.0000      -0.460463       -12.5298
  46   2.0000      -0.446205       -12.1419
  47   2.0000      -0.441520       -12.0144
  48   2.0000      -0.436902       -11.8887
  49   2.0000      -0.426256       -11.5990
  50   2.0000      -0.417695       -11.3661
  51   2.0000      -0.414534       -11.2800
  52   2.0000      -0.410221       -11.1627
  53   2.0000      -0.406741       -11.0680
  54   2.0000      -0.340034        -9.2528
  55   2.0000      -0.237154        -6.4533
  56   0.0000       0.070679         1.9233
  57   0.0000       0.074545         2.0285
  58   0.0000       0.081198         2.2095
  59   0.0000       0.084435         2.2976
  60   0.0000       0.100551         2.7361

MULLIKEN ATOMIC CHARGES
-----------------------
   0 C :    1.291683
   1 C :    0.530913
   2 N :    0.641435
   3 H :   -0.139837
   4 C :    0.669585
   5 H :   -0.237371
   6 H :   -0.575587
   7 H :   -0.242356
   8 C :    0.120289
   9 H :   -0.076093
  10 C :    0.831806
  11 H :   -0.312666
  12 C :    0.201897
  13 H :   -0.108497
  14 H :   -0.234396
  15 C :    0.479528
  16 H :   -0.164738
  17 H :   -0.321361
  18 H :   -0.490830
  19 C :    0.490649
  20 H :   -0.190885
  21 H :   -0.146758
  22 H :   -0.136397
  23 C :    0.995391
  24 H :   -0.209929
  25 H :   -0.327649
  26 F :   -0.534746
  27 H :   -0.448896
  28 H :   -0.411434
  29 C :    0.339824
  30 C :    1.064961
  31 N :    0.359797
  32 H :   -0.182413
  33 H :   -0.178198
  34 H :   -1.064275
  35 H :   -0.871917
  36 H :   -0.410529
Sum of atomic charges:    0.0000000

LOEWDIN ATOMIC CHARGES
----------------------
   0 C :    0.043579
   1 C :   -0.029956
   2 N :    0.021947
   3 H :    0.024642
   4 C :   -0.039216
   5 H :    0.026611
   6 H :    0.002459
   7 H :    0.033968
   8 C :   -0.045698
   9 H :    0.001480
  10 C :   -0.038608
  11 H :    0.032338
  12 C :   -0.044141
  13 H :    0.029465
  14 H :    0.028811
  15 C :   -0.034760
  16 H :    0.001990
  17 H :    0.030958
  18 H :    0.008187
  19 C :   -0.020655
  20 H :    0.036217
  21 H :    0.042010
  22 H :    0.034996
  23 C :    0.138690
  24 H :    0.040551
  25 H :    0.048908
  26 F :   -0.197630
  27 H :    0.014936
  28 H :    0.015291
  29 C :   -0.223925
  30 C :    0.154866
  31 N :    0.211680
  32 H :   -0.039444
  33 H :   -0.000102
  34 H :   -0.054094
  35 H :   -0.160820
  36 H :   -0.095532

  Mayer bond orders larger than 0.100000
B(  0-C ,  1-C ) :   1.0337 B(  0-C ,  2-N ) :   1.1556 B(  0-C ,  4-C ) :   0.2058
B(  0-C ,  5-H ) :   0.1329 B(  0-C , 27-H ) :   0.5506 B(  0-C , 28-H ) :   0.6915
B(  0-C , 34-H ) :  -0.7157 B(  1-C ,  3-H ) :   0.6778 B(  1-C ,  4-C ) :   1.1907
B(  1-C ,  5-H ) :   0.8498 B(  1-C ,  6-H ) :   0.1453 B(  1-C , 27-H ) :   0.1100
B(  1-C , 28-H ) :   0.1525 B(  2-N , 27-H ) :   0.1627 B(  2-N , 29-C ) :   1.1288
B(  2-N , 30-C ) :   0.1919 B(  2-N , 31-N ) :   0.1851 B(  2-N , 34-H ) :   0.7007
B(  3-H ,  4-C ) :   0.2525 B(  3-H ,  5-H ) :  -0.1063 B(  3-H , 34-H ) :   0.1067
B(  4-C ,  6-H ) :   0.5880 B(  4-C ,  7-H ) :   0.6857 B(  4-C ,  8-C ) :   1.1390
B(  4-C , 11-H ) :   0.1797 B(  4-C , 27-H ) :  -0.1041 B(  6-H ,  8-C ) :   0.2224
B(  6-H , 34-H ) :   0.1043 B(  7-H ,  8-C ) :   0.1551 B(  8-C ,  9-H ) :   0.8017
B(  8-C , 10-C ) :   1.1378 B(  8-C , 11-H ) :   0.8448 B(  8-C , 12-C ) :   0.1670
B(  8-C , 13-H ) :   0.1192 B(  8-C , 14-H ) :   0.3629 B(  9-H , 18-H ) :   0.1093
B( 10-C , 12-C ) :   1.1814 B( 10-C , 13-H ) :   0.6236 B( 10-C , 14-H ) :   0.5713
B( 10-C , 17-H ) :   0.1000 B( 12-C , 13-H ) :   0.2928 B( 12-C , 14-H ) :   0.1185
B( 12-C , 15-C ) :   1.1554 B( 12-C , 16-H ) :   0.8232 B( 12-C , 17-H ) :   0.7822
B( 12-C , 18-H ) :   0.2036 B( 12-C , 20-H ) :   0.2212 B( 13-H , 14-H ) :  -0.1728
B( 15-C , 16-H ) :   0.1241 B( 15-C , 17-H ) :   0.2798 B( 15-C , 18-H ) :   0.6999
B( 15-C , 19-C ) :   1.1795 B( 15-C , 20-H ) :   0.7541 B( 15-C , 22-H ) :   0.2662
B( 15-C , 23-C ) :   0.1336 B( 18-H , 19-C ) :   0.1598 B( 19-C , 21-H ) :   0.7339
B( 19-C , 22-H ) :   0.6424 B( 19-C , 23-C ) :   1.2035 B( 19-C , 24-H ) :   0.1335
B( 19-C , 25-H ) :   0.1614 B( 21-H , 23-C ) :   0.1797 B( 22-H , 23-C ) :   0.1851
B( 23-C , 24-H ) :   0.7739 B( 23-C , 25-H ) :   0.8352 B( 23-C , 26-F ) :   0.6732
B( 24-H , 26-F ) :   0.1480 B( 25-H , 26-F ) :  -0.1056 B( 26-F , 34-H ) :   0.1952
B( 26-F , 35-H ) :   0.2247 B( 27-H , 28-H ) :  -0.1441 B( 27-H , 34-H ) :   0.2232
B( 29-C , 30-C ) :   1.6761 B( 29-C , 31-N ) :   0.9437 B( 29-C , 34-H ) :  -0.7251
B( 29-C , 35-H ) :   0.2899 B( 29-C , 36-H ) :   0.4806 B( 30-C , 31-N ) :   0.2747
B( 30-C , 35-H ) :   0.2151 B( 30-C , 36-H ) :   0.2506 B( 31-N , 32-H ) :   0.9694
B( 31-N , 33-H ) :   1.1712 B( 32-H , 33-H ) :  -0.1539 B( 34-H , 35-H ) :  -0.1161
B( 35-H , 36-H ) :   0.2564

FINAL SINGLE POINT ENERGY      -640.201556153581

DIPOLE MOMENT
-------------
                                X             Y             Z
Electronic contribution:     -1.29092      -3.14305       9.40672
Nuclear contribution   :      1.09892       3.58083     -10.64472
                        -----------------------------------------
Total Dipole Moment    :     -0.19200       0.43779      -1.23800
                        -----------------------------------------
Magnitude (a.u.)       :      1.32709
Magnitude (Debye)      :      3.37319

Rotational constants in cm-1:     0.026768     0.016312     0.010954
Rotational constants in MHz :   802.489946   489.033275   328.388904

                             ****ORCA TERMINATED NORMALLY****
TOTAL RUN TIME: 0 days 0 hours 3 minutes 47 seconds 402 msec
