                         Program Version 5.0.0 -  RELEASE  -
|  1> !LC-BLYP RIJCOSX def2-SVPD def2/J TightSCF xyzfile
|  2>
|  3> *xyzfile 0 1 D3.xyz
|  4>
|  5> %MaxCore 64000
|  6>
|  7> %pal nprocs 4
|  8> end
|  9>
| 10> %scf
| 11>   MaxIter 150
| 12> end
| 13>
| 14>
| 15>                          ****END OF INPUT****

CARTESIAN COORDINATES (ANGSTROEM)
---------------------------------
  C      3.488276    1.600919   -1.522040
  C      4.342970    1.313419   -2.756826
  N      2.810285    0.428783   -1.014196
  H      5.132033    0.604994   -2.484466
  C      3.535896    0.749253   -3.924604
  H      4.841247    2.242136   -3.054083
  H      2.991617   -0.132199   -3.574137
  H      4.225505    0.392784   -4.695962
  C      2.564776    1.750890   -4.544523
  H      1.918749    2.171679   -3.769419
  C      1.686235    1.161657   -5.650111
  H      3.132494    2.594775   -4.951604
  C      0.839616   -0.037582   -5.220473
  H      2.323886    0.866395   -6.490796
  H      1.029518    1.951850   -6.029329
  C     -0.151019    0.254955   -4.094256
  H      1.499442   -0.857141   -4.922958
  H      0.290097   -0.410143   -6.091131
  H      0.328265    0.833022   -3.299125
  C     -0.721843   -0.999513   -3.439309
  H     -0.957367    0.884951   -4.485450
  H     -1.083403   -1.697555   -4.205656
  H     -1.581056   -0.723848   -2.820490
  C      0.287250   -1.711771   -2.527405
  H      1.131780   -2.067380   -3.159396
  H     -0.204137   -2.637326   -2.170480
  F      0.710505   -0.927506   -1.481767
  H      2.714548    2.331455   -1.760302
  H      4.090991    2.063151   -0.733382
  C      3.290978   -0.418021   -0.129083
  N      2.517536   -1.432017    0.239360
  C      4.535490   -0.284410    0.395800
  H      5.043627    0.571888    0.222899
  H      4.723346   -0.733273    1.281800
  H      1.934787    0.102305   -1.403788
  H      1.674638   -1.505616   -0.316095
  H      2.928503   -2.218502    0.725494

 Total Charge           Charge          ....    0
 Multiplicity           Mult            ....    1
 Number of Electrons    NEL             ....  112
 Basis Dimension        Dim             ....  467

ORBITAL ENERGIES
----------------

  NO   OCC          E(Eh)            E(eV)
   0   2.0000     -24.521147      -667.2543
   1   2.0000     -14.165445      -385.4614
   2   2.0000     -14.161011      -385.3407
   3   2.0000     -10.194026      -277.3935
   4   2.0000     -10.115520      -275.2573
   5   2.0000     -10.111784      -275.1556
   6   2.0000     -10.102836      -274.9121
   7   2.0000     -10.096757      -274.7467
   8   2.0000     -10.090543      -274.5776
   9   2.0000     -10.085133      -274.4304
  10   2.0000     -10.079600      -274.2799
  11   2.0000     -10.075765      -274.1755
  12   2.0000     -10.069472      -274.0043
  13   2.0000      -9.978446      -271.5273
  14   2.0000      -1.327876       -36.1333
  15   2.0000      -1.051953       -28.6251
  16   2.0000      -0.964052       -26.2332
  17   2.0000      -0.939019       -25.5520
  18   2.0000      -0.908155       -24.7122
  19   2.0000      -0.873667       -23.7737
  20   2.0000      -0.831273       -22.6201
  21   2.0000      -0.800779       -21.7903
  22   2.0000      -0.790583       -21.5128
  23   2.0000      -0.759799       -20.6752
  24   2.0000      -0.726872       -19.7792
  25   2.0000      -0.701002       -19.0752
  26   2.0000      -0.682109       -18.5611
  27   2.0000      -0.668114       -18.1803
  28   2.0000      -0.662796       -18.0356
  29   2.0000      -0.631336       -17.1795
  30   2.0000      -0.628331       -17.0978
  31   2.0000      -0.616952       -16.7881
  32   2.0000      -0.598168       -16.2770
  33   2.0000      -0.585831       -15.9413
  34   2.0000      -0.569986       -15.5101
  35   2.0000      -0.560176       -15.2432
  36   2.0000      -0.546787       -14.8788
  37   2.0000      -0.541444       -14.7334
  38   2.0000      -0.534245       -14.5375
  39   2.0000      -0.513262       -13.9666
  40   2.0000      -0.506634       -13.7862
  41   2.0000      -0.487066       -13.2537
  42   2.0000      -0.481325       -13.0975
  43   2.0000      -0.474042       -12.8993
  44   2.0000      -0.473205       -12.8766
  45   2.0000      -0.461439       -12.5564
  46   2.0000      -0.451425       -12.2839
  47   2.0000      -0.448424       -12.2022
  48   2.0000      -0.439892       -11.9701
  49   2.0000      -0.434937       -11.8352
  50   2.0000      -0.429183       -11.6787
  51   2.0000      -0.414465       -11.2782
  52   2.0000      -0.411799       -11.2056
  53   2.0000      -0.405253       -11.0275
  54   2.0000      -0.329040        -8.9536
  55   2.0000      -0.241965        -6.5842
  56   0.0000       0.061140         1.6637
  57   0.0000       0.071887         1.9561
  58   0.0000       0.080358         2.1866
  59   0.0000       0.084355         2.2954
  60   0.0000       0.099608         2.7105

MULLIKEN ATOMIC CHARGES
-----------------------
   0 C :    1.253986
   1 C :    0.558462
   2 N :    0.615406
   3 H :   -0.176332
   4 C :    0.630098
   5 H :   -0.214498
   6 H :   -0.581645
   7 H :   -0.232371
   8 C :    0.118449
   9 H :   -0.074007
  10 C :    0.836882
  11 H :   -0.307396
  12 C :    0.198052
  13 H :   -0.106136
  14 H :   -0.232400
  15 C :    0.473680
  16 H :   -0.163585
  17 H :   -0.327152
  18 H :   -0.496030
  19 C :    0.502703
  20 H :   -0.191735
  21 H :   -0.143196
  22 H :   -0.131055
  23 C :    0.984820
  24 H :   -0.201088
  25 H :   -0.313421
  26 F :   -0.598883
  27 H :   -0.441686
  28 H :   -0.293272
  29 C :    0.383532
  30 N :    0.721256
  31 C :    0.749350
  32 H :   -0.164614
  33 H :   -0.747736
  34 H :   -1.252506
  35 H :   -0.474876
  36 H :   -0.161054
Sum of atomic charges:    0.0000000

LOEWDIN ATOMIC CHARGES
----------------------
   0 C :    0.051045
   1 C :   -0.021924
   2 N :    0.021787
   3 H :    0.026946
   4 C :   -0.041452
   5 H :    0.028618
   6 H :   -0.001069
   7 H :    0.033747
   8 C :   -0.045856
   9 H :    0.001085
  10 C :   -0.038279
  11 H :    0.033180
  12 C :   -0.044119
  13 H :    0.030021
  14 H :    0.028892
  15 C :   -0.033441
  16 H :    0.001630
  17 H :    0.031145
  18 H :    0.008910
  19 C :   -0.018108
  20 H :    0.037757
  21 H :    0.044291
  22 H :    0.035880
  23 C :    0.138261
  24 H :    0.042757
  25 H :    0.048498
  26 F :   -0.186026
  27 H :    0.014378
  28 H :    0.022292
  29 C :   -0.231644
  30 N :    0.219121
  31 C :    0.144080
  32 H :   -0.130790
  33 H :   -0.110922
  34 H :   -0.062346
  35 H :   -0.089106
  36 H :    0.010761

  Mayer bond orders larger than 0.100000
B(  0-C ,  1-C ) :   1.0155 B(  0-C ,  2-N ) :   1.1730 B(  0-C ,  4-C ) :   0.1774
B(  0-C ,  5-H ) :   0.1021 B(  0-C , 27-H ) :   0.5997 B(  0-C , 28-H ) :   0.7139
B(  0-C , 34-H ) :  -0.7396 B(  1-C ,  3-H ) :   0.6982 B(  1-C ,  4-C ) :   1.1824
B(  1-C ,  5-H ) :   0.8497 B(  1-C ,  6-H ) :   0.1496 B(  1-C , 28-H ) :   0.1404
B(  2-N , 27-H ) :   0.2224 B(  2-N , 29-C ) :   1.0803 B(  2-N , 31-C ) :   0.5253
B(  2-N , 33-H ) :   0.1171 B(  2-N , 34-H ) :   0.3849 B(  3-H ,  4-C ) :   0.2667
B(  3-H ,  5-H ) :  -0.1297 B(  4-C ,  6-H ) :   0.5896 B(  4-C ,  7-H ) :   0.7015
B(  4-C ,  8-C ) :   1.1407 B(  4-C , 11-H ) :   0.1845 B(  6-H ,  8-C ) :   0.2216
B(  6-H , 34-H ) :   0.1010 B(  7-H ,  8-C ) :   0.1609 B(  8-C ,  9-H ) :   0.8047
B(  8-C , 10-C ) :   1.1411 B(  8-C , 11-H ) :   0.8420 B(  8-C , 12-C ) :   0.1663
B(  8-C , 13-H ) :   0.1222 B(  8-C , 14-H ) :   0.3674 B(  9-H , 18-H ) :   0.1067
B( 10-C , 12-C ) :   1.1792 B( 10-C , 13-H ) :   0.6225 B( 10-C , 14-H ) :   0.5693
B( 10-C , 17-H ) :   0.1002 B( 12-C , 13-H ) :   0.2925 B( 12-C , 14-H ) :   0.1146
B( 12-C , 15-C ) :   1.1556 B( 12-C , 16-H ) :   0.8207 B( 12-C , 17-H ) :   0.7908
B( 12-C , 18-H ) :   0.2022 B( 12-C , 20-H ) :   0.2200 B( 13-H , 14-H ) :  -0.1716
B( 15-C , 16-H ) :   0.1238 B( 15-C , 17-H ) :   0.2741 B( 15-C , 18-H ) :   0.7068
B( 15-C , 19-C ) :   1.1845 B( 15-C , 20-H ) :   0.7581 B( 15-C , 22-H ) :   0.2664
B( 15-C , 23-C ) :   0.1225 B( 18-H , 19-C ) :   0.1582 B( 19-C , 21-H ) :   0.7228
B( 19-C , 22-H ) :   0.6424 B( 19-C , 23-C ) :   1.2011 B( 19-C , 24-H ) :   0.1310
B( 19-C , 25-H ) :   0.1600 B( 21-H , 23-C ) :   0.1890 B( 22-H , 23-C ) :   0.1717
B( 23-C , 24-H ) :   0.7704 B( 23-C , 25-H ) :   0.8232 B( 23-C , 26-F ) :   0.6498
B( 24-H , 26-F ) :   0.1675 B( 26-F , 34-H ) :   0.2689 B( 26-F , 35-H ) :   0.2058
B( 27-H , 28-H ) :  -0.1850 B( 27-H , 34-H ) :   0.1336 B( 29-C , 30-N ) :   0.9049
B( 29-C , 31-C ) :   1.6114 B( 29-C , 32-H ) :   0.4118 B( 29-C , 33-H ) :   0.4002
B( 29-C , 34-H ) :  -0.7306 B( 30-N , 31-C ) :   0.2500 B( 30-N , 35-H ) :   0.9121
B( 30-N , 36-H ) :   1.1584 B( 31-C , 32-H ) :   0.5609 B( 31-C , 33-H ) :   0.4005
B( 31-C , 34-H ) :  -0.1118 B( 35-H , 36-H ) :  -0.1459

FINAL SINGLE POINT ENERGY      -640.214413501267

DIPOLE MOMENT
-------------
                                X             Y             Z
Electronic contribution:     -3.24684      -4.31344       9.04337
Nuclear contribution   :      1.49917       3.80845     -10.61369
                        -----------------------------------------
Total Dipole Moment    :     -1.74767      -0.50499      -1.57031
                        -----------------------------------------
Magnitude (a.u.)       :      2.40318
Magnitude (Debye)      :      6.10839

Rotational constants in cm-1:     0.026547     0.016542     0.011018
Rotational constants in MHz :   795.873737   495.912559   330.323979

                             ****ORCA TERMINATED NORMALLY****
TOTAL RUN TIME: 0 days 0 hours 4 minutes 15 seconds 923 msec
