                         Program Version 5.0.0 -  RELEASE  -
|  1> !PBE0 D3BJ RIJCOSX def2-SVPD def2/J TightSCF
|  2> *xyz -1 1
|  3> C          0.69721        3.22791       -0.52513
|  4> O          1.48929        2.37470        0.19919
|  5> H          0.26505        2.70007       -1.34946
|  6> H          1.28994        4.03943       -0.89255
|  7> H         -0.08148        3.61005        0.10138
|  8> *
|  9>
| 10> %MaxCore 64000
| 11> %pal nprocs 8
| 12> end
| 13>
| 14> %scf
| 15>   MaxIter 150
| 16> end
| 17>
| 18>
| 19>                          ****END OF INPUT****

CARTESIAN COORDINATES (ANGSTROEM)
---------------------------------
  C      0.697210    3.227910   -0.525130
  O      1.489290    2.374700    0.199190
  H      0.265050    2.700070   -1.349460
  H      1.289940    4.039430   -0.892550
  H     -0.081480    3.610050    0.101380

 Total Charge           Charge          ....   -1
 Multiplicity           Mult            ....    1
 Number of Electrons    NEL             ....   18
 Basis Dimension        Dim             ....   67

ORBITAL ENERGIES
----------------

  NO   OCC          E(Eh)            E(eV)
   0   2.0000     -18.860907      -513.2314
   1   2.0000     -10.015326      -272.5309
   2   2.0000      -0.672842       -18.3089
   3   2.0000      -0.408383       -11.1127
   4   2.0000      -0.207593        -5.6489
   5   2.0000      -0.207588        -5.6487
   6   2.0000      -0.111055        -3.0220
   7   2.0000       0.041206         1.1213
   8   2.0000       0.041221         1.1217
   9   0.0000       0.205255         5.5853
  10   0.0000       0.277359         7.5473
  11   0.0000       0.277363         7.5474
  12   0.0000       0.285494         7.7687
  13   0.0000       0.321175         8.7396

MULLIKEN ATOMIC CHARGES
-----------------------
   0 C :    0.704166
   1 O :   -1.058154
   2 H :   -0.215691
   3 H :   -0.215254
   4 H :   -0.215068
Sum of atomic charges:   -1.0000000

LOEWDIN ATOMIC CHARGES
----------------------
   0 C :   -0.115540
   1 O :   -0.652568
   2 H :   -0.077322
   3 H :   -0.077282
   4 H :   -0.077287

  Mayer bond orders larger than 0.100000
B(  0-C ,  1-O ) :   1.1232 B(  0-C ,  2-H ) :   0.9384 B(  0-C ,  3-H ) :   0.9381
B(  0-C ,  4-H ) :   0.9377

Dispersion correction           -0.001163227
FINAL SINGLE POINT ENERGY      -114.883619887399

DIPOLE MOMENT
-------------
                                X             Y             Z
Electronic contribution:      1.08022      -1.16339       0.98778
Nuclear contribution   :     -1.66672       1.79535      -1.52413
                        -----------------------------------------
Total Dipole Moment    :     -0.58650       0.63195      -0.53635
                        -----------------------------------------
Magnitude (a.u.)       :      1.01539
Magnitude (Debye)      :      2.58091

Rotational constants in cm-1:     5.477728     0.937442     0.937441
Rotational constants in MHz : 164218.159175 28103.818547 28103.787504

                             ****ORCA TERMINATED NORMALLY****
TOTAL RUN TIME: 0 days 0 hours 0 minutes 2 seconds 895 msec
