                         Program Version 5.0.0 -  RELEASE  -
|  1> !PBE0 D3BJ RIJCOSX def2-SVPD def2/J TightSCF
|  2> *xyz 1 1
|  3> C          3.95643        0.50147       -0.37910
|  4> N          3.80389        1.96157       -0.15675
|  5> H          4.20643        2.24441        0.74536
|  6> H          2.80827        2.21132       -0.09610
|  7> H          4.28076        2.50155       -0.89104
|  8> H          3.52890        0.23799       -1.32393
|  9> H          3.45469       -0.03240        0.40073
| 10> H          4.99562        0.24661       -0.37434
| 11> *
| 12>
| 13> %MaxCore 64000
| 14> %pal nprocs 8
| 15> end
| 16>
| 17> %scf
| 18>   MaxIter 150
| 19> end
| 20>
| 21>
| 22>                          ****END OF INPUT****

CARTESIAN COORDINATES (ANGSTROEM)
---------------------------------
  C      3.956430    0.501470   -0.379100
  N      3.803890    1.961570   -0.156750
  H      4.206430    2.244410    0.745360
  H      2.808270    2.211320   -0.096100
  H      4.280760    2.501550   -0.891040
  H      3.528900    0.237990   -1.323930
  H      3.454690   -0.032400    0.400730
  H      4.995620    0.246610   -0.374340

 Total Charge           Charge          ....    1
 Multiplicity           Mult            ....    1
 Number of Electrons    NEL             ....   18
 Basis Dimension        Dim             ....   88

ORBITAL ENERGIES
----------------

  NO   OCC          E(Eh)            E(eV)
   0   2.0000     -14.746972      -401.2855
   1   2.0000     -10.490787      -285.4688
   2   2.0000      -1.245518       -33.8923
   3   2.0000      -0.955881       -26.0108
   4   2.0000      -0.832375       -22.6501
   5   2.0000      -0.820807       -22.3353
   6   2.0000      -0.731768       -19.9124
   7   2.0000      -0.640847       -17.4383
   8   2.0000      -0.639149       -17.3921
   9   0.0000      -0.195252        -5.3131
  10   0.0000      -0.126080        -3.4308
  11   0.0000      -0.124152        -3.3784
  12   0.0000      -0.122084        -3.3221
  13   0.0000      -0.076787        -2.0895

MULLIKEN ATOMIC CHARGES
-----------------------
   0 C :    0.786898
   1 N :   -0.884800
   2 H :    0.379313
   3 H :    0.388444
   4 H :    0.386773
   5 H :   -0.018793
   6 H :   -0.017710
   7 H :   -0.020125
Sum of atomic charges:    1.0000000

LOEWDIN ATOMIC CHARGES
----------------------
   0 C :    0.279432
   1 N :    0.306749
   2 H :    0.108780
   3 H :    0.110713
   4 H :    0.112675
   5 H :    0.027271
   6 H :    0.027368
   7 H :    0.027013

  Mayer bond orders larger than 0.100000
B(  0-C ,  1-N ) :   0.7816 B(  0-C ,  5-H ) :   0.9164 B(  0-C ,  6-H ) :   0.9146
B(  0-C ,  7-H ) :   0.9184 B(  1-N ,  2-H ) :   0.7750 B(  1-N ,  3-H ) :   0.7586
B(  1-N ,  4-H ) :   0.7584

Dispersion correction           -0.002675022
FINAL SINGLE POINT ENERGY       -96.035374899187

DIPOLE MOMENT
-------------
                                X             Y             Z
Electronic contribution:     -0.11095       1.07950       0.14140
Nuclear contribution   :      0.02154      -0.23654       0.01355
                        -----------------------------------------
Total Dipole Moment    :     -0.08940       0.84296       0.15494
                        -----------------------------------------
Magnitude (a.u.)       :      0.86173
Magnitude (Debye)      :      2.19035

Rotational constants in cm-1:     2.873586     0.687737     0.684128
Rotational constants in MHz : 86147.950763 20617.847271 20509.632222

                             ****ORCA TERMINATED NORMALLY****
TOTAL RUN TIME: 0 days 0 hours 0 minutes 3 seconds 342 msec
