                         Program Version 5.0.0 -  RELEASE  -
|  1> !PBE0 D3BJ RIJCOSX def2-SVPD def2/J TightSCF
|  2> *xyz 0 1
|  3> C          0.69721        3.22791       -0.52513
|  4> F          1.48929        2.37470        0.19919
|  5> H          0.26505        2.70007       -1.34946
|  6> H          1.28994        4.03943       -0.89255
|  7> H         -0.08148        3.61005        0.10138
|  8> *
|  9>
| 10> %MaxCore 64000
| 11> %pal nprocs 8
| 12> end
| 13>
| 14> %scf
| 15>   MaxIter 150
| 16> end
| 17>
| 18>
| 19>                          ****END OF INPUT****

CARTESIAN COORDINATES (ANGSTROEM)
---------------------------------
  C      0.697210    3.227910   -0.525130
  F      1.489290    2.374700    0.199190
  H      0.265050    2.700070   -1.349460
  H      1.289940    4.039430   -0.892550
  H     -0.081480    3.610050    0.101380

 Total Charge           Charge          ....    0
 Multiplicity           Mult            ....    1
 Number of Electrons    NEL             ....   18
 Basis Dimension        Dim             ....   67

ORBITAL ENERGIES
----------------

  NO   OCC          E(Eh)            E(eV)
   0   2.0000     -24.768659      -673.9895
   1   2.0000     -10.302549      -280.3466
   2   2.0000      -1.213709       -33.0267
   3   2.0000      -0.723310       -19.6823
   4   2.0000      -0.515818       -14.0361
   5   2.0000      -0.507583       -13.8120
   6   2.0000      -0.507576       -13.8118
   7   2.0000      -0.366526        -9.9737
   8   2.0000      -0.366509        -9.9732
   9   0.0000       0.033662         0.9160
  10   0.0000       0.069410         1.8888
  11   0.0000       0.110319         3.0019
  12   0.0000       0.110322         3.0020
  13   0.0000       0.154159         4.1949

MULLIKEN ATOMIC CHARGES
-----------------------
   0 C :    0.776708
   1 F :   -0.504671
   2 H :   -0.091149
   3 H :   -0.090635
   4 H :   -0.090252
Sum of atomic charges:   -0.0000000

LOEWDIN ATOMIC CHARGES
----------------------
   0 C :    0.270000
   1 F :   -0.257151
   2 H :   -0.004309
   3 H :   -0.004277
   4 H :   -0.004263

  Mayer bond orders larger than 0.100000
B(  0-C ,  1-F ) :   0.8086 B(  0-C ,  2-H ) :   0.9570 B(  0-C ,  3-H ) :   0.9567
B(  0-C ,  4-H ) :   0.9562

Dispersion correction           -0.001017769
FINAL SINGLE POINT ENERGY      -139.497392941738

DIPOLE MOMENT
-------------
                                X             Y             Z
Electronic contribution:      1.69479      -1.82555       1.54963
Nuclear contribution   :     -2.11402       2.27717      -1.93317
                        -----------------------------------------
Total Dipole Moment    :     -0.41923       0.45161      -0.38355
                        -----------------------------------------
Magnitude (a.u.)       :      0.72582
Magnitude (Debye)      :      1.84489

Rotational constants in cm-1:     5.477728     0.872600     0.872599
Rotational constants in MHz : 164218.159175 26159.886777 26159.859881

                             ****ORCA TERMINATED NORMALLY****
TOTAL RUN TIME: 0 days 0 hours 0 minutes 2 seconds 736 msec
