                         Program Version 5.0.0 -  RELEASE  -
|  1> !PBE0 D3BJ RIJCOSX def2-SVPD def2/J TightSCF
|  2> *xyz 0 1
|  3> C          3.95643        0.50147       -0.37910
|  4> C          3.80389        1.96157       -0.15675
|  5> H          4.20643        2.24441        0.74536
|  6> H          2.80827        2.21132       -0.09610
|  7> H          4.28076        2.50155       -0.89104
|  8> H          3.52890        0.23799       -1.32393
|  9> H          3.45469       -0.03240        0.40073
| 10> H          4.99562        0.24661       -0.37434
| 11> *
| 12>
| 13> %MaxCore 64000
| 14> %pal nprocs 8
| 15> end
| 16>
| 17> %scf
| 18>   MaxIter 150
| 19> end
| 20>
| 21>
| 22>                          ****END OF INPUT****

CARTESIAN COORDINATES (ANGSTROEM)
---------------------------------
  C      3.956430    0.501470   -0.379100
  C      3.803890    1.961570   -0.156750
  H      4.206430    2.244410    0.745360
  H      2.808270    2.211320   -0.096100
  H      4.280760    2.501550   -0.891040
  H      3.528900    0.237990   -1.323930
  H      3.454690   -0.032400    0.400730
  H      4.995620    0.246610   -0.374340

 Total Charge           Charge          ....    0
 Multiplicity           Mult            ....    1
 Number of Electrons    NEL             ....   18
 Basis Dimension        Dim             ....   88

ORBITAL ENERGIES
----------------

  NO   OCC          E(Eh)            E(eV)
   0   2.0000     -10.209107      -277.8039
   1   2.0000     -10.195725      -277.4398
   2   2.0000      -0.786102       -21.3909
   3   2.0000      -0.634811       -17.2741
   4   2.0000      -0.465405       -12.6643
   5   2.0000      -0.458692       -12.4817
   6   2.0000      -0.382260       -10.4018
   7   2.0000      -0.359940        -9.7945
   8   2.0000      -0.353476        -9.6186
   9   0.0000       0.036065         0.9814
  10   0.0000       0.068236         1.8568
  11   0.0000       0.110583         3.0091
  12   0.0000       0.112315         3.0562
  13   0.0000       0.131657         3.5826

MULLIKEN ATOMIC CHARGES
-----------------------
   0 C :    0.069570
   1 C :    0.377313
   2 H :   -0.132101
   3 H :   -0.126786
   4 H :   -0.130217
   5 H :   -0.021995
   6 H :   -0.015821
   7 H :   -0.019962
Sum of atomic charges:    0.0000000

LOEWDIN ATOMIC CHARGES
----------------------
   0 C :    0.069124
   1 C :    0.071541
   2 H :   -0.034141
   3 H :   -0.031914
   4 H :   -0.030109
   5 H :   -0.014953
   6 H :   -0.014446
   7 H :   -0.015103

  Mayer bond orders larger than 0.100000
B(  0-C ,  1-C ) :   1.4769 B(  0-C ,  2-H ) :   0.1443 B(  0-C ,  3-H ) :   0.1509
B(  0-C ,  4-H ) :   0.1494 B(  0-C ,  5-H ) :   0.8902 B(  0-C ,  6-H ) :   0.8898
B(  0-C ,  7-H ) :   0.8937 B(  1-C ,  2-H ) :   0.8216 B(  1-C ,  3-H ) :   0.8271
B(  1-C ,  4-H ) :   0.8361 B(  1-C ,  5-H ) :   0.1310 B(  1-C ,  6-H ) :   0.1317
B(  1-C ,  7-H ) :   0.1295 B(  2-H ,  3-H ) :   0.1087

Dispersion correction           -0.002685153
FINAL SINGLE POINT ENERGY       -79.656314069117

DIPOLE MOMENT
-------------
                                X             Y             Z
Electronic contribution:      0.00217       0.00959      -0.03657
Nuclear contribution   :     -0.00471       0.01526       0.05114
                        -----------------------------------------
Total Dipole Moment    :     -0.00254       0.02485       0.01456
                        -----------------------------------------
Magnitude (a.u.)       :      0.02891
Magnitude (Debye)      :      0.07349

Rotational constants in cm-1:     2.873610     0.717865     0.713933
Rotational constants in MHz : 86148.646881 21521.066032 21403.176468

                             ****ORCA TERMINATED NORMALLY****
TOTAL RUN TIME: 0 days 0 hours 0 minutes 3 seconds 624 msec
