                         Program Version 5.0.0 -  RELEASE  -
|  1> !CAM-B3LYP RIJCOSX def2-SVP def2/J TightSCF
|  2> *xyz -1 1
|  3> C         -5.57236       -5.80780       -0.81644
|  4> S         -6.90318       -4.61903       -0.52846
|  5> O         -8.11485       -5.25093       -0.95701
|  6> O         -6.53271       -3.42684       -1.31485
|  7> O         -6.86563       -4.29496        0.91412
|  8> C         -4.45780       -5.94187        0.22919
|  9> H         -5.17735       -5.54257       -1.79771
| 10> H         -6.07420       -6.76889       -0.92127
| 11> H         -3.75515       -6.68239       -0.09144
| 12> H         -4.88182       -6.23486        1.16689
| 13> H         -3.95908       -5.00189        0.34143
| 14> *
| 15> %MaxCore 64000
| 16>
| 17> %pal nprocs 4
| 18> end
| 19>
| 20> %scf
| 21>   MaxIter 150
| 22> end
| 23>
| 24>                          ****END OF INPUT****

CARTESIAN COORDINATES (ANGSTROEM)
---------------------------------
  C     -5.572360   -5.807800   -0.816440
  S     -6.903180   -4.619030   -0.528460
  O     -8.114850   -5.250930   -0.957010
  O     -6.532710   -3.426840   -1.314850
  O     -6.865630   -4.294960    0.914120
  C     -4.457800   -5.941870    0.229190
  H     -5.177350   -5.542570   -1.797710
  H     -6.074200   -6.768890   -0.921270
  H     -3.755150   -6.682390   -0.091440
  H     -4.881820   -6.234860    1.166890
  H     -3.959080   -5.001890    0.341430

 Total Charge           Charge          ....   -1
 Multiplicity           Mult            ....    1
 Number of Electrons    NEL             ....   58
 Basis Dimension        Dim             ....  113

ORBITAL ENERGIES
----------------

  NO   OCC          E(Eh)            E(eV)
   0   2.0000     -88.919751     -2419.6294
   1   2.0000     -18.958941      -515.8990
   2   2.0000     -18.944162      -515.4969
   3   2.0000     -18.941414      -515.4221
   4   2.0000     -10.114050      -275.2173
   5   2.0000     -10.105766      -274.9919
   6   2.0000      -7.979859      -217.1430
   7   2.0000      -5.949243      -161.8871
   8   2.0000      -5.949129      -161.8840
   9   2.0000      -5.948899      -161.8778
  10   2.0000      -0.981640       -26.7118
  11   2.0000      -0.836181       -22.7536
  12   2.0000      -0.810971       -22.0677
  13   2.0000      -0.699954       -19.0467
  14   2.0000      -0.574127       -15.6228
  15   2.0000      -0.434048       -11.8111
  16   2.0000      -0.380802       -10.3622
  17   2.0000      -0.365265        -9.9394
  18   2.0000      -0.330851        -9.0029
  19   2.0000      -0.308309        -8.3895
  20   2.0000      -0.303055        -8.2466
  21   2.0000      -0.279384        -7.6024
  22   2.0000      -0.273926        -7.4539
  23   2.0000      -0.183795        -5.0013
  24   2.0000      -0.183403        -4.9906
  25   2.0000      -0.151195        -4.1142
  26   2.0000      -0.139880        -3.8063
  27   2.0000      -0.132941        -3.6175
  28   2.0000      -0.095076        -2.5871
  29   0.0000       0.239616         6.5203
  30   0.0000       0.296713         8.0740
  31   0.0000       0.303020         8.2456
  32   0.0000       0.307860         8.3773
  33   0.0000       0.329625         8.9696

MULLIKEN ATOMIC CHARGES
-----------------------
   0 C :   -0.094709
   1 S :    0.878128
   2 O :   -0.564939
   3 O :   -0.616028
   4 O :   -0.609475
   5 C :    0.053604
   6 H :   -0.001984
   7 H :   -0.010176
   8 H :   -0.039871
   9 H :    0.002648
  10 H :    0.002801
Sum of atomic charges:   -1.0000000

LOEWDIN ATOMIC CHARGES
----------------------
   0 C :   -0.188942
   1 S :    1.116443
   2 O :   -0.603856
   3 O :   -0.654284
   4 O :   -0.651494
   5 C :   -0.066498
   6 H :    0.008520
   7 H :    0.004850
   8 H :    0.001405
   9 H :    0.016509
  10 H :    0.017345

  Mayer bond orders larger than 0.100000
B(  0-C ,  1-S ) :   0.8844 B(  0-C ,  5-C ) :   1.0780 B(  0-C ,  6-H ) :   0.9444
B(  0-C ,  7-H ) :   0.9449 B(  1-S ,  2-O ) :   1.6571 B(  1-S ,  3-O ) :   1.6034
B(  1-S ,  4-O ) :   1.6132 B(  5-C ,  8-H ) :   0.9590 B(  5-C ,  9-H ) :   0.9670
B(  5-C , 10-H ) :   0.9694

FINAL SINGLE POINT ENERGY      -702.601582843916

DIPOLE MOMENT
-------------
                                X             Y             Z
Electronic contribution:     -6.76142       4.37461      -0.91351
Nuclear contribution   :      8.13140      -5.68016       0.80206
                        -----------------------------------------
Total Dipole Moment    :      1.36998      -1.30555      -0.11145
                        -----------------------------------------
Magnitude (a.u.)       :      1.89571
Magnitude (Debye)      :      4.81852

Rotational constants in cm-1:     0.162101     0.080498     0.079099
Rotational constants in MHz :  4859.669771  2413.267251  2371.338602

                             ****ORCA TERMINATED NORMALLY****
TOTAL RUN TIME: 0 days 0 hours 0 minutes 18 seconds 593 msec
