                         Program Version 5.0.0 -  RELEASE  -
|  1> !CAM-B3LYP RIJCOSX def2-SVP def2/J TightSCF
|  2> *xyz 1 1
|  3> C         -4.38262       -1.67089        1.21620
|  4> N         -5.76354       -1.91517        0.70501
|  5> C         -3.28173       -2.19127        0.29436
|  6> H         -5.84081       -2.11520       -0.30065
|  7> H         -6.40882       -1.14866        0.93612
|  8> H         -6.17478       -2.79061        1.05143
|  9> H         -4.32862       -2.13922        2.19810
| 10> H         -4.26158       -0.59740        1.35725
| 11> H         -3.36057       -1.71407       -0.66008
| 12> H         -3.38775       -3.24919        0.17403
| 13> H         -2.32559       -1.97514        0.72329
| 14> *
| 15> %MaxCore 64000
| 16>
| 17> %pal nprocs 4
| 18> end
| 19>
| 20> %scf
| 21>   MaxIter 150
| 22> end
| 23>
| 24>                          ****END OF INPUT****

CARTESIAN COORDINATES (ANGSTROEM)
---------------------------------
  C     -4.382620   -1.670890    1.216200
  N     -5.763540   -1.915170    0.705010
  C     -3.281730   -2.191270    0.294360
  H     -5.840810   -2.115200   -0.300650
  H     -6.408820   -1.148660    0.936120
  H     -6.174780   -2.790610    1.051430
  H     -4.328620   -2.139220    2.198100
  H     -4.261580   -0.597400    1.357250
  H     -3.360570   -1.714070   -0.660080
  H     -3.387750   -3.249190    0.174030
  H     -2.325590   -1.975140    0.723290

 Total Charge           Charge          ....    1
 Multiplicity           Mult            ....    1
 Number of Electrons    NEL             ....   26
 Basis Dimension        Dim             ....   82

ORBITAL ENERGIES
----------------

  NO   OCC          E(Eh)            E(eV)
   0   2.0000     -14.743715      -401.1969
   1   2.0000     -10.513044      -286.0745
   2   2.0000     -10.433702      -283.9155
   3   2.0000      -1.291941       -35.1555
   4   2.0000      -1.042478       -28.3673
   5   2.0000      -0.923372       -25.1262
   6   2.0000      -0.870916       -23.6988
   7   2.0000      -0.849727       -23.1222
   8   2.0000      -0.772999       -21.0344
   9   2.0000      -0.709698       -19.3119
  10   2.0000      -0.649746       -17.6805
  11   2.0000      -0.632251       -17.2044
  12   2.0000      -0.613377       -16.6908
  13   0.0000      -0.143046        -3.8925
  14   0.0000      -0.085615        -2.3297
  15   0.0000      -0.080940        -2.2025
  16   0.0000      -0.048341        -1.3154
  17   0.0000      -0.003475        -0.0946

MULLIKEN ATOMIC CHARGES
-----------------------
   0 C :   -0.023589
   1 N :    0.007327
   2 C :   -0.016911
   3 H :    0.202451
   4 H :    0.221691
   5 H :    0.209268
   6 H :    0.097098
   7 H :    0.097749
   8 H :    0.058571
   9 H :    0.054989
  10 H :    0.091357
Sum of atomic charges:    1.0000000

LOEWDIN ATOMIC CHARGES
----------------------
   0 C :    0.052354
   1 N :    0.285544
   2 C :   -0.038293
   3 H :    0.145399
   4 H :    0.151666
   5 H :    0.149099
   6 H :    0.055317
   7 H :    0.055774
   8 H :    0.040100
   9 H :    0.038884
  10 H :    0.064157

  Mayer bond orders larger than 0.100000
B(  0-C ,  1-N ) :   0.9063 B(  0-C ,  2-C ) :   1.1027 B(  0-C ,  6-H ) :   0.9564
B(  0-C ,  7-H ) :   0.9583 B(  1-N ,  3-H ) :   0.9348 B(  1-N ,  4-H ) :   0.9341
B(  1-N ,  5-H ) :   0.9366 B(  2-C ,  8-H ) :   0.9678 B(  2-C ,  9-H ) :   0.9721
B(  2-C , 10-H ) :   0.9580

FINAL SINGLE POINT ENERGY      -135.347987577010

DIPOLE MOMENT
-------------
                                X             Y             Z
Electronic contribution:     -1.87313       0.23823       0.30118
Nuclear contribution   :      0.19437      -0.25358      -0.32106
                        -----------------------------------------
Total Dipole Moment    :     -1.67876      -0.01535      -0.01988
                        -----------------------------------------
Magnitude (a.u.)       :      1.67895
Magnitude (Debye)      :      4.26756

Rotational constants in cm-1:     1.030014     0.272489     0.242697
Rotational constants in MHz : 30879.030706  8169.007780  7275.865152

                             ****ORCA TERMINATED NORMALLY****
TOTAL RUN TIME: 0 days 0 hours 0 minutes 13 seconds 271 msec
