                         Program Version 5.0.0 -  RELEASE  -
|  1> !CAM-B3LYP RIJCOSX def2-SVP def2/J TightSCF
|  2> *xyz 0 1
|  3> C         -5.57236       -5.80780       -0.81644
|  4> S         -6.90318       -4.61903       -0.52846
|  5> F         -8.11485       -5.25093       -0.95701
|  6> O         -6.53271       -3.42684       -1.31485
|  7> O         -6.86563       -4.29496        0.91412
|  8> C         -4.45780       -5.94187        0.22919
|  9> H         -5.17735       -5.54257       -1.79771
| 10> H         -6.07420       -6.76889       -0.92127
| 11> H         -3.75515       -6.68239       -0.09144
| 12> H         -4.88182       -6.23486        1.16689
| 13> H         -3.95908       -5.00189        0.34143
| 14> *
| 15> %MaxCore 64000
| 16>
| 17> %pal nprocs 4
| 18> end
| 19>
| 20> %scf
| 21>   MaxIter 150
| 22> end
| 23>
| 24>                          ****END OF INPUT****

CARTESIAN COORDINATES (ANGSTROEM)
---------------------------------
  C     -5.572360   -5.807800   -0.816440
  S     -6.903180   -4.619030   -0.528460
  F     -8.114850   -5.250930   -0.957010
  O     -6.532710   -3.426840   -1.314850
  O     -6.865630   -4.294960    0.914120
  C     -4.457800   -5.941870    0.229190
  H     -5.177350   -5.542570   -1.797710
  H     -6.074200   -6.768890   -0.921270
  H     -3.755150   -6.682390   -0.091440
  H     -4.881820   -6.234860    1.166890
  H     -3.959080   -5.001890    0.341430

 Total Charge           Charge          ....    0
 Multiplicity           Mult            ....    1
 Number of Electrons    NEL             ....   58
 Basis Dimension        Dim             ....  113

ORBITAL ENERGIES
----------------

  NO   OCC          E(Eh)            E(eV)
   0   2.0000     -89.195100     -2427.1221
   1   2.0000     -24.881723      -677.0661
   2   2.0000     -19.197098      -522.3796
   3   2.0000     -19.195978      -522.3491
   4   2.0000     -10.318846      -280.7901
   5   2.0000     -10.280749      -279.7534
   6   2.0000      -8.257660      -224.7024
   7   2.0000      -6.231204      -169.5597
   8   2.0000      -6.224322      -169.3724
   9   2.0000      -6.223423      -169.3479
  10   2.0000      -1.460811       -39.7507
  11   2.0000      -1.167057       -31.7572
  12   2.0000      -1.060570       -28.8596
  13   2.0000      -0.898535       -24.4504
  14   2.0000      -0.811180       -22.0733
  15   2.0000      -0.752724       -20.4827
  16   2.0000      -0.663955       -18.0671
  17   2.0000      -0.661389       -17.9973
  18   2.0000      -0.619408       -16.8550
  19   2.0000      -0.563067       -15.3218
  20   2.0000      -0.542599       -14.7649
  21   2.0000      -0.505118       -13.7450
  22   2.0000      -0.489599       -13.3227
  23   2.0000      -0.471295       -12.8246
  24   2.0000      -0.455386       -12.3917
  25   2.0000      -0.436048       -11.8655
  26   2.0000      -0.377674       -10.2770
  27   2.0000      -0.375157       -10.2085
  28   2.0000      -0.351861        -9.5746
  29   0.0000       0.080915         2.2018
  30   0.0000       0.085528         2.3273
  31   0.0000       0.121930         3.3179
  32   0.0000       0.138606         3.7716
  33   0.0000       0.141189         3.8419

MULLIKEN ATOMIC CHARGES
-----------------------
   0 C :   -0.139659
   1 S :    0.953727
   2 F :   -0.161139
   3 O :   -0.472313
   4 O :   -0.470094
   5 C :    0.045370
   6 H :    0.075473
   7 H :    0.048027
   8 H :    0.032126
   9 H :    0.040916
  10 H :    0.047566
Sum of atomic charges:   -0.0000000

LOEWDIN ATOMIC CHARGES
----------------------
   0 C :   -0.152729
   1 S :    1.171926
   2 F :   -0.109823
   3 O :   -0.521722
   4 O :   -0.522353
   5 C :   -0.041633
   6 H :    0.041929
   7 H :    0.028160
   8 H :    0.035912
   9 H :    0.033766
  10 H :    0.036566

  Mayer bond orders larger than 0.100000
B(  0-C ,  1-S ) :   0.9096 B(  0-C ,  5-C ) :   1.0822 B(  0-C ,  6-H ) :   0.9362
B(  0-C ,  7-H ) :   0.9365 B(  1-S ,  2-F ) :   1.0406 B(  1-S ,  3-O ) :   1.7523
B(  1-S ,  4-O ) :   1.7594 B(  5-C ,  8-H ) :   0.9611 B(  5-C ,  9-H ) :   0.9686
B(  5-C , 10-H ) :   0.9729

FINAL SINGLE POINT ENERGY      -727.101445598596

DIPOLE MOMENT
-------------
                                X             Y             Z
Electronic contribution:     -9.44927       3.57074      -1.87300
Nuclear contribution   :      9.80704      -5.24335       1.35017
                        -----------------------------------------
Total Dipole Moment    :      0.35776      -1.67261      -0.52282
                        -----------------------------------------
Magnitude (a.u.)       :      1.78857
Magnitude (Debye)      :      4.54617

Rotational constants in cm-1:     0.156316     0.078308     0.076228
Rotational constants in MHz :  4686.224999  2347.601204  2285.245115

                             ****ORCA TERMINATED NORMALLY****
TOTAL RUN TIME: 0 days 0 hours 0 minutes 19 seconds 5 msec
