                         Program Version 5.0.0 -  RELEASE  -
|  1> !CAM-B3LYP RIJCOSX def2-SVP def2/J TightSCF
|  2> *xyz 0 1
|  3> C         -4.38262       -1.67089        1.21620
|  4> C         -5.76354       -1.91517        0.70501
|  5> C         -3.28173       -2.19127        0.29436
|  6> H         -5.84081       -2.11520       -0.30065
|  7> H         -6.40882       -1.14866        0.93612
|  8> H         -6.17478       -2.79061        1.05143
|  9> H         -4.32862       -2.13922        2.19810
| 10> H         -4.26158       -0.59740        1.35725
| 11> H         -3.36057       -1.71407       -0.66008
| 12> H         -3.38775       -3.24919        0.17403
| 13> H         -2.32559       -1.97514        0.72329
| 14> *
| 15> %MaxCore 64000
| 16>
| 17> %pal nprocs 4
| 18> end
| 19>
| 20> %scf
| 21>   MaxIter 150
| 22> end
| 23>
| 24>                          ****END OF INPUT****

CARTESIAN COORDINATES (ANGSTROEM)
---------------------------------
  C     -4.382620   -1.670890    1.216200
  C     -5.763540   -1.915170    0.705010
  C     -3.281730   -2.191270    0.294360
  H     -5.840810   -2.115200   -0.300650
  H     -6.408820   -1.148660    0.936120
  H     -6.174780   -2.790610    1.051430
  H     -4.328620   -2.139220    2.198100
  H     -4.261580   -0.597400    1.357250
  H     -3.360570   -1.714070   -0.660080
  H     -3.387750   -3.249190    0.174030
  H     -2.325590   -1.975140    0.723290

 Total Charge           Charge          ....    0
 Multiplicity           Mult            ....    1
 Number of Electrons    NEL             ....   26
 Basis Dimension        Dim             ....   82

ORBITAL ENERGIES
----------------

  NO   OCC          E(Eh)            E(eV)
   0   2.0000     -10.244322      -278.7622
   1   2.0000     -10.237434      -278.5747
   2   2.0000     -10.219926      -278.0983
   3   2.0000      -0.862671       -23.4745
   4   2.0000      -0.764009       -20.7897
   5   2.0000      -0.659660       -17.9503
   6   2.0000      -0.531431       -14.4610
   7   2.0000      -0.509652       -13.8683
   8   2.0000      -0.476393       -12.9633
   9   2.0000      -0.450689       -12.2639
  10   2.0000      -0.404296       -11.0014
  11   2.0000      -0.397140       -10.8067
  12   2.0000      -0.383911       -10.4467
  13   0.0000       0.105126         2.8606
  14   0.0000       0.153425         4.1749
  15   0.0000       0.155057         4.2193
  16   0.0000       0.157756         4.2927
  17   0.0000       0.192643         5.2421

MULLIKEN ATOMIC CHARGES
-----------------------
   0 C :   -0.057208
   1 C :    0.077889
   2 C :    0.020618
   3 H :   -0.027219
   4 H :   -0.011006
   5 H :   -0.021858
   6 H :    0.002404
   7 H :    0.000579
   8 H :    0.007001
   9 H :    0.004405
  10 H :    0.004394
Sum of atomic charges:   -0.0000000

LOEWDIN ATOMIC CHARGES
----------------------
   0 C :   -0.038909
   1 C :   -0.053066
   2 C :   -0.050579
   3 H :    0.014009
   4 H :    0.016597
   5 H :    0.016337
   6 H :    0.020041
   7 H :    0.018544
   8 H :    0.019070
   9 H :    0.018130
  10 H :    0.019828

  Mayer bond orders larger than 0.100000
B(  0-C ,  1-C ) :   1.0958 B(  0-C ,  2-C ) :   1.1054 B(  0-C ,  6-H ) :   0.9596
B(  0-C ,  7-H ) :   0.9631 B(  1-C ,  3-H ) :   0.9646 B(  1-C ,  4-H ) :   0.9665
B(  1-C ,  5-H ) :   0.9605 B(  2-C ,  8-H ) :   0.9731 B(  2-C ,  9-H ) :   0.9765
B(  2-C , 10-H ) :   0.9707

FINAL SINGLE POINT ENERGY      -118.951688231367

DIPOLE MOMENT
-------------
                                X             Y             Z
Electronic contribution:      0.18447       0.23427       0.33159
Nuclear contribution   :     -0.21528      -0.24783      -0.32864
                        -----------------------------------------
Total Dipole Moment    :     -0.03081      -0.01355       0.00295
                        -----------------------------------------
Magnitude (a.u.)       :      0.03379
Magnitude (Debye)      :      0.08588

Rotational constants in cm-1:     1.037566     0.286459     0.254172
Rotational constants in MHz : 31105.431429  8587.814531  7619.871198

                             ****ORCA TERMINATED NORMALLY****
TOTAL RUN TIME: 0 days 0 hours 0 minutes 11 seconds 606 msec
