                         Program Version 5.0.0 -  RELEASE  -
|  1> !CAM-B3LYP RIJCOSX def2-SVP def2/J TightSCF
|  2> *xyz 0 1
|  3> C         -5.57236       -5.80780       -0.81644
|  4> S         -6.90318       -4.61903       -0.52846
|  5> O         -8.11485       -5.25093       -0.95701
|  6> F         -6.53271       -3.42684       -1.31485
|  7> O         -6.86563       -4.29496        0.91412
|  8> C         -4.45780       -5.94187        0.22919
|  9> H         -5.17735       -5.54257       -1.79771
| 10> H         -6.07420       -6.76889       -0.92127
| 11> H         -3.75515       -6.68239       -0.09144
| 12> H         -4.88182       -6.23486        1.16689
| 13> H         -3.95908       -5.00189        0.34143
| 14> *
| 15> %MaxCore 64000
| 16>
| 17> %pal nprocs 4
| 18> end
| 19>
| 20> %scf
| 21>   MaxIter 150
| 22> end
| 23>
| 24>                          ****END OF INPUT****

CARTESIAN COORDINATES (ANGSTROEM)
---------------------------------
  C     -5.572360   -5.807800   -0.816440
  S     -6.903180   -4.619030   -0.528460
  O     -8.114850   -5.250930   -0.957010
  F     -6.532710   -3.426840   -1.314850
  O     -6.865630   -4.294960    0.914120
  C     -4.457800   -5.941870    0.229190
  H     -5.177350   -5.542570   -1.797710
  H     -6.074200   -6.768890   -0.921270
  H     -3.755150   -6.682390   -0.091440
  H     -4.881820   -6.234860    1.166890
  H     -3.959080   -5.001890    0.341430

 Total Charge           Charge          ....    0
 Multiplicity           Mult            ....    1
 Number of Electrons    NEL             ....   58
 Basis Dimension        Dim             ....  113

ORBITAL ENERGIES
----------------

  NO   OCC          E(Eh)            E(eV)
   0   2.0000     -89.194092     -2427.0946
   1   2.0000     -24.858944      -676.4463
   2   2.0000     -19.212722      -522.8047
   3   2.0000     -19.197528      -522.3913
   4   2.0000     -10.318211      -280.7728
   5   2.0000     -10.280544      -279.7478
   6   2.0000      -8.256415      -224.6685
   7   2.0000      -6.229771      -169.5207
   8   2.0000      -6.223346      -169.3459
   9   2.0000      -6.222404      -169.3202
  10   2.0000      -1.422664       -38.7127
  11   2.0000      -1.184904       -32.2429
  12   2.0000      -1.077885       -29.3307
  13   2.0000      -0.898481       -24.4489
  14   2.0000      -0.797733       -21.7074
  15   2.0000      -0.743641       -20.2355
  16   2.0000      -0.649187       -17.6653
  17   2.0000      -0.634336       -17.2612
  18   2.0000      -0.614270       -16.7151
  19   2.0000      -0.560623       -15.2553
  20   2.0000      -0.545680       -14.8487
  21   2.0000      -0.515903       -14.0384
  22   2.0000      -0.494185       -13.4475
  23   2.0000      -0.468665       -12.7530
  24   2.0000      -0.463265       -12.6061
  25   2.0000      -0.442489       -12.0407
  26   2.0000      -0.392564       -10.6822
  27   2.0000      -0.379816       -10.3353
  28   2.0000      -0.365812        -9.9542
  29   0.0000       0.079601         2.1661
  30   0.0000       0.088864         2.4181
  31   0.0000       0.120702         3.2845
  32   0.0000       0.136737         3.7208
  33   0.0000       0.146914         3.9977

MULLIKEN ATOMIC CHARGES
-----------------------
   0 C :   -0.146978
   1 S :    0.962526
   2 O :   -0.427793
   3 F :   -0.206099
   4 O :   -0.474598
   5 C :    0.042562
   6 H :    0.056906
   7 H :    0.082358
   8 H :    0.030757
   9 H :    0.049162
  10 H :    0.031199
Sum of atomic charges:   -0.0000000

LOEWDIN ATOMIC CHARGES
----------------------
   0 C :   -0.154280
   1 S :    1.178573
   2 O :   -0.476914
   3 F :   -0.155031
   4 O :   -0.525552
   5 C :   -0.047798
   6 H :    0.031808
   7 H :    0.047928
   8 H :    0.035090
   9 H :    0.036185
  10 H :    0.029990

  Mayer bond orders larger than 0.100000
B(  0-C ,  1-S ) :   0.9085 B(  0-C ,  5-C ) :   1.0713 B(  0-C ,  6-H ) :   0.9368
B(  0-C ,  7-H ) :   0.9414 B(  1-S ,  2-O ) :   1.8086 B(  1-S ,  3-F ) :   0.9897
B(  1-S ,  4-O ) :   1.7651 B(  5-C ,  8-H ) :   0.9603 B(  5-C ,  9-H ) :   0.9699
B(  5-C , 10-H ) :   0.9731

FINAL SINGLE POINT ENERGY      -727.121868940366

DIPOLE MOMENT
-------------
                                X             Y             Z
Electronic contribution:     -6.74455       6.70114      -2.50528
Nuclear contribution   :      8.15840      -7.14411       1.72305
                        -----------------------------------------
Total Dipole Moment    :      1.41385      -0.44296      -0.78222
                        -----------------------------------------
Magnitude (a.u.)       :      1.67543
Magnitude (Debye)      :      4.25860

Rotational constants in cm-1:     0.153926     0.078297     0.077402
Rotational constants in MHz :  4614.585804  2347.272644  2320.438903

                             ****ORCA TERMINATED NORMALLY****
TOTAL RUN TIME: 0 days 0 hours 0 minutes 18 seconds 682 msec
