                         Program Version 5.0.0 -  RELEASE  -
|  1> !CAM-B3LYP RIJCOSX def2-SVP def2/J TightSCF
|  2> *xyz 0 1
|  3> C         -5.57236       -5.80780       -0.81644
|  4> S         -6.90318       -4.61903       -0.52846
|  5> O         -8.11485       -5.25093       -0.95701
|  6> O         -6.53271       -3.42684       -1.31485
|  7> F         -6.86563       -4.29496        0.91412
|  8> C         -4.45780       -5.94187        0.22919
|  9> H         -5.17735       -5.54257       -1.79771
| 10> H         -6.07420       -6.76889       -0.92127
| 11> H         -3.75515       -6.68239       -0.09144
| 12> H         -4.88182       -6.23486        1.16689
| 13> H         -3.95908       -5.00189        0.34143
| 14> *
| 15> %MaxCore 64000
| 16>
| 17> %pal nprocs 4
| 18> end
| 19>
| 20> %scf
| 21>   MaxIter 150
| 22> end
| 23>
| 24>                          ****END OF INPUT****

CARTESIAN COORDINATES (ANGSTROEM)
---------------------------------
  C     -5.572360   -5.807800   -0.816440
  S     -6.903180   -4.619030   -0.528460
  O     -8.114850   -5.250930   -0.957010
  O     -6.532710   -3.426840   -1.314850
  F     -6.865630   -4.294960    0.914120
  C     -4.457800   -5.941870    0.229190
  H     -5.177350   -5.542570   -1.797710
  H     -6.074200   -6.768890   -0.921270
  H     -3.755150   -6.682390   -0.091440
  H     -4.881820   -6.234860    1.166890
  H     -3.959080   -5.001890    0.341430

 Total Charge           Charge          ....    0
 Multiplicity           Mult            ....    1
 Number of Electrons    NEL             ....   58
 Basis Dimension        Dim             ....  113

ORBITAL ENERGIES
----------------

  NO   OCC          E(Eh)            E(eV)
   0   2.0000     -89.193081     -2427.0671
   1   2.0000     -24.858565      -676.4359
   2   2.0000     -19.212186      -522.7901
   3   2.0000     -19.195187      -522.3276
   4   2.0000     -10.317317      -280.7485
   5   2.0000     -10.288160      -279.9551
   6   2.0000      -8.255468      -224.6427
   7   2.0000      -6.228910      -169.4973
   8   2.0000      -6.222418      -169.3206
   9   2.0000      -6.221358      -169.2918
  10   2.0000      -1.420224       -38.6463
  11   2.0000      -1.185030       -32.2463
  12   2.0000      -1.077733       -29.3266
  13   2.0000      -0.901599       -24.5338
  14   2.0000      -0.794819       -21.6281
  15   2.0000      -0.748573       -20.3697
  16   2.0000      -0.655157       -17.8277
  17   2.0000      -0.633826       -17.2473
  18   2.0000      -0.604854       -16.4589
  19   2.0000      -0.566574       -15.4173
  20   2.0000      -0.539389       -14.6775
  21   2.0000      -0.517322       -14.0770
  22   2.0000      -0.502444       -13.6722
  23   2.0000      -0.478375       -13.0172
  24   2.0000      -0.462624       -12.5886
  25   2.0000      -0.444216       -12.0877
  26   2.0000      -0.392592       -10.6830
  27   2.0000      -0.377591       -10.2748
  28   2.0000      -0.364489        -9.9183
  29   0.0000       0.065405         1.7798
  30   0.0000       0.107946         2.9373
  31   0.0000       0.129234         3.5166
  32   0.0000       0.133375         3.6293
  33   0.0000       0.144465         3.9311

MULLIKEN ATOMIC CHARGES
-----------------------
   0 C :   -0.134123
   1 S :    0.962064
   2 O :   -0.427273
   3 O :   -0.478188
   4 F :   -0.206920
   5 C :    0.012232
   6 H :    0.088745
   7 H :    0.070011
   8 H :    0.040068
   9 H :    0.032131
  10 H :    0.041253
Sum of atomic charges:    0.0000000

LOEWDIN ATOMIC CHARGES
----------------------
   0 C :   -0.149440
   1 S :    1.179081
   2 O :   -0.476832
   3 O :   -0.527351
   4 F :   -0.156540
   5 C :   -0.056098
   6 H :    0.050521
   7 H :    0.039234
   8 H :    0.038705
   9 H :    0.027640
  10 H :    0.031079

  Mayer bond orders larger than 0.100000
B(  0-C ,  1-S ) :   0.9199 B(  0-C ,  5-C ) :   1.0655 B(  0-C ,  6-H ) :   0.9382
B(  0-C ,  7-H ) :   0.9412 B(  1-S ,  2-O ) :   1.8071 B(  1-S ,  3-O ) :   1.7572
B(  1-S ,  4-F ) :   0.9904 B(  5-C ,  8-H ) :   0.9627 B(  5-C ,  9-H ) :   0.9744
B(  5-C , 10-H ) :   0.9734

FINAL SINGLE POINT ENERGY      -727.121559193070

DIPOLE MOMENT
-------------
                                X             Y             Z
Electronic contribution:     -7.28443       5.18658       1.31784
Nuclear contribution   :      8.50531      -6.23950      -0.59960
                        -----------------------------------------
Total Dipole Moment    :      1.22088      -1.05292       0.71824
                        -----------------------------------------
Magnitude (a.u.)       :      1.76495
Magnitude (Debye)      :      4.48616

Rotational constants in cm-1:     0.152799     0.080212     0.076962
Rotational constants in MHz :  4580.804531  2404.707790  2307.252710

                             ****ORCA TERMINATED NORMALLY****
TOTAL RUN TIME: 0 days 0 hours 0 minutes 19 seconds 925 msec
