                         Program Version 5.0.0 -  RELEASE  -
|  1> !CAM-B3LYP RIJCOSX def2-TZVP def2/J TightSCF xyzfile
|  2>
|  3> *xyzfile 0 1 D1.xyz
|  4>
|  5> %MaxCore 64000
|  6>
|  7> %pal nprocs 18
|  8> end
|  9>
| 10> %scf
| 11>   MaxIter 150
| 12> end
| 13>
| 14>
| 15>                          ****END OF INPUT****

CARTESIAN COORDINATES (ANGSTROEM)
---------------------------------
  C     -4.382623   -1.670889    1.216201
  C     -5.763539   -1.915170    0.705012
  C     -3.281728   -2.191272    0.294361
  C     -5.572364   -5.807798   -0.816445
  S     -6.903179   -4.619033   -0.528458
  H     -5.840812   -2.115205   -0.300646
  H     -6.408823   -1.148656    0.936124
  H     -6.174781   -2.790606    1.051433
  F     -8.114853   -5.250932   -0.957007
  O     -6.532715   -3.426838   -1.314848
  H     -4.328618   -2.139223    2.198103
  H     -4.261583   -0.597399    1.357248
  O     -6.865632   -4.294957    0.914118
  C     -3.474641   -3.605898   -0.259608
  H     -2.354548   -2.127602    0.871433
  H     -3.166611   -1.499693   -0.545037
  C     -3.827078   -4.661097    0.786174
  H     -2.560559   -3.889391   -0.788050
  H     -4.255932   -3.570040   -1.019300
  C     -4.457800   -5.941875    0.229195
  H     -5.177347   -5.542575   -1.797714
  H     -6.074202   -6.768894   -0.921272
  H     -4.530506   -4.253640    1.511979
  H     -2.933400   -4.932302    1.356825
  H     -3.681064   -6.562236   -0.229885
  H     -4.843942   -6.512728    1.075805

 Total Charge           Charge          ....    0
 Multiplicity           Mult            ....    1
 Number of Electrons    NEL             ....   98
 Basis Dimension        Dim             ....  437

ORBITAL ENERGIES
----------------

  NO   OCC          E(Eh)            E(eV)
   0   2.0000     -89.188393     -2426.9396
   1   2.0000     -24.890848      -677.3144
   2   2.0000     -19.210810      -522.7527
   3   2.0000     -19.209670      -522.7217
   4   2.0000     -10.310586      -280.5653
   5   2.0000     -10.272044      -279.5165
   6   2.0000     -10.238532      -278.6046
   7   2.0000     -10.227648      -278.3084
   8   2.0000     -10.219234      -278.0795
   9   2.0000     -10.204611      -277.6816
  10   2.0000     -10.146144      -276.0906
  11   2.0000      -8.232281      -224.0117
  12   2.0000      -6.199989      -168.7103
  13   2.0000      -6.193712      -168.5395
  14   2.0000      -6.193305      -168.5284
  15   2.0000      -1.484362       -40.3915
  16   2.0000      -1.191577       -32.4245
  17   2.0000      -1.092503       -29.7285
  18   2.0000      -0.920437       -25.0464
  19   2.0000      -0.878871       -23.9153
  20   2.0000      -0.836494       -22.7622
  21   2.0000      -0.809158       -22.0183
  22   2.0000      -0.772155       -21.0114
  23   2.0000      -0.724955       -19.7270
  24   2.0000      -0.690753       -18.7963
  25   2.0000      -0.679231       -18.4828
  26   2.0000      -0.663510       -18.0550
  27   2.0000      -0.629961       -17.1421
  28   2.0000      -0.615496       -16.7485
  29   2.0000      -0.568310       -15.4645
  30   2.0000      -0.566482       -15.4148
  31   2.0000      -0.542126       -14.7520
  32   2.0000      -0.538238       -14.6462
  33   2.0000      -0.511001       -13.9050
  34   2.0000      -0.502737       -13.6802
  35   2.0000      -0.485449       -13.2097
  36   2.0000      -0.478298       -13.0151
  37   2.0000      -0.453996       -12.3539
  38   2.0000      -0.446214       -12.1421
  39   2.0000      -0.442598       -12.0437
  40   2.0000      -0.412426       -11.2227
  41   2.0000      -0.407788       -11.0965
  42   2.0000      -0.402214       -10.9448
  43   2.0000      -0.397411       -10.8141
  44   2.0000      -0.388838       -10.5808
  45   2.0000      -0.374889       -10.2012
  46   2.0000      -0.357191        -9.7197
  47   2.0000      -0.351107        -9.5541
  48   2.0000      -0.329552        -8.9676
  49   0.0000       0.052986         1.4418
  50   0.0000       0.061486         1.6731
  51   0.0000       0.088924         2.4197
  52   0.0000       0.090849         2.4721
  53   0.0000       0.095126         2.5885

MULLIKEN ATOMIC CHARGES
-----------------------
   0 C :   -0.183545
   1 C :   -0.434862
   2 C :   -0.190165
   3 C :   -0.333109
   4 S :    0.910804
   5 H :    0.150183
   6 H :    0.099669
   7 H :    0.156028
   8 F :   -0.094488
   9 O :   -0.445165
  10 H :    0.094553
  11 H :    0.090372
  12 O :   -0.444258
  13 C :   -0.215126
  14 H :    0.088748
  15 H :    0.100703
  16 C :   -0.259529
  17 H :    0.095083
  18 H :    0.133718
  19 C :   -0.165236
  20 H :    0.177388
  21 H :    0.156338
  22 H :    0.156479
  23 H :    0.107764
  24 H :    0.122239
  25 H :    0.125415
Sum of atomic charges:   -0.0000000

LOEWDIN ATOMIC CHARGES
----------------------
   0 C :   -0.305204
   1 C :   -0.334744
   2 C :   -0.268099
   3 C :   -0.368553
   4 S :    0.572740
   5 H :    0.106862
   6 H :    0.101391
   7 H :    0.096848
   8 F :    0.110221
   9 O :   -0.283009
  10 H :    0.128666
  11 H :    0.131613
  12 O :   -0.276136
  13 C :   -0.270555
  14 H :    0.131633
  15 H :    0.135952
  16 C :   -0.265934
  17 H :    0.132063
  18 H :    0.137620
  19 C :   -0.272636
  20 H :    0.146507
  21 H :    0.137348
  22 H :    0.146358
  23 H :    0.137554
  24 H :    0.147125
  25 H :    0.144371

  Mayer bond orders larger than 0.100000
B(  0-C ,  1-C ) :   0.8846 B(  0-C ,  2-C ) :   0.9531 B(  0-C , 10-H ) :   0.9899
B(  0-C , 11-H ) :   0.9819 B(  1-C ,  5-H ) :   0.9859 B(  1-C ,  6-H ) :   0.9868
B(  1-C ,  7-H ) :   0.9741 B(  2-C , 13-C ) :   0.9608 B(  2-C , 14-H ) :   0.9872
B(  2-C , 15-H ) :   0.9792 B(  3-C ,  4-S ) :   0.9174 B(  3-C , 19-C ) :   0.9310
B(  3-C , 20-H ) :   0.9428 B(  3-C , 21-H ) :   0.9506 B(  4-S ,  8-F ) :   1.1621
B(  4-S ,  9-O ) :   1.8438 B(  4-S , 12-O ) :   1.8261 B( 13-C , 16-C ) :   0.9156
B( 13-C , 17-H ) :   0.9774 B( 13-C , 18-H ) :   0.9766 B( 16-C , 19-C ) :   0.9510
B( 16-C , 22-H ) :   0.9817 B( 16-C , 23-H ) :   0.9729 B( 19-C , 24-H ) :   0.9612
B( 19-C , 25-H ) :   0.9816

FINAL SINGLE POINT ENERGY      -924.168860445617

DIPOLE MOMENT
-------------
                                X             Y             Z
Electronic contribution:    -18.98002      -8.70731      -6.74909
Nuclear contribution   :     19.08524       6.89775       6.14221
                        -----------------------------------------
Total Dipole Moment    :      0.10522      -1.80956      -0.60688
                        -----------------------------------------
Magnitude (a.u.)       :      1.91152
Magnitude (Debye)      :      4.85869

Rotational constants in cm-1:     0.049343     0.024787     0.019726
Rotational constants in MHz :  1479.262779   743.087234   591.370705

                             ****ORCA TERMINATED NORMALLY****
TOTAL RUN TIME: 0 days 0 hours 1 minutes 13 seconds 816 msec
