                         Program Version 5.0.0 -  RELEASE  -
|  1> !CAM-B3LYP RIJCOSX def2-TZVP def2/J TightSCF xyzfile
|  2>
|  3> *xyzfile 0 1 D2.xyz
|  4>
|  5> %MaxCore 64000
|  6>
|  7> %pal nprocs 18
|  8> end
|  9>
| 10> %scf
| 11>   MaxIter 150
| 12> end
| 13>
| 14>
| 15>                          ****END OF INPUT****

CARTESIAN COORDINATES (ANGSTROEM)
---------------------------------
  C     -4.382623   -1.670889    1.216201
  C     -5.763539   -1.915170    0.705012
  C     -3.281728   -2.191272    0.294361
  C     -5.572364   -5.807798   -0.816445
  S     -6.903179   -4.619033   -0.528458
  H     -5.840812   -2.115205   -0.300646
  H     -6.408823   -1.148656    0.936124
  H     -6.174781   -2.790606    1.051433
  O     -8.114853   -5.250932   -0.957007
  F     -6.532715   -3.426838   -1.314848
  H     -4.328618   -2.139223    2.198103
  H     -4.261583   -0.597399    1.357248
  O     -6.865632   -4.294957    0.914118
  C     -3.474641   -3.605898   -0.259608
  H     -2.354548   -2.127602    0.871433
  H     -3.166611   -1.499693   -0.545037
  C     -3.827078   -4.661097    0.786174
  H     -2.560559   -3.889391   -0.788050
  H     -4.255932   -3.570040   -1.019300
  C     -4.457800   -5.941875    0.229195
  H     -5.177347   -5.542575   -1.797714
  H     -6.074202   -6.768894   -0.921272
  H     -4.530506   -4.253640    1.511979
  H     -2.933400   -4.932302    1.356825
  H     -3.681064   -6.562236   -0.229885
  H     -4.843942   -6.512728    1.075805

 Total Charge           Charge          ....    0
 Multiplicity           Mult            ....    1
 Number of Electrons    NEL             ....   98
 Basis Dimension        Dim             ....  437

ORBITAL ENERGIES
----------------

  NO   OCC          E(Eh)            E(eV)
   0   2.0000     -89.183450     -2426.8050
   1   2.0000     -24.867266      -676.6727
   2   2.0000     -19.220644      -523.0203
   3   2.0000     -19.206480      -522.6349
   4   2.0000     -10.308796      -280.5166
   5   2.0000     -10.271860      -279.5115
   6   2.0000     -10.245929      -278.8059
   7   2.0000     -10.244405      -278.7644
   8   2.0000     -10.233541      -278.4688
   9   2.0000     -10.220236      -278.1068
  10   2.0000     -10.169693      -276.7314
  11   2.0000      -8.227394      -223.8788
  12   2.0000      -6.195271      -168.5819
  13   2.0000      -6.188901      -168.4085
  14   2.0000      -6.188245      -168.3907
  15   2.0000      -1.450559       -39.4717
  16   2.0000      -1.201102       -32.6836
  17   2.0000      -1.104475       -30.0543
  18   2.0000      -0.923245       -25.1228
  19   2.0000      -0.888262       -24.1708
  20   2.0000      -0.838676       -22.8215
  21   2.0000      -0.811552       -22.0834
  22   2.0000      -0.774036       -21.0626
  23   2.0000      -0.736467       -20.0403
  24   2.0000      -0.695448       -18.9241
  25   2.0000      -0.660703       -17.9786
  26   2.0000      -0.648683       -17.6516
  27   2.0000      -0.631360       -17.1802
  28   2.0000      -0.629786       -17.1373
  29   2.0000      -0.571551       -15.5527
  30   2.0000      -0.562681       -15.3113
  31   2.0000      -0.542756       -14.7692
  32   2.0000      -0.535000       -14.5581
  33   2.0000      -0.527249       -14.3472
  34   2.0000      -0.507956       -13.8222
  35   2.0000      -0.493625       -13.4322
  36   2.0000      -0.474436       -12.9101
  37   2.0000      -0.464987       -12.6529
  38   2.0000      -0.459357       -12.4998
  39   2.0000      -0.455042       -12.3823
  40   2.0000      -0.426111       -11.5951
  41   2.0000      -0.421332       -11.4650
  42   2.0000      -0.419476       -11.4145
  43   2.0000      -0.403156       -10.9704
  44   2.0000      -0.393014       -10.6945
  45   2.0000      -0.386443       -10.5156
  46   2.0000      -0.375555       -10.2194
  47   2.0000      -0.374293       -10.1850
  48   2.0000      -0.340758        -9.2725
  49   0.0000       0.053895         1.4666
  50   0.0000       0.066299         1.8041
  51   0.0000       0.078262         2.1296
  52   0.0000       0.082625         2.2483
  53   0.0000       0.095887         2.6092

MULLIKEN ATOMIC CHARGES
-----------------------
   0 C :   -0.186491
   1 C :   -0.453849
   2 C :   -0.193875
   3 C :   -0.348522
   4 S :    0.920024
   5 H :    0.100807
   6 H :    0.114302
   7 H :    0.189970
   8 O :   -0.406979
   9 F :   -0.127178
  10 H :    0.105364
  11 H :    0.097403
  12 O :   -0.450710
  13 C :   -0.211966
  14 H :    0.097356
  15 H :    0.104813
  16 C :   -0.272756
  17 H :    0.107105
  18 H :    0.095072
  19 C :   -0.151679
  20 H :    0.165237
  21 H :    0.182181
  22 H :    0.161847
  23 H :    0.111839
  24 H :    0.119013
  25 H :    0.131672
Sum of atomic charges:   -0.0000000

LOEWDIN ATOMIC CHARGES
----------------------
   0 C :   -0.301631
   1 C :   -0.336666
   2 C :   -0.267702
   3 C :   -0.365352
   4 S :    0.580038
   5 H :    0.096229
   6 H :    0.105397
   7 H :    0.097762
   8 O :   -0.254051
   9 F :    0.068812
  10 H :    0.132407
  11 H :    0.133643
  12 O :   -0.276010
  13 C :   -0.270773
  14 H :    0.134915
  15 H :    0.135999
  16 C :   -0.267699
  17 H :    0.135710
  18 H :    0.126840
  19 C :   -0.274978
  20 H :    0.138555
  21 H :    0.151218
  22 H :    0.146637
  23 H :    0.138778
  24 H :    0.145522
  25 H :    0.146400

  Mayer bond orders larger than 0.100000
B(  0-C ,  1-C ) :   0.8830 B(  0-C ,  2-C ) :   0.9469 B(  0-C , 10-H ) :   0.9908
B(  0-C , 11-H ) :   0.9825 B(  1-C ,  5-H ) :   0.9944 B(  1-C ,  6-H ) :   0.9843
B(  1-C ,  7-H ) :   0.9638 B(  2-C , 13-C ) :   0.9550 B(  2-C , 14-H ) :   0.9860
B(  2-C , 15-H ) :   0.9814 B(  3-C ,  4-S ) :   0.9176 B(  3-C , 19-C ) :   0.9184
B(  3-C , 20-H ) :   0.9490 B(  3-C , 21-H ) :   0.9510 B(  4-S ,  8-O ) :   1.9969
B(  4-S ,  9-F ) :   1.0880 B(  4-S , 12-O ) :   1.7976 B( 13-C , 16-C ) :   0.9169
B( 13-C , 17-H ) :   0.9786 B( 13-C , 18-H ) :   0.9874 B( 16-C , 19-C ) :   0.9437
B( 16-C , 22-H ) :   0.9819 B( 16-C , 23-H ) :   0.9710 B( 19-C , 24-H ) :   0.9596
B( 19-C , 25-H ) :   0.9783

FINAL SINGLE POINT ENERGY      -924.187136742093

DIPOLE MOMENT
-------------
                                X             Y             Z
Electronic contribution:    -15.97154      -5.38135      -7.23570
Nuclear contribution   :     17.25367       4.78608       6.55647
                        -----------------------------------------
Total Dipole Moment    :      1.28213      -0.59527      -0.67923
                        -----------------------------------------
Magnitude (a.u.)       :      1.56830
Magnitude (Debye)      :      3.98630

Rotational constants in cm-1:     0.048508     0.025517     0.020225
Rotational constants in MHz :  1454.219007   764.979652   606.316599

                             ****ORCA TERMINATED NORMALLY****
TOTAL RUN TIME: 0 days 0 hours 1 minutes 16 seconds 402 msec
