                         Program Version 5.0.0 -  RELEASE  -
|  1> !CAM-B3LYP RIJCOSX def2-TZVP def2/J TightSCF xyzfile
|  2>
|  3> *xyzfile 0 1 D3.xyz
|  4>
|  5> %MaxCore 64000
|  6>
|  7> %pal nprocs 18
|  8> end
|  9>
| 10> %scf
| 11>   MaxIter 150
| 12> end
| 13>
| 14>
| 15>                          ****END OF INPUT****

CARTESIAN COORDINATES (ANGSTROEM)
---------------------------------
  C     -4.382623   -1.670889    1.216201
  C     -5.763539   -1.915170    0.705012
  C     -3.281728   -2.191272    0.294361
  C     -5.572364   -5.807798   -0.816445
  S     -6.903179   -4.619033   -0.528458
  H     -5.840812   -2.115205   -0.300646
  H     -6.408823   -1.148656    0.936124
  H     -6.174781   -2.790606    1.051433
  O     -8.114853   -5.250932   -0.957007
  O     -6.532715   -3.426838   -1.314848
  H     -4.328618   -2.139223    2.198103
  H     -4.261583   -0.597399    1.357248
  F     -6.865632   -4.294957    0.914118
  C     -3.474641   -3.605898   -0.259608
  H     -2.354548   -2.127602    0.871433
  H     -3.166611   -1.499693   -0.545037
  C     -3.827078   -4.661097    0.786174
  H     -2.560559   -3.889391   -0.788050
  H     -4.255932   -3.570040   -1.019300
  C     -4.457800   -5.941875    0.229195
  H     -5.177347   -5.542575   -1.797714
  H     -6.074202   -6.768894   -0.921272
  H     -4.530506   -4.253640    1.511979
  H     -2.933400   -4.932302    1.356825
  H     -3.681064   -6.562236   -0.229885
  H     -4.843942   -6.512728    1.075805

 Total Charge           Charge          ....    0
 Multiplicity           Mult            ....    1
 Number of Electrons    NEL             ....   98
 Basis Dimension        Dim             ....  437

ORBITAL ENERGIES
----------------

  NO   OCC          E(Eh)            E(eV)
   0   2.0000     -89.182548     -2426.7805
   1   2.0000     -24.867181      -676.6704
   2   2.0000     -19.220213      -523.0086
   3   2.0000     -19.204579      -522.5831
   4   2.0000     -10.307948      -280.4935
   5   2.0000     -10.276752      -279.6446
   6   2.0000     -10.252852      -278.9943
   7   2.0000     -10.237594      -278.5791
   8   2.0000     -10.230727      -278.3922
   9   2.0000     -10.220696      -278.1193
  10   2.0000     -10.171628      -276.7841
  11   2.0000      -8.226570      -223.8563
  12   2.0000      -6.194603      -168.5637
  13   2.0000      -6.187825      -168.3793
  14   2.0000      -6.187506      -168.3706
  15   2.0000      -1.450054       -39.4580
  16   2.0000      -1.201125       -32.6843
  17   2.0000      -1.103164       -30.0186
  18   2.0000      -0.926160       -25.2021
  19   2.0000      -0.887158       -24.1408
  20   2.0000      -0.838526       -22.8175
  21   2.0000      -0.811009       -22.0687
  22   2.0000      -0.774982       -21.0883
  23   2.0000      -0.736202       -20.0331
  24   2.0000      -0.699503       -19.0344
  25   2.0000      -0.663752       -18.0616
  26   2.0000      -0.657292       -17.8858
  27   2.0000      -0.628377       -17.0990
  28   2.0000      -0.619109       -16.8468
  29   2.0000      -0.569486       -15.4965
  30   2.0000      -0.563407       -15.3311
  31   2.0000      -0.546737       -14.8775
  32   2.0000      -0.530336       -14.4312
  33   2.0000      -0.522774       -14.2254
  34   2.0000      -0.516634       -14.0583
  35   2.0000      -0.496351       -13.5064
  36   2.0000      -0.474734       -12.9182
  37   2.0000      -0.462848       -12.5947
  38   2.0000      -0.458139       -12.4666
  39   2.0000      -0.457866       -12.4592
  40   2.0000      -0.427844       -11.6422
  41   2.0000      -0.421643       -11.4735
  42   2.0000      -0.413583       -11.2542
  43   2.0000      -0.399156       -10.8616
  44   2.0000      -0.397870       -10.8266
  45   2.0000      -0.388200       -10.5635
  46   2.0000      -0.370591       -10.0843
  47   2.0000      -0.368150       -10.0179
  48   2.0000      -0.352229        -9.5846
  49   0.0000       0.043556         1.1852
  50   0.0000       0.074265         2.0208
  51   0.0000       0.082251         2.2382
  52   0.0000       0.085840         2.3358
  53   0.0000       0.097496         2.6530

MULLIKEN ATOMIC CHARGES
-----------------------
   0 C :   -0.186161
   1 C :   -0.442214
   2 C :   -0.193472
   3 C :   -0.317538
   4 S :    0.915134
   5 H :    0.183268
   6 H :    0.115922
   7 H :    0.095866
   8 O :   -0.405749
   9 O :   -0.454518
  10 H :    0.097303
  11 H :    0.100112
  12 F :   -0.128467
  13 C :   -0.215314
  14 H :    0.094023
  15 H :    0.107234
  16 C :   -0.273733
  17 H :    0.102271
  18 H :    0.145600
  19 C :   -0.201492
  20 H :    0.179626
  21 H :    0.174748
  22 H :    0.133010
  23 H :    0.117234
  24 H :    0.123767
  25 H :    0.133539
Sum of atomic charges:    0.0000000

LOEWDIN ATOMIC CHARGES
----------------------
   0 C :   -0.303177
   1 C :   -0.336796
   2 C :   -0.266851
   3 C :   -0.359173
   4 S :    0.579554
   5 H :    0.111035
   6 H :    0.105760
   7 H :    0.089452
   8 O :   -0.254214
   9 O :   -0.285351
  10 H :    0.128718
  11 H :    0.134762
  12 F :    0.071034
  13 C :   -0.270749
  14 H :    0.133224
  15 H :    0.138105
  16 C :   -0.270052
  17 H :    0.134726
  18 H :    0.139663
  19 C :   -0.283712
  20 H :    0.151087
  21 H :    0.145923
  22 H :    0.137793
  23 H :    0.140207
  24 H :    0.147240
  25 H :    0.141790

  Mayer bond orders larger than 0.100000
B(  0-C ,  1-C ) :   0.8808 B(  0-C ,  2-C ) :   0.9506 B(  0-C , 10-H ) :   0.9894
B(  0-C , 11-H ) :   0.9826 B(  1-C ,  5-H ) :   0.9786 B(  1-C ,  6-H ) :   0.9845
B(  1-C ,  7-H ) :   0.9926 B(  2-C , 13-C ) :   0.9571 B(  2-C , 14-H ) :   0.9879
B(  2-C , 15-H ) :   0.9792 B(  3-C ,  4-S ) :   0.9158 B(  3-C , 19-C ) :   0.9305
B(  3-C , 20-H ) :   0.9442 B(  3-C , 21-H ) :   0.9528 B(  4-S ,  8-O ) :   1.9968
B(  4-S ,  9-O ) :   1.8171 B(  4-S , 12-F ) :   1.0783 B( 13-C , 16-C ) :   0.8958
B( 13-C , 17-H ) :   0.9755 B( 13-C , 18-H ) :   0.9768 B( 16-C , 19-C ) :   0.9323
B( 16-C , 22-H ) :   0.9974 B( 16-C , 23-H ) :   0.9732 B( 19-C , 24-H ) :   0.9602
B( 19-C , 25-H ) :   0.9882

FINAL SINGLE POINT ENERGY      -924.186545426790

DIPOLE MOMENT
-------------
                                X             Y             Z
Electronic contribution:    -16.53102      -6.87342      -3.44270
Nuclear contribution   :     17.63907       5.79106       3.97609
                        -----------------------------------------
Total Dipole Moment    :      1.10805      -1.08236       0.53340
                        -----------------------------------------
Magnitude (a.u.)       :      1.63823
Magnitude (Debye)      :      4.16404

Rotational constants in cm-1:     0.048663     0.025472     0.020259
Rotational constants in MHz :  1458.892793   763.621130   607.350055

                             ****ORCA TERMINATED NORMALLY****
TOTAL RUN TIME: 0 days 0 hours 1 minutes 10 seconds 820 msec
