                         Program Version 5.0.0 -  RELEASE  -
|  1> !LC-PBE RIJCOSX def2-TZVP def2/J TightSCF
|  2> *xyz -1 1
|  3> C          3.76678       -2.26611       -6.51175
|  4> C          2.49670       -1.84416       -5.73570
|  5> H          1.62642       -2.21743       -6.30895
|  6> H          2.48182       -2.45607       -4.79341
|  7> O          2.45973       -0.50920       -5.50576
|  8> H          3.82914       -1.70941       -7.42340
|  9> H          3.71764       -3.31144       -6.73483
| 10> H          4.63199       -2.06931       -5.91377
| 11> *
| 12>
| 13> %MaxCore 64000
| 14>
| 15> %pal nprocs 4
| 16> end
| 17>
| 18> %scf
| 19>   MaxIter 150
| 20> end
| 21>
| 22>
| 23>                          ****END OF INPUT****

CARTESIAN COORDINATES (ANGSTROEM)
---------------------------------
  C      3.766780   -2.266110   -6.511750
  C      2.496700   -1.844160   -5.735700
  H      1.626420   -2.217430   -6.308950
  H      2.481820   -2.456070   -4.793410
  O      2.459730   -0.509200   -5.505760
  H      3.829140   -1.709410   -7.423400
  H      3.717640   -3.311440   -6.734830
  H      4.631990   -2.069310   -5.913770

 Total Charge           Charge          ....   -1
 Multiplicity           Mult            ....    1
 Number of Electrons    NEL             ....   26
 Basis Dimension        Dim             ....  123

ORBITAL ENERGIES
----------------

  NO   OCC          E(Eh)            E(eV)
   0   2.0000     -18.611893      -506.4553
   1   2.0000      -9.919085      -269.9120
   2   2.0000      -9.895968      -269.2830
   3   2.0000      -0.834815       -22.7165
   4   2.0000      -0.686626       -18.6840
   5   2.0000      -0.520233       -14.1563
   6   2.0000      -0.386838       -10.5264
   7   2.0000      -0.360022        -9.7967
   8   2.0000      -0.300755        -8.1840
   9   2.0000      -0.280783        -7.6405
  10   2.0000      -0.233843        -6.3632
  11   2.0000      -0.080417        -2.1883
  12   2.0000      -0.078191        -2.1277
  13   0.0000       0.298585         8.1249
  14   0.0000       0.335875         9.1396
  15   0.0000       0.361169         9.8279
  16   0.0000       0.366752         9.9798
  17   0.0000       0.399415        10.8686

MULLIKEN ATOMIC CHARGES
-----------------------
   0 C :   -0.312412
   1 C :   -0.005998
   2 H :   -0.036769
   3 H :   -0.048115
   4 O :   -0.772510
   5 H :    0.074670
   6 H :    0.026976
   7 H :    0.074158
Sum of atomic charges:   -1.0000000

LOEWDIN ATOMIC CHARGES
----------------------
   0 C :   -0.385010
   1 C :   -0.587843
   2 H :    0.061678
   3 H :    0.061420
   4 O :   -0.430212
   5 H :    0.097778
   6 H :    0.084899
   7 H :    0.097290

  Mayer bond orders larger than 0.100000
B(  0-C ,  1-C ) :   0.9052 B(  0-C ,  4-O ) :  -0.1407 B(  0-C ,  5-H ) :   0.9755
B(  0-C ,  6-H ) :   0.9545 B(  0-C ,  7-H ) :   0.9790 B(  1-C ,  2-H ) :   0.9460
B(  1-C ,  3-H ) :   0.9377 B(  1-C ,  4-O ) :   1.5831

FINAL SINGLE POINT ENERGY      -154.003583967229

DIPOLE MOMENT
-------------
                                X             Y             Z
Electronic contribution:     -1.02942       2.51868       0.93198
Nuclear contribution   :      1.63615      -3.79938      -1.48621
                        -----------------------------------------
Total Dipole Moment    :      0.60673      -1.28070      -0.55423
                        -----------------------------------------
Magnitude (a.u.)       :      1.52168
Magnitude (Debye)      :      3.86779

Rotational constants in cm-1:     1.265582     0.329289     0.289024
Rotational constants in MHz : 37941.194363  9871.829581  8664.719106

                             ****ORCA TERMINATED NORMALLY****
TOTAL RUN TIME: 0 days 0 hours 0 minutes 22 seconds 285 msec
