                         Program Version 5.0.0 -  RELEASE  -
|  1> !LC-PBE RIJCOSX def2-TZVP def2/J TightSCF
|  2> *xyz 1 1
|  3> C          4.99986       -1.59613       -5.92488
|  4> N          5.28156       -1.97413       -4.53576
|  5> C          3.76678       -2.26611       -6.51175
|  6> C          4.79250       -1.36132       -3.45730
|  7> N          3.93990       -0.37492       -3.55736
|  8> N          5.25986       -1.75422       -2.23913
|  9> H          5.92282       -2.52145       -2.18672
| 10> H          4.65468       -1.64040       -1.44202
| 11> H          5.70914       -2.87560       -4.38702
| 12> H          3.33010       -0.31764       -4.36125
| 13> H          3.69849        0.11447       -2.70833
| 14> H          4.84333       -0.51793       -5.94302
| 15> H          5.90170       -1.82250       -6.49647
| 16> H          3.63046       -1.94025       -7.52177
| 17> H          2.90710       -2.00116       -5.93240
| 18> H          3.89538       -3.32820       -6.49392
| 19> *
| 20>
| 21> %MaxCore 64000
| 22>
| 23> %pal nprocs 4
| 24> end
| 25>
| 26> %scf
| 27>   MaxIter 150
| 28> end
| 29>
| 30>
| 31>                          ****END OF INPUT****

CARTESIAN COORDINATES (ANGSTROEM)
---------------------------------
  C      4.999860   -1.596130   -5.924880
  N      5.281560   -1.974130   -4.535760
  C      3.766780   -2.266110   -6.511750
  C      4.792500   -1.361320   -3.457300
  N      3.939900   -0.374920   -3.557360
  N      5.259860   -1.754220   -2.239130
  H      5.922820   -2.521450   -2.186720
  H      4.654680   -1.640400   -1.442020
  H      5.709140   -2.875600   -4.387020
  H      3.330100   -0.317640   -4.361250
  H      3.698490    0.114470   -2.708330
  H      4.843330   -0.517930   -5.943020
  H      5.901700   -1.822500   -6.496470
  H      3.630460   -1.940250   -7.521770
  H      2.907100   -2.001160   -5.932400
  H      3.895380   -3.328200   -6.493920

 Total Charge           Charge          ....    1
 Multiplicity           Mult            ....    1
 Number of Electrons    NEL             ....   48
 Basis Dimension        Dim             ....  246

ORBITAL ENERGIES
----------------

  NO   OCC          E(Eh)            E(eV)
   0   2.0000     -14.443244      -393.0206
   1   2.0000     -14.440939      -392.9579
   2   2.0000     -14.433342      -392.7512
   3   2.0000     -10.460997      -284.6582
   4   2.0000     -10.321535      -280.8632
   5   2.0000     -10.251579      -278.9597
   6   2.0000      -1.396976       -38.0136
   7   2.0000      -1.278485       -34.7893
   8   2.0000      -1.262391       -34.3514
   9   2.0000      -1.105891       -30.0928
  10   2.0000      -1.001542       -27.2533
  11   2.0000      -0.963131       -26.2081
  12   2.0000      -0.942183       -25.6381
  13   2.0000      -0.889812       -24.2130
  14   2.0000      -0.839469       -22.8431
  15   2.0000      -0.833503       -22.6808
  16   2.0000      -0.784017       -21.3342
  17   2.0000      -0.782034       -21.2802
  18   2.0000      -0.748704       -20.3733
  19   2.0000      -0.701098       -19.0778
  20   2.0000      -0.666857       -18.1461
  21   2.0000      -0.644865       -17.5477
  22   2.0000      -0.614305       -16.7161
  23   2.0000      -0.579455       -15.7678
  24   0.0000      -0.082052        -2.2327
  25   0.0000      -0.060110        -1.6357
  26   0.0000      -0.031290        -0.8514
  27   0.0000      -0.020796        -0.5659
  28   0.0000       0.001585         0.0431

MULLIKEN ATOMIC CHARGES
-----------------------
   0 C :   -0.344716
   1 N :   -0.237888
   2 C :   -0.368756
   3 C :    0.408851
   4 N :   -0.415333
   5 N :   -0.449677
   6 H :    0.299802
   7 H :    0.301320
   8 H :    0.279702
   9 H :    0.317914
  10 H :    0.303236
  11 H :    0.202930
  12 H :    0.206836
  13 H :    0.196511
  14 H :    0.125945
  15 H :    0.173324
Sum of atomic charges:    1.0000000

LOEWDIN ATOMIC CHARGES
----------------------
   0 C :   -0.301110
   1 N :    0.164761
   2 C :   -0.307569
   3 C :   -0.403509
   4 N :    0.082388
   5 N :    0.029376
   6 H :    0.200333
   7 H :    0.195756
   8 H :    0.212488
   9 H :    0.206500
  10 H :    0.208471
  11 H :    0.151933
  12 H :    0.158061
  13 H :    0.145111
  14 H :    0.122463
  15 H :    0.134546

  Mayer bond orders larger than 0.100000
B(  0-C ,  1-N ) :   0.8752 B(  0-C ,  2-C ) :   0.9618 B(  0-C , 11-H ) :   0.9710
B(  0-C , 12-H ) :   0.9536 B(  1-N ,  3-C ) :   1.3865 B(  1-N ,  8-H ) :   0.8990
B(  2-C , 13-H ) :   0.9672 B(  2-C , 14-H ) :   0.9504 B(  2-C , 15-H ) :   0.9657
B(  3-C ,  4-N ) :   1.3485 B(  3-C ,  5-N ) :   1.2864 B(  4-N ,  9-H ) :   0.8782
B(  4-N , 10-H ) :   0.8916 B(  5-N ,  6-H ) :   0.8967 B(  5-N ,  7-H ) :   0.8890

FINAL SINGLE POINT ENERGY      -283.598873186188

DIPOLE MOMENT
-------------
                                X             Y             Z
Electronic contribution:      1.73858       1.07524       4.76047
Nuclear contribution   :     -1.95709      -1.20097      -3.70214
                        -----------------------------------------
Total Dipole Moment    :     -0.21851      -0.12573       1.05834
                        -----------------------------------------
Magnitude (a.u.)       :      1.08795
Magnitude (Debye)      :      2.76535

Rotational constants in cm-1:     0.241661     0.071598     0.061743
Rotational constants in MHz :  7244.800091  2146.442409  1851.001864

                             ****ORCA TERMINATED NORMALLY****
TOTAL RUN TIME: 0 days 0 hours 0 minutes 42 seconds 531 msec
