                         Program Version 5.0.0 -  RELEASE  -
|  1> !LC-PBE RIJCOSX def2-TZVP def2/J TightSCF
|  2> *xyz 0 1
|  3> C          3.76678       -2.26611       -6.51175
|  4> C          2.49670       -1.84416       -5.73570
|  5> H          1.62642       -2.21743       -6.30895
|  6> H          2.48182       -2.45607       -4.79341
|  7> F          2.45973       -0.50920       -5.50576
|  8> H          3.82914       -1.70941       -7.42340
|  9> H          3.71764       -3.31144       -6.73483
| 10> H          4.63199       -2.06931       -5.91377
| 11> *
| 12>
| 13> %MaxCore 64000
| 14>
| 15> %pal nprocs 4
| 16> end
| 17>
| 18> %scf
| 19>   MaxIter 150
| 20> end
| 21>
| 22>
| 23>                          ****END OF INPUT****

CARTESIAN COORDINATES (ANGSTROEM)
---------------------------------
  C      3.766780   -2.266110   -6.511750
  C      2.496700   -1.844160   -5.735700
  H      1.626420   -2.217430   -6.308950
  H      2.481820   -2.456070   -4.793410
  F      2.459730   -0.509200   -5.505760
  H      3.829140   -1.709410   -7.423400
  H      3.717640   -3.311440   -6.734830
  H      4.631990   -2.069310   -5.913770

 Total Charge           Charge          ....    0
 Multiplicity           Mult            ....    1
 Number of Electrons    NEL             ....   26
 Basis Dimension        Dim             ....  123

ORBITAL ENERGIES
----------------

  NO   OCC          E(Eh)            E(eV)
   0   2.0000     -24.475518      -666.0127
   1   2.0000     -10.195163      -277.4245
   2   2.0000     -10.107469      -275.0382
   3   2.0000      -1.359803       -37.0021
   4   2.0000      -0.937682       -25.5156
   5   2.0000      -0.794122       -21.6092
   6   2.0000      -0.659997       -17.9594
   7   2.0000      -0.648854       -17.6562
   8   2.0000      -0.608482       -16.5576
   9   2.0000      -0.545673       -14.8485
  10   2.0000      -0.536282       -14.5930
  11   2.0000      -0.466653       -12.6983
  12   2.0000      -0.459297       -12.4981
  13   0.0000       0.126100         3.4314
  14   0.0000       0.165064         4.4916
  15   0.0000       0.185164         5.0386
  16   0.0000       0.193165         5.2563
  17   0.0000       0.203398         5.5347

MULLIKEN ATOMIC CHARGES
-----------------------
   0 C :   -0.430109
   1 C :   -0.038434
   2 H :    0.117701
   3 H :    0.114648
   4 F :   -0.204107
   5 H :    0.149990
   6 H :    0.141399
   7 H :    0.148912
Sum of atomic charges:   -0.0000000

LOEWDIN ATOMIC CHARGES
----------------------
   0 C :   -0.332291
   1 C :   -0.408395
   2 H :    0.122793
   3 H :    0.126306
   4 F :    0.118215
   5 H :    0.123654
   6 H :    0.126882
   7 H :    0.122837

  Mayer bond orders larger than 0.100000
B(  0-C ,  1-C ) :   0.9826 B(  0-C ,  5-H ) :   0.9672 B(  0-C ,  6-H ) :   0.9585
B(  0-C ,  7-H ) :   0.9686 B(  1-C ,  2-H ) :   0.9728 B(  1-C ,  3-H ) :   0.9724
B(  1-C ,  4-F ) :   1.0226

FINAL SINGLE POINT ENERGY      -178.630457408302

DIPOLE MOMENT
-------------
                                X             Y             Z
Electronic contribution:     -2.08047       4.30808       1.80908
Nuclear contribution   :      2.16248      -5.01128      -1.96962
                        -----------------------------------------
Total Dipole Moment    :      0.08201      -0.70320      -0.16054
                        -----------------------------------------
Magnitude (a.u.)       :      0.72594
Magnitude (Debye)      :      1.84520

Rotational constants in cm-1:     1.244010     0.306580     0.270375
Rotational constants in MHz : 37294.476802  9191.037795  8105.639967

                             ****ORCA TERMINATED NORMALLY****
TOTAL RUN TIME: 0 days 0 hours 0 minutes 11 seconds 714 msec
