                         Program Version 5.0.0 -  RELEASE  -
|  1> !LC-PBE RIJCOSX def2-TZVP def2/J TightSCF
|  2> *xyz 0 1
|  3> C          4.99986       -1.59613       -5.92488
|  4> C          5.28156       -1.97413       -4.53576
|  5> C          3.76678       -2.26611       -6.51175
|  6> C          4.79250       -1.36132       -3.45730
|  7> N          3.93990       -0.37492       -3.55736
|  8> N          5.25986       -1.75422       -2.23913
|  9> H          5.92282       -2.52145       -2.18672
| 10> H          4.65468       -1.64040       -1.44202
| 11> H          5.70914       -2.87560       -4.38702
| 12> H          3.33010       -0.31764       -4.36125
| 13> H          3.69849        0.11447       -2.70833
| 14> H          4.84333       -0.51793       -5.94302
| 15> H          5.90170       -1.82250       -6.49647
| 16> H          3.63046       -1.94025       -7.52177
| 17> H          2.90710       -2.00116       -5.93240
| 18> H          3.89538       -3.32820       -6.49392
| 19> *
| 20>
| 21> %MaxCore 64000
| 22>
| 23> %pal nprocs 4
| 24> end
| 25>
| 26> %scf
| 27>   MaxIter 150
| 28> end
| 29>
| 30>
| 31>                          ****END OF INPUT****

CARTESIAN COORDINATES (ANGSTROEM)
---------------------------------
  C      4.999860   -1.596130   -5.924880
  C      5.281560   -1.974130   -4.535760
  C      3.766780   -2.266110   -6.511750
  C      4.792500   -1.361320   -3.457300
  N      3.939900   -0.374920   -3.557360
  N      5.259860   -1.754220   -2.239130
  H      5.922820   -2.521450   -2.186720
  H      4.654680   -1.640400   -1.442020
  H      5.709140   -2.875600   -4.387020
  H      3.330100   -0.317640   -4.361250
  H      3.698490    0.114470   -2.708330
  H      4.843330   -0.517930   -5.943020
  H      5.901700   -1.822500   -6.496470
  H      3.630460   -1.940250   -7.521770
  H      2.907100   -2.001160   -5.932400
  H      3.895380   -3.328200   -6.493920

 Total Charge           Charge          ....    0
 Multiplicity           Mult            ....    1
 Number of Electrons    NEL             ....   48
 Basis Dimension        Dim             ....  246

ORBITAL ENERGIES
----------------

  NO   OCC          E(Eh)            E(eV)
   0   2.0000     -14.215524      -386.8241
   1   2.0000     -14.207329      -386.6011
   2   2.0000     -10.161191      -276.5001
   3   2.0000     -10.085916      -274.4517
   4   2.0000     -10.079604      -274.2800
   5   2.0000     -10.035768      -273.0871
   6   2.0000      -1.138803       -30.9884
   7   2.0000      -1.038351       -28.2550
   8   2.0000      -0.950791       -25.8723
   9   2.0000      -0.862319       -23.4649
  10   2.0000      -0.774006       -21.0618
  11   2.0000      -0.730617       -19.8811
  12   2.0000      -0.694094       -18.8873
  13   2.0000      -0.650335       -17.6965
  14   2.0000      -0.616062       -16.7639
  15   2.0000      -0.585424       -15.9302
  16   2.0000      -0.555749       -15.1227
  17   2.0000      -0.539816       -14.6891
  18   2.0000      -0.519630       -14.1398
  19   2.0000      -0.486637       -13.2421
  20   2.0000      -0.454512       -12.3679
  21   2.0000      -0.445057       -12.1106
  22   2.0000      -0.399157       -10.8616
  23   2.0000      -0.277303        -7.5458
  24   0.0000       0.105502         2.8709
  25   0.0000       0.133737         3.6392
  26   0.0000       0.149813         4.0766
  27   0.0000       0.164754         4.4832
  28   0.0000       0.174004         4.7349

MULLIKEN ATOMIC CHARGES
-----------------------
   0 C :   -0.364637
   1 C :   -0.400770
   2 C :   -0.362003
   3 C :    0.354796
   4 N :   -0.501612
   5 N :   -0.520329
   6 H :    0.262840
   7 H :    0.231048
   8 H :    0.131300
   9 H :    0.274438
  10 H :    0.240956
  11 H :    0.137166
  12 H :    0.134864
  13 H :    0.137445
  14 H :    0.106446
  15 H :    0.138052
Sum of atomic charges:   -0.0000000

LOEWDIN ATOMIC CHARGES
----------------------
   0 C :   -0.326354
   1 C :   -0.287052
   2 C :   -0.327810
   3 C :   -0.466924
   4 N :   -0.001935
   5 N :   -0.049752
   6 H :    0.180129
   7 H :    0.157577
   8 H :    0.122844
   9 H :    0.184023
  10 H :    0.173317
  11 H :    0.142342
  12 H :    0.144833
  13 H :    0.117971
  14 H :    0.114527
  15 H :    0.122265

  Mayer bond orders larger than 0.100000
B(  0-C ,  1-C ) :   1.0060 B(  0-C ,  2-C ) :   0.9367 B(  0-C , 11-H ) :   0.9920
B(  0-C , 12-H ) :   0.9902 B(  1-C ,  3-C ) :   1.6491 B(  1-C ,  8-H ) :   0.9913
B(  2-C , 13-H ) :   0.9852 B(  2-C , 14-H ) :   0.9712 B(  2-C , 15-H ) :   0.9796
B(  3-C ,  4-N ) :   1.1189 B(  3-C ,  5-N ) :   1.1166 B(  4-N ,  9-H ) :   0.9126
B(  4-N , 10-H ) :   0.9261 B(  5-N ,  6-H ) :   0.9222 B(  5-N ,  7-H ) :   0.9225

FINAL SINGLE POINT ENERGY      -267.134753771142

DIPOLE MOMENT
-------------
                                X             Y             Z
Electronic contribution:      1.18399       1.39081       4.55495
Nuclear contribution   :     -1.82485      -1.28952      -3.74132
                        -----------------------------------------
Total Dipole Moment    :     -0.64086       0.10129       0.81364
                        -----------------------------------------
Magnitude (a.u.)       :      1.04066
Magnitude (Debye)      :      2.64514

Rotational constants in cm-1:     0.245790     0.071632     0.062004
Rotational constants in MHz :  7368.599517  2147.482078  1858.844841

                             ****ORCA TERMINATED NORMALLY****
TOTAL RUN TIME: 0 days 0 hours 0 minutes 42 seconds 675 msec
