                         Program Version 5.0.0 -  RELEASE  -
|  1> !LC-PBE RIJCOSX def2-TZVP def2/J TightSCF
|  2> *xyz 0 1
|  3> C          4.99986       -1.59613       -5.92488
|  4> N          5.28156       -1.97413       -4.53576
|  5> C          3.76678       -2.26611       -6.51175
|  6> C          4.79250       -1.36132       -3.45730
|  7> C          3.93990       -0.37492       -3.55736
|  8> N          5.25986       -1.75422       -2.23913
|  9> H          5.92282       -2.52145       -2.18672
| 10> H          4.65468       -1.64040       -1.44202
| 11> H          5.70914       -2.87560       -4.38702
| 12> H          3.33010       -0.31764       -4.36125
| 13> H          3.69849        0.11447       -2.70833
| 14> H          4.84333       -0.51793       -5.94302
| 15> H          5.90170       -1.82250       -6.49647
| 16> H          3.63046       -1.94025       -7.52177
| 17> H          2.90710       -2.00116       -5.93240
| 18> H          3.89538       -3.32820       -6.49392
| 19> *
| 20>
| 21> %MaxCore 64000
| 22>
| 23> %pal nprocs 4
| 24> end
| 25>
| 26> %scf
| 27>   MaxIter 150
| 28> end
| 29>
| 30>
| 31>                          ****END OF INPUT****

CARTESIAN COORDINATES (ANGSTROEM)
---------------------------------
  C      4.999860   -1.596130   -5.924880
  N      5.281560   -1.974130   -4.535760
  C      3.766780   -2.266110   -6.511750
  C      4.792500   -1.361320   -3.457300
  C      3.939900   -0.374920   -3.557360
  N      5.259860   -1.754220   -2.239130
  H      5.922820   -2.521450   -2.186720
  H      4.654680   -1.640400   -1.442020
  H      5.709140   -2.875600   -4.387020
  H      3.330100   -0.317640   -4.361250
  H      3.698490    0.114470   -2.708330
  H      4.843330   -0.517930   -5.943020
  H      5.901700   -1.822500   -6.496470
  H      3.630460   -1.940250   -7.521770
  H      2.907100   -2.001160   -5.932400
  H      3.895380   -3.328200   -6.493920

 Total Charge           Charge          ....    0
 Multiplicity           Mult            ....    1
 Number of Electrons    NEL             ....   48
 Basis Dimension        Dim             ....  246

ORBITAL ENERGIES
----------------

  NO   OCC          E(Eh)            E(eV)
   0   2.0000     -14.215271      -386.8172
   1   2.0000     -14.209122      -386.6499
   2   2.0000     -10.163984      -276.5761
   3   2.0000     -10.145326      -276.0684
   4   2.0000     -10.096456      -274.7385
   5   2.0000     -10.023668      -272.7579
   6   2.0000      -1.139937       -31.0193
   7   2.0000      -1.050192       -28.5772
   8   2.0000      -0.928947       -25.2779
   9   2.0000      -0.885813       -24.1042
  10   2.0000      -0.799412       -21.7531
  11   2.0000      -0.716201       -19.4888
  12   2.0000      -0.692436       -18.8421
  13   2.0000      -0.657175       -17.8826
  14   2.0000      -0.597101       -16.2480
  15   2.0000      -0.588466       -16.0130
  16   2.0000      -0.572031       -15.5657
  17   2.0000      -0.534507       -14.5447
  18   2.0000      -0.518735       -14.1155
  19   2.0000      -0.503497       -13.7008
  20   2.0000      -0.488595       -13.2954
  21   2.0000      -0.476705       -12.9718
  22   2.0000      -0.380520       -10.3545
  23   2.0000      -0.291448        -7.9307
  24   0.0000       0.107190         2.9168
  25   0.0000       0.135681         3.6921
  26   0.0000       0.148784         4.0486
  27   0.0000       0.165280         4.4975
  28   0.0000       0.175674         4.7803

MULLIKEN ATOMIC CHARGES
-----------------------
   0 C :   -0.263677
   1 N :   -0.320438
   2 C :   -0.378866
   3 C :    0.412755
   4 C :   -0.668655
   5 N :   -0.525727
   6 H :    0.234663
   7 H :    0.264622
   8 H :    0.215740
   9 H :    0.151736
  10 H :    0.118127
  11 H :    0.187009
  12 H :    0.148024
  13 H :    0.143984
  14 H :    0.151183
  15 H :    0.129519
Sum of atomic charges:   -0.0000000

LOEWDIN ATOMIC CHARGES
----------------------
   0 C :   -0.317400
   1 N :    0.105924
   2 C :   -0.327964
   3 C :   -0.463181
   4 C :   -0.343051
   5 N :   -0.044251
   6 H :    0.164227
   7 H :    0.175129
   8 H :    0.179119
   9 H :    0.107634
  10 H :    0.107129
  11 H :    0.149695
  12 H :    0.135387
  13 H :    0.125285
  14 H :    0.126700
  15 H :    0.119617

  Mayer bond orders larger than 0.100000
B(  0-C ,  1-N ) :   0.9191 B(  0-C ,  2-C ) :   0.9467 B(  0-C , 11-H ) :   0.9746
B(  0-C , 12-H ) :   0.9781 B(  1-N ,  3-C ) :   1.1478 B(  1-N ,  8-H ) :   0.9312
B(  2-C , 13-H ) :   0.9778 B(  2-C , 14-H ) :   0.9676 B(  2-C , 15-H ) :   0.9746
B(  3-C ,  4-C ) :   1.6169 B(  3-C ,  5-N ) :   1.0809 B(  4-C ,  9-H ) :   0.9891
B(  4-C , 10-H ) :   1.0141 B(  5-N ,  6-H ) :   0.9326 B(  5-N ,  7-H ) :   0.9179

FINAL SINGLE POINT ENERGY      -267.126540175939

DIPOLE MOMENT
-------------
                                X             Y             Z
Electronic contribution:      2.42870      -0.15832       3.51126
Nuclear contribution   :     -2.10948      -0.95026      -3.53375
                        -----------------------------------------
Total Dipole Moment    :      0.31922      -1.10858      -0.02249
                        -----------------------------------------
Magnitude (a.u.)       :      1.15385
Magnitude (Debye)      :      2.93284

Rotational constants in cm-1:     0.255209     0.072067     0.062929
Rotational constants in MHz :  7650.964615  2160.525743  1886.569524

                             ****ORCA TERMINATED NORMALLY****
TOTAL RUN TIME: 0 days 0 hours 0 minutes 40 seconds 161 msec
