                         Program Version 5.0.0 -  RELEASE  -
|  1> !LC-PBE RIJCOSX def2-TZVP def2/J TightSCF
|  2> *xyz 0 1
|  3> C          4.99986       -1.59613       -5.92488
|  4> N          5.28156       -1.97413       -4.53576
|  5> C          3.76678       -2.26611       -6.51175
|  6> C          4.79250       -1.36132       -3.45730
|  7> N          3.93990       -0.37492       -3.55736
|  8> C          5.25986       -1.75422       -2.23913
|  9> H          5.92282       -2.52145       -2.18672
| 10> H          4.65468       -1.64040       -1.44202
| 11> H          5.70914       -2.87560       -4.38702
| 12> H          3.33010       -0.31764       -4.36125
| 13> H          3.69849        0.11447       -2.70833
| 14> H          4.84333       -0.51793       -5.94302
| 15> H          5.90170       -1.82250       -6.49647
| 16> H          3.63046       -1.94025       -7.52177
| 17> H          2.90710       -2.00116       -5.93240
| 18> H          3.89538       -3.32820       -6.49392
| 19> *
| 20>
| 21> %MaxCore 64000
| 22>
| 23> %pal nprocs 4
| 24> end
| 25>
| 26> %scf
| 27>   MaxIter 150
| 28> end
| 29>
| 30>
| 31>                          ****END OF INPUT****

CARTESIAN COORDINATES (ANGSTROEM)
---------------------------------
  C      4.999860   -1.596130   -5.924880
  N      5.281560   -1.974130   -4.535760
  C      3.766780   -2.266110   -6.511750
  C      4.792500   -1.361320   -3.457300
  N      3.939900   -0.374920   -3.557360
  C      5.259860   -1.754220   -2.239130
  H      5.922820   -2.521450   -2.186720
  H      4.654680   -1.640400   -1.442020
  H      5.709140   -2.875600   -4.387020
  H      3.330100   -0.317640   -4.361250
  H      3.698490    0.114470   -2.708330
  H      4.843330   -0.517930   -5.943020
  H      5.901700   -1.822500   -6.496470
  H      3.630460   -1.940250   -7.521770
  H      2.907100   -2.001160   -5.932400
  H      3.895380   -3.328200   -6.493920

 Total Charge           Charge          ....    0
 Multiplicity           Mult            ....    1
 Number of Electrons    NEL             ....   48
 Basis Dimension        Dim             ....  246

ORBITAL ENERGIES
----------------

  NO   OCC          E(Eh)            E(eV)
   0   2.0000     -14.217647      -386.8819
   1   2.0000     -14.216202      -386.8425
   2   2.0000     -10.169662      -276.7306
   3   2.0000     -10.155224      -276.3377
   4   2.0000     -10.108384      -275.0631
   5   2.0000     -10.019187      -272.6359
   6   2.0000      -1.150954       -31.3190
   7   2.0000      -1.060884       -28.8681
   8   2.0000      -0.948909       -25.8211
   9   2.0000      -0.865794       -23.5594
  10   2.0000      -0.790754       -21.5175
  11   2.0000      -0.758253       -20.6331
  12   2.0000      -0.695543       -18.9267
  13   2.0000      -0.646150       -17.5826
  14   2.0000      -0.625367       -17.0171
  15   2.0000      -0.587433       -15.9849
  16   2.0000      -0.575997       -15.6737
  17   2.0000      -0.543708       -14.7951
  18   2.0000      -0.525293       -14.2940
  19   2.0000      -0.499765       -13.5993
  20   2.0000      -0.494437       -13.4543
  21   2.0000      -0.481528       -13.1031
  22   2.0000      -0.387788       -10.5522
  23   2.0000      -0.276643        -7.5278
  24   0.0000       0.103233         2.8091
  25   0.0000       0.136412         3.7119
  26   0.0000       0.144216         3.9243
  27   0.0000       0.159939         4.3521
  28   0.0000       0.170215         4.6318

MULLIKEN ATOMIC CHARGES
-----------------------
   0 C :   -0.315327
   1 N :   -0.300180
   2 C :   -0.354694
   3 C :    0.376582
   4 N :   -0.498462
   5 C :   -0.644523
   6 H :    0.102164
   7 H :    0.125712
   8 H :    0.247658
   9 H :    0.251872
  10 H :    0.269223
  11 H :    0.171709
  12 H :    0.157271
  13 H :    0.146387
  14 H :    0.122084
  15 H :    0.142523
Sum of atomic charges:    0.0000000

LOEWDIN ATOMIC CHARGES
----------------------
   0 C :   -0.331867
   1 N :    0.114000
   2 C :   -0.330129
   3 C :   -0.470620
   4 N :    0.003790
   5 C :   -0.384354
   6 H :    0.098086
   7 H :    0.096976
   8 H :    0.196474
   9 H :    0.170599
  10 H :    0.189209
  11 H :    0.141354
  12 H :    0.138527
  13 H :    0.125622
  14 H :    0.118716
  15 H :    0.123617

  Mayer bond orders larger than 0.100000
B(  0-C ,  1-N ) :   0.9345 B(  0-C ,  2-C ) :   0.9423 B(  0-C , 11-H ) :   0.9838
B(  0-C , 12-H ) :   0.9780 B(  1-N ,  3-C ) :   1.1705 B(  1-N ,  8-H ) :   0.9247
B(  2-C , 13-H ) :   0.9766 B(  2-C , 14-H ) :   0.9632 B(  2-C , 15-H ) :   0.9744
B(  3-C ,  4-N ) :   1.1333 B(  3-C ,  5-C ) :   1.5653 B(  4-N ,  9-H ) :   0.9167
B(  4-N , 10-H ) :   0.9175 B(  5-C ,  6-H ) :   1.0332 B(  5-C ,  7-H ) :   0.9838

FINAL SINGLE POINT ENERGY      -267.120302459971

DIPOLE MOMENT
-------------
                                X             Y             Z
Electronic contribution:      1.10908       1.25097       2.08792
Nuclear contribution   :     -1.82946      -1.24287      -3.25410
                        -----------------------------------------
Total Dipole Moment    :     -0.72037       0.00810      -1.16618
                        -----------------------------------------
Magnitude (a.u.)       :      1.37076
Magnitude (Debye)      :      3.48420

Rotational constants in cm-1:     0.244672     0.074506     0.064043
Rotational constants in MHz :  7335.067153  2233.624025  1919.970379

                             ****ORCA TERMINATED NORMALLY****
TOTAL RUN TIME: 0 days 0 hours 0 minutes 43 seconds 200 msec
