                         Program Version 5.0.0 -  RELEASE  -
|  1> !LC-PBE RIJCOSX def2-TZVP def2/J TightSCF xyzfile
|  2>
|  3> *xyzfile 0 1 D1.xyz
|  4>
|  5> %MaxCore 64000
|  6>
|  7> %pal nprocs 18
|  8> end
|  9>
| 10> %scf
| 11>   MaxIter 150
| 12> end
| 13>
| 14>
| 15>                          ****END OF INPUT****

CARTESIAN COORDINATES (ANGSTROEM)
---------------------------------
  C      4.999862   -1.596133   -5.924876
  C      5.281560   -1.974132   -4.535764
  C      3.766779   -2.266110   -6.511752
  C      2.496702   -1.844161   -5.735704
  H      1.626416   -2.217434   -6.308950
  H      2.481824   -2.456069   -4.793414
  F      2.459729   -0.509204   -5.505757
  C      4.792500   -1.361316   -3.457295
  N      3.939898   -0.374925   -3.557359
  N      5.259860   -1.754224   -2.239133
  H      5.922824   -2.521451   -2.186720
  H      4.654678   -1.640404   -1.442016
  H      5.709139   -2.875599   -4.387021
  H      3.330101   -0.317639   -4.361247
  H      3.698494    0.114468   -2.708333
  H      4.843333   -0.517930   -5.943019
  H      5.901695   -1.822503   -6.496467
  H      3.886191   -3.357076   -6.533604
  H      3.685602   -1.922168   -7.547128

 Total Charge           Charge          ....    0
 Multiplicity           Mult            ....    1
 Number of Electrons    NEL             ....   64
 Basis Dimension        Dim             ....  314

ORBITAL ENERGIES
----------------

  NO   OCC          E(Eh)            E(eV)
   0   2.0000     -24.509977      -666.9504
   1   2.0000     -14.202251      -386.4629
   2   2.0000     -14.186997      -386.0478
   3   2.0000     -10.197912      -277.4993
   4   2.0000     -10.155672      -276.3499
   5   2.0000     -10.110040      -275.1082
   6   2.0000     -10.088267      -274.5157
   7   2.0000     -10.031351      -272.9669
   8   2.0000      -1.401046       -38.1244
   9   2.0000      -1.127515       -30.6812
  10   2.0000      -1.028258       -27.9803
  11   2.0000      -0.974007       -26.5041
  12   2.0000      -0.894329       -24.3359
  13   2.0000      -0.836685       -22.7674
  14   2.0000      -0.758241       -20.6328
  15   2.0000      -0.744165       -20.2498
  16   2.0000      -0.695922       -18.9370
  17   2.0000      -0.676988       -18.4218
  18   2.0000      -0.663487       -18.0544
  19   2.0000      -0.643236       -17.5033
  20   2.0000      -0.636837       -17.3292
  21   2.0000      -0.594378       -16.1738
  22   2.0000      -0.563457       -15.3324
  23   2.0000      -0.549212       -14.9448
  24   2.0000      -0.533060       -14.5053
  25   2.0000      -0.506851       -13.7921
  26   2.0000      -0.487487       -13.2652
  27   2.0000      -0.465927       -12.6785
  28   2.0000      -0.451192       -12.2776
  29   2.0000      -0.441738       -12.0203
  30   2.0000      -0.386967       -10.5299
  31   2.0000      -0.273131        -7.4323
  32   0.0000       0.115025         3.1300
  33   0.0000       0.133887         3.6433
  34   0.0000       0.155483         4.2309
  35   0.0000       0.157643         4.2897
  36   0.0000       0.165991         4.5168

MULLIKEN ATOMIC CHARGES
-----------------------
   0 C :   -0.423761
   1 C :   -0.421516
   2 C :   -0.194317
   3 C :   -0.161591
   4 H :    0.149357
   5 H :    0.178425
   6 F :   -0.185791
   7 C :    0.327912
   8 N :   -0.504506
   9 N :   -0.522221
  10 H :    0.258919
  11 H :    0.231256
  12 H :    0.131097
  13 H :    0.292694
  14 H :    0.228560
  15 H :    0.190349
  16 H :    0.144894
  17 H :    0.143653
  18 H :    0.136586
Sum of atomic charges:    0.0000000

LOEWDIN ATOMIC CHARGES
----------------------
   0 C :   -0.305439
   1 C :   -0.298512
   2 C :   -0.289776
   3 C :   -0.380988
   4 H :    0.132113
   5 H :    0.144053
   6 F :    0.170498
   7 C :   -0.472969
   8 N :    0.000554
   9 N :   -0.049329
  10 H :    0.177985
  11 H :    0.157586
  12 H :    0.121319
  13 H :    0.133947
  14 H :    0.167994
  15 H :    0.152687
  16 H :    0.148839
  17 H :    0.148612
  18 H :    0.140827

  Mayer bond orders larger than 0.100000
B(  0-C ,  1-C ) :   0.9804 B(  0-C ,  2-C ) :   0.9014 B(  0-C , 15-H ) :   0.9958
B(  0-C , 16-H ) :   0.9880 B(  1-C ,  7-C ) :   1.6194 B(  1-C , 12-H ) :   0.9885
B(  2-C ,  3-C ) :   0.9589 B(  2-C , 17-H ) :   0.9564 B(  2-C , 18-H ) :   0.9760
B(  3-C ,  4-H ) :   0.9764 B(  3-C ,  5-H ) :   0.9827 B(  3-C ,  6-F ) :   0.9365
B(  6-F , 13-H ) :   0.1148 B(  7-C ,  8-N ) :   1.1631 B(  7-C ,  9-N ) :   1.1224
B(  8-N , 13-H ) :   0.8465 B(  8-N , 14-H ) :   0.9313 B(  9-N , 10-H ) :   0.9221
B(  9-N , 11-H ) :   0.9224

FINAL SINGLE POINT ENERGY      -405.385571900362

DIPOLE MOMENT
-------------
                                X             Y             Z
Electronic contribution:     -3.37546       3.95056       0.83028
Nuclear contribution   :      2.63975      -4.51113      -0.34926
                        -----------------------------------------
Total Dipole Moment    :     -0.73572      -0.56057       0.48102
                        -----------------------------------------
Magnitude (a.u.)       :      1.04254
Magnitude (Debye)      :      2.64994

Rotational constants in cm-1:     0.109429     0.049838     0.039337
Rotational constants in MHz :  3280.611039  1494.113088  1179.280063

                             ****ORCA TERMINATED NORMALLY****
TOTAL RUN TIME: 0 days 0 hours 0 minutes 23 seconds 851 msec
