                         Program Version 5.0.0 -  RELEASE  -
|  1> !LC-PBE RIJCOSX def2-TZVP def2/J TightSCF xyzfile
|  2>
|  3> *xyzfile 0 1 D2.xyz
|  4>
|  5> %MaxCore 64000
|  6>
|  7> %pal nprocs 18
|  8> end
|  9>
| 10> %scf
| 11>   MaxIter 150
| 12> end
| 13>
| 14>
| 15>                          ****END OF INPUT****

CARTESIAN COORDINATES (ANGSTROEM)
---------------------------------
  C      4.999862   -1.596133   -5.924876
  N      5.281560   -1.974132   -4.535764
  C      3.766779   -2.266110   -6.511752
  C      2.496702   -1.844161   -5.735704
  H      1.626416   -2.217434   -6.308950
  H      2.481824   -2.456069   -4.793414
  F      2.459729   -0.509204   -5.505757
  C      4.792500   -1.361316   -3.457295
  C      3.939898   -0.374925   -3.557359
  N      5.259860   -1.754224   -2.239133
  H      5.922824   -2.521451   -2.186720
  H      4.654678   -1.640404   -1.442016
  H      5.709139   -2.875599   -4.387021
  H      3.330101   -0.317639   -4.361247
  H      3.698494    0.114468   -2.708333
  H      4.843333   -0.517930   -5.943019
  H      5.901695   -1.822503   -6.496467
  H      3.886191   -3.357076   -6.533604
  H      3.685602   -1.922168   -7.547128

 Total Charge           Charge          ....    0
 Multiplicity           Mult            ....    1
 Number of Electrons    NEL             ....   64
 Basis Dimension        Dim             ....  314

ORBITAL ENERGIES
----------------

  NO   OCC          E(Eh)            E(eV)
   0   2.0000     -24.486779      -666.3191
   1   2.0000     -14.212038      -386.7292
   2   2.0000     -14.200497      -386.4152
   3   2.0000     -10.197141      -277.4783
   4   2.0000     -10.151506      -276.2365
   5   2.0000     -10.147834      -276.1366
   6   2.0000     -10.125592      -275.5314
   7   2.0000      -9.997257      -272.0392
   8   2.0000      -1.380731       -37.5716
   9   2.0000      -1.134609       -30.8743
  10   2.0000      -1.046576       -28.4788
  11   2.0000      -0.959302       -26.1039
  12   2.0000      -0.879430       -23.9305
  13   2.0000      -0.860249       -23.4086
  14   2.0000      -0.772322       -21.0160
  15   2.0000      -0.722232       -19.6529
  16   2.0000      -0.701173       -19.0799
  17   2.0000      -0.665900       -18.1201
  18   2.0000      -0.663583       -18.0570
  19   2.0000      -0.643449       -17.5091
  20   2.0000      -0.630060       -17.1448
  21   2.0000      -0.597577       -16.2609
  22   2.0000      -0.570278       -15.5180
  23   2.0000      -0.546650       -14.8751
  24   2.0000      -0.523158       -14.2358
  25   2.0000      -0.514375       -13.9968
  26   2.0000      -0.489554       -13.3215
  27   2.0000      -0.477627       -12.9969
  28   2.0000      -0.464452       -12.6384
  29   2.0000      -0.434389       -11.8203
  30   2.0000      -0.376729       -10.2513
  31   2.0000      -0.279160        -7.5963
  32   0.0000       0.105048         2.8585
  33   0.0000       0.131318         3.5733
  34   0.0000       0.148084         4.0296
  35   0.0000       0.157337         4.2813
  36   0.0000       0.169831         4.6213

MULLIKEN ATOMIC CHARGES
-----------------------
   0 C :   -0.324935
   1 N :   -0.326542
   2 C :   -0.224984
   3 C :   -0.144566
   4 H :    0.144560
   5 H :    0.173549
   6 F :   -0.153235
   7 C :    0.386578
   8 C :   -0.667515
   9 N :   -0.534054
  10 H :    0.229210
  11 H :    0.262978
  12 H :    0.212440
  13 H :    0.184105
  14 H :    0.107764
  15 H :    0.230811
  16 H :    0.160739
  17 H :    0.141209
  18 H :    0.141888
Sum of atomic charges:   -0.0000000

LOEWDIN ATOMIC CHARGES
----------------------
   0 C :   -0.295992
   1 N :    0.103476
   2 C :   -0.296735
   3 C :   -0.380804
   4 H :    0.131072
   5 H :    0.144013
   6 F :    0.174914
   7 C :   -0.481544
   8 C :   -0.336115
   9 N :   -0.050155
  10 H :    0.160855
  11 H :    0.173876
  12 H :    0.177350
  13 H :    0.080876
  14 H :    0.103858
  15 H :    0.158527
  16 H :    0.139664
  17 H :    0.145836
  18 H :    0.147025

  Mayer bond orders larger than 0.100000
B(  0-C ,  1-N ) :   0.9069 B(  0-C ,  2-C ) :   0.9239 B(  0-C , 15-H ) :   0.9731
B(  0-C , 16-H ) :   0.9782 B(  1-N ,  7-C ) :   1.1237 B(  1-N , 12-H ) :   0.9294
B(  2-C ,  3-C ) :   0.9663 B(  2-C , 17-H ) :   0.9554 B(  2-C , 18-H ) :   0.9732
B(  3-C ,  4-H ) :   0.9709 B(  3-C ,  5-H ) :   0.9818 B(  3-C ,  6-F ) :   0.9793
B(  7-C ,  8-C ) :   1.6308 B(  7-C ,  9-N ) :   1.0568 B(  8-C , 13-H ) :   0.9757
B(  8-C , 14-H ) :   1.0208 B(  9-N , 10-H ) :   0.9344 B(  9-N , 11-H ) :   0.9180

FINAL SINGLE POINT ENERGY      -405.352697333132

DIPOLE MOMENT
-------------
                                X             Y             Z
Electronic contribution:     -2.25834       2.59466      -0.14505
Nuclear contribution   :      2.43398      -4.26587      -0.19921
                        -----------------------------------------
Total Dipole Moment    :      0.17565      -1.67121      -0.34426
                        -----------------------------------------
Magnitude (a.u.)       :      1.71532
Magnitude (Debye)      :      4.36000

Rotational constants in cm-1:     0.110089     0.049944     0.039407
Rotational constants in MHz :  3300.378855  1497.273856  1181.385913

                             ****ORCA TERMINATED NORMALLY****
TOTAL RUN TIME: 0 days 0 hours 0 minutes 21 seconds 674 msec
