                         Program Version 5.0.0 -  RELEASE  -
|  1> !TPSS D3BJ RIJCOSX def2-SVPD def2/J TightSCF
|  2> *xyz -1 1
|  3> C          3.80351        1.37472       -3.26081
|  4> C          3.93993        0.32036       -4.36773
|  5> H          4.10504       -0.65508       -3.90773
|  6> H          3.02280        0.28052       -4.95712
|  7> C          5.10585        0.66802       -5.30546
|  8> O          4.80913        1.15019       -6.41436
|  9> O          6.26737        0.56500       -4.81948
| 10> H          3.64113        2.33595       -3.70189
| 11> H          4.69995        1.39701       -2.67703
| 12> H          2.97435        1.12625       -2.63180
| 13> *
| 14>
| 15> %MaxCore 64000
| 16>
| 17> %pal nprocs 4
| 18> end
| 19>
| 20> %scf
| 21>   MaxIter 150
| 22> end
| 23>
| 24>
| 25>                          ****END OF INPUT****

CARTESIAN COORDINATES (ANGSTROEM)
---------------------------------
  C      3.803510    1.374720   -3.260810
  C      3.939930    0.320360   -4.367730
  H      4.105040   -0.655080   -3.907730
  H      3.022800    0.280520   -4.957120
  C      5.105850    0.668020   -5.305460
  O      4.809130    1.150190   -6.414360
  O      6.267370    0.565000   -4.819480
  H      3.641130    2.335950   -3.701890
  H      4.699950    1.397010   -2.677030
  H      2.974350    1.126250   -2.631800

 Total Charge           Charge          ....   -1
 Multiplicity           Mult            ....    1
 Number of Electrons    NEL             ....   40
 Basis Dimension        Dim             ....  146

ORBITAL ENERGIES
----------------

  NO   OCC          E(Eh)            E(eV)
   0   2.0000     -18.640067      -507.2220
   1   2.0000     -18.636909      -507.1361
   2   2.0000      -9.875411      -268.7236
   3   2.0000      -9.840057      -267.7616
   4   2.0000      -9.824416      -267.3360
   5   2.0000      -0.740881       -20.1604
   6   2.0000      -0.652396       -17.7526
   7   2.0000      -0.541082       -14.7236
   8   2.0000      -0.415214       -11.2985
   9   2.0000      -0.272082        -7.4037
  10   2.0000      -0.249202        -6.7811
  11   2.0000      -0.212794        -5.7904
  12   2.0000      -0.186200        -5.0667
  13   2.0000      -0.171278        -4.6607
  14   2.0000      -0.165073        -4.4919
  15   2.0000      -0.134846        -3.6693
  16   2.0000      -0.124497        -3.3877
  17   2.0000      -0.014066        -0.3828
  18   2.0000       0.001406         0.0383
  19   2.0000       0.014105         0.3838
  20   0.0000       0.147387         4.0106
  21   0.0000       0.179807         4.8928
  22   0.0000       0.191943         5.2230
  23   0.0000       0.210038         5.7154
  24   0.0000       0.220428         5.9982

MULLIKEN ATOMIC CHARGES
-----------------------
   0 C :    0.438793
   1 C :   -0.324792
   2 H :   -0.002736
   3 H :   -0.006503
   4 C :    0.466157
   5 O :   -0.687741
   6 O :   -0.736411
   7 H :   -0.056072
   8 H :   -0.023680
   9 H :   -0.067016
Sum of atomic charges:   -1.0000000

LOEWDIN ATOMIC CHARGES
----------------------
   0 C :    0.109751
   1 C :   -0.034827
   2 H :   -0.003725
   3 H :   -0.008441
   4 C :   -0.306254
   5 O :   -0.320051
   6 O :   -0.330705
   7 H :   -0.026212
   8 H :   -0.030565
   9 H :   -0.048973

  Mayer bond orders larger than 0.100000
B(  0-C ,  1-C ) :   1.3019 B(  0-C ,  7-H ) :   0.8713 B(  0-C ,  8-H ) :   0.8561
B(  0-C ,  9-H ) :   0.8715 B(  1-C ,  2-H ) :   0.9321 B(  1-C ,  3-H ) :   0.9686
B(  1-C ,  4-C ) :   1.0578 B(  1-C ,  7-H ) :   0.1711 B(  1-C ,  8-H ) :   0.1782
B(  1-C ,  9-H ) :   0.1448 B(  3-H ,  4-C ) :   0.1437 B(  4-C ,  5-O ) :   1.4500
B(  4-C ,  6-O ) :   1.4429

Dispersion correction           -0.008096576
FINAL SINGLE POINT ENERGY      -267.702993216174

DIPOLE MOMENT
-------------
                                X             Y             Z
Electronic contribution:      3.75632      -0.47890      -4.52183
Nuclear contribution   :     -5.15232       0.33441       5.87398
                        -----------------------------------------
Total Dipole Moment    :     -1.39600      -0.14449       1.35215
                        -----------------------------------------
Magnitude (a.u.)       :      1.94885
Magnitude (Debye)      :      4.95358

Rotational constants in cm-1:     0.295355     0.137164     0.110193
Rotational constants in MHz :  8854.523706  4112.077980  3303.490503

                             ****ORCA TERMINATED NORMALLY****
TOTAL RUN TIME: 0 days 0 hours 0 minutes 11 seconds 207 msec
