                         Program Version 5.0.0 -  RELEASE  -
|  1> !TPSS D3BJ RIJCOSX def2-SVPD def2/J TightSCF
|  2> *xyz 1 1
|  3> C          3.90595        2.81985       -3.75292
|  4> N          5.29562        3.13151       -4.10533
|  5> C          3.80351        1.37472       -3.26081
|  6> C          5.70862        3.46889       -5.32419
|  7> N          6.90470        3.03895       -5.71708
|  8> N          4.98188        4.29357       -6.09746
|  9> H          5.00055        4.10131       -7.08776
| 10> H          4.08469        4.59690       -5.73965
| 11> H          5.96336        2.52611       -3.64239
| 12> H          7.04716        2.06686       -5.47360
| 13> H          7.19815        3.30799       -6.64523
| 14> H          3.28202        2.94919       -4.64026
| 15> H          3.56525        3.51457       -2.98252
| 16> H          4.14157        0.71142       -4.02935
| 17> H          2.78528        1.15146       -3.01944
| 18> H          4.41205        1.25066       -2.38949
| 19> *
| 20>
| 21> %MaxCore 64000
| 22>
| 23> %pal nprocs 4
| 24> end
| 25>
| 26> %scf
| 27>   MaxIter 150
| 28> end
| 29>
| 30>
| 31>                          ****END OF INPUT****

CARTESIAN COORDINATES (ANGSTROEM)
---------------------------------
  C      3.905950    2.819850   -3.752920
  N      5.295620    3.131510   -4.105330
  C      3.803510    1.374720   -3.260810
  C      5.708620    3.468890   -5.324190
  N      6.904700    3.038950   -5.717080
  N      4.981880    4.293570   -6.097460
  H      5.000550    4.101310   -7.087760
  H      4.084690    4.596900   -5.739650
  H      5.963360    2.526110   -3.642390
  H      7.047160    2.066860   -5.473600
  H      7.198150    3.307990   -6.645230
  H      3.282020    2.949190   -4.640260
  H      3.565250    3.514570   -2.982520
  H      4.141570    0.711420   -4.029350
  H      2.785280    1.151460   -3.019440
  H      4.412050    1.250660   -2.389490

 Total Charge           Charge          ....    1
 Multiplicity           Mult            ....    1
 Number of Electrons    NEL             ....   48
 Basis Dimension        Dim             ....  200

ORBITAL ENERGIES
----------------

  NO   OCC          E(Eh)            E(eV)
   0   2.0000     -14.345631      -390.3645
   1   2.0000     -14.344293      -390.3280
   2   2.0000     -14.343571      -390.3084
   3   2.0000     -10.325745      -280.9778
   4   2.0000     -10.212607      -277.8992
   5   2.0000     -10.148596      -276.1573
   6   2.0000      -1.145631       -31.1742
   7   2.0000      -1.039495       -28.2861
   8   2.0000      -1.032105       -28.0850
   9   2.0000      -0.874227       -23.7889
  10   2.0000      -0.781711       -21.2714
  11   2.0000      -0.757962       -20.6252
  12   2.0000      -0.730249       -19.8711
  13   2.0000      -0.699553       -19.0358
  14   2.0000      -0.658220       -17.9111
  15   2.0000      -0.646033       -17.5795
  16   2.0000      -0.609277       -16.5793
  17   2.0000      -0.588612       -16.0169
  18   2.0000      -0.555126       -15.1058
  19   2.0000      -0.522419       -14.2158
  20   2.0000      -0.501468       -13.6456
  21   2.0000      -0.487696       -13.2709
  22   2.0000      -0.452127       -12.3030
  23   2.0000      -0.425799       -11.5866
  24   0.0000      -0.220723        -6.0062
  25   0.0000      -0.168971        -4.5979
  26   0.0000      -0.135842        -3.6965
  27   0.0000      -0.123093        -3.3495
  28   0.0000      -0.105971        -2.8836

MULLIKEN ATOMIC CHARGES
-----------------------
   0 C :    0.311603
   1 N :   -0.420230
   2 C :    0.604022
   3 C :    0.959755
   4 N :   -0.023293
   5 N :   -0.018715
   6 H :   -0.017912
   7 H :    0.024821
   8 H :   -0.083376
   9 H :    0.015315
  10 H :    0.020903
  11 H :   -0.070096
  12 H :   -0.218778
  13 H :   -0.039853
  14 H :   -0.047767
  15 H :    0.003602
Sum of atomic charges:    1.0000000

LOEWDIN ATOMIC CHARGES
----------------------
   0 C :    0.050226
   1 N :    0.053761
   2 C :    0.171924
   3 C :   -0.055308
   4 N :    0.273986
   5 N :    0.286483
   6 H :    0.036336
   7 H :    0.023784
   8 H :    0.044621
   9 H :    0.036209
  10 H :    0.035765
  11 H :    0.020388
  12 H :    0.034791
  13 H :   -0.010009
  14 H :    0.002797
  15 H :   -0.005752

  Mayer bond orders larger than 0.100000
B(  0-C ,  1-N ) :   0.8579 B(  0-C ,  2-C ) :   1.3138 B(  0-C , 11-H ) :   0.8345
B(  0-C , 12-H ) :   0.9207 B(  0-C , 13-H ) :   0.2081 B(  0-C , 14-H ) :   0.2231
B(  0-C , 15-H ) :   0.1382 B(  1-N ,  3-C ) :   1.1192 B(  1-N ,  4-N ) :   0.2210
B(  1-N ,  5-N ) :   0.1171 B(  1-N ,  8-H ) :   1.1454 B(  1-N , 11-H ) :   0.1113
B(  1-N , 12-H ) :   0.1738 B(  2-C , 13-H ) :   0.8204 B(  2-C , 14-H ) :   0.8147
B(  2-C , 15-H ) :   0.8362 B(  3-C ,  4-N ) :   0.9656 B(  3-C ,  5-N ) :   0.9490
B(  3-C ,  8-H ) :  -0.1661 B(  4-N ,  5-N ) :   0.1341 B(  4-N ,  9-H ) :   1.0421
B(  4-N , 10-H ) :   0.9743 B(  5-N ,  6-H ) :   1.1497 B(  5-N ,  7-H ) :   0.9462
B(  6-H ,  7-H ) :  -0.1091

Dispersion correction           -0.015036237
FINAL SINGLE POINT ENERGY      -284.257607979632

DIPOLE MOMENT
-------------
                                X             Y             Z
Electronic contribution:      3.51752       3.42443      -2.62979
Nuclear contribution   :     -3.31456      -3.64300       1.57303
                        -----------------------------------------
Total Dipole Moment    :      0.20296      -0.21857      -1.05675
                        -----------------------------------------
Magnitude (a.u.)       :      1.09804
Magnitude (Debye)      :      2.79099

Rotational constants in cm-1:     0.229487     0.071000     0.059428
Rotational constants in MHz :  6879.840828  2128.520047  1781.605314

                             ****ORCA TERMINATED NORMALLY****
TOTAL RUN TIME: 0 days 0 hours 0 minutes 17 seconds 942 msec
