                         Program Version 5.0.0 -  RELEASE  -
|  1> !TPSS D3BJ RIJCOSX def2-SVPD def2/J TightSCF xyzfile
|  2>
|  3> *xyzfile 0 1 B.xyz
|  4>
|  5> %MaxCore 64000
|  6>
|  7> %pal nprocs 4
|  8> end
|  9>
| 10> %scf
| 11>   MaxIter 150
| 12> end
| 13>
| 14>
| 15>                          ****END OF INPUT****

CARTESIAN COORDINATES (ANGSTROEM)
---------------------------------
  C      3.905947    2.819855   -3.752920
  N      5.295615    3.131515   -4.105334
  C      3.803511    1.374716   -3.260807
  C      3.939934    0.320362   -4.367729
  H      4.105043   -0.655085   -3.907733
  H      3.022801    0.280517   -4.957117
  C      5.105846    0.668022   -5.305463
  C      5.708619    3.468885   -5.324190
  N      6.904696    3.038954   -5.717084
  N      4.981884    4.293570   -6.097457
  H      5.000546    4.101311   -7.087761
  H      4.084693    4.596899   -5.739652
  H      5.963358    2.526112   -3.642391
  H      7.047164    2.066861   -5.473604
  H      7.198145    3.307994   -6.645225
  H      3.282025    2.949187   -4.640259
  H      3.565254    3.514574   -2.982523
  H      4.574833    1.215157   -2.500443
  H      2.843514    1.260845   -2.751465
  O      4.809132    1.150187   -6.414361
  O      6.267366    0.564999   -4.819481

 Total Charge           Charge          ....    0
 Multiplicity           Mult            ....    1
 Number of Electrons    NEL             ....   78
 Basis Dimension        Dim             ....  294

ORBITAL ENERGIES
----------------

  NO   OCC          E(Eh)            E(eV)
   0   2.0000     -18.822423      -512.1842
   1   2.0000     -18.817913      -512.0614
   2   2.0000     -14.182786      -385.9332
   3   2.0000     -14.173268      -385.6742
   4   2.0000     -14.152662      -385.1135
   5   2.0000     -10.155183      -276.3366
   6   2.0000     -10.062906      -273.8256
   7   2.0000     -10.053170      -273.5607
   8   2.0000     -10.013750      -272.4880
   9   2.0000      -9.980247      -271.5763
  10   2.0000      -0.974286       -26.5117
  11   2.0000      -0.924647       -25.1609
  12   2.0000      -0.873402       -23.7665
  13   2.0000      -0.855503       -23.2794
  14   2.0000      -0.836149       -22.7528
  15   2.0000      -0.733207       -19.9516
  16   2.0000      -0.655367       -17.8334
  17   2.0000      -0.605562       -16.4782
  18   2.0000      -0.572114       -15.5680
  19   2.0000      -0.559651       -15.2289
  20   2.0000      -0.528518       -14.3817
  21   2.0000      -0.491222       -13.3668
  22   2.0000      -0.472849       -12.8669
  23   2.0000      -0.453920       -12.3518
  24   2.0000      -0.439002       -11.9458
  25   2.0000      -0.426931       -11.6174
  26   2.0000      -0.388873       -10.5818
  27   2.0000      -0.379973       -10.3396
  28   2.0000      -0.368153       -10.0179
  29   2.0000      -0.349022        -9.4974
  30   2.0000      -0.340357        -9.2616
  31   2.0000      -0.333293        -9.0694
  32   2.0000      -0.303439        -8.2570
  33   2.0000      -0.299225        -8.1423
  34   2.0000      -0.278940        -7.5903
  35   2.0000      -0.257521        -7.0075
  36   2.0000      -0.199709        -5.4344
  37   2.0000      -0.178570        -4.8591
  38   2.0000      -0.166742        -4.5373
  39   0.0000      -0.048596        -1.3224
  40   0.0000      -0.016132        -0.4390
  41   0.0000       0.006661         0.1813
  42   0.0000       0.018452         0.5021
  43   0.0000       0.031792         0.8651

MULLIKEN ATOMIC CHARGES
-----------------------
   0 C :    0.763394
   1 N :   -0.379002
   2 C :   -0.000186
   3 C :    0.306425
   4 H :   -0.064648
   5 H :    0.015205
   6 C :    0.343033
   7 C :    0.866117
   8 N :    0.121484
   9 N :   -0.100624
  10 H :   -0.024009
  11 H :    0.025014
  12 H :   -0.101518
  13 H :   -0.083682
  14 H :    0.026232
  15 H :    0.018682
  16 H :   -0.337563
  17 H :    0.076510
  18 H :   -0.148436
  19 O :   -0.601883
  20 O :   -0.720547
Sum of atomic charges:   -0.0000000

LOEWDIN ATOMIC CHARGES
----------------------
   0 C :    0.081503
   1 N :    0.065723
   2 C :   -0.001997
   3 C :    0.046313
   4 H :    0.020300
   5 H :    0.014792
   6 C :   -0.260924
   7 C :   -0.087052
   8 N :    0.285623
   9 N :    0.265793
  10 H :    0.022634
  11 H :    0.006036
  12 H :    0.022270
  13 H :   -0.063101
  14 H :    0.024266
  15 H :    0.019875
  16 H :    0.015004
  17 H :    0.023352
  18 H :    0.017581
  19 O :   -0.253453
  20 O :   -0.264539

  Mayer bond orders larger than 0.100000
B(  0-C ,  1-N ) :   0.8397 B(  0-C ,  2-C ) :   1.1695 B(  0-C , 15-H ) :   0.7405
B(  0-C , 16-H ) :   0.8982 B(  0-C , 18-H ) :   0.1761 B(  1-N ,  2-C ) :   0.1650
B(  1-N ,  7-C ) :   1.0571 B(  1-N ,  8-N ) :   0.1800 B(  1-N ,  9-N ) :   0.1267
B(  1-N , 12-H ) :   1.1205 B(  1-N , 15-H ) :   0.1143 B(  1-N , 16-H ) :   0.1127
B(  2-C ,  3-C ) :   1.2075 B(  2-C ,  4-H ) :   0.1659 B(  2-C ,  5-H ) :   0.1193
B(  2-C , 17-H ) :   0.8394 B(  2-C , 18-H ) :   0.9424 B(  3-C ,  4-H ) :   0.8161
B(  3-C ,  5-H ) :   0.8385 B(  3-C ,  6-C ) :   1.0272 B(  4-H ,  6-C ) :   0.1280
B(  5-H ,  6-C ) :   0.2490 B(  6-C , 19-O ) :   1.5285 B(  6-C , 20-O ) :   1.3174
B(  7-C ,  8-N ) :   0.9637 B(  7-C ,  9-N ) :   0.7991 B(  7-C , 12-H ) :  -0.1980
B(  7-C , 19-O ) :   0.1085 B(  8-N ,  9-N ) :   0.1804 B(  8-N , 13-H ) :   0.9342
B(  8-N , 14-H ) :   0.9305 B(  9-N , 10-H ) :   1.1428 B(  9-N , 11-H ) :   0.9294
B( 10-H , 11-H ) :  -0.1124 B( 13-H , 20-O ) :   0.1742 B( 15-H , 16-H ) :  -0.1016

Dispersion correction           -0.028578635
FINAL SINGLE POINT ENERGY      -511.645835094264

DIPOLE MOMENT
-------------
                                X             Y             Z
Electronic contribution:      4.20496       0.38266      -3.43104
Nuclear contribution   :     -4.94498       2.03334       3.78956
                        -----------------------------------------
Total Dipole Moment    :     -0.74002       2.41600       0.35852
                        -----------------------------------------
Magnitude (a.u.)       :      2.55211
Magnitude (Debye)      :      6.48694

Rotational constants in cm-1:     0.062533     0.042832     0.033687
Rotational constants in MHz :  1874.701390  1284.063603  1009.911042

                             ****ORCA TERMINATED NORMALLY****
TOTAL RUN TIME: 0 days 0 hours 0 minutes 32 seconds 783 msec
