                         Program Version 5.0.0 -  RELEASE  -
|  1> !TPSS D3BJ RIJCOSX def2-SVPD def2/J TightSCF
|  2> *xyz 0 1
|  3> C          3.80351        1.37472       -3.26081
|  4> C          3.93993        0.32036       -4.36773
|  5> H          4.10504       -0.65508       -3.90773
|  6> H          3.02280        0.28052       -4.95712
|  7> C          5.10585        0.66802       -5.30546
|  8> F          4.80913        1.15019       -6.41436
|  9> O          6.26737        0.56500       -4.81948
| 10> H          3.64113        2.33595       -3.70189
| 11> H          4.69995        1.39701       -2.67703
| 12> H          2.97435        1.12625       -2.63180
| 13> *
| 14>
| 15> %MaxCore 64000
| 16>
| 17> %pal nprocs 4
| 18> end
| 19>
| 20> %scf
| 21>   MaxIter 150
| 22> end
| 23>
| 24>
| 25>                          ****END OF INPUT****

CARTESIAN COORDINATES (ANGSTROEM)
---------------------------------
  C      3.803510    1.374720   -3.260810
  C      3.939930    0.320360   -4.367730
  H      4.105040   -0.655080   -3.907730
  H      3.022800    0.280520   -4.957120
  C      5.105850    0.668020   -5.305460
  F      4.809130    1.150190   -6.414360
  O      6.267370    0.565000   -4.819480
  H      3.641130    2.335950   -3.701890
  H      4.699950    1.397010   -2.677030
  H      2.974350    1.126250   -2.631800

 Total Charge           Charge          ....    0
 Multiplicity           Mult            ....    1
 Number of Electrons    NEL             ....   40
 Basis Dimension        Dim             ....  146

ORBITAL ENERGIES
----------------

  NO   OCC          E(Eh)            E(eV)
   0   2.0000     -24.501730      -666.7260
   1   2.0000     -18.906147      -514.4624
   2   2.0000     -10.171952      -276.7929
   3   2.0000     -10.033170      -273.0164
   4   2.0000     -10.011288      -272.4210
   5   2.0000      -1.234301       -33.5870
   6   2.0000      -0.950884       -25.8749
   7   2.0000      -0.737856       -20.0781
   8   2.0000      -0.630999       -17.1704
   9   2.0000      -0.587130       -15.9766
  10   2.0000      -0.501597       -13.6491
  11   2.0000      -0.486156       -13.2290
  12   2.0000      -0.457053       -12.4370
  13   2.0000      -0.423992       -11.5374
  14   2.0000      -0.392381       -10.6772
  15   2.0000      -0.360716        -9.8156
  16   2.0000      -0.341323        -9.2879
  17   2.0000      -0.336913        -9.1679
  18   2.0000      -0.310853        -8.4587
  19   2.0000      -0.247920        -6.7462
  20   0.0000      -0.066944        -1.8216
  21   0.0000       0.003219         0.0876
  22   0.0000       0.036229         0.9858
  23   0.0000       0.046873         1.2755
  24   0.0000       0.062010         1.6874

MULLIKEN ATOMIC CHARGES
-----------------------
   0 C :    0.470618
   1 C :   -0.355690
   2 H :    0.042646
   3 H :    0.022287
   4 C :    0.802067
   5 F :   -0.363803
   6 O :   -0.540770
   7 H :   -0.041271
   8 H :   -0.008262
   9 H :   -0.027821
Sum of atomic charges:    0.0000000

LOEWDIN ATOMIC CHARGES
----------------------
   0 C :    0.151518
   1 C :    0.013126
   2 H :    0.031799
   3 H :    0.015713
   4 C :   -0.014997
   5 F :   -0.021241
   6 O :   -0.136294
   7 H :   -0.013038
   8 H :   -0.010777
   9 H :   -0.015808

  Mayer bond orders larger than 0.100000
B(  0-C ,  1-C ) :   1.3221 B(  0-C ,  7-H ) :   0.8659 B(  0-C ,  8-H ) :   0.8548
B(  0-C ,  9-H ) :   0.8701 B(  1-C ,  2-H ) :   0.9182 B(  1-C ,  3-H ) :   0.9501
B(  1-C ,  4-C ) :   1.0762 B(  1-C ,  7-H ) :   0.1503 B(  1-C ,  8-H ) :   0.1566
B(  1-C ,  9-H ) :   0.1309 B(  4-C ,  5-F ) :   0.7292 B(  4-C ,  6-O ) :   1.7361
B(  5-F ,  6-O ) :   0.1069

Dispersion correction           -0.007667177
FINAL SINGLE POINT ENERGY      -292.234789062333

DIPOLE MOMENT
-------------
                                X             Y             Z
Electronic contribution:      4.02024      -0.00475      -7.43780
Nuclear contribution   :     -5.17129      -0.01923       7.59895
                        -----------------------------------------
Total Dipole Moment    :     -1.15105      -0.02399       0.16114
                        -----------------------------------------
Magnitude (a.u.)       :      1.16252
Magnitude (Debye)      :      2.95490

Rotational constants in cm-1:     0.282073     0.131822     0.105134
Rotational constants in MHz :  8456.328792  3951.925810  3151.840112

                             ****ORCA TERMINATED NORMALLY****
TOTAL RUN TIME: 0 days 0 hours 0 minutes 10 seconds 865 msec
