                         Program Version 5.0.0 -  RELEASE  -
|  1> !TPSS D3BJ RIJCOSX def2-SVPD def2/J TightSCF
|  2> *xyz 0 1
|  3> C          3.90595        2.81985       -3.75292
|  4> C          5.29562        3.13151       -4.10533
|  5> C          3.80351        1.37472       -3.26081
|  6> C          5.70862        3.46889       -5.32419
|  7> N          6.90470        3.03895       -5.71708
|  8> N          4.98188        4.29357       -6.09746
|  9> H          5.00055        4.10131       -7.08776
| 10> H          4.08469        4.59690       -5.73965
| 11> H          5.96336        2.52611       -3.64239
| 12> H          7.04716        2.06686       -5.47360
| 13> H          7.19815        3.30799       -6.64523
| 14> H          3.28202        2.94919       -4.64026
| 15> H          3.56525        3.51457       -2.98252
| 16> H          4.14157        0.71142       -4.02935
| 17> H          2.78528        1.15146       -3.01944
| 18> H          4.41205        1.25066       -2.38949
| 19> *
| 20>
| 21> %MaxCore 64000
| 22>
| 23> %pal nprocs 4
| 24> end
| 25>
| 26> %scf
| 27>   MaxIter 150
| 28> end
| 29>
| 30>
| 31>                          ****END OF INPUT****

CARTESIAN COORDINATES (ANGSTROEM)
---------------------------------
  C      3.905950    2.819850   -3.752920
  C      5.295620    3.131510   -4.105330
  C      3.803510    1.374720   -3.260810
  C      5.708620    3.468890   -5.324190
  N      6.904700    3.038950   -5.717080
  N      4.981880    4.293570   -6.097460
  H      5.000550    4.101310   -7.087760
  H      4.084690    4.596900   -5.739650
  H      5.963360    2.526110   -3.642390
  H      7.047160    2.066860   -5.473600
  H      7.198150    3.307990   -6.645230
  H      3.282020    2.949190   -4.640260
  H      3.565250    3.514570   -2.982520
  H      4.141570    0.711420   -4.029350
  H      2.785280    1.151460   -3.019440
  H      4.412050    1.250660   -2.389490

 Total Charge           Charge          ....    0
 Multiplicity           Mult            ....    1
 Number of Electrons    NEL             ....   48
 Basis Dimension        Dim             ....  200

ORBITAL ENERGIES
----------------

  NO   OCC          E(Eh)            E(eV)
   0   2.0000     -14.123595      -384.3226
   1   2.0000     -14.120534      -384.2393
   2   2.0000     -10.035922      -273.0913
   3   2.0000      -9.980034      -271.5705
   4   2.0000      -9.974627      -271.4234
   5   2.0000      -9.926733      -270.1202
   6   2.0000      -0.892469       -24.2853
   7   2.0000      -0.809492       -22.0274
   8   2.0000      -0.713125       -19.4051
   9   2.0000      -0.636019       -17.3070
  10   2.0000      -0.560333       -15.2474
  11   2.0000      -0.527938       -14.3659
  12   2.0000      -0.490536       -13.3482
  13   2.0000      -0.465657       -12.6712
  14   2.0000      -0.435565       -11.8523
  15   2.0000      -0.404968       -11.0197
  16   2.0000      -0.380728       -10.3601
  17   2.0000      -0.349361        -9.5066
  18   2.0000      -0.330399        -8.9906
  19   2.0000      -0.313764        -8.5379
  20   2.0000      -0.292072        -7.9477
  21   2.0000      -0.287553        -7.8247
  22   2.0000      -0.235433        -6.4065
  23   2.0000      -0.142035        -3.8650
  24   0.0000      -0.001594        -0.0434
  25   0.0000       0.024500         0.6667
  26   0.0000       0.032254         0.8777
  27   0.0000       0.037262         1.0140
  28   0.0000       0.057013         1.5514

MULLIKEN ATOMIC CHARGES
-----------------------
   0 C :   -0.062024
   1 C :   -0.176354
   2 C :    0.667585
   3 C :    0.323240
   4 N :    0.036727
   5 N :   -0.002906
   6 H :   -0.091682
   7 H :    0.010818
   8 H :   -0.175314
   9 H :    0.009734
  10 H :   -0.102887
  11 H :   -0.145773
  12 H :   -0.147120
  13 H :   -0.024826
  14 H :   -0.110031
  15 H :   -0.009186
Sum of atomic charges:    0.0000000

LOEWDIN ATOMIC CHARGES
----------------------
   0 C :   -0.095881
   1 C :   -0.017252
   2 C :    0.123330
   3 C :   -0.240357
   4 N :    0.189948
   5 N :    0.200781
   6 H :   -0.015081
   7 H :   -0.007707
   8 H :   -0.057682
   9 H :    0.002284
  10 H :   -0.014295
  11 H :   -0.002593
  12 H :    0.003986
  13 H :   -0.020598
  14 H :   -0.028665
  15 H :   -0.020222

  Mayer bond orders larger than 0.100000
B(  0-C ,  1-C ) :   0.9659 B(  0-C ,  2-C ) :   1.2900 B(  0-C ,  8-H ) :   0.1879
B(  0-C , 11-H ) :   0.8776 B(  0-C , 12-H ) :   0.8493 B(  0-C , 13-H ) :   0.2208
B(  0-C , 14-H ) :   0.2587 B(  0-C , 15-H ) :   0.1808 B(  1-C ,  3-C ) :   1.8704
B(  1-C ,  4-N ) :   0.3269 B(  1-C ,  5-N ) :   0.1812 B(  1-C ,  8-H ) :   0.6428
B(  1-C , 11-H ) :   0.1083 B(  1-C , 12-H ) :   0.1734 B(  2-C , 13-H ) :   0.8066
B(  2-C , 14-H ) :   0.8055 B(  2-C , 15-H ) :   0.8216 B(  3-C ,  4-N ) :   0.9404
B(  3-C ,  5-N ) :   0.9514 B(  3-C ,  8-H ) :   0.2917 B(  4-N ,  5-N ) :   0.1108
B(  4-N ,  9-H ) :   1.0306 B(  4-N , 10-H ) :   0.9381 B(  5-N ,  6-H ) :   1.1146
B(  5-N ,  7-H ) :   0.9516

Dispersion correction           -0.015654278
FINAL SINGLE POINT ENERGY      -267.785300669676

DIPOLE MOMENT
-------------
                                X             Y             Z
Electronic contribution:      3.19613       3.27927      -2.80818
Nuclear contribution   :     -3.27358      -3.61654       1.70633
                        -----------------------------------------
Total Dipole Moment    :     -0.07745      -0.33727      -1.10185
                        -----------------------------------------
Magnitude (a.u.)       :      1.15491
Magnitude (Debye)      :      2.93555

Rotational constants in cm-1:     0.231961     0.071249     0.059473
Rotational constants in MHz :  6954.024434  2135.976855  1782.962814

                             ****ORCA TERMINATED NORMALLY****
TOTAL RUN TIME: 0 days 0 hours 0 minutes 19 seconds 620 msec
