                         Program Version 5.0.0 -  RELEASE  -
|  1> !TPSS D3BJ RIJCOSX def2-SVPD def2/J TightSCF
|  2> *xyz 0 1
|  3> C          3.80351        1.37472       -3.26081
|  4> C          3.93993        0.32036       -4.36773
|  5> H          4.10504       -0.65508       -3.90773
|  6> H          3.02280        0.28052       -4.95712
|  7> C          5.10585        0.66802       -5.30546
|  8> O          4.80913        1.15019       -6.41436
|  9> F          6.26737        0.56500       -4.81948
| 10> H          3.64113        2.33595       -3.70189
| 11> H          4.69995        1.39701       -2.67703
| 12> H          2.97435        1.12625       -2.63180
| 13> *
| 14>
| 15> %MaxCore 64000
| 16>
| 17> %pal nprocs 4
| 18> end
| 19>
| 20> %scf
| 21>   MaxIter 150
| 22> end
| 23>
| 24>
| 25>                          ****END OF INPUT****

CARTESIAN COORDINATES (ANGSTROEM)
---------------------------------
  C      3.803510    1.374720   -3.260810
  C      3.939930    0.320360   -4.367730
  H      4.105040   -0.655080   -3.907730
  H      3.022800    0.280520   -4.957120
  C      5.105850    0.668020   -5.305460
  O      4.809130    1.150190   -6.414360
  F      6.267370    0.565000   -4.819480
  H      3.641130    2.335950   -3.701890
  H      4.699950    1.397010   -2.677030
  H      2.974350    1.126250   -2.631800

 Total Charge           Charge          ....    0
 Multiplicity           Mult            ....    1
 Number of Electrons    NEL             ....   40
 Basis Dimension        Dim             ....  146

ORBITAL ENERGIES
----------------

  NO   OCC          E(Eh)            E(eV)
   0   2.0000     -24.495187      -666.5479
   1   2.0000     -18.908660      -514.5308
   2   2.0000     -10.170195      -276.7451
   3   2.0000     -10.032764      -273.0054
   4   2.0000     -10.013886      -272.4917
   5   2.0000      -1.220921       -33.2230
   6   2.0000      -0.961397       -26.1610
   7   2.0000      -0.739711       -20.1286
   8   2.0000      -0.626235       -17.0407
   9   2.0000      -0.585013       -15.9190
  10   2.0000      -0.496496       -13.5103
  11   2.0000      -0.481886       -13.1128
  12   2.0000      -0.453973       -12.3532
  13   2.0000      -0.423083       -11.5127
  14   2.0000      -0.393740       -10.7142
  15   2.0000      -0.362906        -9.8752
  16   2.0000      -0.345627        -9.4050
  17   2.0000      -0.338412        -9.2087
  18   2.0000      -0.319283        -8.6881
  19   2.0000      -0.248991        -6.7754
  20   0.0000      -0.063330        -1.7233
  21   0.0000       0.002256         0.0614
  22   0.0000       0.036633         0.9968
  23   0.0000       0.046709         1.2710
  24   0.0000       0.062858         1.7105

MULLIKEN ATOMIC CHARGES
-----------------------
   0 C :    0.457265
   1 C :   -0.340543
   2 H :    0.034267
   3 H :    0.017739
   4 C :    0.816475
   5 O :   -0.509210
   6 F :   -0.398077
   7 H :   -0.031794
   8 H :   -0.022055
   9 H :   -0.024066
Sum of atomic charges:    0.0000000

LOEWDIN ATOMIC CHARGES
----------------------
   0 C :    0.148642
   1 C :    0.015672
   2 H :    0.023524
   3 H :    0.028019
   4 C :   -0.015921
   5 O :   -0.125551
   6 F :   -0.032883
   7 H :   -0.009717
   8 H :   -0.016322
   9 H :   -0.015462

  Mayer bond orders larger than 0.100000
B(  0-C ,  1-C ) :   1.3086 B(  0-C ,  7-H ) :   0.8769 B(  0-C ,  8-H ) :   0.8501
B(  0-C ,  9-H ) :   0.8743 B(  1-C ,  2-H ) :   0.9129 B(  1-C ,  3-H ) :   0.9720
B(  1-C ,  4-C ) :   1.0526 B(  1-C ,  7-H ) :   0.1495 B(  1-C ,  8-H ) :   0.1509
B(  1-C ,  9-H ) :   0.1298 B(  4-C ,  5-O ) :   1.7491 B(  4-C ,  6-F ) :   0.6913
B(  5-O ,  6-F ) :   0.1125

Dispersion correction           -0.007641660
FINAL SINGLE POINT ENERGY      -292.239937894819

DIPOLE MOMENT
-------------
                                X             Y             Z
Electronic contribution:      6.41937      -0.97511      -4.78803
Nuclear contribution   :     -6.76123       0.61881       5.86003
                        -----------------------------------------
Total Dipole Moment    :     -0.34186      -0.35630       1.07200
                        -----------------------------------------
Magnitude (a.u.)       :      1.18026
Magnitude (Debye)      :      2.99997

Rotational constants in cm-1:     0.275298     0.134631     0.105723
Rotational constants in MHz :  8253.224169  4036.137572  3169.487264

                             ****ORCA TERMINATED NORMALLY****
TOTAL RUN TIME: 0 days 0 hours 0 minutes 10 seconds 698 msec
