                         Program Version 5.0.0 -  RELEASE  -
|  1> !TPSS D3BJ RIJCOSX def2-SVPD def2/J TightSCF
|  2> *xyz 0 1
|  3> C          3.90595        2.81985       -3.75292
|  4> N          5.29562        3.13151       -4.10533
|  5> C          3.80351        1.37472       -3.26081
|  6> C          5.70862        3.46889       -5.32419
|  7> C          6.90470        3.03895       -5.71708
|  8> N          4.98188        4.29357       -6.09746
|  9> H          5.00055        4.10131       -7.08776
| 10> H          4.08469        4.59690       -5.73965
| 11> H          5.96336        2.52611       -3.64239
| 12> H          7.04716        2.06686       -5.47360
| 13> H          7.19815        3.30799       -6.64523
| 14> H          3.28202        2.94919       -4.64026
| 15> H          3.56525        3.51457       -2.98252
| 16> H          4.14157        0.71142       -4.02935
| 17> H          2.78528        1.15146       -3.01944
| 18> H          4.41205        1.25066       -2.38949
| 19> *
| 20>
| 21> %MaxCore 64000
| 22>
| 23> %pal nprocs 4
| 24> end
| 25>
| 26> %scf
| 27>   MaxIter 150
| 28> end
| 29>
| 30>
| 31>                          ****END OF INPUT****

CARTESIAN COORDINATES (ANGSTROEM)
---------------------------------
  C      3.905950    2.819850   -3.752920
  N      5.295620    3.131510   -4.105330
  C      3.803510    1.374720   -3.260810
  C      5.708620    3.468890   -5.324190
  C      6.904700    3.038950   -5.717080
  N      4.981880    4.293570   -6.097460
  H      5.000550    4.101310   -7.087760
  H      4.084690    4.596900   -5.739650
  H      5.963360    2.526110   -3.642390
  H      7.047160    2.066860   -5.473600
  H      7.198150    3.307990   -6.645230
  H      3.282020    2.949190   -4.640260
  H      3.565250    3.514570   -2.982520
  H      4.141570    0.711420   -4.029350
  H      2.785280    1.151460   -3.019440
  H      4.412050    1.250660   -2.389490

 Total Charge           Charge          ....    0
 Multiplicity           Mult            ....    1
 Number of Electrons    NEL             ....   48
 Basis Dimension        Dim             ....  200

ORBITAL ENERGIES
----------------

  NO   OCC          E(Eh)            E(eV)
   0   2.0000     -14.122661      -384.2971
   1   2.0000     -14.119132      -384.2011
   2   2.0000     -10.041505      -273.2432
   3   2.0000     -10.039266      -273.1823
   4   2.0000     -10.003265      -272.2027
   5   2.0000      -9.913948      -269.7722
   6   2.0000      -0.896221       -24.3874
   7   2.0000      -0.819530       -22.3005
   8   2.0000      -0.711933       -19.3727
   9   2.0000      -0.646283       -17.5863
  10   2.0000      -0.577392       -15.7116
  11   2.0000      -0.546966       -14.8837
  12   2.0000      -0.488374       -13.2893
  13   2.0000      -0.452272       -12.3069
  14   2.0000      -0.441946       -12.0260
  15   2.0000      -0.412564       -11.2264
  16   2.0000      -0.382658       -10.4126
  17   2.0000      -0.361702        -9.8424
  18   2.0000      -0.343120        -9.3368
  19   2.0000      -0.337313        -9.1787
  20   2.0000      -0.335039        -9.1169
  21   2.0000      -0.299584        -8.1521
  22   2.0000      -0.223483        -6.0813
  23   2.0000      -0.144078        -3.9206
  24   0.0000       0.000402         0.0109
  25   0.0000       0.019933         0.5424
  26   0.0000       0.027964         0.7609
  27   0.0000       0.036953         1.0055
  28   0.0000       0.054665         1.4875

MULLIKEN ATOMIC CHARGES
-----------------------
   0 C :    0.290560
   1 N :   -0.422751
   2 C :    0.603052
   3 C :    0.363311
   4 C :    0.362477
   5 N :    0.019649
   6 H :   -0.036142
   7 H :   -0.080718
   8 H :   -0.048486
   9 H :   -0.229282
  10 H :   -0.302199
  11 H :   -0.083329
  12 H :   -0.275357
  13 H :   -0.052895
  14 H :   -0.097585
  15 H :   -0.010306
Sum of atomic charges:   -0.0000000

LOEWDIN ATOMIC CHARGES
----------------------
   0 C :    0.017186
   1 N :   -0.008554
   2 C :    0.141633
   3 C :   -0.245804
   4 C :    0.146716
   5 N :    0.204477
   6 H :    0.002557
   7 H :   -0.021724
   8 H :    0.017926
   9 H :   -0.104949
  10 H :   -0.106516
  11 H :    0.005943
  12 H :    0.008460
  13 H :   -0.015781
  14 H :   -0.021605
  15 H :   -0.019964

  Mayer bond orders larger than 0.100000
B(  0-C ,  1-N ) :   0.8571 B(  0-C ,  2-C ) :   1.2878 B(  0-C , 11-H ) :   0.8312
B(  0-C , 12-H ) :   0.9087 B(  0-C , 13-H ) :   0.2254 B(  0-C , 14-H ) :   0.2312
B(  0-C , 15-H ) :   0.1460 B(  1-N ,  3-C ) :   1.1290 B(  1-N ,  4-C ) :   0.2406
B(  1-N ,  8-H ) :   1.0858 B(  1-N , 11-H ) :   0.1194 B(  1-N , 12-H ) :   0.1867
B(  2-C , 13-H ) :   0.8183 B(  2-C , 14-H ) :   0.8282 B(  2-C , 15-H ) :   0.8310
B(  3-C ,  4-C ) :   1.6855 B(  3-C ,  5-N ) :   0.8886 B(  3-C ,  8-H ) :  -0.1233
B(  3-C ,  9-H ) :   0.1905 B(  3-C , 10-H ) :   0.3268 B(  4-C ,  5-N ) :   0.2370
B(  4-C ,  9-H ) :   0.9223 B(  4-C , 10-H ) :   0.5898 B(  5-N ,  6-H ) :   1.1144
B(  5-N ,  7-H ) :   0.9261 B(  6-H ,  7-H ) :  -0.1006 B(  9-H , 10-H ) :   0.1590

Dispersion correction           -0.015520045
FINAL SINGLE POINT ENERGY      -267.775723487177

DIPOLE MOMENT
-------------
                                X             Y             Z
Electronic contribution:      1.55663       3.25951      -1.26891
Nuclear contribution   :     -2.93222      -3.63618       1.36440
                        -----------------------------------------
Total Dipole Moment    :     -1.37558      -0.37667       0.09549
                        -----------------------------------------
Magnitude (a.u.)       :      1.42942
Magnitude (Debye)      :      3.63329

Rotational constants in cm-1:     0.237993     0.072843     0.061284
Rotational constants in MHz :  7134.860770  2183.763760  1837.240960

                             ****ORCA TERMINATED NORMALLY****
TOTAL RUN TIME: 0 days 0 hours 0 minutes 19 seconds 53 msec
