                         Program Version 5.0.0 -  RELEASE  -
|  1> !TPSS D3BJ RIJCOSX def2-SVPD def2/J TightSCF
|  2> *xyz 0 1
|  3> C          3.90595        2.81985       -3.75292
|  4> N          5.29562        3.13151       -4.10533
|  5> C          3.80351        1.37472       -3.26081
|  6> C          5.70862        3.46889       -5.32419
|  7> N          6.90470        3.03895       -5.71708
|  8> C          4.98188        4.29357       -6.09746
|  9> H          5.00055        4.10131       -7.08776
| 10> H          4.08469        4.59690       -5.73965
| 11> H          5.96336        2.52611       -3.64239
| 12> H          7.04716        2.06686       -5.47360
| 13> H          7.19815        3.30799       -6.64523
| 14> H          3.28202        2.94919       -4.64026
| 15> H          3.56525        3.51457       -2.98252
| 16> H          4.14157        0.71142       -4.02935
| 17> H          2.78528        1.15146       -3.01944
| 18> H          4.41205        1.25066       -2.38949
| 19> *
| 20>
| 21> %MaxCore 64000
| 22>
| 23> %pal nprocs 4
| 24> end
| 25>
| 26> %scf
| 27>   MaxIter 150
| 28> end
| 29>
| 30>
| 31>                          ****END OF INPUT****

CARTESIAN COORDINATES (ANGSTROEM)
---------------------------------
  C      3.905950    2.819850   -3.752920
  N      5.295620    3.131510   -4.105330
  C      3.803510    1.374720   -3.260810
  C      5.708620    3.468890   -5.324190
  N      6.904700    3.038950   -5.717080
  C      4.981880    4.293570   -6.097460
  H      5.000550    4.101310   -7.087760
  H      4.084690    4.596900   -5.739650
  H      5.963360    2.526110   -3.642390
  H      7.047160    2.066860   -5.473600
  H      7.198150    3.307990   -6.645230
  H      3.282020    2.949190   -4.640260
  H      3.565250    3.514570   -2.982520
  H      4.141570    0.711420   -4.029350
  H      2.785280    1.151460   -3.019440
  H      4.412050    1.250660   -2.389490

 Total Charge           Charge          ....    0
 Multiplicity           Mult            ....    1
 Number of Electrons    NEL             ....   48
 Basis Dimension        Dim             ....  200

ORBITAL ENERGIES
----------------

  NO   OCC          E(Eh)            E(eV)
   0   2.0000     -14.121619      -384.2688
   1   2.0000     -14.121487      -384.2652
   2   2.0000     -10.038743      -273.1681
   3   2.0000     -10.036287      -273.1012
   4   2.0000     -10.001327      -272.1499
   5   2.0000      -9.919805      -269.9316
   6   2.0000      -0.901229       -24.5237
   7   2.0000      -0.821302       -22.3488
   8   2.0000      -0.702007       -19.1026
   9   2.0000      -0.647377       -17.6160
  10   2.0000      -0.590804       -16.0766
  11   2.0000      -0.518666       -14.1136
  12   2.0000      -0.490844       -13.3565
  13   2.0000      -0.473330       -12.8800
  14   2.0000      -0.430047       -11.7022
  15   2.0000      -0.417372       -11.3573
  16   2.0000      -0.365708        -9.9514
  17   2.0000      -0.363927        -9.9029
  18   2.0000      -0.352618        -9.5952
  19   2.0000      -0.337439        -9.1822
  20   2.0000      -0.327398        -8.9089
  21   2.0000      -0.301670        -8.2089
  22   2.0000      -0.221482        -6.0268
  23   2.0000      -0.147896        -4.0244
  24   0.0000      -0.000311        -0.0085
  25   0.0000       0.024210         0.6588
  26   0.0000       0.029562         0.8044
  27   0.0000       0.037653         1.0246
  28   0.0000       0.054126         1.4729

MULLIKEN ATOMIC CHARGES
-----------------------
   0 C :    0.313808
   1 N :   -0.324930
   2 C :    0.626169
   3 C :    0.255370
   4 N :   -0.042428
   5 C :    0.326727
   6 H :   -0.409022
   7 H :   -0.039195
   8 H :   -0.187925
   9 H :   -0.035685
  10 H :    0.023089
  11 H :   -0.031494
  12 H :   -0.299445
  13 H :   -0.063308
  14 H :   -0.077720
  15 H :   -0.034013
Sum of atomic charges:    0.0000000

LOEWDIN ATOMIC CHARGES
----------------------
   0 C :    0.029409
   1 N :   -0.007151
   2 C :    0.138868
   3 C :   -0.256501
   4 N :    0.190633
   5 C :    0.165686
   6 H :   -0.106409
   7 H :   -0.110936
   8 H :    0.006253
   9 H :   -0.013041
  10 H :    0.001546
  11 H :    0.012119
  12 H :    0.013559
  13 H :   -0.020061
  14 H :   -0.020599
  15 H :   -0.023375

  Mayer bond orders larger than 0.100000
B(  0-C ,  1-N ) :   0.8954 B(  0-C ,  2-C ) :   1.2636 B(  0-C , 11-H ) :   0.8533
B(  0-C , 12-H ) :   0.9151 B(  0-C , 13-H ) :   0.1978 B(  0-C , 14-H ) :   0.2337
B(  0-C , 15-H ) :   0.1531 B(  1-N ,  3-C ) :   1.0935 B(  1-N ,  4-N ) :   0.1930
B(  1-N ,  5-C ) :   0.2260 B(  1-N ,  8-H ) :   1.0633 B(  1-N , 11-H ) :   0.1156
B(  1-N , 12-H ) :   0.1781 B(  2-C , 13-H ) :   0.8408 B(  2-C , 14-H ) :   0.8098
B(  2-C , 15-H ) :   0.8280 B(  3-C ,  4-N ) :   0.9886 B(  3-C ,  5-C ) :   1.7834
B(  3-C ,  6-H ) :   0.1824 B(  3-C ,  7-H ) :   0.2849 B(  3-C ,  8-H ) :  -0.1005
B(  4-N ,  5-C ) :   0.1592 B(  4-N ,  9-H ) :   0.9795 B(  4-N , 10-H ) :   0.9728
B(  5-C ,  6-H ) :   0.9249 B(  5-C ,  7-H ) :   0.5276 B(  6-H ,  7-H ) :   0.2675

Dispersion correction           -0.015559525
FINAL SINGLE POINT ENERGY      -267.780047509838

DIPOLE MOMENT
-------------
                                X             Y             Z
Electronic contribution:      3.38879       2.11115      -0.97795
Nuclear contribution   :     -3.34013      -3.37002       1.28371
                        -----------------------------------------
Total Dipole Moment    :      0.04865      -1.25887       0.30576
                        -----------------------------------------
Magnitude (a.u.)       :      1.29639
Magnitude (Debye)      :      3.29515

Rotational constants in cm-1:     0.239537     0.072280     0.060961
Rotational constants in MHz :  7181.153552  2166.902802  1827.551447

                             ****ORCA TERMINATED NORMALLY****
TOTAL RUN TIME: 0 days 0 hours 0 minutes 18 seconds 665 msec
