                         Program Version 5.0.0 -  RELEASE  -
|  1> !B3LYP D3BJ RIJCOSX def2-TZVP def2/J TightSCF
|  2> *xyz -1 1
|  3> C         -0.77894        0.17197        1.80496
|  4> C         -0.60249       -0.63071        0.49224
|  5> H          0.31389       -1.24035        0.60350
|  6> H         -0.36383        0.11332       -0.30117
|  7> O         -1.71206       -1.37684        0.20253
|  8> H         -1.65864        0.77733        1.73736
|  9> H          0.07466        0.79896        1.95712
| 10> H         -0.87474       -0.50584        2.62734
| 11> *
| 12> %MaxCore 64000
| 13>
| 14> %pal nprocs 4
| 15> end
| 16>
| 17> %scf
| 18>   MaxIter 150
| 19> end
| 20>
| 21>
| 22>                          ****END OF INPUT****

CARTESIAN COORDINATES (ANGSTROEM)
---------------------------------
  C     -0.778940    0.171970    1.804960
  C     -0.602490   -0.630710    0.492240
  H      0.313890   -1.240350    0.603500
  H     -0.363830    0.113320   -0.301170
  O     -1.712060   -1.376840    0.202530
  H     -1.658640    0.777330    1.737360
  H      0.074660    0.798960    1.957120
  H     -0.874740   -0.505840    2.627340

 Total Charge           Charge          ....   -1
 Multiplicity           Mult            ....    1
 Number of Electrons    NEL             ....   26
 Basis Dimension        Dim             ....  123

ORBITAL ENERGIES
----------------

  NO   OCC          E(Eh)            E(eV)
   0   2.0000     -18.771699      -510.8039
   1   2.0000      -9.972919      -271.3769
   2   2.0000      -9.950534      -270.7678
   3   2.0000      -0.665496       -18.1091
   4   2.0000      -0.515336       -14.0230
   5   2.0000      -0.364115        -9.9081
   6   2.0000      -0.241384        -6.5684
   7   2.0000      -0.218680        -5.9506
   8   2.0000      -0.162769        -4.4292
   9   2.0000      -0.149921        -4.0795
  10   2.0000      -0.100283        -2.7288
  11   2.0000       0.044568         1.2128
  12   2.0000       0.045684         1.2431
  13   0.0000       0.216898         5.9021
  14   0.0000       0.251979         6.8567
  15   0.0000       0.276860         7.5337
  16   0.0000       0.281916         7.6713
  17   0.0000       0.313579         8.5329

MULLIKEN ATOMIC CHARGES
-----------------------
   0 C :   -0.110053
   1 C :    0.076691
   2 H :   -0.080419
   3 H :   -0.083597
   4 O :   -0.769464
   5 H :    0.010815
   6 H :   -0.053523
   7 H :    0.009549
Sum of atomic charges:   -1.0000000

LOEWDIN ATOMIC CHARGES
----------------------
   0 C :   -0.359761
   1 C :   -0.544653
   2 H :    0.048553
   3 H :    0.047279
   4 O :   -0.421937
   5 H :    0.082668
   6 H :    0.066057
   7 H :    0.081793

  Mayer bond orders larger than 0.100000
B(  0-C ,  1-C ) :   0.8694 B(  0-C ,  4-O ) :  -0.2832 B(  0-C ,  5-H ) :   0.9641
B(  0-C ,  6-H ) :   0.9130 B(  0-C ,  7-H ) :   0.9666 B(  1-C ,  2-H ) :   0.9111
B(  1-C ,  3-H ) :   0.9127 B(  1-C ,  4-O ) :   1.6202 B(  4-O ,  6-H ) :   0.1117

Dispersion correction           -0.006236048
FINAL SINGLE POINT ENERGY      -154.397193713120

DIPOLE MOMENT
-------------
                                X             Y             Z
Electronic contribution:     -1.79585      -1.98561      -1.56543
Nuclear contribution   :      2.47835       2.80827       2.30058
                        -----------------------------------------
Total Dipole Moment    :      0.68249       0.82266       0.73515
                        -----------------------------------------
Magnitude (a.u.)       :      1.29731
Magnitude (Debye)      :      3.29751

Rotational constants in cm-1:     1.255775     0.327783     0.287473
Rotational constants in MHz : 37647.186859  9826.677683  8618.224821

                             ****ORCA TERMINATED NORMALLY****
TOTAL RUN TIME: 0 days 0 hours 0 minutes 11 seconds 995 msec
