                         Program Version 5.0.0 -  RELEASE  -
|  1> !B3LYP D3BJ RIJCOSX def2-TZVP def2/J TightSCF
|  2> *xyz 1 1
|  3> C         -2.12050        0.88520        1.78951
|  4> C         -0.77894        0.17197        1.80496
|  5> H         -2.32419        1.47265        2.68608
|  6> H         -2.18770        1.54127        0.91948
|  7> N         -3.17690       -0.15948        1.61070
|  8> H         -4.06474        0.23127        1.28675
|  9> H         -3.34407       -0.67151        2.48493
| 10> H         -2.71686       -0.78189        0.93588
| 11> H         -0.65708       -0.37837        0.89547
| 12> H         -0.74207       -0.50050        2.63642
| 13> H          0.00707        0.89251        1.89389
| 14> *
| 15> %MaxCore 64000
| 16>
| 17> %pal nprocs 4
| 18> end
| 19>
| 20> %scf
| 21>   MaxIter 150
| 22> end
| 23>
| 24>
| 25>                          ****END OF INPUT****

CARTESIAN COORDINATES (ANGSTROEM)
---------------------------------
  C     -2.120500    0.885200    1.789510
  C     -0.778940    0.171970    1.804960
  H     -2.324190    1.472650    2.686080
  H     -2.187700    1.541270    0.919480
  N     -3.176900   -0.159480    1.610700
  H     -4.064740    0.231270    1.286750
  H     -3.344070   -0.671510    2.484930
  H     -2.716860   -0.781890    0.935880
  H     -0.657080   -0.378370    0.895470
  H     -0.742070   -0.500500    2.636420
  H      0.007070    0.892510    1.893890

 Total Charge           Charge          ....    1
 Multiplicity           Mult            ....    1
 Number of Electrons    NEL             ....   26
 Basis Dimension        Dim             ....  141

ORBITAL ENERGIES
----------------

  NO   OCC          E(Eh)            E(eV)
   0   2.0000     -14.647756      -398.5857
   1   2.0000     -10.424366      -283.6614
   2   2.0000     -10.347927      -281.5814
   3   2.0000      -1.216866       -33.1126
   4   2.0000      -0.967491       -26.3268
   5   2.0000      -0.845558       -23.0088
   6   2.0000      -0.804612       -21.8946
   7   2.0000      -0.793958       -21.6047
   8   2.0000      -0.691755       -18.8236
   9   2.0000      -0.644811       -17.5462
  10   2.0000      -0.585433       -15.9304
  11   2.0000      -0.578672       -15.7465
  12   2.0000      -0.558061       -15.1856
  13   0.0000      -0.196058        -5.3350
  14   0.0000      -0.135509        -3.6874
  15   0.0000      -0.133315        -3.6277
  16   0.0000      -0.112628        -3.0648
  17   0.0000      -0.078428        -2.1341

MULLIKEN ATOMIC CHARGES
-----------------------
   0 C :   -0.175950
   1 C :   -0.343819
   2 H :    0.188419
   3 H :    0.179604
   4 N :   -0.264320
   5 H :    0.325075
   6 H :    0.318829
   7 H :    0.313571
   8 H :    0.137398
   9 H :    0.145707
  10 H :    0.175485
Sum of atomic charges:    1.0000000

LOEWDIN ATOMIC CHARGES
----------------------
   0 C :   -0.267522
   1 C :   -0.274736
   2 H :    0.149789
   3 H :    0.151972
   4 N :    0.172997
   5 H :    0.217725
   6 H :    0.220151
   7 H :    0.225055
   8 H :    0.127528
   9 H :    0.130091
  10 H :    0.146952

  Mayer bond orders larger than 0.100000
B(  0-C ,  1-C ) :   0.9754 B(  0-C ,  2-H ) :   0.9526 B(  0-C ,  3-H ) :   0.9508
B(  0-C ,  4-N ) :   0.8540 B(  1-C ,  8-H ) :   0.9546 B(  1-C ,  9-H ) :   0.9614
B(  1-C , 10-H ) :   0.9616 B(  4-N ,  5-H ) :   0.8785 B(  4-N ,  6-H ) :   0.8823
B(  4-N ,  7-H ) :   0.8781

Dispersion correction           -0.010176617
FINAL SINGLE POINT ENERGY      -135.502142570152

DIPOLE MOMENT
-------------
                                X             Y             Z
Electronic contribution:     -1.82619      -0.15253      -0.05722
Nuclear contribution   :      0.50278      -0.30871      -0.06979
                        -----------------------------------------
Total Dipole Moment    :     -1.32341      -0.46124      -0.12701
                        -----------------------------------------
Magnitude (a.u.)       :      1.40723
Magnitude (Debye)      :      3.57688

Rotational constants in cm-1:     0.963746     0.295157     0.256910
Rotational constants in MHz : 28892.375247  8848.576767  7701.963879

                             ****ORCA TERMINATED NORMALLY****
TOTAL RUN TIME: 0 days 0 hours 0 minutes 13 seconds 512 msec
