                         Program Version 5.0.0 -  RELEASE  -
|  1> !B3LYP D3BJ RIJCOSX def2-TZVP def2/J TightSCF
|  2> *xyz 0 1
|  3> C         -0.77894        0.17197        1.80496
|  4> C         -0.60249       -0.63071        0.49224
|  5> H          0.31389       -1.24035        0.60350
|  6> H         -0.36383        0.11332       -0.30117
|  7> F         -1.71206       -1.37684        0.20253
|  8> H         -1.65864        0.77733        1.73736
|  9> H          0.07466        0.79896        1.95712
| 10> H         -0.87474       -0.50584        2.62734
| 11> *
| 12> %MaxCore 64000
| 13>
| 14> %pal nprocs 4
| 15> end
| 16>
| 17> %scf
| 18>   MaxIter 150
| 19> end
| 20>
| 21>
| 22>                          ****END OF INPUT****

CARTESIAN COORDINATES (ANGSTROEM)
---------------------------------
  C     -0.778940    0.171970    1.804960
  C     -0.602490   -0.630710    0.492240
  H      0.313890   -1.240350    0.603500
  H     -0.363830    0.113320   -0.301170
  F     -1.712060   -1.376840    0.202530
  H     -1.658640    0.777330    1.737360
  H      0.074660    0.798960    1.957120
  H     -0.874740   -0.505840    2.627340

 Total Charge           Charge          ....    0
 Multiplicity           Mult            ....    1
 Number of Electrons    NEL             ....   26
 Basis Dimension        Dim             ....  123

ORBITAL ENERGIES
----------------

  NO   OCC          E(Eh)            E(eV)
   0   2.0000     -24.666693      -671.2149
   1   2.0000     -10.247537      -278.8496
   2   2.0000     -10.162402      -276.5330
   3   2.0000      -1.198517       -32.6133
   4   2.0000      -0.761375       -20.7181
   5   2.0000      -0.631579       -17.1861
   6   2.0000      -0.508278       -13.8309
   7   2.0000      -0.494663       -13.4605
   8   2.0000      -0.457103       -12.4384
   9   2.0000      -0.405015       -11.0210
  10   2.0000      -0.401265       -10.9190
  11   2.0000      -0.334569        -9.1041
  12   2.0000      -0.332383        -9.0446
  13   0.0000       0.041003         1.1157
  14   0.0000       0.078950         2.1483
  15   0.0000       0.095269         2.5924
  16   0.0000       0.097877         2.6634
  17   0.0000       0.113124         3.0783

MULLIKEN ATOMIC CHARGES
-----------------------
   0 C :   -0.303469
   1 C :    0.064622
   2 H :    0.082725
   3 H :    0.081820
   4 F :   -0.244006
   5 H :    0.110436
   6 H :    0.098930
   7 H :    0.108943
Sum of atomic charges:   -0.0000000

LOEWDIN ATOMIC CHARGES
----------------------
   0 C :   -0.304876
   1 C :   -0.362766
   2 H :    0.113370
   3 H :    0.114592
   4 F :    0.094540
   5 H :    0.114333
   6 H :    0.117626
   7 H :    0.113180

  Mayer bond orders larger than 0.100000
B(  0-C ,  1-C ) :   0.9736 B(  0-C ,  5-H ) :   0.9714 B(  0-C ,  6-H ) :   0.9585
B(  0-C ,  7-H ) :   0.9726 B(  1-C ,  2-H ) :   0.9677 B(  1-C ,  3-H ) :   0.9689
B(  1-C ,  4-F ) :   0.9870

Dispersion correction           -0.005741384
FINAL SINGLE POINT ENERGY      -179.047589910455

DIPOLE MOMENT
-------------
                                X             Y             Z
Electronic contribution:     -2.74860      -3.30391      -2.83210
Nuclear contribution   :      3.27800       3.70743       3.04146
                        -----------------------------------------
Total Dipole Moment    :      0.52940       0.40352       0.20936
                        -----------------------------------------
Magnitude (a.u.)       :      0.69780
Magnitude (Debye)      :      1.77367

Rotational constants in cm-1:     1.234437     0.305084     0.268865
Rotational constants in MHz : 37007.496448  9146.194083  8060.380630

                             ****ORCA TERMINATED NORMALLY****
TOTAL RUN TIME: 0 days 0 hours 0 minutes 11 seconds 20 msec
