                         Program Version 5.0.0 -  RELEASE  -
|  1> !B3LYP D3BJ RIJCOSX def2-TZVP def2/J TightSCF
|  2> *xyz 0 1
|  3> C         -2.12050        0.88520        1.78951
|  4> C         -0.77894        0.17197        1.80496
|  5> H         -2.32419        1.47265        2.68608
|  6> H         -2.18770        1.54127        0.91948
|  7> C         -3.17690       -0.15948        1.61070
|  8> H         -4.06474        0.23127        1.28675
|  9> H         -3.34407       -0.67151        2.48493
| 10> H         -2.71686       -0.78189        0.93588
| 11> H         -0.65708       -0.37837        0.89547
| 12> H         -0.74207       -0.50050        2.63642
| 13> H          0.00707        0.89251        1.89389
| 14> *
| 15> %MaxCore 64000
| 16>
| 17> %pal nprocs 4
| 18> end
| 19>
| 20> %scf
| 21>   MaxIter 150
| 22> end
| 23>
| 24>
| 25>                          ****END OF INPUT****

CARTESIAN COORDINATES (ANGSTROEM)
---------------------------------
  C     -2.120500    0.885200    1.789510
  C     -0.778940    0.171970    1.804960
  H     -2.324190    1.472650    2.686080
  H     -2.187700    1.541270    0.919480
  C     -3.176900   -0.159480    1.610700
  H     -4.064740    0.231270    1.286750
  H     -3.344070   -0.671510    2.484930
  H     -2.716860   -0.781890    0.935880
  H     -0.657080   -0.378370    0.895470
  H     -0.742070   -0.500500    2.636420
  H      0.007070    0.892510    1.893890

 Total Charge           Charge          ....    0
 Multiplicity           Mult            ....    1
 Number of Electrons    NEL             ....   26
 Basis Dimension        Dim             ....  141

ORBITAL ENERGIES
----------------

  NO   OCC          E(Eh)            E(eV)
   0   2.0000     -10.153581      -276.2930
   1   2.0000     -10.145324      -276.0683
   2   2.0000     -10.125633      -275.5325
   3   2.0000      -0.794402       -21.6168
   4   2.0000      -0.685219       -18.6458
   5   2.0000      -0.585058       -15.9202
   6   2.0000      -0.470857       -12.8127
   7   2.0000      -0.452405       -12.3106
   8   2.0000      -0.399437       -10.8692
   9   2.0000      -0.384944       -10.4749
  10   2.0000      -0.340402        -9.2628
  11   2.0000      -0.331617        -9.0238
  12   2.0000      -0.328357        -8.9350
  13   0.0000       0.042363         1.1527
  14   0.0000       0.082466         2.2440
  15   0.0000       0.089747         2.4421
  16   0.0000       0.093949         2.5565
  17   0.0000       0.112751         3.0681

MULLIKEN ATOMIC CHARGES
-----------------------
   0 C :   -0.130673
   1 C :   -0.315678
   2 H :    0.078815
   3 H :    0.075057
   4 C :   -0.286937
   5 H :    0.100260
   6 H :    0.098248
   7 H :    0.082823
   8 H :    0.099419
   9 H :    0.097384
  10 H :    0.101282
Sum of atomic charges:    0.0000000

LOEWDIN ATOMIC CHARGES
----------------------
   0 C :   -0.314431
   1 C :   -0.303416
   2 H :    0.124116
   3 H :    0.129101
   4 C :   -0.296462
   5 H :    0.102009
   6 H :    0.105214
   7 H :    0.114199
   8 H :    0.113409
   9 H :    0.114464
  10 H :    0.111795

  Mayer bond orders larger than 0.100000
B(  0-C ,  1-C ) :   0.9702 B(  0-C ,  2-H ) :   0.9711 B(  0-C ,  3-H ) :   0.9720
B(  0-C ,  4-C ) :   0.9524 B(  1-C ,  8-H ) :   0.9766 B(  1-C ,  9-H ) :   0.9771
B(  1-C , 10-H ) :   0.9803 B(  4-C ,  5-H ) :   0.9826 B(  4-C ,  6-H ) :   0.9825
B(  4-C ,  7-H ) :   0.9798

Dispersion correction           -0.010251687
FINAL SINGLE POINT ENERGY      -119.089379258010

DIPOLE MOMENT
-------------
                                X             Y             Z
Electronic contribution:     -0.14665       0.47373       0.11330
Nuclear contribution   :      0.13334      -0.45108      -0.10852
                        -----------------------------------------
Total Dipole Moment    :     -0.01331       0.02264       0.00478
                        -----------------------------------------
Magnitude (a.u.)       :      0.02670
Magnitude (Debye)      :      0.06787

Rotational constants in cm-1:     0.972269     0.310387     0.269029
Rotational constants in MHz : 29147.878530  9305.178981  8065.286472

                             ****ORCA TERMINATED NORMALLY****
TOTAL RUN TIME: 0 days 0 hours 0 minutes 13 seconds 188 msec
