                         Program Version 5.0.0 -  RELEASE  -
|  1> !B3LYP D3BJ RIJCOSX def2-TZVP def2/J TightSCF xyzfile
|  2>
|  3> *xyzfile 0 1 D.xyz
|  4>
|  5> %MaxCore 64000
|  6>
|  7> %pal nprocs 18
|  8> end
|  9>
| 10> %scf
| 11>   MaxIter 150
| 12> end
| 13>
| 14>
| 15>                          ****END OF INPUT****

CARTESIAN COORDINATES (ANGSTROEM)
---------------------------------
  C     -2.120502    0.885196    1.789506
  C     -0.778939    0.171966    1.804965
  H     -2.324193    1.472649    2.686078
  H     -2.187698    1.541272    0.919482
  C     -3.176900   -0.159484    1.610700
  H      0.015695    0.910767    1.939153
  H     -0.743553   -0.506827    2.665420
  C     -0.602493   -0.630712    0.492240
  H      0.313894   -1.240346    0.603498
  H     -0.363829    0.113322   -0.301169
  F     -1.712061   -1.376836    0.202535
  H     -4.064736    0.231272    1.286754
  H     -3.344073   -0.671511    2.484928
  H     -2.716861   -0.781886    0.935880

 Total Charge           Charge          ....    0
 Multiplicity           Mult            ....    1
 Number of Electrons    NEL             ....   42
 Basis Dimension        Dim             ....  209

ORBITAL ENERGIES
----------------

  NO   OCC          E(Eh)            E(eV)
   0   2.0000     -24.686123      -671.7436
   1   2.0000     -10.255176      -279.0575
   2   2.0000     -10.172078      -276.7963
   3   2.0000     -10.151583      -276.2386
   4   2.0000     -10.090339      -274.5721
   5   2.0000      -1.231916       -33.5221
   6   2.0000      -0.804859       -21.9013
   7   2.0000      -0.733946       -19.9717
   8   2.0000      -0.636819       -17.3287
   9   2.0000      -0.591430       -16.0936
  10   2.0000      -0.528711       -14.3870
  11   2.0000      -0.526355       -14.3228
  12   2.0000      -0.488488       -13.2924
  13   2.0000      -0.439440       -11.9578
  14   2.0000      -0.412860       -11.2345
  15   2.0000      -0.404066       -10.9952
  16   2.0000      -0.378591       -10.3020
  17   2.0000      -0.346427        -9.4268
  18   2.0000      -0.327728        -8.9179
  19   2.0000      -0.324212        -8.8223
  20   2.0000      -0.276243        -7.5170
  21   0.0000       0.036111         0.9826
  22   0.0000       0.067135         1.8268
  23   0.0000       0.071233         1.9383
  24   0.0000       0.084959         2.3119
  25   0.0000       0.098560         2.6820

MULLIKEN ATOMIC CHARGES
-----------------------
   0 C :   -0.138335
   1 C :   -0.193185
   2 H :    0.082416
   3 H :    0.069024
   4 C :   -0.382957
   5 H :    0.100339
   6 H :    0.089911
   7 C :    0.034223
   8 H :    0.098055
   9 H :    0.086011
  10 F :   -0.187160
  11 H :    0.084796
  12 H :    0.081510
  13 H :    0.175352
Sum of atomic charges:    0.0000000

LOEWDIN ATOMIC CHARGES
----------------------
   0 C :   -0.297405
   1 C :   -0.270553
   2 H :    0.124882
   3 H :    0.131824
   4 C :   -0.312995
   5 H :    0.137120
   6 H :    0.134953
   7 C :   -0.326549
   8 H :    0.121053
   9 H :    0.122886
  10 F :    0.159407
  11 H :    0.097456
  12 H :    0.099901
  13 H :    0.078021

  Mayer bond orders larger than 0.100000
B(  0-C ,  1-C ) :   0.9677 B(  0-C ,  2-H ) :   0.9677 B(  0-C ,  3-H ) :   0.9718
B(  0-C ,  4-C ) :   0.9485 B(  1-C ,  5-H ) :   0.9567 B(  1-C ,  6-H ) :   0.9642
B(  1-C ,  7-C ) :   0.9909 B(  4-C , 11-H ) :   0.9756 B(  4-C , 12-H ) :   0.9793
B(  4-C , 13-H ) :   0.9517 B(  7-C ,  8-H ) :   0.9619 B(  7-C ,  9-H ) :   0.9704
B(  7-C , 10-F ) :   0.9519

Dispersion correction           -0.016405813
FINAL SINGLE POINT ENERGY      -257.593377210211

DIPOLE MOMENT
-------------
                                X             Y             Z
Electronic contribution:      0.88338      -4.21251      -3.74392
Nuclear contribution   :     -0.20666       4.43855       3.76066
                        -----------------------------------------
Total Dipole Moment    :      0.67672       0.22604       0.01674
                        -----------------------------------------
Magnitude (a.u.)       :      0.71367
Magnitude (Debye)      :      1.81400

Rotational constants in cm-1:     0.236353     0.155239     0.105045
Rotational constants in MHz :  7085.692869  4653.957069  3149.180346

                             ****ORCA TERMINATED NORMALLY****
TOTAL RUN TIME: 0 days 0 hours 0 minutes 11 seconds 166 msec
