                         Program Version 5.0.0 -  RELEASE  -
|  1> !wB97X-D3 RIJCOSX def2-SVPD def2/J TightSCF CPCM(Water)
|  2> *xyz -1 1
|  3> C          3.51177       -2.80621       -6.49228
|  4> S          3.00462       -1.09621       -6.38926
|  5> O          4.12886       -0.32965       -6.95372
|  6> O          1.78128       -1.00078       -7.13640
|  7> O          2.85155       -0.78368       -4.95679
|  8> H          3.63615       -3.08010       -7.51913
|  9> H          2.76397       -3.42755       -6.04548
| 10> H          4.43892       -2.93511       -5.97393
| 11> *
| 12>
| 13> %MaxCore 64000
| 14>
| 15> %pal nprocs 8
| 16> end
| 17>
| 18> %scf
| 19>   MaxIter 150
| 20> end
| 21>
| 22>
| 23>                          ****END OF INPUT****

CARTESIAN COORDINATES (ANGSTROEM)
---------------------------------
  C      3.511770   -2.806210   -6.492280
  S      3.004620   -1.096210   -6.389260
  O      4.128860   -0.329650   -6.953720
  O      1.781280   -1.000780   -7.136400
  O      2.851550   -0.783680   -4.956790
  H      3.636150   -3.080100   -7.519130
  H      2.763970   -3.427550   -6.045480
  H      4.438920   -2.935110   -5.973930

 Total Charge           Charge          ....   -1
 Multiplicity           Mult            ....    1
 Number of Electrons    NEL             ....   50
 Basis Dimension        Dim             ....  140

ORBITAL ENERGIES
----------------

  NO   OCC          E(Eh)            E(eV)
   0   2.0000     -89.156477     -2426.0711
   1   2.0000     -19.210761      -522.7514
   2   2.0000     -19.202245      -522.5197
   3   2.0000     -19.201549      -522.5007
   4   2.0000     -10.291135      -280.0360
   5   2.0000      -8.230646      -223.9673
   6   2.0000      -6.190461      -168.4510
   7   2.0000      -6.190417      -168.4498
   8   2.0000      -6.188940      -168.4096
   9   2.0000      -1.229785       -33.4641
  10   2.0000      -1.086628       -29.5687
  11   2.0000      -1.067287       -29.0424
  12   2.0000      -0.851381       -23.1673
  13   2.0000      -0.666856       -18.1461
  14   2.0000      -0.584536       -15.9060
  15   2.0000      -0.563912       -15.3448
  16   2.0000      -0.562324       -15.3016
  17   2.0000      -0.511133       -13.9086
  18   2.0000      -0.509240       -13.8571
  19   2.0000      -0.437825       -11.9138
  20   2.0000      -0.436383       -11.8746
  21   2.0000      -0.392373       -10.6770
  22   2.0000      -0.383360       -10.4318
  23   2.0000      -0.381395       -10.3783
  24   2.0000      -0.346719        -9.4347
  25   0.0000       0.079808         2.1717
  26   0.0000       0.103011         2.8031
  27   0.0000       0.103961         2.8289
  28   0.0000       0.104273         2.8374
  29   0.0000       0.154197         4.1959

MULLIKEN ATOMIC CHARGES
-----------------------
   0 C :    0.367836
   1 S :    1.064590
   2 O :   -0.821866
   3 O :   -0.776940
   4 O :   -0.820560
   5 H :    0.000477
   6 H :   -0.006664
   7 H :   -0.006873
Sum of atomic charges:   -1.0000000

LOEWDIN ATOMIC CHARGES
----------------------
   0 C :    0.078219
   1 S :    0.831854
   2 O :   -0.630936
   3 O :   -0.603903
   4 O :   -0.629790
   5 H :   -0.014534
   6 H :   -0.015352
   7 H :   -0.015558

  Mayer bond orders larger than 0.100000
B(  0-C ,  1-S ) :   0.9775 B(  0-C ,  5-H ) :   0.9278 B(  0-C ,  6-H ) :   0.9310
B(  0-C ,  7-H ) :   0.9321 B(  1-S ,  2-O ) :   1.3045 B(  1-S ,  3-O ) :   1.3481
B(  1-S ,  4-O ) :   1.3024 B(  1-S ,  5-H ) :   0.1027 B(  1-S ,  6-H ) :   0.1026
B(  1-S ,  7-H ) :   0.1089

Dispersion correction           -0.001518362
FINAL SINGLE POINT ENERGY      -663.519912615183

DIPOLE MOMENT
-------------
                                X             Y             Z
Electronic contribution:     -1.13741       3.32291       0.10768
Nuclear contribution   :      1.59265      -5.51967      -0.35565
                        -----------------------------------------
Total Dipole Moment    :      0.45523      -2.19676      -0.24797
                        -----------------------------------------
Magnitude (a.u.)       :      2.25710
Magnitude (Debye)      :      5.73708

Rotational constants in cm-1:     0.172598     0.157065     0.154689
Rotational constants in MHz :  5174.362736  4708.699947  4637.458896

                             ****ORCA TERMINATED NORMALLY****
TOTAL RUN TIME: 0 days 0 hours 0 minutes 10 seconds 381 msec
