                         Program Version 5.0.0 -  RELEASE  -
|  1> !wB97X-D3 RIJCOSX def2-SVPD def2/J TightSCF CPCM(Water)
|  2> *xyz 1 1
|  3> C          4.49059        1.15590       -2.46929
|  4> N          4.30539        1.22276       -3.90832
|  5> C          4.63192        2.24637       -4.67096
|  6> N          4.54169        2.14399       -5.98714
|  7> N          5.08409        3.39358       -4.11855
|  8> H          4.92067        3.57050       -3.13587
|  9> H          5.25465        4.19739       -4.70696
| 10> H          3.82453        0.44911       -4.35093
| 11> H          4.34337        1.24932       -6.41665
| 12> H          4.67671        2.95662       -6.57411
| 13> H          5.00867        2.03053       -2.13534
| 14> H          5.06354        0.28631       -2.22344
| 15> H          3.53600        1.10160       -1.98897
| 16> *
| 17>
| 18> %MaxCore 64000
| 19>
| 20> %pal nprocs 8
| 21> end
| 22>
| 23> %scf
| 24>   MaxIter 150
| 25> end
| 26>
| 27>
| 28>                          ****END OF INPUT****

CARTESIAN COORDINATES (ANGSTROEM)
---------------------------------
  C      4.490590    1.155900   -2.469290
  N      4.305390    1.222760   -3.908320
  C      4.631920    2.246370   -4.670960
  N      4.541690    2.143990   -5.987140
  N      5.084090    3.393580   -4.118550
  H      4.920670    3.570500   -3.135870
  H      5.254650    4.197390   -4.706960
  H      3.824530    0.449110   -4.350930
  H      4.343370    1.249320   -6.416650
  H      4.676710    2.956620   -6.574110
  H      5.008670    2.030530   -2.135340
  H      5.063540    0.286310   -2.223440
  H      3.536000    1.101600   -1.988970

 Total Charge           Charge          ....    1
 Multiplicity           Mult            ....    1
 Number of Electrons    NEL             ....   40
 Basis Dimension        Dim             ....  164

ORBITAL ENERGIES
----------------

  NO   OCC          E(Eh)            E(eV)
   0   2.0000     -14.492432      -394.3591
   1   2.0000     -14.483487      -394.1157
   2   2.0000     -14.482273      -394.0827
   3   2.0000     -10.456225      -284.5284
   4   2.0000     -10.330102      -281.0964
   5   2.0000      -1.153752       -31.3952
   6   2.0000      -1.041543       -28.3418
   7   2.0000      -1.022207       -27.8157
   8   2.0000      -0.848379       -23.0856
   9   2.0000      -0.757314       -20.6076
  10   2.0000      -0.718420       -19.5492
  11   2.0000      -0.684221       -18.6186
  12   2.0000      -0.615681       -16.7535
  13   2.0000      -0.612992       -16.6804
  14   2.0000      -0.587335       -15.9822
  15   2.0000      -0.571574       -15.5533
  16   2.0000      -0.525799       -14.3077
  17   2.0000      -0.512777       -13.9534
  18   2.0000      -0.398475       -10.8431
  19   2.0000      -0.376282       -10.2391
  20   0.0000       0.085478         2.3260
  21   0.0000       0.088232         2.4009
  22   0.0000       0.115904         3.1539
  23   0.0000       0.130506         3.5513
  24   0.0000       0.157130         4.2757

MULLIKEN ATOMIC CHARGES
-----------------------
   0 C :    1.066732
   1 N :   -0.648972
   2 C :    1.328555
   3 N :   -0.135061
   4 N :   -0.128967
   5 H :   -0.002077
   6 H :   -0.053033
   7 H :   -0.192912
   8 H :    0.011439
   9 H :    0.038596
  10 H :   -0.135861
  11 H :   -0.057271
  12 H :   -0.091167
Sum of atomic charges:    1.0000000

LOEWDIN ATOMIC CHARGES
----------------------
   0 C :    0.258092
   1 N :    0.012385
   2 C :   -0.031045
   3 N :    0.260384
   4 N :    0.267626
   5 H :    0.015818
   6 H :    0.043086
   7 H :    0.074315
   8 H :    0.049486
   9 H :    0.048913
  10 H :   -0.015102
  11 H :    0.007791
  12 H :    0.008252

  Mayer bond orders larger than 0.100000
B(  0-C ,  1-N ) :   0.8547 B(  0-C ,  7-H ) :  -0.1752 B(  0-C , 10-H ) :   0.8631
B(  0-C , 11-H ) :   0.8081 B(  0-C , 12-H ) :   0.8318 B(  1-N ,  2-C ) :   1.0252
B(  1-N ,  3-N ) :   0.2340 B(  1-N ,  4-N ) :   0.2328 B(  1-N ,  7-H ) :   1.3819
B(  1-N , 10-H ) :   0.1787 B(  1-N , 11-H ) :   0.1709 B(  1-N , 12-H ) :   0.1562
B(  2-C ,  3-N ) :   0.9024 B(  2-C ,  4-N ) :   0.9346 B(  2-C ,  6-H ) :  -0.1215
B(  2-C ,  7-H ) :  -0.2105 B(  2-C ,  8-H ) :  -0.1386 B(  3-N ,  4-N ) :   0.1553
B(  3-N ,  8-H ) :   1.1760 B(  3-N ,  9-H ) :   1.1649 B(  4-N ,  5-H ) :   1.0747
B(  4-N ,  6-H ) :   1.1990 B(  5-H ,  6-H ) :  -0.1452 B(  8-H ,  9-H ) :  -0.1643

Dispersion correction           -0.002329592
FINAL SINGLE POINT ENERGY      -244.954570717206

DIPOLE MOMENT
-------------
                                X             Y             Z
Electronic contribution:     -0.04744       0.76695      -2.88085
Nuclear contribution   :     -0.23495      -0.48067       2.19509
                        -----------------------------------------
Total Dipole Moment    :     -0.28239       0.28628      -0.68576
                        -----------------------------------------
Magnitude (a.u.)       :      0.79496
Magnitude (Debye)      :      2.02064

Rotational constants in cm-1:     0.315679     0.134071     0.096006
Rotational constants in MHz :  9463.824527  4019.347586  2878.182223

                             ****ORCA TERMINATED NORMALLY****
TOTAL RUN TIME: 0 days 0 hours 0 minutes 15 seconds 34 msec
