                         Program Version 5.0.0 -  RELEASE  -
|  1> !wB97X-D3 RIJCOSX def2-SVPD def2/J TightSCF CPCM(Water) xyzfile
|  2>
|  3> *xyzfile 0 1 B.xyz
|  4>
|  5> %MaxCore 64000
|  6>
|  7> %pal nprocs 18
|  8> end
|  9>
| 10> %scf
| 11>   MaxIter 150
| 12> end
| 13>
| 14>
| 15>                          ****END OF INPUT****

CARTESIAN COORDINATES (ANGSTROEM)
---------------------------------
  C      4.490588    1.155899   -2.469290
  N      4.305394    1.222762   -3.908317
  C      4.906458   -3.102816   -5.954844
  C      3.511771   -2.806215   -6.492283
  H      2.736044   -3.373445   -5.973736
  H      3.444904   -3.040831   -7.555281
  S      3.004618   -1.096206   -6.389259
  C      4.631918    2.246365   -4.670958
  N      4.541686    2.143990   -5.987139
  N      5.084086    3.393584   -4.118545
  H      4.920675    3.570501   -3.135870
  H      5.254652    4.197390   -4.706956
  H      3.824530    0.449113   -4.350926
  H      4.343373    1.249318   -6.416646
  H      4.676712    2.956624   -6.574113
  O      4.128856   -0.329647   -6.953717
  O      1.781285   -1.000779   -7.136399
  C      5.942129    0.939500   -2.036893
  H      3.864305    0.328532   -2.136611
  H      4.076233    2.049994   -1.989010
  C      6.462677   -3.117775   -3.944671
  C      5.024977   -3.025679   -4.437625
  H      4.423321   -3.818693   -3.977648
  H      4.579350   -2.087131   -4.108727
  H      5.201533   -4.100207   -6.296905
  H      5.605922   -2.397822   -6.413368
  C      6.559957   -0.356290   -2.559086
  H      5.967976    0.952567   -0.942444
  H      6.547184    1.788331   -2.368849
  C      6.006283   -1.615917   -1.899301
  H      7.642360   -0.318000   -2.402059
  H      6.414855   -0.403433   -3.642587
  C      6.608718   -2.917014   -2.435655
  H      6.190324   -1.561115   -0.820948
  H      4.919250   -1.651245   -2.016586
  H      7.066975   -2.374258   -4.475514
  H      6.887808   -4.089747   -4.215332
  H      6.135197   -3.755573   -1.915159
  H      7.671142   -2.955503   -2.172291
  O      2.851546   -0.783683   -4.956789

 Total Charge           Charge          ....    0
 Multiplicity           Mult            ....    1
 Number of Electrons    NEL             ....  144
 Basis Dimension        Dim             ....  540

ORBITAL ENERGIES
----------------

  NO   OCC          E(Eh)            E(eV)
   0   2.0000     -89.170483     -2426.4522
   1   2.0000     -19.222102      -523.0600
   2   2.0000     -19.220722      -523.0224
   3   2.0000     -19.220285      -523.0105
   4   2.0000     -14.472477      -393.8161
   5   2.0000     -14.462325      -393.5399
   6   2.0000     -14.456613      -393.3844
   7   2.0000     -10.438367      -284.0424
   8   2.0000     -10.329294      -281.0744
   9   2.0000     -10.306042      -280.4417
  10   2.0000     -10.287399      -279.9344
  11   2.0000     -10.285402      -279.8800
  12   2.0000     -10.277879      -279.6753
  13   2.0000     -10.275997      -279.6241
  14   2.0000     -10.275608      -279.6135
  15   2.0000     -10.274829      -279.5923
  16   2.0000     -10.272773      -279.5364
  17   2.0000      -8.243842      -224.3264
  18   2.0000      -6.204109      -168.8224
  19   2.0000      -6.203688      -168.8109
  20   2.0000      -6.201672      -168.7561
  21   2.0000      -1.246589       -33.9214
  22   2.0000      -1.137271       -30.9467
  23   2.0000      -1.102398       -29.9978
  24   2.0000      -1.090489       -29.6737
  25   2.0000      -1.025699       -27.9107
  26   2.0000      -1.007536       -27.4164
  27   2.0000      -0.928428       -25.2638
  28   2.0000      -0.910166       -24.7669
  29   2.0000      -0.881710       -23.9925
  30   2.0000      -0.840595       -22.8738
  31   2.0000      -0.803575       -21.8664
  32   2.0000      -0.771160       -20.9843
  33   2.0000      -0.739293       -20.1172
  34   2.0000      -0.722060       -19.6482
  35   2.0000      -0.704880       -19.1808
  36   2.0000      -0.693950       -18.8833
  37   2.0000      -0.667399       -18.1609
  38   2.0000      -0.662919       -18.0389
  39   2.0000      -0.645370       -17.5614
  40   2.0000      -0.616541       -16.7769
  41   2.0000      -0.605527       -16.4772
  42   2.0000      -0.599541       -16.3143
  43   2.0000      -0.589644       -16.0450
  44   2.0000      -0.576912       -15.6986
  45   2.0000      -0.573695       -15.6110
  46   2.0000      -0.564182       -15.3522
  47   2.0000      -0.562010       -15.2931
  48   2.0000      -0.552074       -15.0227
  49   2.0000      -0.534416       -14.5422
  50   2.0000      -0.530307       -14.4304
  51   2.0000      -0.517248       -14.0750
  52   2.0000      -0.512301       -13.9404
  53   2.0000      -0.500742       -13.6259
  54   2.0000      -0.480660       -13.0794
  55   2.0000      -0.473515       -12.8850
  56   2.0000      -0.459255       -12.4970
  57   2.0000      -0.452688       -12.3183
  58   2.0000      -0.447602       -12.1799
  59   2.0000      -0.444565       -12.0972
  60   2.0000      -0.438627       -11.9357
  61   2.0000      -0.425752       -11.5853
  62   2.0000      -0.420268       -11.4361
  63   2.0000      -0.407798       -11.0968
  64   2.0000      -0.403947       -10.9920
  65   2.0000      -0.398582       -10.8460
  66   2.0000      -0.396110       -10.7787
  67   2.0000      -0.393283       -10.7018
  68   2.0000      -0.384111       -10.4522
  69   2.0000      -0.378181       -10.2908
  70   2.0000      -0.365032        -9.9330
  71   2.0000      -0.357308        -9.7229
  72   0.0000       0.079433         2.1615
  73   0.0000       0.088924         2.4197
  74   0.0000       0.093772         2.5517
  75   0.0000       0.094096         2.5605
  76   0.0000       0.104117         2.8332

MULLIKEN ATOMIC CHARGES
-----------------------
   0 C :    0.938574
   1 N :    0.100111
   2 C :    0.153015
   3 C :    0.225648
   4 H :    0.058861
   5 H :    0.057220
   6 S :    1.305228
   7 C :    1.277706
   8 N :    0.279035
   9 N :    0.021023
  10 H :    0.028416
  11 H :   -0.110406
  12 H :   -0.955798
  13 H :   -0.327775
  14 H :   -0.073289
  15 O :   -0.815376
  16 O :   -0.846170
  17 C :    0.250856
  18 H :   -0.191473
  19 H :   -0.111378
  20 C :   -0.005910
  21 C :    0.209068
  22 H :    0.057901
  23 H :   -0.510168
  24 H :   -0.062837
  25 H :    0.047857
  26 C :    0.072449
  27 H :   -0.062944
  28 H :   -0.013709
  29 C :   -0.198790
  30 H :   -0.131939
  31 H :   -0.111687
  32 C :    0.612438
  33 H :   -0.314152
  34 H :    0.178180
  35 H :    0.112575
  36 H :   -0.303214
  37 H :   -0.015630
  38 H :    0.026897
  39 O :   -0.850412
Sum of atomic charges:   -0.0000000

LOEWDIN ATOMIC CHARGES
----------------------
   0 C :    0.086169
   1 N :    0.063406
   2 C :   -0.034354
   3 C :   -0.061287
   4 H :    0.031586
   5 H :    0.025373
   6 S :    0.947952
   7 C :   -0.020332
   8 N :    0.278371
   9 N :    0.268753
  10 H :    0.016313
  11 H :    0.037888
  12 H :   -0.088756
  13 H :   -0.111313
  14 H :    0.046864
  15 O :   -0.542316
  16 O :   -0.562932
  17 C :   -0.014086
  18 H :    0.031328
  19 H :    0.030427
  20 C :   -0.038820
  21 C :   -0.031638
  22 H :    0.042218
  23 H :   -0.022174
  24 H :    0.036343
  25 H :    0.021092
  26 C :   -0.031500
  27 H :    0.031748
  28 H :    0.014592
  29 C :   -0.037630
  30 H :    0.030465
  31 H :    0.008589
  32 C :   -0.032856
  33 H :    0.026373
  34 H :    0.008705
  35 H :    0.017838
  36 H :    0.025382
  37 H :    0.023581
  38 H :    0.023350
  39 O :   -0.544712

  Mayer bond orders larger than 0.100000
B(  0-C ,  1-N ) :   0.8862 B(  0-C , 12-H ) :  -0.4273 B(  0-C , 17-C ) :   1.1289
B(  0-C , 18-H ) :   0.7012 B(  0-C , 19-H ) :   0.8889 B(  1-N ,  7-C ) :   1.2390
B(  1-N ,  9-N ) :   0.2180 B(  1-N , 12-H ) :   1.1079 B(  1-N , 13-H ) :   0.1523
B(  1-N , 14-H ) :  -0.1025 B(  1-N , 18-H ) :   0.2483 B(  2-C ,  3-C ) :   1.2491
B(  2-C ,  5-H ) :   0.2414 B(  2-C , 21-C ) :   1.1369 B(  2-C , 22-H ) :   0.1012
B(  2-C , 24-H ) :   0.8475 B(  2-C , 25-H ) :   0.8569 B(  3-C ,  4-H ) :   0.9205
B(  3-C ,  5-H ) :   0.7397 B(  3-C ,  6-S ) :   1.0080 B(  3-C , 25-H ) :   0.1041
B(  6-S , 15-O ) :   1.1652 B(  6-S , 16-O ) :   1.3111 B(  6-S , 39-O ) :   1.1766
B(  7-C ,  8-N ) :   0.9363 B(  7-C ,  9-N ) :   0.9350 B(  7-C , 12-H ) :  -0.6380
B(  7-C , 13-H ) :  -0.2618 B(  7-C , 14-H ) :  -0.1281 B(  8-N ,  9-N ) :   0.1068
B(  8-N , 13-H ) :   1.1152 B(  8-N , 14-H ) :   1.3102 B(  9-N , 10-H ) :   1.0512
B(  9-N , 11-H ) :   1.2333 B( 10-H , 11-H ) :  -0.1934 B( 12-H , 39-O ) :   0.2174
B( 13-H , 14-H ) :  -0.2722 B( 13-H , 15-O ) :   0.2035 B( 17-C , 18-H ) :   0.1115
B( 17-C , 19-H ) :   0.1029 B( 17-C , 26-C ) :   1.2182 B( 17-C , 27-H ) :   0.9283
B( 17-C , 28-H ) :   0.7467 B( 18-H , 19-H ) :  -0.1522 B( 20-C , 21-C ) :   1.2168
B( 20-C , 22-H ) :   0.1060 B( 20-C , 32-C ) :   1.1368 B( 20-C , 35-H ) :   0.8634
B( 20-C , 36-H ) :   0.9736 B( 20-C , 37-H ) :   0.1061 B( 20-C , 38-H ) :   0.2053
B( 21-C , 22-H ) :   0.7297 B( 21-C , 23-H ) :   0.8471 B( 21-C , 24-H ) :   0.1761
B( 21-C , 36-H ) :   0.1923 B( 22-H , 23-H ) :   0.1996 B( 23-H , 34-H ) :   0.1137
B( 26-C , 28-H ) :   0.1942 B( 26-C , 29-C ) :   1.2209 B( 26-C , 30-H ) :   0.9033
B( 26-C , 31-H ) :   0.9176 B( 26-C , 33-H ) :   0.1376 B( 29-C , 30-H ) :   0.1450
B( 29-C , 31-H ) :   0.1167 B( 29-C , 32-C ) :   1.1429 B( 29-C , 33-H ) :   1.0633
B( 29-C , 34-H ) :   0.8301 B( 29-C , 37-H ) :   0.2665 B( 29-C , 38-H ) :   0.1334
B( 32-C , 37-H ) :   0.6934 B( 32-C , 38-H ) :   0.7133

Dispersion correction           -0.021985719
FINAL SINGLE POINT ENERGY     -1182.256587968781

DIPOLE MOMENT
-------------
                                X             Y             Z
Electronic contribution:    -13.85361       8.88872     -14.73874
Nuclear contribution   :     16.79156      -5.47215      17.54258
                        -----------------------------------------
Total Dipole Moment    :      2.93795       3.41657       2.80384
                        -----------------------------------------
Magnitude (a.u.)       :      5.30717
Magnitude (Debye)      :     13.48975

Rotational constants in cm-1:     0.014207     0.012373     0.007472
Rotational constants in MHz :   425.900436   370.942493   224.006604

                             ****ORCA TERMINATED NORMALLY****
TOTAL RUN TIME: 0 days 0 hours 1 minutes 50 seconds 424 msec
