                         Program Version 5.0.0 -  RELEASE  -
|  1> !wB97X-D3 RIJCOSX def2-SVPD def2/J TightSCF CPCM(Water)
|  2> *xyz 0 1
|  3> C          4.49059        1.15590       -2.46929
|  4> C          4.30539        1.22276       -3.90832
|  5> C          4.63192        2.24637       -4.67096
|  6> N          4.54169        2.14399       -5.98714
|  7> N          5.08409        3.39358       -4.11855
|  8> H          4.92067        3.57050       -3.13587
|  9> H          5.25465        4.19739       -4.70696
| 10> H          3.82453        0.44911       -4.35093
| 11> H          4.34337        1.24932       -6.41665
| 12> H          4.67671        2.95662       -6.57411
| 13> H          5.00867        2.03053       -2.13534
| 14> H          5.06354        0.28631       -2.22344
| 15> H          3.53600        1.10160       -1.98897
| 16> *
| 17>
| 18> %MaxCore 64000
| 19>
| 20> %pal nprocs 8
| 21> end
| 22>
| 23> %scf
| 24>   MaxIter 150
| 25> end
| 26>
| 27>
| 28>                          ****END OF INPUT****

CARTESIAN COORDINATES (ANGSTROEM)
---------------------------------
  C      4.490590    1.155900   -2.469290
  C      4.305390    1.222760   -3.908320
  C      4.631920    2.246370   -4.670960
  N      4.541690    2.143990   -5.987140
  N      5.084090    3.393580   -4.118550
  H      4.920670    3.570500   -3.135870
  H      5.254650    4.197390   -4.706960
  H      3.824530    0.449110   -4.350930
  H      4.343370    1.249320   -6.416650
  H      4.676710    2.956620   -6.574110
  H      5.008670    2.030530   -2.135340
  H      5.063540    0.286310   -2.223440
  H      3.536000    1.101600   -1.988970

 Total Charge           Charge          ....    0
 Multiplicity           Mult            ....    1
 Number of Electrons    NEL             ....   40
 Basis Dimension        Dim             ....  164

ORBITAL ENERGIES
----------------

  NO   OCC          E(Eh)            E(eV)
   0   2.0000     -14.429448      -392.6452
   1   2.0000     -14.427745      -392.5989
   2   2.0000     -10.334544      -281.2172
   3   2.0000     -10.257901      -279.1317
   4   2.0000     -10.214085      -277.9394
   5   2.0000      -1.064873       -28.9767
   6   2.0000      -0.969525       -26.3821
   7   2.0000      -0.866758       -23.5857
   8   2.0000      -0.765007       -20.8169
   9   2.0000      -0.682895       -18.5825
  10   2.0000      -0.639218       -17.3940
  11   2.0000      -0.610834       -16.6216
  12   2.0000      -0.565711       -15.3938
  13   2.0000      -0.523871       -14.2552
  14   2.0000      -0.514077       -13.9887
  15   2.0000      -0.478072       -13.0090
  16   2.0000      -0.461721       -12.5641
  17   2.0000      -0.441997       -12.0274
  18   2.0000      -0.356665        -9.7053
  19   2.0000      -0.248842        -6.7713
  20   0.0000       0.098359         2.6765
  21   0.0000       0.123831         3.3696
  22   0.0000       0.134510         3.6602
  23   0.0000       0.155682         4.2363
  24   0.0000       0.166630         4.5342

MULLIKEN ATOMIC CHARGES
-----------------------
   0 C :    0.879225
   1 C :   -0.743508
   2 C :    0.883495
   3 N :   -0.010707
   4 N :   -0.060558
   5 H :   -0.011242
   6 H :   -0.177425
   7 H :   -0.356436
   8 H :   -0.016073
   9 H :   -0.075912
  10 H :   -0.234271
  11 H :   -0.005048
  12 H :   -0.071540
Sum of atomic charges:    0.0000000

LOEWDIN ATOMIC CHARGES
----------------------
   0 C :    0.087977
   1 C :   -0.095408
   2 C :   -0.244062
   3 N :    0.172848
   4 N :    0.190675
   5 H :   -0.010140
   6 H :    0.004591
   7 H :   -0.052472
   8 H :    0.017440
   9 H :    0.008802
  10 H :   -0.040477
  11 H :   -0.020371
  12 H :   -0.019404

  Mayer bond orders larger than 0.100000
B(  0-C ,  1-C ) :   1.0947 B(  0-C ,  7-H ) :   0.1572 B(  0-C , 10-H ) :   0.7995
B(  0-C , 11-H ) :   0.7127 B(  0-C , 12-H ) :   0.7400 B(  1-C ,  2-C ) :   1.6390
B(  1-C ,  3-N ) :   0.3791 B(  1-C ,  4-N ) :   0.2571 B(  1-C ,  7-H ) :   0.9865
B(  1-C , 10-H ) :   0.3709 B(  1-C , 11-H ) :   0.1886 B(  1-C , 12-H ) :   0.1685
B(  2-C ,  3-N ) :   0.9236 B(  2-C ,  4-N ) :   0.9913 B(  2-C ,  6-H ) :  -0.1322
B(  2-C ,  7-H ) :   0.1338 B(  2-C , 10-H ) :  -0.1115 B(  3-N ,  4-N ) :   0.1039
B(  3-N ,  8-H ) :   1.1624 B(  3-N ,  9-H ) :   1.1537 B(  4-N ,  5-H ) :   1.0473
B(  4-N ,  6-H ) :   1.2476 B(  5-H ,  6-H ) :  -0.1410 B(  8-H ,  9-H ) :  -0.1569
B( 10-H , 11-H ) :   0.1389

Dispersion correction           -0.002331427
FINAL SINGLE POINT ENERGY      -228.402402946443

DIPOLE MOMENT
-------------
                                X             Y             Z
Electronic contribution:      0.29367       1.62308      -3.04024
Nuclear contribution   :     -0.29662      -0.64714       2.26125
                        -----------------------------------------
Total Dipole Moment    :     -0.00296       0.97594      -0.77899
                        -----------------------------------------
Magnitude (a.u.)       :      1.24872
Magnitude (Debye)      :      3.17399

Rotational constants in cm-1:     0.320965     0.135060     0.096994
Rotational constants in MHz :  9622.302637  4048.999301  2907.812202

                             ****ORCA TERMINATED NORMALLY****
TOTAL RUN TIME: 0 days 0 hours 0 minutes 16 seconds 99 msec
