                         Program Version 5.0.0 -  RELEASE  -
|  1> !wB97X-D3 RIJCOSX def2-SVPD def2/J TightSCF CPCM(Water)
|  2> *xyz 0 1
|  3> C          3.51177       -2.80621       -6.49228
|  4> S          3.00462       -1.09621       -6.38926
|  5> O          4.12886       -0.32965       -6.95372
|  6> F          1.78128       -1.00078       -7.13640
|  7> O          2.85155       -0.78368       -4.95679
|  8> H          3.63615       -3.08010       -7.51913
|  9> H          2.76397       -3.42755       -6.04548
| 10> H          4.43892       -2.93511       -5.97393
| 11> *
| 12>
| 13> %MaxCore 64000
| 14>
| 15> %pal nprocs 8
| 16> end
| 17>
| 18> %scf
| 19>   MaxIter 150
| 20> end
| 21>
| 22>
| 23>                          ****END OF INPUT****

CARTESIAN COORDINATES (ANGSTROEM)
---------------------------------
  C      3.511770   -2.806210   -6.492280
  S      3.004620   -1.096210   -6.389260
  O      4.128860   -0.329650   -6.953720
  F      1.781280   -1.000780   -7.136400
  O      2.851550   -0.783680   -4.956790
  H      3.636150   -3.080100   -7.519130
  H      2.763970   -3.427550   -6.045480
  H      4.438920   -2.935110   -5.973930

 Total Charge           Charge          ....    0
 Multiplicity           Mult            ....    1
 Number of Electrons    NEL             ....   50
 Basis Dimension        Dim             ....  140

ORBITAL ENERGIES
----------------

  NO   OCC          E(Eh)            E(eV)
   0   2.0000     -89.246176     -2428.5119
   1   2.0000     -24.922480      -678.1752
   2   2.0000     -19.262943      -524.1713
   3   2.0000     -19.262290      -524.1536
   4   2.0000     -10.332565      -281.1634
   5   2.0000      -8.320150      -226.4028
   6   2.0000      -6.283881      -170.9931
   7   2.0000      -6.277780      -170.8271
   8   2.0000      -6.275832      -170.7741
   9   2.0000      -1.497843       -40.7584
  10   2.0000      -1.227395       -33.3991
  11   2.0000      -1.124425       -30.5972
  12   2.0000      -0.909127       -24.7386
  13   2.0000      -0.825176       -22.4542
  14   2.0000      -0.707646       -19.2560
  15   2.0000      -0.698656       -19.0114
  16   2.0000      -0.667929       -18.1753
  17   2.0000      -0.579604       -15.7718
  18   2.0000      -0.573548       -15.6070
  19   2.0000      -0.552263       -15.0278
  20   2.0000      -0.536471       -14.5981
  21   2.0000      -0.492818       -13.4103
  22   2.0000      -0.438202       -11.9241
  23   2.0000      -0.436702       -11.8833
  24   2.0000      -0.413372       -11.2484
  25   0.0000       0.068413         1.8616
  26   0.0000       0.099168         2.6985
  27   0.0000       0.099485         2.7071
  28   0.0000       0.102396         2.7863
  29   0.0000       0.127379         3.4662

MULLIKEN ATOMIC CHARGES
-----------------------
   0 C :    0.267875
   1 S :    1.293065
   2 O :   -0.705975
   3 F :   -0.360659
   4 O :   -0.706163
   5 H :    0.077069
   6 H :    0.070014
   7 H :    0.064774
Sum of atomic charges:   -0.0000000

LOEWDIN ATOMIC CHARGES
----------------------
   0 C :    0.138497
   1 S :    1.121810
   2 O :   -0.522578
   3 F :   -0.237675
   4 O :   -0.521016
   5 H :    0.004729
   6 H :    0.004040
   7 H :    0.012193

  Mayer bond orders larger than 0.100000
B(  0-C ,  1-S ) :   1.0269 B(  0-C ,  5-H ) :   0.9208 B(  0-C ,  6-H ) :   0.9261
B(  0-C ,  7-H ) :   0.9252 B(  1-S ,  2-O ) :   1.4857 B(  1-S ,  3-F ) :   0.7257
B(  1-S ,  4-O ) :   1.4822 B(  1-S ,  7-H ) :   0.1074

Dispersion correction           -0.001528726
FINAL SINGLE POINT ENERGY      -687.910713836577

DIPOLE MOMENT
-------------
                                X             Y             Z
Electronic contribution:     -3.48995       3.63940      -1.29207
Nuclear contribution   :      2.85578      -5.69854       0.39418
                        -----------------------------------------
Total Dipole Moment    :     -0.63417      -2.05914      -0.89789
                        -----------------------------------------
Magnitude (a.u.)       :      2.33419
Magnitude (Debye)      :      5.93304

Rotational constants in cm-1:     0.163257     0.155833     0.146211
Rotational constants in MHz :  4894.333085  4671.750883  4383.281537

                             ****ORCA TERMINATED NORMALLY****
TOTAL RUN TIME: 0 days 0 hours 0 minutes 11 seconds 302 msec
