                         Program Version 5.0.0 -  RELEASE  -
|  1> !wB97X-D3 RIJCOSX def2-SVPD def2/J TightSCF CPCM(Water)
|  2> *xyz 0 1
|  3> C          4.49059        1.15590       -2.46929
|  4> N          4.30539        1.22276       -3.90832
|  5> C          4.63192        2.24637       -4.67096
|  6> C          4.54169        2.14399       -5.98714
|  7> N          5.08409        3.39358       -4.11855
|  8> H          4.92067        3.57050       -3.13587
|  9> H          5.25465        4.19739       -4.70696
| 10> H          3.82453        0.44911       -4.35093
| 11> H          4.34337        1.24932       -6.41665
| 12> H          4.67671        2.95662       -6.57411
| 13> H          5.00867        2.03053       -2.13534
| 14> H          5.06354        0.28631       -2.22344
| 15> H          3.53600        1.10160       -1.98897
| 16> *
| 17>
| 18> %MaxCore 64000
| 19>
| 20> %pal nprocs 8
| 21> end
| 22>
| 23> %scf
| 24>   MaxIter 150
| 25> end
| 26>
| 27>
| 28>                          ****END OF INPUT****

CARTESIAN COORDINATES (ANGSTROEM)
---------------------------------
  C      4.490590    1.155900   -2.469290
  N      4.305390    1.222760   -3.908320
  C      4.631920    2.246370   -4.670960
  C      4.541690    2.143990   -5.987140
  N      5.084090    3.393580   -4.118550
  H      4.920670    3.570500   -3.135870
  H      5.254650    4.197390   -4.706960
  H      3.824530    0.449110   -4.350930
  H      4.343370    1.249320   -6.416650
  H      4.676710    2.956620   -6.574110
  H      5.008670    2.030530   -2.135340
  H      5.063540    0.286310   -2.223440
  H      3.536000    1.101600   -1.988970

 Total Charge           Charge          ....    0
 Multiplicity           Mult            ....    1
 Number of Electrons    NEL             ....   40
 Basis Dimension        Dim             ....  164

ORBITAL ENERGIES
----------------

  NO   OCC          E(Eh)            E(eV)
   0   2.0000     -14.436693      -392.8424
   1   2.0000     -14.433264      -392.7491
   2   2.0000     -10.344840      -281.4974
   3   2.0000     -10.308255      -280.5019
   4   2.0000     -10.206482      -277.7325
   5   2.0000      -1.077976       -29.3332
   6   2.0000      -0.984965       -26.8023
   7   2.0000      -0.853666       -23.2294
   8   2.0000      -0.773263       -21.0416
   9   2.0000      -0.703966       -19.1559
  10   2.0000      -0.639338       -17.3973
  11   2.0000      -0.592865       -16.1327
  12   2.0000      -0.569318       -15.4919
  13   2.0000      -0.548476       -14.9248
  14   2.0000      -0.498943       -13.5769
  15   2.0000      -0.489957       -13.3324
  16   2.0000      -0.485827       -13.2200
  17   2.0000      -0.463190       -12.6040
  18   2.0000      -0.346586        -9.4311
  19   2.0000      -0.259637        -7.0651
  20   0.0000       0.094150         2.5619
  21   0.0000       0.120663         3.2834
  22   0.0000       0.137689         3.7467
  23   0.0000       0.145770         3.9666
  24   0.0000       0.157114         4.2753

MULLIKEN ATOMIC CHARGES
-----------------------
   0 C :    1.118223
   1 N :   -0.580772
   2 C :    0.673055
   3 C :    0.286640
   4 N :   -0.026289
   5 H :   -0.075835
   6 H :   -0.070005
   7 H :   -0.246952
   8 H :   -0.305936
   9 H :   -0.345990
  10 H :   -0.181201
  11 H :   -0.106383
  12 H :   -0.138555
Sum of atomic charges:   -0.0000000

LOEWDIN ATOMIC CHARGES
----------------------
   0 C :    0.224417
   1 N :   -0.048604
   2 C :   -0.253780
   3 C :    0.099144
   4 N :    0.194923
   5 H :   -0.015850
   6 H :    0.015903
   7 H :    0.049671
   8 H :   -0.108857
   9 H :   -0.111510
  10 H :   -0.027084
  11 H :   -0.009361
  12 H :   -0.009011

  Mayer bond orders larger than 0.100000
B(  0-C ,  1-N ) :   0.8668 B(  0-C ,  7-H ) :  -0.1743 B(  0-C , 10-H ) :   0.8553
B(  0-C , 11-H ) :   0.8004 B(  0-C , 12-H ) :   0.8235 B(  1-N ,  2-C ) :   1.0738
B(  1-N ,  3-C ) :   0.2246 B(  1-N ,  4-N ) :   0.1789 B(  1-N ,  7-H ) :   1.3403
B(  1-N , 10-H ) :   0.2066 B(  1-N , 11-H ) :   0.1660 B(  1-N , 12-H ) :   0.1682
B(  2-C ,  3-C ) :   1.5303 B(  2-C ,  4-N ) :   0.9869 B(  2-C ,  7-H ) :  -0.1982
B(  2-C ,  9-H ) :   0.1629 B(  3-C ,  4-N ) :   0.1993 B(  3-C ,  8-H ) :   0.8728
B(  3-C ,  9-H ) :   0.8138 B(  4-N ,  5-H ) :   1.0687 B(  4-N ,  6-H ) :   1.1582
B(  5-H ,  6-H ) :  -0.1396

Dispersion correction           -0.002342100
FINAL SINGLE POINT ENERGY      -228.391267897394

DIPOLE MOMENT
-------------
                                X             Y             Z
Electronic contribution:      0.02439       0.53740      -0.33410
Nuclear contribution   :     -0.24876      -0.46055       1.84019
                        -----------------------------------------
Total Dipole Moment    :     -0.22437       0.07684       1.50609
                        -----------------------------------------
Magnitude (a.u.)       :      1.52465
Magnitude (Debye)      :      3.87536

Rotational constants in cm-1:     0.322158     0.139919     0.099594
Rotational constants in MHz :  9658.057362  4194.660927  2985.745059

                             ****ORCA TERMINATED NORMALLY****
TOTAL RUN TIME: 0 days 0 hours 0 minutes 16 seconds 206 msec
