                         Program Version 5.0.0 -  RELEASE  -
|  1> !wB97X-D3 RIJCOSX def2-SVPD def2/J TightSCF CPCM(Water)
|  2> *xyz 0 1
|  3> C          3.51177       -2.80621       -6.49228
|  4> S          3.00462       -1.09621       -6.38926
|  5> O          4.12886       -0.32965       -6.95372
|  6> O          1.78128       -1.00078       -7.13640
|  7> F          2.85155       -0.78368       -4.95679
|  8> H          3.63615       -3.08010       -7.51913
|  9> H          2.76397       -3.42755       -6.04548
| 10> H          4.43892       -2.93511       -5.97393
| 11> *
| 12>
| 13> %MaxCore 64000
| 14>
| 15> %pal nprocs 8
| 16> end
| 17>
| 18> %scf
| 19>   MaxIter 150
| 20> end
| 21>
| 22>
| 23>                          ****END OF INPUT****

CARTESIAN COORDINATES (ANGSTROEM)
---------------------------------
  C      3.511770   -2.806210   -6.492280
  S      3.004620   -1.096210   -6.389260
  O      4.128860   -0.329650   -6.953720
  O      1.781280   -1.000780   -7.136400
  F      2.851550   -0.783680   -4.956790
  H      3.636150   -3.080100   -7.519130
  H      2.763970   -3.427550   -6.045480
  H      4.438920   -2.935110   -5.973930

 Total Charge           Charge          ....    0
 Multiplicity           Mult            ....    1
 Number of Electrons    NEL             ....   50
 Basis Dimension        Dim             ....  140

ORBITAL ENERGIES
----------------

  NO   OCC          E(Eh)            E(eV)
   0   2.0000     -89.243372     -2428.4356
   1   2.0000     -24.906409      -677.7378
   2   2.0000     -19.271709      -524.4099
   3   2.0000     -19.261785      -524.1398
   4   2.0000     -10.331605      -281.1373
   5   2.0000      -8.317365      -226.3270
   6   2.0000      -6.280920      -170.9125
   7   2.0000      -6.275085      -170.7537
   8   2.0000      -6.273260      -170.7041
   9   2.0000      -1.467935       -39.9445
  10   2.0000      -1.239016       -33.7153
  11   2.0000      -1.138221       -30.9726
  12   2.0000      -0.905203       -24.6318
  13   2.0000      -0.812351       -22.1052
  14   2.0000      -0.693740       -18.8776
  15   2.0000      -0.678675       -18.4677
  16   2.0000      -0.665535       -18.1101
  17   2.0000      -0.581342       -15.8191
  18   2.0000      -0.575747       -15.6669
  19   2.0000      -0.552184       -15.0257
  20   2.0000      -0.539539       -14.6816
  21   2.0000      -0.497243       -13.5307
  22   2.0000      -0.447692       -12.1823
  23   2.0000      -0.436501       -11.8778
  24   2.0000      -0.423487       -11.5237
  25   0.0000       0.068696         1.8693
  26   0.0000       0.099385         2.7044
  27   0.0000       0.099727         2.7137
  28   0.0000       0.102317         2.7842
  29   0.0000       0.119755         3.2587

MULLIKEN ATOMIC CHARGES
-----------------------
   0 C :    0.270146
   1 S :    1.293717
   2 O :   -0.716367
   3 O :   -0.671132
   4 F :   -0.383058
   5 H :    0.071557
   6 H :    0.068013
   7 H :    0.067122
Sum of atomic charges:   -0.0000000

LOEWDIN ATOMIC CHARGES
----------------------
   0 C :    0.138278
   1 S :    1.118292
   2 O :   -0.522502
   3 O :   -0.497045
   4 F :   -0.256869
   5 H :    0.012667
   6 H :    0.003643
   7 H :    0.003536

  Mayer bond orders larger than 0.100000
B(  0-C ,  1-S ) :   1.0266 B(  0-C ,  5-H ) :   0.9179 B(  0-C ,  6-H ) :   0.9268
B(  0-C ,  7-H ) :   0.9281 B(  1-S ,  2-O ) :   1.4823 B(  1-S ,  3-O ) :   1.5238
B(  1-S ,  4-F ) :   0.6791 B(  1-S ,  5-H ) :   0.1026

Dispersion correction           -0.001524852
FINAL SINGLE POINT ENERGY      -687.923659847659

DIPOLE MOMENT
-------------
                                X             Y             Z
Electronic contribution:     -1.49248       4.04784       2.82379
Nuclear contribution   :      1.78651      -5.91544      -1.78339
                        -----------------------------------------
Total Dipole Moment    :      0.29403      -1.86760       1.04040
                        -----------------------------------------
Magnitude (a.u.)       :      2.15797
Magnitude (Debye)      :      5.48511

Rotational constants in cm-1:     0.165193     0.152051     0.147788
Rotational constants in MHz :  4952.361749  4558.380225  4430.570551

                             ****ORCA TERMINATED NORMALLY****
TOTAL RUN TIME: 0 days 0 hours 0 minutes 10 seconds 825 msec
