                         Program Version 5.0.0 -  RELEASE  -
|  1> !wB97X-D3 RIJCOSX def2-SVPD def2/J TightSCF CPCM(Water)
|  2> *xyz 0 1
|  3> C          4.49059        1.15590       -2.46929
|  4> N          4.30539        1.22276       -3.90832
|  5> C          4.63192        2.24637       -4.67096
|  6> N          4.54169        2.14399       -5.98714
|  7> C          5.08409        3.39358       -4.11855
|  8> H          4.92067        3.57050       -3.13587
|  9> H          5.25465        4.19739       -4.70696
| 10> H          3.82453        0.44911       -4.35093
| 11> H          4.34337        1.24932       -6.41665
| 12> H          4.67671        2.95662       -6.57411
| 13> H          5.00867        2.03053       -2.13534
| 14> H          5.06354        0.28631       -2.22344
| 15> H          3.53600        1.10160       -1.98897
| 16> *
| 17>
| 18> %MaxCore 64000
| 19>
| 20> %pal nprocs 8
| 21> end
| 22>
| 23> %scf
| 24>   MaxIter 150
| 25> end
| 26>
| 27>
| 28>                          ****END OF INPUT****

CARTESIAN COORDINATES (ANGSTROEM)
---------------------------------
  C      4.490590    1.155900   -2.469290
  N      4.305390    1.222760   -3.908320
  C      4.631920    2.246370   -4.670960
  N      4.541690    2.143990   -5.987140
  C      5.084090    3.393580   -4.118550
  H      4.920670    3.570500   -3.135870
  H      5.254650    4.197390   -4.706960
  H      3.824530    0.449110   -4.350930
  H      4.343370    1.249320   -6.416650
  H      4.676710    2.956620   -6.574110
  H      5.008670    2.030530   -2.135340
  H      5.063540    0.286310   -2.223440
  H      3.536000    1.101600   -1.988970

 Total Charge           Charge          ....    0
 Multiplicity           Mult            ....    1
 Number of Electrons    NEL             ....   40
 Basis Dimension        Dim             ....  164

ORBITAL ENERGIES
----------------

  NO   OCC          E(Eh)            E(eV)
   0   2.0000     -14.439405      -392.9162
   1   2.0000     -14.434465      -392.7817
   2   2.0000     -10.348068      -281.5853
   3   2.0000     -10.305770      -280.4343
   4   2.0000     -10.207019      -277.7471
   5   2.0000      -1.081507       -29.4293
   6   2.0000      -0.991664       -26.9845
   7   2.0000      -0.827924       -22.5290
   8   2.0000      -0.804965       -21.9042
   9   2.0000      -0.673627       -18.3303
  10   2.0000      -0.653521       -17.7832
  11   2.0000      -0.620427       -16.8827
  12   2.0000      -0.554625       -15.0921
  13   2.0000      -0.539446       -14.6791
  14   2.0000      -0.513954       -13.9854
  15   2.0000      -0.486146       -13.2287
  16   2.0000      -0.478626       -13.0241
  17   2.0000      -0.459565       -12.5054
  18   2.0000      -0.342644        -9.3238
  19   2.0000      -0.260938        -7.1005
  20   0.0000       0.097292         2.6474
  21   0.0000       0.122302         3.3280
  22   0.0000       0.126154         3.4328
  23   0.0000       0.144880         3.9424
  24   0.0000       0.164049         4.4640

MULLIKEN ATOMIC CHARGES
-----------------------
   0 C :    1.108787
   1 N :   -0.567756
   2 C :    0.631834
   3 N :    0.018721
   4 C :    0.236108
   5 H :   -0.198791
   6 H :   -0.466712
   7 H :   -0.296053
   8 H :   -0.106349
   9 H :    0.016599
  10 H :   -0.153518
  11 H :   -0.088891
  12 H :   -0.133979
Sum of atomic charges:    0.0000000

LOEWDIN ATOMIC CHARGES
----------------------
   0 C :    0.226601
   1 N :   -0.050760
   2 C :   -0.250224
   3 N :    0.186061
   4 C :    0.109564
   5 H :   -0.135505
   6 H :   -0.119435
   7 H :    0.044536
   8 H :    0.015076
   9 H :    0.021704
  10 H :   -0.034425
  11 H :   -0.007195
  12 H :   -0.006000

  Mayer bond orders larger than 0.100000
B(  0-C ,  1-N ) :   0.8520 B(  0-C ,  7-H ) :  -0.1626 B(  0-C , 10-H ) :   0.8676
B(  0-C , 11-H ) :   0.7740 B(  0-C , 12-H ) :   0.7965 B(  1-N ,  2-C ) :   1.0239
B(  1-N ,  3-N ) :   0.1404 B(  1-N ,  4-C ) :   0.3002 B(  1-N ,  7-H ) :   1.4035
B(  1-N , 10-H ) :   0.1620 B(  1-N , 11-H ) :   0.1984 B(  1-N , 12-H ) :   0.1851
B(  2-C ,  3-N ) :   1.0297 B(  2-C ,  4-C ) :   1.7004 B(  2-C ,  5-H ) :   0.2091
B(  2-C ,  6-H ) :   0.1366 B(  2-C ,  7-H ) :  -0.2329 B(  3-N ,  4-C ) :   0.2033
B(  3-N ,  8-H ) :   1.1925 B(  3-N ,  9-H ) :   1.1430 B(  4-C ,  5-H ) :   0.7305
B(  4-C ,  6-H ) :   0.9884 B(  5-H ,  6-H ) :   0.1325 B(  5-H , 10-H ) :   0.1370
B(  8-H ,  9-H ) :  -0.1639

Dispersion correction           -0.002335114
FINAL SINGLE POINT ENERGY      -228.390977941879

DIPOLE MOMENT
-------------
                                X             Y             Z
Electronic contribution:     -0.66270      -1.15131      -2.83494
Nuclear contribution   :     -0.13890      -0.20745       2.21867
                        -----------------------------------------
Total Dipole Moment    :     -0.80161      -1.35876      -0.61627
                        -----------------------------------------
Magnitude (a.u.)       :      1.69369
Magnitude (Debye)      :      4.30503

Rotational constants in cm-1:     0.339212     0.134625     0.098371
Rotational constants in MHz : 10169.318272  4035.946597  2949.073953

                             ****ORCA TERMINATED NORMALLY****
TOTAL RUN TIME: 0 days 0 hours 0 minutes 15 seconds 929 msec
