                         Program Version 5.0.0 -  RELEASE  -
|  1> !wB97X-D3 RIJCOSX def2-SVPD def2/J TightSCF CPCM(Water) xyzfile
|  2>
|  3> *xyzfile 0 1 D1.xyz
|  4>
|  5> %MaxCore 64000
|  6>
|  7> %pal nprocs 18
|  8> end
|  9>
| 10> %scf
| 11>   MaxIter 150
| 12> end
| 13>
| 14>
| 15>                          ****END OF INPUT****

CARTESIAN COORDINATES (ANGSTROEM)
---------------------------------
  C      4.490588    1.155899   -2.469290
  C      4.305394    1.222762   -3.908317
  C      4.906458   -3.102816   -5.954844
  C      3.511771   -2.806215   -6.492283
  H      2.736044   -3.373445   -5.973736
  H      3.444904   -3.040831   -7.555281
  S      3.004618   -1.096206   -6.389259
  C      4.631918    2.246365   -4.670958
  N      4.541686    2.143990   -5.987139
  N      5.084086    3.393584   -4.118545
  H      4.920675    3.570501   -3.135870
  H      5.254652    4.197390   -4.706956
  H      3.824530    0.449113   -4.350926
  H      4.343373    1.249318   -6.416646
  H      4.676712    2.956624   -6.574113
  F      4.128856   -0.329647   -6.953717
  O      1.781285   -1.000779   -7.136399
  C      5.942129    0.939500   -2.036893
  H      3.864305    0.328532   -2.136611
  H      4.076233    2.049994   -1.989010
  C      6.462677   -3.117775   -3.944671
  C      5.024977   -3.025679   -4.437625
  H      4.423321   -3.818693   -3.977648
  H      4.579350   -2.087131   -4.108727
  H      5.201533   -4.100207   -6.296905
  H      5.605922   -2.397822   -6.413368
  C      6.559957   -0.356290   -2.559086
  H      5.967976    0.952567   -0.942444
  H      6.547184    1.788331   -2.368849
  C      6.006283   -1.615917   -1.899301
  H      7.642360   -0.318000   -2.402059
  H      6.414855   -0.403433   -3.642587
  C      6.608718   -2.917014   -2.435655
  H      6.190324   -1.561115   -0.820948
  H      4.919250   -1.651245   -2.016586
  H      7.066975   -2.374258   -4.475514
  H      6.887808   -4.089747   -4.215332
  H      6.135197   -3.755573   -1.915159
  H      7.671142   -2.955503   -2.172291
  O      2.851546   -0.783683   -4.956789

 Total Charge           Charge          ....    0
 Multiplicity           Mult            ....    1
 Number of Electrons    NEL             ....  144
 Basis Dimension        Dim             ....  540

ORBITAL ENERGIES
----------------

  NO   OCC          E(Eh)            E(eV)
   0   2.0000     -89.245138     -2428.4837
   1   2.0000     -24.920399      -678.1185
   2   2.0000     -19.275472      -524.5123
   3   2.0000     -19.262244      -524.1523
   4   2.0000     -14.426754      -392.5719
   5   2.0000     -14.421518      -392.4294
   6   2.0000     -10.341420      -281.4044
   7   2.0000     -10.326379      -280.9951
   8   2.0000     -10.302337      -280.3408
   9   2.0000     -10.279007      -279.7060
  10   2.0000     -10.276769      -279.6451
  11   2.0000     -10.275217      -279.6029
  12   2.0000     -10.271562      -279.5034
  13   2.0000     -10.268012      -279.4068
  14   2.0000     -10.265987      -279.3517
  15   2.0000     -10.260442      -279.2008
  16   2.0000     -10.191033      -277.3121
  17   2.0000      -8.318508      -226.3581
  18   2.0000      -6.282348      -170.9514
  19   2.0000      -6.276313      -170.7872
  20   2.0000      -6.273953      -170.7230
  21   2.0000      -1.483471       -40.3673
  22   2.0000      -1.243518       -33.8378
  23   2.0000      -1.142095       -31.0780
  24   2.0000      -1.060463       -28.8567
  25   2.0000      -0.967110       -26.3164
  26   2.0000      -0.945192       -25.7200
  27   2.0000      -0.917862       -24.9763
  28   2.0000      -0.891211       -24.2511
  29   2.0000      -0.862470       -23.4690
  30   2.0000      -0.835625       -22.7385
  31   2.0000      -0.810478       -22.0542
  32   2.0000      -0.779476       -21.2106
  33   2.0000      -0.748277       -20.3617
  34   2.0000      -0.719982       -19.5917
  35   2.0000      -0.711329       -19.3562
  36   2.0000      -0.695552       -18.9269
  37   2.0000      -0.689647       -18.7663
  38   2.0000      -0.668656       -18.1950
  39   2.0000      -0.664286       -18.0761
  40   2.0000      -0.647808       -17.6277
  41   2.0000      -0.631931       -17.1957
  42   2.0000      -0.598184       -16.2774
  43   2.0000      -0.596794       -16.2396
  44   2.0000      -0.582556       -15.8522
  45   2.0000      -0.576315       -15.6823
  46   2.0000      -0.564678       -15.3657
  47   2.0000      -0.553284       -15.0556
  48   2.0000      -0.551097       -14.9961
  49   2.0000      -0.546861       -14.8808
  50   2.0000      -0.522587       -14.2203
  51   2.0000      -0.520863       -14.1734
  52   2.0000      -0.517310       -14.0767
  53   2.0000      -0.509061       -13.8523
  54   2.0000      -0.494651       -13.4601
  55   2.0000      -0.483614       -13.1598
  56   2.0000      -0.478352       -13.0166
  57   2.0000      -0.468161       -12.7393
  58   2.0000      -0.461452       -12.5567
  59   2.0000      -0.450933       -12.2705
  60   2.0000      -0.448123       -12.1940
  61   2.0000      -0.436441       -11.8762
  62   2.0000      -0.432288       -11.7631
  63   2.0000      -0.419128       -11.4050
  64   2.0000      -0.416246       -11.3266
  65   2.0000      -0.410522       -11.1709
  66   2.0000      -0.400054       -10.8860
  67   2.0000      -0.392338       -10.6761
  68   2.0000      -0.389263       -10.5924
  69   2.0000      -0.377515       -10.2727
  70   2.0000      -0.351939        -9.5767
  71   2.0000      -0.241707        -6.5772
  72   0.0000       0.069740         1.8977
  73   0.0000       0.091281         2.4839
  74   0.0000       0.094465         2.5705
  75   0.0000       0.096134         2.6159
  76   0.0000       0.108559         2.9540

MULLIKEN ATOMIC CHARGES
-----------------------
   0 C :    0.053060
   1 C :    0.296640
   2 C :    0.161082
   3 C :    0.143578
   4 H :    0.141205
   5 H :    0.084739
   6 S :    1.507554
   7 C :    0.869349
   8 N :    0.211037
   9 N :   -0.082378
  10 H :    0.007367
  11 H :   -0.184735
  12 H :   -0.761742
  13 H :   -0.261479
  14 H :   -0.125181
  15 F :   -0.430647
  16 O :   -0.741405
  17 C :    0.394655
  18 H :    0.153671
  19 H :   -0.172554
  20 C :   -0.014145
  21 C :    0.274088
  22 H :    0.067915
  23 H :   -0.567798
  24 H :   -0.047463
  25 H :    0.056783
  26 C :    0.054147
  27 H :   -0.060816
  28 H :   -0.129460
  29 C :   -0.118764
  30 H :   -0.110534
  31 H :   -0.080490
  32 C :    0.609417
  33 H :   -0.311336
  34 H :    0.116160
  35 H :    0.128366
  36 H :   -0.301128
  37 H :   -0.018012
  38 H :    0.022466
  39 O :   -0.833211
Sum of atomic charges:    0.0000000

LOEWDIN ATOMIC CHARGES
----------------------
   0 C :   -0.050002
   1 C :   -0.038054
   2 C :   -0.024917
   3 C :   -0.022281
   4 H :    0.053441
   5 H :    0.038843
   6 S :    1.171289
   7 C :   -0.207876
   8 N :    0.201018
   9 N :    0.201012
  10 H :   -0.005474
  11 H :    0.002704
  12 H :   -0.156206
  13 H :   -0.074905
  14 H :    0.014633
  15 F :   -0.244287
  16 O :   -0.472649
  17 C :   -0.034321
  18 H :    0.009331
  19 H :    0.008890
  20 C :   -0.036514
  21 C :   -0.028152
  22 H :    0.045576
  23 H :   -0.019643
  24 H :    0.045528
  25 H :    0.033229
  26 C :   -0.035630
  27 H :    0.016785
  28 H :    0.007833
  29 C :   -0.038544
  30 H :    0.025373
  31 H :    0.003394
  32 C :   -0.033671
  33 H :    0.024155
  34 H :    0.007192
  35 H :    0.018785
  36 H :    0.026367
  37 H :    0.022887
  38 H :    0.023025
  39 O :   -0.478163

  Mayer bond orders larger than 0.100000
B(  0-C ,  1-C ) :   1.2120 B(  0-C , 12-H ) :   0.7982 B(  0-C , 17-C ) :   1.1364
B(  0-C , 18-H ) :   0.6971 B(  0-C , 19-H ) :   0.9178 B(  0-C , 27-H ) :   0.1796
B(  0-C , 28-H ) :   0.1406 B(  1-C ,  7-C ) :   1.6949 B(  1-C ,  8-N ) :   0.3000
B(  1-C ,  9-N ) :   0.2848 B(  1-C , 10-H ) :  -0.1019 B(  1-C , 12-H ) :  -0.4515
B(  1-C , 18-H ) :   0.3587 B(  1-C , 19-H ) :   0.1640 B(  2-C ,  3-C ) :   1.2340
B(  2-C ,  5-H ) :   0.2206 B(  2-C , 21-C ) :   1.1131 B(  2-C , 24-H ) :   0.8703
B(  2-C , 25-H ) :   0.8543 B(  3-C ,  4-H ) :   0.9082 B(  3-C ,  5-H ) :   0.7723
B(  3-C ,  6-S ) :   1.0407 B(  3-C , 25-H ) :   0.1009 B(  6-S , 15-F ) :   0.5927
B(  6-S , 16-O ) :   1.4403 B(  6-S , 39-O ) :   1.4832 B(  7-C ,  8-N ) :   0.8544
B(  7-C ,  9-N ) :   0.8340 B(  7-C , 11-H ) :  -0.1667 B(  7-C , 13-H ) :  -0.2058
B(  7-C , 14-H ) :  -0.1612 B(  8-N , 13-H ) :   1.1531 B(  8-N , 14-H ) :   1.3463
B(  9-N , 10-H ) :   1.0306 B(  9-N , 11-H ) :   1.3275 B( 10-H , 11-H ) :  -0.1895
B( 11-H , 12-H ) :  -0.1079 B( 12-H , 18-H ) :  -0.2033 B( 12-H , 39-O ) :   0.1873
B( 13-H , 14-H ) :  -0.2403 B( 13-H , 15-F ) :   0.1455 B( 16-O , 39-O ) :   0.1288
B( 17-C , 18-H ) :   0.1061 B( 17-C , 26-C ) :   1.2712 B( 17-C , 27-H ) :   0.7934
B( 17-C , 28-H ) :   0.7348 B( 17-C , 31-H ) :   0.1351 B( 20-C , 21-C ) :   1.2153
B( 20-C , 22-H ) :   0.1062 B( 20-C , 23-H ) :   0.1039 B( 20-C , 32-C ) :   1.1362
B( 20-C , 35-H ) :   0.8553 B( 20-C , 36-H ) :   0.9873 B( 20-C , 37-H ) :   0.1053
B( 20-C , 38-H ) :   0.2072 B( 21-C , 22-H ) :   0.7237 B( 21-C , 23-H ) :   0.7925
B( 21-C , 24-H ) :   0.1741 B( 21-C , 36-H ) :   0.1907 B( 22-H , 23-H ) :   0.2257
B( 23-H , 34-H ) :   0.1147 B( 26-C , 27-H ) :   0.1230 B( 26-C , 28-H ) :   0.2156
B( 26-C , 29-C ) :   1.2036 B( 26-C , 30-H ) :   0.8478 B( 26-C , 31-H ) :   0.9007
B( 26-C , 33-H ) :   0.1332 B( 27-H , 28-H ) :  -0.1159 B( 29-C , 30-H ) :   0.1286
B( 29-C , 31-H ) :   0.1060 B( 29-C , 32-C ) :   1.1343 B( 29-C , 33-H ) :   1.0405
B( 29-C , 34-H ) :   0.8490 B( 29-C , 37-H ) :   0.2676 B( 29-C , 38-H ) :   0.1328
B( 32-C , 37-H ) :   0.6982 B( 32-C , 38-H ) :   0.7101

Dispersion correction           -0.021879082
FINAL SINGLE POINT ENERGY     -1190.064730156635

DIPOLE MOMENT
-------------
                                X             Y             Z
Electronic contribution:    -15.88082       4.60967     -21.90081
Nuclear contribution   :     17.24138      -5.45913      20.34076
                        -----------------------------------------
Total Dipole Moment    :      1.36056      -0.84946      -1.56005
                        -----------------------------------------
Magnitude (a.u.)       :      2.23752
Magnitude (Debye)      :      5.68731

Rotational constants in cm-1:     0.014201     0.012275     0.007453
Rotational constants in MHz :   425.728191   368.008875   223.435232

                             ****ORCA TERMINATED NORMALLY****
TOTAL RUN TIME: 0 days 0 hours 2 minutes 5 seconds 881 msec
