                         Program Version 5.0.0 -  RELEASE  -
|  1> !wB97X-D3 RIJCOSX def2-SVPD def2/J TightSCF CPCM(Water) xyzfile
|  2>
|  3> *xyzfile 0 1 D2.xyz
|  4>
|  5> %MaxCore 64000
|  6>
|  7> %pal nprocs 18
|  8> end
|  9>
| 10> %scf
| 11>   MaxIter 150
| 12> end
| 13>
| 14>
| 15>                          ****END OF INPUT****

CARTESIAN COORDINATES (ANGSTROEM)
---------------------------------
  C      4.490588    1.155899   -2.469290
  N      4.305394    1.222762   -3.908317
  C      4.906458   -3.102816   -5.954844
  C      3.511771   -2.806215   -6.492283
  H      2.736044   -3.373445   -5.973736
  H      3.444904   -3.040831   -7.555281
  S      3.004618   -1.096206   -6.389259
  C      4.631918    2.246365   -4.670958
  C      4.541686    2.143990   -5.987139
  N      5.084086    3.393584   -4.118545
  H      4.920675    3.570501   -3.135870
  H      5.254652    4.197390   -4.706956
  H      3.824530    0.449113   -4.350926
  H      4.343373    1.249318   -6.416646
  H      4.676712    2.956624   -6.574113
  F      4.128856   -0.329647   -6.953717
  O      1.781285   -1.000779   -7.136399
  C      5.942129    0.939500   -2.036893
  H      3.864305    0.328532   -2.136611
  H      4.076233    2.049994   -1.989010
  C      6.462677   -3.117775   -3.944671
  C      5.024977   -3.025679   -4.437625
  H      4.423321   -3.818693   -3.977648
  H      4.579350   -2.087131   -4.108727
  H      5.201533   -4.100207   -6.296905
  H      5.605922   -2.397822   -6.413368
  C      6.559957   -0.356290   -2.559086
  H      5.967976    0.952567   -0.942444
  H      6.547184    1.788331   -2.368849
  C      6.006283   -1.615917   -1.899301
  H      7.642360   -0.318000   -2.402059
  H      6.414855   -0.403433   -3.642587
  C      6.608718   -2.917014   -2.435655
  H      6.190324   -1.561115   -0.820948
  H      4.919250   -1.651245   -2.016586
  H      7.066975   -2.374258   -4.475514
  H      6.887808   -4.089747   -4.215332
  H      6.135197   -3.755573   -1.915159
  H      7.671142   -2.955503   -2.172291
  O      2.851546   -0.783683   -4.956789

 Total Charge           Charge          ....    0
 Multiplicity           Mult            ....    1
 Number of Electrons    NEL             ....  144
 Basis Dimension        Dim             ....  540

ORBITAL ENERGIES
----------------

  NO   OCC          E(Eh)            E(eV)
   0   2.0000     -89.248587     -2428.5775
   1   2.0000     -24.912481      -677.9031
   2   2.0000     -19.277397      -524.5646
   3   2.0000     -19.272302      -524.4260
   4   2.0000     -14.430274      -392.6677
   5   2.0000     -14.417844      -392.3295
   6   2.0000     -10.342288      -281.4280
   7   2.0000     -10.338785      -281.3326
   8   2.0000     -10.312243      -280.6104
   9   2.0000     -10.302990      -280.3586
  10   2.0000     -10.280244      -279.7397
  11   2.0000     -10.277696      -279.6703
  12   2.0000     -10.276617      -279.6410
  13   2.0000     -10.276222      -279.6302
  14   2.0000     -10.274583      -279.5856
  15   2.0000     -10.274280      -279.5774
  16   2.0000     -10.198460      -277.5142
  17   2.0000      -8.321752      -226.4464
  18   2.0000      -6.285491      -171.0369
  19   2.0000      -6.279745      -170.8806
  20   2.0000      -6.277228      -170.8121
  21   2.0000      -1.477417       -40.2026
  22   2.0000      -1.246814       -33.9275
  23   2.0000      -1.148370       -31.2487
  24   2.0000      -1.071503       -29.1571
  25   2.0000      -0.981448       -26.7066
  26   2.0000      -0.946603       -25.7584
  27   2.0000      -0.917607       -24.9694
  28   2.0000      -0.890877       -24.2420
  29   2.0000      -0.855871       -23.2894
  30   2.0000      -0.838822       -22.8255
  31   2.0000      -0.810155       -22.0454
  32   2.0000      -0.785153       -21.3651
  33   2.0000      -0.752721       -20.4826
  34   2.0000      -0.723236       -19.6803
  35   2.0000      -0.710538       -19.3347
  36   2.0000      -0.698514       -19.0075
  37   2.0000      -0.690944       -18.8016
  38   2.0000      -0.683737       -18.6054
  39   2.0000      -0.661856       -18.0100
  40   2.0000      -0.652820       -17.7641
  41   2.0000      -0.626388       -17.0449
  42   2.0000      -0.597517       -16.2593
  43   2.0000      -0.589208       -16.0332
  44   2.0000      -0.588581       -16.0161
  45   2.0000      -0.582277       -15.8446
  46   2.0000      -0.565540       -15.3891
  47   2.0000      -0.564182       -15.3522
  48   2.0000      -0.558089       -15.1864
  49   2.0000      -0.538340       -14.6490
  50   2.0000      -0.531064       -14.4510
  51   2.0000      -0.524381       -14.2691
  52   2.0000      -0.519222       -14.1287
  53   2.0000      -0.502953       -13.6860
  54   2.0000      -0.491895       -13.3851
  55   2.0000      -0.490445       -13.3457
  56   2.0000      -0.477711       -12.9992
  57   2.0000      -0.470804       -12.8112
  58   2.0000      -0.466020       -12.6811
  59   2.0000      -0.455018       -12.3817
  60   2.0000      -0.454299       -12.3621
  61   2.0000      -0.448140       -12.1945
  62   2.0000      -0.437005       -11.8915
  63   2.0000      -0.430724       -11.7206
  64   2.0000      -0.425948       -11.5906
  65   2.0000      -0.422291       -11.4911
  66   2.0000      -0.410867       -11.1803
  67   2.0000      -0.399962       -10.8835
  68   2.0000      -0.396472       -10.7885
  69   2.0000      -0.393715       -10.7135
  70   2.0000      -0.340351        -9.2614
  71   2.0000      -0.255079        -6.9411
  72   0.0000       0.070859         1.9282
  73   0.0000       0.090904         2.4736
  74   0.0000       0.094766         2.5787
  75   0.0000       0.096179         2.6172
  76   0.0000       0.108882         2.9628

MULLIKEN ATOMIC CHARGES
-----------------------
   0 C :    0.956090
   1 N :    0.259983
   2 C :    0.146303
   3 C :    0.143727
   4 H :    0.132489
   5 H :    0.094021
   6 S :    1.479748
   7 C :    0.850515
   8 C :    0.673264
   9 N :    0.164365
  10 H :   -0.004328
  11 H :   -0.141112
  12 H :   -1.101355
  13 H :   -0.494058
  14 H :   -0.627184
  15 F :   -0.490042
  16 O :   -0.754256
  17 C :    0.270206
  18 H :   -0.241096
  19 H :   -0.131104
  20 C :   -0.025226
  21 C :    0.226480
  22 H :    0.073259
  23 H :   -0.510113
  24 H :   -0.045254
  25 H :    0.059679
  26 C :    0.106160
  27 H :   -0.126369
  28 H :   -0.036619
  29 C :   -0.189000
  30 H :   -0.140110
  31 H :   -0.125588
  32 C :    0.608742
  33 H :   -0.312124
  34 H :    0.168637
  35 H :    0.126680
  36 H :   -0.294824
  37 H :   -0.015483
  38 H :    0.027297
  39 O :   -0.762399
Sum of atomic charges:    0.0000000

LOEWDIN ATOMIC CHARGES
----------------------
   0 C :    0.067948
   1 N :    0.007031
   2 C :   -0.024515
   3 C :   -0.021743
   4 H :    0.053629
   5 H :    0.040056
   6 S :    1.171242
   7 C :   -0.223406
   8 C :    0.138953
   9 N :    0.203833
  10 H :   -0.010110
  11 H :    0.014338
  12 H :   -0.096000
  13 H :   -0.173738
  14 H :   -0.103654
  15 F :   -0.262177
  16 O :   -0.469404
  17 C :   -0.022326
  18 H :    0.022655
  19 H :    0.018972
  20 C :   -0.035943
  21 C :   -0.028375
  22 H :    0.046017
  23 H :   -0.019839
  24 H :    0.046045
  25 H :    0.033609
  26 C :   -0.033964
  27 H :    0.025404
  28 H :    0.009363
  29 C :   -0.038460
  30 H :    0.028135
  31 H :    0.006634
  32 C :   -0.032196
  33 H :    0.025846
  34 H :    0.007985
  35 H :    0.019187
  36 H :    0.027007
  37 H :    0.023798
  38 H :    0.023900
  39 O :   -0.465738

  Mayer bond orders larger than 0.100000
B(  0-C ,  1-N ) :   0.9319 B(  0-C , 12-H ) :  -0.5008 B(  0-C , 17-C ) :   1.1199
B(  0-C , 18-H ) :   0.6859 B(  0-C , 19-H ) :   0.8726 B(  0-C , 27-H ) :   0.1056
B(  1-N ,  7-C ) :   1.1974 B(  1-N ,  8-C ) :   0.1213 B(  1-N ,  9-N ) :   0.2876
B(  1-N , 12-H ) :   0.8872 B(  1-N , 18-H ) :   0.2351 B(  2-C ,  3-C ) :   1.2339
B(  2-C ,  5-H ) :   0.2161 B(  2-C , 21-C ) :   1.1204 B(  2-C , 22-H ) :   0.1023
B(  2-C , 24-H ) :   0.8720 B(  2-C , 25-H ) :   0.8611 B(  3-C ,  4-H ) :   0.9159
B(  3-C ,  5-H ) :   0.7728 B(  3-C ,  6-S ) :   1.0310 B(  3-C , 25-H ) :   0.1009
B(  6-S , 15-F ) :   0.6312 B(  6-S , 16-O ) :   1.4300 B(  6-S , 39-O ) :   1.3780
B(  7-C ,  8-C ) :   1.4722 B(  7-C ,  9-N ) :   0.8799 B(  7-C , 12-H ) :  -0.7229
B(  7-C , 14-H ) :   0.1658 B(  8-C ,  9-N ) :   0.2742 B(  8-C , 13-H ) :   0.2447
B(  8-C , 14-H ) :   0.8028 B(  9-N , 10-H ) :   0.9493 B(  9-N , 11-H ) :   1.2059
B( 10-H , 11-H ) :  -0.1803 B( 12-H , 18-H ) :   0.1003 B( 12-H , 39-O ) :   0.1493
B( 13-H , 14-H ) :  -0.1890 B( 13-H , 15-F ) :   0.2168 B( 16-O , 39-O ) :   0.1221
B( 17-C , 18-H ) :   0.1175 B( 17-C , 19-H ) :   0.1075 B( 17-C , 26-C ) :   1.2074
B( 17-C , 27-H ) :   0.9377 B( 17-C , 28-H ) :   0.7447 B( 17-C , 31-H ) :   0.1037
B( 18-H , 19-H ) :  -0.1614 B( 20-C , 21-C ) :   1.2239 B( 20-C , 22-H ) :   0.1066
B( 20-C , 23-H ) :   0.1007 B( 20-C , 32-C ) :   1.1395 B( 20-C , 35-H ) :   0.8580
B( 20-C , 36-H ) :   0.9840 B( 20-C , 37-H ) :   0.1074 B( 20-C , 38-H ) :   0.2046
B( 21-C , 22-H ) :   0.7298 B( 21-C , 23-H ) :   0.8304 B( 21-C , 24-H ) :   0.1778
B( 21-C , 36-H ) :   0.1895 B( 22-H , 23-H ) :   0.2152 B( 23-H , 34-H ) :   0.1187
B( 26-C , 28-H ) :   0.2010 B( 26-C , 29-C ) :   1.2148 B( 26-C , 30-H ) :   0.8913
B( 26-C , 31-H ) :   0.9215 B( 26-C , 33-H ) :   0.1381 B( 29-C , 30-H ) :   0.1448
B( 29-C , 31-H ) :   0.1147 B( 29-C , 32-C ) :   1.1420 B( 29-C , 33-H ) :   1.0588
B( 29-C , 34-H ) :   0.8340 B( 29-C , 37-H ) :   0.2656 B( 29-C , 38-H ) :   0.1326
B( 32-C , 37-H ) :   0.6953 B( 32-C , 38-H ) :   0.7139

Dispersion correction           -0.021930251
FINAL SINGLE POINT ENERGY     -1190.067827734031

DIPOLE MOMENT
-------------
                                X             Y             Z
Electronic contribution:    -16.05535       3.50755     -19.37099
Nuclear contribution   :     17.27667      -5.32157      20.03034
                        -----------------------------------------
Total Dipole Moment    :      1.22132      -1.81402       0.65935
                        -----------------------------------------
Magnitude (a.u.)       :      2.28408
Magnitude (Debye)      :      5.80568

Rotational constants in cm-1:     0.014355     0.012269     0.007481
Rotational constants in MHz :   430.360270   367.823451   224.273399

                             ****ORCA TERMINATED NORMALLY****
TOTAL RUN TIME: 0 days 0 hours 2 minutes 4 seconds 43 msec
