                         Program Version 5.0.0 -  RELEASE  -
|  1> !wB97X-D3 RIJCOSX def2-SVPD def2/J TightSCF CPCM(Water) xyzfile
|  2>
|  3> *xyzfile 0 1 D6.xyz
|  4>
|  5> %MaxCore 64000
|  6>
|  7> %pal nprocs 18
|  8> end
|  9>
| 10> %scf
| 11>   MaxIter 150
| 12> end
| 13>
| 14>
| 15>                          ****END OF INPUT****

CARTESIAN COORDINATES (ANGSTROEM)
---------------------------------
  C      4.490588    1.155899   -2.469290
  N      4.305394    1.222762   -3.908317
  C      4.906458   -3.102816   -5.954844
  C      3.511771   -2.806215   -6.492283
  H      2.736044   -3.373445   -5.973736
  H      3.444904   -3.040831   -7.555281
  S      3.004618   -1.096206   -6.389259
  C      4.631918    2.246365   -4.670958
  N      4.541686    2.143990   -5.987139
  C      5.084086    3.393584   -4.118545
  H      4.920675    3.570501   -3.135870
  H      5.254652    4.197390   -4.706956
  H      3.824530    0.449113   -4.350926
  H      4.343373    1.249318   -6.416646
  H      4.676712    2.956624   -6.574113
  O      4.128856   -0.329647   -6.953717
  F      1.781285   -1.000779   -7.136399
  C      5.942129    0.939500   -2.036893
  H      3.864305    0.328532   -2.136611
  H      4.076233    2.049994   -1.989010
  C      6.462677   -3.117775   -3.944671
  C      5.024977   -3.025679   -4.437625
  H      4.423321   -3.818693   -3.977648
  H      4.579350   -2.087131   -4.108727
  H      5.201533   -4.100207   -6.296905
  H      5.605922   -2.397822   -6.413368
  C      6.559957   -0.356290   -2.559086
  H      5.967976    0.952567   -0.942444
  H      6.547184    1.788331   -2.368849
  C      6.006283   -1.615917   -1.899301
  H      7.642360   -0.318000   -2.402059
  H      6.414855   -0.403433   -3.642587
  C      6.608718   -2.917014   -2.435655
  H      6.190324   -1.561115   -0.820948
  H      4.919250   -1.651245   -2.016586
  H      7.066975   -2.374258   -4.475514
  H      6.887808   -4.089747   -4.215332
  H      6.135197   -3.755573   -1.915159
  H      7.671142   -2.955503   -2.172291
  O      2.851546   -0.783683   -4.956789

 Total Charge           Charge          ....    0
 Multiplicity           Mult            ....    1
 Number of Electrons    NEL             ....  144
 Basis Dimension        Dim             ....  540

ORBITAL ENERGIES
----------------

  NO   OCC          E(Eh)            E(eV)
   0   2.0000     -89.256577     -2428.7949
   1   2.0000     -24.930817      -678.4020
   2   2.0000     -19.276167      -524.5312
   3   2.0000     -19.276033      -524.5275
   4   2.0000     -14.418508      -392.3476
   5   2.0000     -14.414627      -392.2419
   6   2.0000     -10.345318      -281.5104
   7   2.0000     -10.336647      -281.2745
   8   2.0000     -10.309917      -280.5471
   9   2.0000     -10.305601      -280.4297
  10   2.0000     -10.280955      -279.7590
  11   2.0000     -10.277894      -279.6757
  12   2.0000     -10.276459      -279.6367
  13   2.0000     -10.273946      -279.5683
  14   2.0000     -10.273457      -279.5550
  15   2.0000     -10.273006      -279.5427
  16   2.0000     -10.200385      -277.5666
  17   2.0000      -8.329770      -226.6646
  18   2.0000      -6.293391      -171.2519
  19   2.0000      -6.287849      -171.1011
  20   2.0000      -6.285162      -171.0280
  21   2.0000      -1.504554       -40.9410
  22   2.0000      -1.244080       -33.8531
  23   2.0000      -1.142112       -31.0784
  24   2.0000      -1.070142       -29.1200
  25   2.0000      -0.982491       -26.7349
  26   2.0000      -0.947304       -25.7775
  27   2.0000      -0.917653       -24.9706
  28   2.0000      -0.887771       -24.1575
  29   2.0000      -0.859548       -23.3895
  30   2.0000      -0.828192       -22.5362
  31   2.0000      -0.814209       -22.1557
  32   2.0000      -0.793609       -21.5952
  33   2.0000      -0.759783       -20.6747
  34   2.0000      -0.728492       -19.8233
  35   2.0000      -0.710724       -19.3398
  36   2.0000      -0.698751       -19.0140
  37   2.0000      -0.692568       -18.8457
  38   2.0000      -0.681069       -18.5328
  39   2.0000      -0.659432       -17.9441
  40   2.0000      -0.650913       -17.7123
  41   2.0000      -0.640681       -17.4338
  42   2.0000      -0.614127       -16.7112
  43   2.0000      -0.605128       -16.4664
  44   2.0000      -0.585904       -15.9433
  45   2.0000      -0.580286       -15.7904
  46   2.0000      -0.568417       -15.4674
  47   2.0000      -0.553737       -15.0679
  48   2.0000      -0.549215       -14.9449
  49   2.0000      -0.538252       -14.6466
  50   2.0000      -0.531521       -14.4634
  51   2.0000      -0.520944       -14.1756
  52   2.0000      -0.514460       -13.9992
  53   2.0000      -0.505923       -13.7669
  54   2.0000      -0.488943       -13.3048
  55   2.0000      -0.485198       -13.2029
  56   2.0000      -0.479314       -13.0428
  57   2.0000      -0.468496       -12.7484
  58   2.0000      -0.466027       -12.6812
  59   2.0000      -0.458692       -12.4816
  60   2.0000      -0.451497       -12.2859
  61   2.0000      -0.442167       -12.0320
  62   2.0000      -0.436982       -11.8909
  63   2.0000      -0.428120       -11.6497
  64   2.0000      -0.426140       -11.5959
  65   2.0000      -0.422189       -11.4883
  66   2.0000      -0.409490       -11.1428
  67   2.0000      -0.400194       -10.8898
  68   2.0000      -0.396793       -10.7973
  69   2.0000      -0.392791       -10.6884
  70   2.0000      -0.329692        -8.9714
  71   2.0000      -0.253809        -6.9065
  72   0.0000       0.069922         1.9027
  73   0.0000       0.089836         2.4446
  74   0.0000       0.094919         2.5829
  75   0.0000       0.097012         2.6398
  76   0.0000       0.107624         2.9286

MULLIKEN ATOMIC CHARGES
-----------------------
   0 C :    0.942105
   1 N :    0.341805
   2 C :    0.094743
   3 C :    0.129189
   4 H :    0.139321
   5 H :    0.137872
   6 S :    1.672498
   7 C :    0.456999
   8 N :    0.553196
   9 C :    0.487860
  10 H :    0.092814
  11 H :   -0.659820
  12 H :   -1.245589
  13 H :   -0.440690
  14 H :   -0.131773
  15 O :   -0.734065
  16 F :   -0.526421
  17 C :    0.297211
  18 H :   -0.266656
  19 H :   -0.069250
  20 C :   -0.031146
  21 C :    0.206836
  22 H :    0.071174
  23 H :   -0.514863
  24 H :   -0.028280
  25 H :    0.071781
  26 C :    0.079799
  27 H :   -0.102904
  28 H :   -0.069408
  29 C :   -0.196945
  30 H :   -0.144952
  31 H :   -0.128621
  32 C :    0.618427
  33 H :   -0.311910
  34 H :    0.165651
  35 H :    0.133200
  36 H :   -0.300868
  37 H :   -0.016411
  38 H :    0.030797
  39 O :   -0.802707
Sum of atomic charges:   -0.0000000

LOEWDIN ATOMIC CHARGES
----------------------
   0 C :    0.069911
   1 N :    0.010515
   2 C :   -0.014050
   3 C :   -0.025007
   4 H :    0.046677
   5 H :    0.041368
   6 S :    1.223008
   7 C :   -0.227699
   8 N :    0.211795
   9 C :    0.114222
  10 H :   -0.130860
  11 H :   -0.122510
  12 H :   -0.096358
  13 H :   -0.125296
  14 H :    0.021929
  15 O :   -0.462947
  16 F :   -0.216501
  17 C :   -0.019987
  18 H :    0.022239
  19 H :    0.017911
  20 C :   -0.035383
  21 C :   -0.026282
  22 H :    0.045972
  23 H :   -0.017918
  24 H :    0.049848
  25 H :    0.030956
  26 C :   -0.034635
  27 H :    0.025576
  28 H :    0.001340
  29 C :   -0.039011
  30 H :    0.027604
  31 H :    0.005863
  32 C :   -0.032256
  33 H :    0.025606
  34 H :    0.007731
  35 H :    0.019484
  36 H :    0.027202
  37 H :    0.023663
  38 H :    0.023889
  39 O :   -0.467608

  Mayer bond orders larger than 0.100000
B(  0-C ,  1-N ) :   0.9665 B(  0-C , 10-H ) :   0.1143 B(  0-C , 12-H ) :  -0.5424
B(  0-C , 17-C ) :   1.0963 B(  0-C , 18-H ) :   0.7606 B(  0-C , 19-H ) :   0.8601
B(  1-N ,  7-C ) :   1.0589 B(  1-N ,  9-C ) :   0.2839 B(  1-N , 11-H ) :   0.1371
B(  1-N , 12-H ) :   0.7605 B(  1-N , 13-H ) :   0.1589 B(  1-N , 18-H ) :   0.2649
B(  2-C ,  3-C ) :   1.2867 B(  2-C ,  5-H ) :   0.2484 B(  2-C , 20-C ) :   0.1006
B(  2-C , 21-C ) :   1.1338 B(  2-C , 22-H ) :   0.1002 B(  2-C , 24-H ) :   0.8620
B(  2-C , 25-H ) :   0.8651 B(  3-C ,  4-H ) :   0.9081 B(  3-C ,  5-H ) :   0.7014
B(  3-C ,  6-S ) :   1.0344 B(  3-C , 16-F ) :   0.1033 B(  3-C , 25-H ) :   0.1066
B(  6-S , 15-O ) :   1.3240 B(  6-S , 16-F ) :   0.4867 B(  6-S , 39-O ) :   1.3220
B(  7-C ,  8-N ) :   1.0217 B(  7-C ,  9-C ) :   1.7483 B(  7-C , 10-H ) :   0.3927
B(  7-C , 11-H ) :   0.3525 B(  7-C , 12-H ) :  -0.6942 B(  7-C , 13-H ) :  -0.1623
B(  7-C , 18-H ) :   0.1175 B(  8-N ,  9-C ) :   0.1913 B(  8-N , 13-H ) :   0.8981
B(  8-N , 14-H ) :   1.2583 B(  9-C , 10-H ) :   0.5075 B(  9-C , 11-H ) :   0.6611
B( 10-H , 13-H ) :   0.1604 B( 10-H , 18-H ) :  -0.1035 B( 10-H , 19-H ) :   0.1150
B( 11-H , 12-H ) :  -0.1157 B( 12-H , 39-O ) :   0.2125 B( 13-H , 14-H ) :  -0.2603
B( 13-H , 15-O ) :   0.1799 B( 16-F , 39-O ) :   0.1078 B( 17-C , 18-H ) :   0.1191
B( 17-C , 26-C ) :   1.1789 B( 17-C , 27-H ) :   0.9172 B( 17-C , 28-H ) :   0.7863
B( 17-C , 31-H ) :   0.1061 B( 18-H , 19-H ) :  -0.1913 B( 20-C , 21-C ) :   1.2292
B( 20-C , 22-H ) :   0.1061 B( 20-C , 23-H ) :   0.1004 B( 20-C , 32-C ) :   1.1372
B( 20-C , 35-H ) :   0.8580 B( 20-C , 36-H ) :   0.9878 B( 20-C , 37-H ) :   0.1095
B( 20-C , 38-H ) :   0.2040 B( 21-C , 22-H ) :   0.7312 B( 21-C , 23-H ) :   0.8314
B( 21-C , 24-H ) :   0.1752 B( 21-C , 36-H ) :   0.1928 B( 22-H , 23-H ) :   0.2147
B( 23-H , 34-H ) :   0.1165 B( 26-C , 28-H ) :   0.2086 B( 26-C , 29-C ) :   1.2133
B( 26-C , 30-H ) :   0.9004 B( 26-C , 31-H ) :   0.9214 B( 26-C , 33-H ) :   0.1394
B( 27-H , 28-H ) :  -0.1202 B( 29-C , 30-H ) :   0.1468 B( 29-C , 31-H ) :   0.1228
B( 29-C , 32-C ) :   1.1427 B( 29-C , 33-H ) :   1.0584 B( 29-C , 34-H ) :   0.8385
B( 29-C , 37-H ) :   0.2693 B( 29-C , 38-H ) :   0.1332 B( 32-C , 37-H ) :   0.6917
B( 32-C , 38-H ) :   0.7148

Dispersion correction           -0.021911189
FINAL SINGLE POINT ENERGY     -1190.067176825973

DIPOLE MOMENT
-------------
                                X             Y             Z
Electronic contribution:    -21.58071       0.28850     -22.24043
Nuclear contribution   :     20.11362      -4.34709      20.52383
                        -----------------------------------------
Total Dipole Moment    :     -1.46709      -4.05859      -1.71660
                        -----------------------------------------
Magnitude (a.u.)       :      4.64449
Magnitude (Debye)      :     11.80534

Rotational constants in cm-1:     0.014449     0.012108     0.007447
Rotational constants in MHz :   433.168496   362.988632   223.260798

                             ****ORCA TERMINATED NORMALLY****
TOTAL RUN TIME: 0 days 0 hours 2 minutes 4 seconds 630 msec
