                         Program Version 5.0.0 -  RELEASE  -
|  1> !wB97X-D3 RIJCOSX def2-SVPD def2/J TightSCF CPCM(Water) xyzfile
|  2>
|  3> *xyzfile 0 1 D7.xyz
|  4>
|  5> %MaxCore 64000
|  6>
|  7> %pal nprocs 18
|  8> end
|  9>
| 10> %scf
| 11>   MaxIter 150
| 12> end
| 13>
| 14>
| 15>                          ****END OF INPUT****

CARTESIAN COORDINATES (ANGSTROEM)
---------------------------------
  C      4.490588    1.155899   -2.469290
  C      4.305394    1.222762   -3.908317
  C      4.906458   -3.102816   -5.954844
  C      3.511771   -2.806215   -6.492283
  H      2.736044   -3.373445   -5.973736
  H      3.444904   -3.040831   -7.555281
  S      3.004618   -1.096206   -6.389259
  C      4.631918    2.246365   -4.670958
  N      4.541686    2.143990   -5.987139
  N      5.084086    3.393584   -4.118545
  H      4.920675    3.570501   -3.135870
  H      5.254652    4.197390   -4.706956
  H      3.824530    0.449113   -4.350926
  H      4.343373    1.249318   -6.416646
  H      4.676712    2.956624   -6.574113
  O      4.128856   -0.329647   -6.953717
  O      1.781285   -1.000779   -7.136399
  C      5.942129    0.939500   -2.036893
  H      3.864305    0.328532   -2.136611
  H      4.076233    2.049994   -1.989010
  C      6.462677   -3.117775   -3.944671
  C      5.024977   -3.025679   -4.437625
  H      4.423321   -3.818693   -3.977648
  H      4.579350   -2.087131   -4.108727
  H      5.201533   -4.100207   -6.296905
  H      5.605922   -2.397822   -6.413368
  C      6.559957   -0.356290   -2.559086
  H      5.967976    0.952567   -0.942444
  H      6.547184    1.788331   -2.368849
  C      6.006283   -1.615917   -1.899301
  H      7.642360   -0.318000   -2.402059
  H      6.414855   -0.403433   -3.642587
  C      6.608718   -2.917014   -2.435655
  H      6.190324   -1.561115   -0.820948
  H      4.919250   -1.651245   -2.016586
  H      7.066975   -2.374258   -4.475514
  H      6.887808   -4.089747   -4.215332
  H      6.135197   -3.755573   -1.915159
  H      7.671142   -2.955503   -2.172291
  F      2.851546   -0.783683   -4.956789

 Total Charge           Charge          ....    0
 Multiplicity           Mult            ....    1
 Number of Electrons    NEL             ....  144
 Basis Dimension        Dim             ....  540

ORBITAL ENERGIES
----------------

  NO   OCC          E(Eh)            E(eV)
   0   2.0000     -89.248118     -2428.5647
   1   2.0000     -24.911613      -677.8795
   2   2.0000     -19.277183      -524.5588
   3   2.0000     -19.271785      -524.4119
   4   2.0000     -14.427684      -392.5972
   5   2.0000     -14.411313      -392.1518
   6   2.0000     -10.342320      -281.4288
   7   2.0000     -10.328839      -281.0620
   8   2.0000     -10.301730      -280.3243
   9   2.0000     -10.284138      -279.8456
  10   2.0000     -10.278362      -279.6884
  11   2.0000     -10.275956      -279.6230
  12   2.0000     -10.272234      -279.5217
  13   2.0000     -10.268625      -279.4235
  14   2.0000     -10.266652      -279.3698
  15   2.0000     -10.262516      -279.2572
  16   2.0000     -10.200185      -277.5611
  17   2.0000      -8.321264      -226.4331
  18   2.0000      -6.284960      -171.0225
  19   2.0000      -6.279228      -170.8665
  20   2.0000      -6.276803      -170.8005
  21   2.0000      -1.475977       -40.1634
  22   2.0000      -1.246408       -33.9165
  23   2.0000      -1.148836       -31.2614
  24   2.0000      -1.058546       -28.8045
  25   2.0000      -0.963552       -26.2196
  26   2.0000      -0.945717       -25.7343
  27   2.0000      -0.918797       -25.0017
  28   2.0000      -0.892244       -24.2792
  29   2.0000      -0.864931       -23.5360
  30   2.0000      -0.830249       -22.5922
  31   2.0000      -0.814933       -22.1754
  32   2.0000      -0.777590       -21.1593
  33   2.0000      -0.749894       -20.4056
  34   2.0000      -0.724673       -19.7194
  35   2.0000      -0.700931       -19.0733
  36   2.0000      -0.695518       -18.9260
  37   2.0000      -0.684803       -18.6344
  38   2.0000      -0.678078       -18.4515
  39   2.0000      -0.658530       -17.9195
  40   2.0000      -0.648641       -17.6504
  41   2.0000      -0.630909       -17.1679
  42   2.0000      -0.598754       -16.2929
  43   2.0000      -0.594041       -16.1647
  44   2.0000      -0.586566       -15.9613
  45   2.0000      -0.577582       -15.7168
  46   2.0000      -0.572718       -15.5844
  47   2.0000      -0.556646       -15.1471
  48   2.0000      -0.551285       -15.0012
  49   2.0000      -0.542611       -14.7652
  50   2.0000      -0.525108       -14.2889
  51   2.0000      -0.521167       -14.1817
  52   2.0000      -0.519360       -14.1325
  53   2.0000      -0.507051       -13.7976
  54   2.0000      -0.496607       -13.5134
  55   2.0000      -0.483641       -13.1605
  56   2.0000      -0.471207       -12.8222
  57   2.0000      -0.467659       -12.7257
  58   2.0000      -0.462356       -12.5813
  59   2.0000      -0.448935       -12.2161
  60   2.0000      -0.442914       -12.0523
  61   2.0000      -0.434873       -11.8335
  62   2.0000      -0.433400       -11.7934
  63   2.0000      -0.430812       -11.7230
  64   2.0000      -0.419018       -11.4020
  65   2.0000      -0.417993       -11.3742
  66   2.0000      -0.409145       -11.1334
  67   2.0000      -0.395538       -10.7631
  68   2.0000      -0.392855       -10.6901
  69   2.0000      -0.387848       -10.5539
  70   2.0000      -0.349079        -9.4989
  71   2.0000      -0.244357        -6.6493
  72   0.0000       0.070852         1.9280
  73   0.0000       0.090139         2.4528
  74   0.0000       0.094638         2.5752
  75   0.0000       0.098668         2.6849
  76   0.0000       0.108691         2.9576

MULLIKEN ATOMIC CHARGES
-----------------------
   0 C :    0.057799
   1 C :    0.381686
   2 C :    0.159849
   3 C :    0.134730
   4 H :    0.122831
   5 H :    0.122410
   6 S :    1.562236
   7 C :    0.838031
   8 N :    0.179399
   9 N :   -0.073310
  10 H :    0.009717
  11 H :   -0.186377
  12 H :   -0.778782
  13 H :   -0.281144
  14 H :   -0.130701
  15 O :   -0.711180
  16 O :   -0.744542
  17 C :    0.385693
  18 H :    0.149818
  19 H :   -0.170227
  20 C :   -0.032402
  21 C :    0.256114
  22 H :    0.060148
  23 H :   -0.580025
  24 H :   -0.028818
  25 H :    0.073985
  26 C :    0.054947
  27 H :   -0.059898
  28 H :   -0.122567
  29 C :   -0.121405
  30 H :   -0.106536
  31 H :   -0.077779
  32 C :    0.603298
  33 H :   -0.306998
  34 H :    0.111359
  35 H :    0.129263
  36 H :   -0.300727
  37 H :   -0.016721
  38 H :    0.028721
  39 F :   -0.591896
Sum of atomic charges:   -0.0000000

LOEWDIN ATOMIC CHARGES
----------------------
   0 C :   -0.051799
   1 C :   -0.036445
   2 C :   -0.027012
   3 C :   -0.023080
   4 H :    0.045869
   5 H :    0.047757
   6 S :    1.173084
   7 C :   -0.206242
   8 N :    0.199058
   9 N :    0.203367
  10 H :   -0.004880
  11 H :    0.004047
  12 H :   -0.120435
  13 H :   -0.123601
  14 H :    0.011220
  15 O :   -0.463692
  16 O :   -0.469496
  17 C :   -0.034173
  18 H :    0.010147
  19 H :    0.009622
  20 C :   -0.034565
  21 C :   -0.027523
  22 H :    0.046200
  23 H :   -0.011600
  24 H :    0.046873
  25 H :    0.028435
  26 C :   -0.035683
  27 H :    0.017330
  28 H :    0.008285
  29 C :   -0.038753
  30 H :    0.025809
  31 H :    0.003308
  32 C :   -0.033175
  33 H :    0.024492
  34 H :    0.006924
  35 H :    0.019621
  36 H :    0.027952
  37 H :    0.023247
  38 H :    0.023562
  39 F :   -0.264056

  Mayer bond orders larger than 0.100000
B(  0-C ,  1-C ) :   1.1632 B(  0-C , 12-H ) :   0.7720 B(  0-C , 17-C ) :   1.1324
B(  0-C , 18-H ) :   0.6946 B(  0-C , 19-H ) :   0.9226 B(  0-C , 27-H ) :   0.1793
B(  0-C , 28-H ) :   0.1515 B(  1-C ,  7-C ) :   1.6591 B(  1-C ,  8-N ) :   0.3009
B(  1-C ,  9-N ) :   0.2875 B(  1-C , 10-H ) :  -0.1044 B(  1-C , 12-H ) :  -0.6197
B(  1-C , 18-H ) :   0.3565 B(  1-C , 19-H ) :   0.1611 B(  2-C ,  3-C ) :   1.2637
B(  2-C ,  5-H ) :   0.2297 B(  2-C , 21-C ) :   1.1351 B(  2-C , 24-H ) :   0.8486
B(  2-C , 25-H ) :   0.8721 B(  3-C ,  4-H ) :   0.9271 B(  3-C ,  5-H ) :   0.7325
B(  3-C ,  6-S ) :   1.0018 B(  3-C , 25-H ) :   0.1065 B(  6-S , 15-O ) :   1.3695
B(  6-S , 16-O ) :   1.4369 B(  6-S , 39-F ) :   0.6511 B(  7-C ,  8-N ) :   0.8586
B(  7-C ,  9-N ) :   0.8578 B(  7-C , 11-H ) :  -0.1600 B(  7-C , 13-H ) :  -0.1988
B(  7-C , 14-H ) :  -0.1538 B(  8-N , 13-H ) :   1.1617 B(  8-N , 14-H ) :   1.3458
B(  9-N , 10-H ) :   1.0295 B(  9-N , 11-H ) :   1.3214 B( 10-H , 11-H ) :  -0.1891
B( 11-H , 12-H ) :  -0.1022 B( 12-H , 18-H ) :  -0.1815 B( 12-H , 39-F ) :   0.2286
B( 13-H , 14-H ) :  -0.2607 B( 13-H , 15-O ) :   0.1396 B( 17-C , 18-H ) :   0.1111
B( 17-C , 26-C ) :   1.2716 B( 17-C , 27-H ) :   0.7982 B( 17-C , 28-H ) :   0.7341
B( 17-C , 31-H ) :   0.1369 B( 20-C , 21-C ) :   1.2266 B( 20-C , 22-H ) :   0.1045
B( 20-C , 23-H ) :   0.1213 B( 20-C , 32-C ) :   1.1355 B( 20-C , 35-H ) :   0.8574
B( 20-C , 36-H ) :   0.9911 B( 20-C , 37-H ) :   0.1043 B( 20-C , 38-H ) :   0.2075
B( 21-C , 22-H ) :   0.7238 B( 21-C , 23-H ) :   0.7441 B( 21-C , 24-H ) :   0.1762
B( 21-C , 36-H ) :   0.1898 B( 22-H , 23-H ) :   0.2526 B( 23-H , 34-H ) :   0.1205
B( 26-C , 27-H ) :   0.1273 B( 26-C , 28-H ) :   0.2140 B( 26-C , 29-C ) :   1.2021
B( 26-C , 30-H ) :   0.8521 B( 26-C , 31-H ) :   0.8983 B( 26-C , 33-H ) :   0.1329
B( 27-H , 28-H ) :  -0.1143 B( 29-C , 30-H ) :   0.1290 B( 29-C , 31-H ) :   0.1063
B( 29-C , 32-C ) :   1.1357 B( 29-C , 33-H ) :   1.0400 B( 29-C , 34-H ) :   0.8488
B( 29-C , 37-H ) :   0.2678 B( 29-C , 38-H ) :   0.1327 B( 32-C , 37-H ) :   0.7000
B( 32-C , 38-H ) :   0.7115

Dispersion correction           -0.021801064
FINAL SINGLE POINT ENERGY     -1190.075754995708

DIPOLE MOMENT
-------------
                                X             Y             Z
Electronic contribution:    -18.43016       3.64480     -17.88975
Nuclear contribution   :     18.74089      -4.92611      17.99644
                        -----------------------------------------
Total Dipole Moment    :      0.31074      -1.28131       0.10670
                        -----------------------------------------
Magnitude (a.u.)       :      1.32276
Magnitude (Debye)      :      3.36218

Rotational constants in cm-1:     0.014210     0.012324     0.007480
Rotational constants in MHz :   425.991442   369.455467   224.259162

                             ****ORCA TERMINATED NORMALLY****
TOTAL RUN TIME: 0 days 0 hours 2 minutes 11 seconds 714 msec
