                         Program Version 5.0.0 -  RELEASE  -
|  1> !wB97X-D3 RIJCOSX def2-SVPD def2/J TightSCF CPCM(Water) xyzfile
|  2>
|  3> *xyzfile 0 1 D8.xyz
|  4>
|  5> %MaxCore 64000
|  6>
|  7> %pal nprocs 18
|  8> end
|  9>
| 10> %scf
| 11>   MaxIter 150
| 12> end
| 13>
| 14>
| 15>                          ****END OF INPUT****

CARTESIAN COORDINATES (ANGSTROEM)
---------------------------------
  C      4.490588    1.155899   -2.469290
  N      4.305394    1.222762   -3.908317
  C      4.906458   -3.102816   -5.954844
  C      3.511771   -2.806215   -6.492283
  H      2.736044   -3.373445   -5.973736
  H      3.444904   -3.040831   -7.555281
  S      3.004618   -1.096206   -6.389259
  C      4.631918    2.246365   -4.670958
  C      4.541686    2.143990   -5.987139
  N      5.084086    3.393584   -4.118545
  H      4.920675    3.570501   -3.135870
  H      5.254652    4.197390   -4.706956
  H      3.824530    0.449113   -4.350926
  H      4.343373    1.249318   -6.416646
  H      4.676712    2.956624   -6.574113
  O      4.128856   -0.329647   -6.953717
  O      1.781285   -1.000779   -7.136399
  C      5.942129    0.939500   -2.036893
  H      3.864305    0.328532   -2.136611
  H      4.076233    2.049994   -1.989010
  C      6.462677   -3.117775   -3.944671
  C      5.024977   -3.025679   -4.437625
  H      4.423321   -3.818693   -3.977648
  H      4.579350   -2.087131   -4.108727
  H      5.201533   -4.100207   -6.296905
  H      5.605922   -2.397822   -6.413368
  C      6.559957   -0.356290   -2.559086
  H      5.967976    0.952567   -0.942444
  H      6.547184    1.788331   -2.368849
  C      6.006283   -1.615917   -1.899301
  H      7.642360   -0.318000   -2.402059
  H      6.414855   -0.403433   -3.642587
  C      6.608718   -2.917014   -2.435655
  H      6.190324   -1.561115   -0.820948
  H      4.919250   -1.651245   -2.016586
  H      7.066975   -2.374258   -4.475514
  H      6.887808   -4.089747   -4.215332
  H      6.135197   -3.755573   -1.915159
  H      7.671142   -2.955503   -2.172291
  F      2.851546   -0.783683   -4.956789

 Total Charge           Charge          ....    0
 Multiplicity           Mult            ....    1
 Number of Electrons    NEL             ....  144
 Basis Dimension        Dim             ....  540

ORBITAL ENERGIES
----------------

  NO   OCC          E(Eh)            E(eV)
   0   2.0000     -89.245766     -2428.5008
   1   2.0000     -24.920815      -678.1298
   2   2.0000     -19.276257      -524.5336
   3   2.0000     -19.263087      -524.1753
   4   2.0000     -14.429290      -392.6409
   5   2.0000     -14.427597      -392.5949
   6   2.0000     -10.341587      -281.4089
   7   2.0000     -10.336770      -281.2778
   8   2.0000     -10.314609      -280.6748
   9   2.0000     -10.301645      -280.3220
  10   2.0000     -10.285064      -279.8708
  11   2.0000     -10.279155      -279.7100
  12   2.0000     -10.277299      -279.6595
  13   2.0000     -10.277112      -279.6544
  14   2.0000     -10.275243      -279.6036
  15   2.0000     -10.274945      -279.5955
  16   2.0000     -10.188959      -277.2557
  17   2.0000      -8.319125      -226.3749
  18   2.0000      -6.282951      -170.9678
  19   2.0000      -6.276903      -170.8032
  20   2.0000      -6.274609      -170.7408
  21   2.0000      -1.483361       -40.3643
  22   2.0000      -1.244153       -33.8551
  23   2.0000      -1.144004       -31.1299
  24   2.0000      -1.074175       -29.2298
  25   2.0000      -0.983609       -26.7654
  26   2.0000      -0.946059       -25.7436
  27   2.0000      -0.918012       -24.9804
  28   2.0000      -0.891851       -24.2685
  29   2.0000      -0.857890       -23.3444
  30   2.0000      -0.836532       -22.7632
  31   2.0000      -0.817245       -22.2384
  32   2.0000      -0.781703       -21.2712
  33   2.0000      -0.754939       -20.5429
  34   2.0000      -0.728475       -19.8228
  35   2.0000      -0.719292       -19.5729
  36   2.0000      -0.699436       -19.0326
  37   2.0000      -0.686348       -18.6765
  38   2.0000      -0.677902       -18.4467
  39   2.0000      -0.665712       -18.1149
  40   2.0000      -0.652901       -17.7663
  41   2.0000      -0.626778       -17.0555
  42   2.0000      -0.599163       -16.3041
  43   2.0000      -0.590694       -16.0736
  44   2.0000      -0.586190       -15.9511
  45   2.0000      -0.578199       -15.7336
  46   2.0000      -0.571705       -15.5569
  47   2.0000      -0.567031       -15.4297
  48   2.0000      -0.558898       -15.2084
  49   2.0000      -0.538906       -14.6644
  50   2.0000      -0.534249       -14.5376
  51   2.0000      -0.520005       -14.1500
  52   2.0000      -0.514045       -13.9879
  53   2.0000      -0.508914       -13.8482
  54   2.0000      -0.494395       -13.4532
  55   2.0000      -0.487897       -13.2764
  56   2.0000      -0.482100       -13.1186
  57   2.0000      -0.473184       -12.8760
  58   2.0000      -0.468385       -12.7454
  59   2.0000      -0.454256       -12.3609
  60   2.0000      -0.450447       -12.2573
  61   2.0000      -0.441956       -12.0262
  62   2.0000      -0.433169       -11.7871
  63   2.0000      -0.430595       -11.7171
  64   2.0000      -0.423139       -11.5142
  65   2.0000      -0.418842       -11.3973
  66   2.0000      -0.403401       -10.9771
  67   2.0000      -0.401809       -10.9338
  68   2.0000      -0.398158       -10.8344
  69   2.0000      -0.394886       -10.7454
  70   2.0000      -0.342815        -9.3285
  71   2.0000      -0.252335        -6.8664
  72   0.0000       0.069171         1.8822
  73   0.0000       0.089672         2.4401
  74   0.0000       0.095392         2.5958
  75   0.0000       0.097931         2.6648
  76   0.0000       0.107758         2.9322

MULLIKEN ATOMIC CHARGES
-----------------------
   0 C :    0.951559
   1 N :    0.288732
   2 C :    0.144977
   3 C :    0.148412
   4 H :    0.113630
   5 H :    0.134878
   6 S :    1.499112
   7 C :    0.836693
   8 C :    0.561323
   9 N :    0.157364
  10 H :   -0.002259
  11 H :   -0.141154
  12 H :   -1.084316
  13 H :   -0.414736
  14 H :   -0.633125
  15 O :   -0.739578
  16 O :   -0.754163
  17 C :    0.267140
  18 H :   -0.248072
  19 H :   -0.126693
  20 C :   -0.041449
  21 C :    0.204824
  22 H :    0.065422
  23 H :   -0.526077
  24 H :   -0.027695
  25 H :    0.073690
  26 C :    0.111720
  27 H :   -0.126687
  28 H :   -0.035273
  29 C :   -0.185855
  30 H :   -0.137195
  31 H :   -0.125559
  32 C :    0.603817
  33 H :   -0.312018
  34 H :    0.162466
  35 H :    0.129193
  36 H :   -0.293933
  37 H :   -0.014083
  38 H :    0.033404
  39 F :   -0.518437
Sum of atomic charges:   -0.0000000

LOEWDIN ATOMIC CHARGES
----------------------
   0 C :    0.068436
   1 N :    0.007308
   2 C :   -0.027426
   3 C :   -0.024552
   4 H :    0.044546
   5 H :    0.047763
   6 S :    1.167247
   7 C :   -0.226266
   8 C :    0.136476
   9 N :    0.201231
  10 H :   -0.011284
  11 H :    0.013889
  12 H :   -0.050113
  13 H :   -0.211295
  14 H :   -0.104838
  15 O :   -0.479358
  16 O :   -0.470990
  17 C :   -0.021731
  18 H :    0.023799
  19 H :    0.020076
  20 C :   -0.034149
  21 C :   -0.027835
  22 H :    0.046469
  23 H :   -0.011101
  24 H :    0.046921
  25 H :    0.028390
  26 C :   -0.033894
  27 H :    0.026060
  28 H :    0.009694
  29 C :   -0.038659
  30 H :    0.028591
  31 H :    0.006505
  32 C :   -0.031765
  33 H :    0.026156
  34 H :    0.007711
  35 H :    0.019959
  36 H :    0.028517
  37 H :    0.024133
  38 H :    0.024393
  39 F :   -0.249013

  Mayer bond orders larger than 0.100000
B(  0-C ,  1-N ) :   0.9466 B(  0-C , 12-H ) :  -0.4871 B(  0-C , 17-C ) :   1.1209
B(  0-C , 18-H ) :   0.6828 B(  0-C , 19-H ) :   0.8750 B(  0-C , 27-H ) :   0.1038
B(  0-C , 28-H ) :   0.1017 B(  1-N ,  7-C ) :   1.1813 B(  1-N ,  8-C ) :   0.1383
B(  1-N ,  9-N ) :   0.2986 B(  1-N , 12-H ) :   0.7569 B(  1-N , 18-H ) :   0.2291
B(  1-N , 39-F ) :  -0.1257 B(  2-C ,  3-C ) :   1.2644 B(  2-C ,  5-H ) :   0.2297
B(  2-C , 20-C ) :   0.1034 B(  2-C , 21-C ) :   1.1479 B(  2-C , 22-H ) :   0.1016
B(  2-C , 24-H ) :   0.8510 B(  2-C , 25-H ) :   0.8779 B(  3-C ,  4-H ) :   0.9323
B(  3-C ,  5-H ) :   0.7247 B(  3-C ,  6-S ) :   1.0004 B(  3-C , 25-H ) :   0.1031
B(  6-S , 15-O ) :   1.4327 B(  6-S , 16-O ) :   1.4328 B(  6-S , 39-F ) :   0.5913
B(  7-C ,  8-C ) :   1.4412 B(  7-C ,  9-N ) :   0.8604 B(  7-C , 12-H ) :  -0.6889
B(  7-C , 14-H ) :   0.1290 B(  8-C ,  9-N ) :   0.2823 B(  8-C , 13-H ) :   0.4851
B(  8-C , 14-H ) :   0.8003 B(  9-N , 10-H ) :   0.9463 B(  9-N , 11-H ) :   1.2051
B( 10-H , 11-H ) :  -0.1808 B( 12-H , 18-H ) :   0.1147 B( 12-H , 39-F ) :   0.2081
B( 13-H , 14-H ) :  -0.1569 B( 13-H , 15-O ) :   0.1069 B( 17-C , 18-H ) :   0.1184
B( 17-C , 19-H ) :   0.1062 B( 17-C , 26-C ) :   1.2071 B( 17-C , 27-H ) :   0.9430
B( 17-C , 28-H ) :   0.7440 B( 17-C , 31-H ) :   0.1041 B( 18-H , 19-H ) :  -0.1588
B( 20-C , 21-C ) :   1.2360 B( 20-C , 22-H ) :   0.1057 B( 20-C , 23-H ) :   0.1155
B( 20-C , 32-C ) :   1.1395 B( 20-C , 35-H ) :   0.8594 B( 20-C , 36-H ) :   0.9852
B( 20-C , 37-H ) :   0.1070 B( 20-C , 38-H ) :   0.2052 B( 21-C , 22-H ) :   0.7314
B( 21-C , 23-H ) :   0.7841 B( 21-C , 24-H ) :   0.1788 B( 21-C , 36-H ) :   0.1895
B( 22-H , 23-H ) :   0.2397 B( 23-H , 34-H ) :   0.1240 B( 26-C , 28-H ) :   0.1998
B( 26-C , 29-C ) :   1.2127 B( 26-C , 30-H ) :   0.8929 B( 26-C , 31-H ) :   0.9209
B( 26-C , 33-H ) :   0.1361 B( 29-C , 30-H ) :   0.1430 B( 29-C , 31-H ) :   0.1147
B( 29-C , 32-C ) :   1.1426 B( 29-C , 33-H ) :   1.0601 B( 29-C , 34-H ) :   0.8334
B( 29-C , 37-H ) :   0.2658 B( 29-C , 38-H ) :   0.1321 B( 32-C , 37-H ) :   0.6964
B( 32-C , 38-H ) :   0.7150

Dispersion correction           -0.021849202
FINAL SINGLE POINT ENERGY     -1190.058296232538

DIPOLE MOMENT
-------------
                                X             Y             Z
Electronic contribution:    -18.57751       2.59055     -15.33751
Nuclear contribution   :     18.77618      -4.78855      17.68602
                        -----------------------------------------
Total Dipole Moment    :      0.19867      -2.19799       2.34851
                        -----------------------------------------
Magnitude (a.u.)       :      3.22276
Magnitude (Debye)      :      8.19159

Rotational constants in cm-1:     0.014368     0.012319     0.007509
Rotational constants in MHz :   430.738566   369.302170   225.105103

                             ****ORCA TERMINATED NORMALLY****
TOTAL RUN TIME: 0 days 0 hours 2 minutes 2 seconds 825 msec
