                         Program Version 5.0.0 -  RELEASE  -
|  1> !wB97X-D3 RIJCOSX def2-SVPD def2/J TightSCF CPCM(Water) xyzfile
|  2>
|  3> *xyzfile 0 1 D9.xyz
|  4>
|  5> %MaxCore 64000
|  6>
|  7> %pal nprocs 18
|  8> end
|  9>
| 10> %scf
| 11>   MaxIter 150
| 12> end
| 13>
| 14>
| 15>                          ****END OF INPUT****

CARTESIAN COORDINATES (ANGSTROEM)
---------------------------------
  C      4.490588    1.155899   -2.469290
  N      4.305394    1.222762   -3.908317
  C      4.906458   -3.102816   -5.954844
  C      3.511771   -2.806215   -6.492283
  H      2.736044   -3.373445   -5.973736
  H      3.444904   -3.040831   -7.555281
  S      3.004618   -1.096206   -6.389259
  C      4.631918    2.246365   -4.670958
  N      4.541686    2.143990   -5.987139
  C      5.084086    3.393584   -4.118545
  H      4.920675    3.570501   -3.135870
  H      5.254652    4.197390   -4.706956
  H      3.824530    0.449113   -4.350926
  H      4.343373    1.249318   -6.416646
  H      4.676712    2.956624   -6.574113
  O      4.128856   -0.329647   -6.953717
  O      1.781285   -1.000779   -7.136399
  C      5.942129    0.939500   -2.036893
  H      3.864305    0.328532   -2.136611
  H      4.076233    2.049994   -1.989010
  C      6.462677   -3.117775   -3.944671
  C      5.024977   -3.025679   -4.437625
  H      4.423321   -3.818693   -3.977648
  H      4.579350   -2.087131   -4.108727
  H      5.201533   -4.100207   -6.296905
  H      5.605922   -2.397822   -6.413368
  C      6.559957   -0.356290   -2.559086
  H      5.967976    0.952567   -0.942444
  H      6.547184    1.788331   -2.368849
  C      6.006283   -1.615917   -1.899301
  H      7.642360   -0.318000   -2.402059
  H      6.414855   -0.403433   -3.642587
  C      6.608718   -2.917014   -2.435655
  H      6.190324   -1.561115   -0.820948
  H      4.919250   -1.651245   -2.016586
  H      7.066975   -2.374258   -4.475514
  H      6.887808   -4.089747   -4.215332
  H      6.135197   -3.755573   -1.915159
  H      7.671142   -2.955503   -2.172291
  F      2.851546   -0.783683   -4.956789

 Total Charge           Charge          ....    0
 Multiplicity           Mult            ....    1
 Number of Electrons    NEL             ....  144
 Basis Dimension        Dim             ....  540

ORBITAL ENERGIES
----------------

  NO   OCC          E(Eh)            E(eV)
   0   2.0000     -89.252815     -2428.6926
   1   2.0000     -24.925318      -678.2524
   2   2.0000     -19.280977      -524.6620
   3   2.0000     -19.276655      -524.5445
   4   2.0000     -14.432099      -392.7174
   5   2.0000     -14.417385      -392.3170
   6   2.0000     -10.344943      -281.5002
   7   2.0000     -10.341097      -281.3956
   8   2.0000     -10.313794      -280.6526
   9   2.0000     -10.303128      -280.3624
  10   2.0000     -10.285767      -279.8899
  11   2.0000     -10.279402      -279.7168
  12   2.0000     -10.277237      -279.6578
  13   2.0000     -10.275198      -279.6024
  14   2.0000     -10.274832      -279.5924
  15   2.0000     -10.274126      -279.5732
  16   2.0000     -10.203677      -277.6562
  17   2.0000      -8.326274      -226.5694
  18   2.0000      -6.290108      -171.1625
  19   2.0000      -6.284138      -171.0001
  20   2.0000      -6.281647      -170.9323
  21   2.0000      -1.488192       -40.4958
  22   2.0000      -1.251350       -34.0510
  23   2.0000      -1.153355       -31.3844
  24   2.0000      -1.077086       -29.3090
  25   2.0000      -0.987890       -26.8818
  26   2.0000      -0.948534       -25.8109
  27   2.0000      -0.918244       -24.9867
  28   2.0000      -0.888154       -24.1679
  29   2.0000      -0.857044       -23.3214
  30   2.0000      -0.831509       -22.6265
  31   2.0000      -0.817947       -22.2575
  32   2.0000      -0.795935       -21.6585
  33   2.0000      -0.761148       -20.7119
  34   2.0000      -0.732196       -19.9241
  35   2.0000      -0.714419       -19.4403
  36   2.0000      -0.702601       -19.1187
  37   2.0000      -0.690279       -18.7834
  38   2.0000      -0.678700       -18.4684
  39   2.0000      -0.660647       -17.9771
  40   2.0000      -0.644970       -17.5505
  41   2.0000      -0.637443       -17.3457
  42   2.0000      -0.617261       -16.7965
  43   2.0000      -0.602998       -16.4084
  44   2.0000      -0.583913       -15.8891
  45   2.0000      -0.578671       -15.7464
  46   2.0000      -0.574919       -15.6443
  47   2.0000      -0.564259       -15.3543
  48   2.0000      -0.552638       -15.0381
  49   2.0000      -0.541950       -14.7472
  50   2.0000      -0.533712       -14.5230
  51   2.0000      -0.521474       -14.1900
  52   2.0000      -0.514528       -14.0010
  53   2.0000      -0.506836       -13.7917
  54   2.0000      -0.492808       -13.4100
  55   2.0000      -0.489518       -13.3205
  56   2.0000      -0.476785       -12.9740
  57   2.0000      -0.473021       -12.8716
  58   2.0000      -0.470060       -12.7910
  59   2.0000      -0.456618       -12.4252
  60   2.0000      -0.452061       -12.3012
  61   2.0000      -0.445598       -12.1253
  62   2.0000      -0.438319       -11.9273
  63   2.0000      -0.435280       -11.8446
  64   2.0000      -0.430686       -11.7196
  65   2.0000      -0.424473       -11.5505
  66   2.0000      -0.418002       -11.3744
  67   2.0000      -0.402193       -10.9442
  68   2.0000      -0.398889       -10.8543
  69   2.0000      -0.394205       -10.7269
  70   2.0000      -0.335464        -9.1284
  71   2.0000      -0.257499        -7.0069
  72   0.0000       0.067939         1.8487
  73   0.0000       0.089490         2.4352
  74   0.0000       0.094028         2.5586
  75   0.0000       0.098626         2.6837
  76   0.0000       0.105633         2.8744

MULLIKEN ATOMIC CHARGES
-----------------------
   0 C :    0.927592
   1 N :    0.401418
   2 C :    0.140933
   3 C :    0.134584
   4 H :    0.126048
   5 H :    0.143480
   6 S :    1.498091
   7 C :    0.477843
   8 N :    0.525862
   9 C :    0.491453
  10 H :    0.097571
  11 H :   -0.649047
  12 H :   -1.240587
  13 H :   -0.436662
  14 H :   -0.122285
  15 O :   -0.746604
  16 O :   -0.739391
  17 C :    0.291478
  18 H :   -0.268677
  19 H :   -0.063086
  20 C :   -0.050539
  21 C :    0.213288
  22 H :    0.064366
  23 H :   -0.526327
  24 H :   -0.025767
  25 H :    0.081352
  26 C :    0.075456
  27 H :   -0.094945
  28 H :   -0.064803
  29 C :   -0.195699
  30 H :   -0.140882
  31 H :   -0.123643
  32 C :    0.611317
  33 H :   -0.308817
  34 H :    0.158193
  35 H :    0.135331
  36 H :   -0.297458
  37 H :   -0.014384
  38 H :    0.034247
  39 F :   -0.520303
Sum of atomic charges:    0.0000000

LOEWDIN ATOMIC CHARGES
----------------------
   0 C :    0.071805
   1 N :    0.009740
   2 C :   -0.026291
   3 C :   -0.020799
   4 H :    0.046920
   5 H :    0.049332
   6 S :    1.176487
   7 C :   -0.225821
   8 N :    0.211723
   9 C :    0.119552
  10 H :   -0.127699
  11 H :   -0.118482
  12 H :   -0.054329
  13 H :   -0.126622
  14 H :    0.023932
  15 O :   -0.462798
  16 O :   -0.463679
  17 C :   -0.018679
  18 H :    0.024106
  19 H :    0.020108
  20 C :   -0.033935
  21 C :   -0.027515
  22 H :    0.046818
  23 H :   -0.011138
  24 H :    0.047821
  25 H :    0.029149
  26 C :   -0.034441
  27 H :    0.026764
  28 H :    0.002526
  29 C :   -0.039123
  30 H :    0.028260
  31 H :    0.005997
  32 C :   -0.031837
  33 H :    0.026035
  34 H :    0.007527
  35 H :    0.020066
  36 H :    0.028624
  37 H :    0.024063
  38 H :    0.024384
  39 F :   -0.248553

  Mayer bond orders larger than 0.100000
B(  0-C ,  1-N ) :   0.9852 B(  0-C , 10-H ) :   0.1109 B(  0-C , 12-H ) :  -0.5208
B(  0-C , 17-C ) :   1.0990 B(  0-C , 18-H ) :   0.7606 B(  0-C , 19-H ) :   0.8605
B(  1-N ,  7-C ) :   1.0640 B(  1-N ,  9-C ) :   0.2923 B(  1-N , 11-H ) :   0.1300
B(  1-N , 12-H ) :   0.6035 B(  1-N , 13-H ) :   0.1547 B(  1-N , 18-H ) :   0.2606
B(  2-C ,  3-C ) :   1.2681 B(  2-C ,  5-H ) :   0.2312 B(  2-C , 20-C ) :   0.1028
B(  2-C , 21-C ) :   1.1440 B(  2-C , 24-H ) :   0.8553 B(  2-C , 25-H ) :   0.8703
B(  3-C ,  4-H ) :   0.9275 B(  3-C ,  5-H ) :   0.7202 B(  3-C ,  6-S ) :   1.0212
B(  3-C , 25-H ) :   0.1068 B(  6-S , 15-O ) :   1.3701 B(  6-S , 16-O ) :   1.4593
B(  6-S , 39-F ) :   0.6077 B(  7-C ,  8-N ) :   1.0040 B(  7-C ,  9-C ) :   1.7664
B(  7-C , 10-H ) :   0.3867 B(  7-C , 11-H ) :   0.3457 B(  7-C , 12-H ) :  -0.6712
B(  7-C , 13-H ) :  -0.1680 B(  7-C , 18-H ) :   0.1125 B(  8-N ,  9-C ) :   0.1957
B(  8-N , 13-H ) :   0.9135 B(  8-N , 14-H ) :   1.2622 B(  9-C , 10-H ) :   0.5055
B(  9-C , 11-H ) :   0.6669 B( 10-H , 13-H ) :   0.1580 B( 10-H , 18-H ) :  -0.1048
B( 10-H , 19-H ) :   0.1181 B( 11-H , 12-H ) :  -0.1069 B( 12-H , 39-F ) :   0.2474
B( 13-H , 14-H ) :  -0.2658 B( 13-H , 15-O ) :   0.1640 B( 17-C , 18-H ) :   0.1182
B( 17-C , 26-C ) :   1.1818 B( 17-C , 27-H ) :   0.9195 B( 17-C , 28-H ) :   0.7847
B( 17-C , 31-H ) :   0.1069 B( 18-H , 19-H ) :  -0.1880 B( 20-C , 21-C ) :   1.2371
B( 20-C , 22-H ) :   0.1048 B( 20-C , 23-H ) :   0.1193 B( 20-C , 32-C ) :   1.1380
B( 20-C , 35-H ) :   0.8585 B( 20-C , 36-H ) :   0.9921 B( 20-C , 37-H ) :   0.1090
B( 20-C , 38-H ) :   0.2047 B( 21-C , 22-H ) :   0.7343 B( 21-C , 23-H ) :   0.7766
B( 21-C , 24-H ) :   0.1758 B( 21-C , 36-H ) :   0.1895 B( 22-H , 23-H ) :   0.2383
B( 23-H , 34-H ) :   0.1224 B( 26-C , 28-H ) :   0.2066 B( 26-C , 29-C ) :   1.2123
B( 26-C , 30-H ) :   0.9045 B( 26-C , 31-H ) :   0.9229 B( 26-C , 33-H ) :   0.1392
B( 27-H , 28-H ) :  -0.1167 B( 29-C , 30-H ) :   0.1451 B( 29-C , 31-H ) :   0.1224
B( 29-C , 32-C ) :   1.1432 B( 29-C , 33-H ) :   1.0596 B( 29-C , 34-H ) :   0.8390
B( 29-C , 37-H ) :   0.2694 B( 29-C , 38-H ) :   0.1321 B( 32-C , 37-H ) :   0.6934
B( 32-C , 38-H ) :   0.7163

Dispersion correction           -0.021750747
FINAL SINGLE POINT ENERGY     -1190.072741934006

DIPOLE MOMENT
-------------
                                X             Y             Z
Electronic contribution:    -19.27616       0.86695     -17.69150
Nuclear contribution   :     18.85717      -4.60195      17.96505
                        -----------------------------------------
Total Dipole Moment    :     -0.41898      -3.73499       0.27355
                        -----------------------------------------
Magnitude (a.u.)       :      3.76836
Magnitude (Debye)      :      9.57842

Rotational constants in cm-1:     0.014436     0.012382     0.007563
Rotational constants in MHz :   432.785702   371.214592   226.743759

                             ****ORCA TERMINATED NORMALLY****
TOTAL RUN TIME: 0 days 0 hours 2 minutes 3 seconds 470 msec
