                         Program Version 5.0.0 -  RELEASE  -
|  1> !PBE0 D3BJ RIJCOSX def2-TZVP def2/J TightSCF
|  2> *xyz -1 1
|  3> C         -1.10433        0.25137       -2.86006
|  4> C         -0.71189        0.84252       -4.21834
|  5> H          0.15463        1.49980       -4.13091
|  6> H         -1.53813        1.45922       -4.58267
|  7> C         -0.39762       -0.20587       -5.28802
|  8> O          0.61717       -0.00535       -5.99827
|  9> O         -1.13317       -1.22138       -5.34147
| 10> H         -1.95489       -0.38644       -2.98099
| 11> H         -1.34603        1.04362       -2.18269
| 12> H         -0.28606       -0.31581       -2.46809
| 13> *
| 14>
| 15> %MaxCore 64000
| 16>
| 17> %pal nprocs 4
| 18> end
| 19>
| 20> %scf
| 21>   MaxIter 150
| 22> end
| 23>
| 24>
| 25>                          ****END OF INPUT****

CARTESIAN COORDINATES (ANGSTROEM)
---------------------------------
  C     -1.104330    0.251370   -2.860060
  C     -0.711890    0.842520   -4.218340
  H      0.154630    1.499800   -4.130910
  H     -1.538130    1.459220   -4.582670
  C     -0.397620   -0.205870   -5.288020
  O      0.617170   -0.005350   -5.998270
  O     -1.133170   -1.221380   -5.341470
  H     -1.954890   -0.386440   -2.980990
  H     -1.346030    1.043620   -2.182690
  H     -0.286060   -0.315810   -2.468090

 Total Charge           Charge          ....   -1
 Multiplicity           Mult            ....    1
 Number of Electrons    NEL             ....   40
 Basis Dimension        Dim             ....  185

ORBITAL ENERGIES
----------------

  NO   OCC          E(Eh)            E(eV)
   0   2.0000     -18.928306      -515.0654
   1   2.0000     -18.926844      -515.0256
   2   2.0000     -10.090955      -274.5888
   3   2.0000     -10.050377      -273.4847
   4   2.0000     -10.040613      -273.2190
   5   2.0000      -0.839236       -22.8368
   6   2.0000      -0.745379       -20.2828
   7   2.0000      -0.622071       -16.9274
   8   2.0000      -0.488561       -13.2944
   9   2.0000      -0.328857        -8.9487
  10   2.0000      -0.301561        -8.2059
  11   2.0000      -0.269217        -7.3258
  12   2.0000      -0.237021        -6.4497
  13   2.0000      -0.221497        -6.0272
  14   2.0000      -0.213544        -5.8108
  15   2.0000      -0.184550        -5.0219
  16   2.0000      -0.165863        -4.5134
  17   2.0000      -0.051437        -1.3997
  18   2.0000      -0.044600        -1.2136
  19   2.0000      -0.031539        -0.8582
  20   0.0000       0.193486         5.2650
  21   0.0000       0.235286         6.4024
  22   0.0000       0.249923         6.8007
  23   0.0000       0.258974         7.0470
  24   0.0000       0.271235         7.3807

MULLIKEN ATOMIC CHARGES
-----------------------
   0 C :   -0.328694
   1 C :   -0.154259
   2 H :    0.051642
   3 H :    0.041998
   4 C :    0.204481
   5 O :   -0.533119
   6 O :   -0.533568
   7 H :    0.102906
   8 H :    0.060271
   9 H :    0.088343
Sum of atomic charges:   -1.0000000

LOEWDIN ATOMIC CHARGES
----------------------
   0 C :   -0.331751
   1 C :   -0.297282
   2 H :    0.120902
   3 H :    0.122908
   4 C :   -0.707028
   5 O :   -0.112069
   6 O :   -0.109621
   7 H :    0.112350
   8 H :    0.093254
   9 H :    0.108337

  Mayer bond orders larger than 0.100000
B(  0-C ,  1-C ) :   0.9728 B(  0-C ,  7-H ) :   0.9677 B(  0-C ,  8-H ) :   0.9656
B(  0-C ,  9-H ) :   0.9785 B(  1-C ,  2-H ) :   0.9519 B(  1-C ,  3-H ) :   0.9483
B(  1-C ,  4-C ) :   0.9621 B(  4-C ,  5-O ) :   1.8755 B(  4-C ,  6-O ) :   1.8421

Dispersion correction           -0.005443942
FINAL SINGLE POINT ENERGY      -267.642670767769

DIPOLE MOMENT
-------------
                                X             Y             Z
Electronic contribution:      1.57760      -2.42277      -5.31094
Nuclear contribution   :     -2.09607       3.44215       6.87744
                        -----------------------------------------
Total Dipole Moment    :     -0.51847       1.01937       1.56650
                        -----------------------------------------
Magnitude (a.u.)       :      1.93955
Magnitude (Debye)      :      4.92994

Rotational constants in cm-1:     0.324698     0.133739     0.103466
Rotational constants in MHz :  9734.203431  4009.406827  3101.846422

                             ****ORCA TERMINATED NORMALLY****
TOTAL RUN TIME: 0 days 0 hours 0 minutes 20 seconds 92 msec
