                         Program Version 5.0.0 -  RELEASE  -
|  1> !PBE0 D3BJ RIJCOSX def2-TZVP def2/J TightSCF
|  2> *xyz 1 1
|  3> C          2.23447       -2.98975       -2.39762
|  4> N          2.75680       -2.94555       -3.76503
|  5> C          1.98721       -2.59045       -4.81898
|  6> N          0.74322       -3.01749       -4.91352
|  7> N          2.49964       -1.84860       -5.80324
|  8> H          3.30978       -1.29282       -5.55895
|  9> H          1.80103       -1.30430       -6.28913
| 10> H          3.71612       -2.62880       -3.82953
| 11> H          0.39583       -3.62775       -4.18502
| 12> H          0.03920       -2.45438       -5.37137
| 13> C          2.19120       -1.61950       -1.71549
| 14> H          2.87278       -3.66637       -1.82801
| 15> H          1.24619       -3.44744       -2.40784
| 16> H          1.56387       -0.96046       -2.27853
| 17> H          3.18033       -1.21449       -1.66568
| 18> H          1.79916       -1.72608       -0.72562
| 19> *
| 20>
| 21> %MaxCore 64000
| 22>
| 23> %pal nprocs 4
| 24> end
| 25>
| 26> %scf
| 27>   MaxIter 150
| 28> end
| 29>
| 30>
| 31>                          ****END OF INPUT****

CARTESIAN COORDINATES (ANGSTROEM)
---------------------------------
  C      2.234470   -2.989750   -2.397620
  N      2.756800   -2.945550   -3.765030
  C      1.987210   -2.590450   -4.818980
  N      0.743220   -3.017490   -4.913520
  N      2.499640   -1.848600   -5.803240
  H      3.309780   -1.292820   -5.558950
  H      1.801030   -1.304300   -6.289130
  H      3.716120   -2.628800   -3.829530
  H      0.395830   -3.627750   -4.185020
  H      0.039200   -2.454380   -5.371370
  C      2.191200   -1.619500   -1.715490
  H      2.872780   -3.666370   -1.828010
  H      1.246190   -3.447440   -2.407840
  H      1.563870   -0.960460   -2.278530
  H      3.180330   -1.214490   -1.665680
  H      1.799160   -1.726080   -0.725620

 Total Charge           Charge          ....    1
 Multiplicity           Mult            ....    1
 Number of Electrons    NEL             ....   48
 Basis Dimension        Dim             ....  246

ORBITAL ENERGIES
----------------

  NO   OCC          E(Eh)            E(eV)
   0   2.0000     -14.612986      -397.6396
   1   2.0000     -14.609113      -397.5342
   2   2.0000     -14.608479      -397.5169
   3   2.0000     -10.559407      -287.3361
   4   2.0000     -10.430733      -283.8347
   5   2.0000     -10.360381      -281.9203
   6   2.0000      -1.248947       -33.9856
   7   2.0000      -1.133235       -30.8369
   8   2.0000      -1.128774       -30.7155
   9   2.0000      -0.952190       -25.9104
  10   2.0000      -0.864219       -23.5166
  11   2.0000      -0.824315       -22.4307
  12   2.0000      -0.802193       -21.8288
  13   2.0000      -0.758184       -20.6312
  14   2.0000      -0.716776       -19.5045
  15   2.0000      -0.700151       -19.0521
  16   2.0000      -0.664598       -18.0846
  17   2.0000      -0.636410       -17.3176
  18   2.0000      -0.616731       -16.7821
  19   2.0000      -0.583269       -15.8716
  20   2.0000      -0.548477       -14.9248
  21   2.0000      -0.528949       -14.3934
  22   2.0000      -0.502515       -13.6741
  23   2.0000      -0.464090       -12.6285
  24   0.0000      -0.188313        -5.1242
  25   0.0000      -0.145505        -3.9594
  26   0.0000      -0.113314        -3.0834
  27   0.0000      -0.099201        -2.6994
  28   0.0000      -0.082066        -2.2331

MULLIKEN ATOMIC CHARGES
-----------------------
   0 C :   -0.151861
   1 N :   -0.249588
   2 C :    0.376802
   3 N :   -0.384962
   4 N :   -0.356789
   5 H :    0.278118
   6 H :    0.276908
   7 H :    0.252062
   8 H :    0.287264
   9 H :    0.290304
  10 C :   -0.352450
  11 H :    0.177611
  12 H :    0.118066
  13 H :    0.125383
  14 H :    0.143869
  15 H :    0.169262
Sum of atomic charges:    1.0000000

LOEWDIN ATOMIC CHARGES
----------------------
   0 C :   -0.288629
   1 N :    0.155641
   2 C :   -0.409466
   3 N :    0.088017
   4 N :    0.061893
   5 H :    0.196831
   6 H :    0.200502
   7 H :    0.206778
   8 H :    0.199032
   9 H :    0.200508
  10 C :   -0.286105
  11 H :    0.152100
  12 H :    0.135667
  13 H :    0.120961
  14 H :    0.126954
  15 H :    0.139315

  Mayer bond orders larger than 0.100000
B(  0-C ,  1-N ) :   0.8976 B(  0-C , 10-C ) :   0.9994 B(  0-C , 11-H ) :   0.9503
B(  0-C , 12-H ) :   0.9692 B(  1-N ,  2-C ) :   1.3609 B(  1-N ,  7-H ) :   0.9010
B(  2-C ,  3-N ) :   1.3627 B(  2-C ,  4-N ) :   1.3557 B(  3-N ,  8-H ) :   0.8904
B(  3-N ,  9-H ) :   0.8832 B(  4-N ,  5-H ) :   0.8921 B(  4-N ,  6-H ) :   0.8895
B( 10-C , 13-H ) :   0.9598 B( 10-C , 14-H ) :   0.9633 B( 10-C , 15-H ) :   0.9576

Dispersion correction           -0.010499200
FINAL SINGLE POINT ENERGY      -284.170677103602

DIPOLE MOMENT
-------------
                                X             Y             Z
Electronic contribution:      0.18174      -1.66297      -5.19664
Nuclear contribution   :     -0.59121       2.30298       4.63196
                        -----------------------------------------
Total Dipole Moment    :     -0.40946       0.64001      -0.56469
                        -----------------------------------------
Magnitude (a.u.)       :      0.94665
Magnitude (Debye)      :      2.40619

Rotational constants in cm-1:     0.205874     0.074757     0.066901
Rotational constants in MHz :  6171.937773  2241.151057  2005.629823

                             ****ORCA TERMINATED NORMALLY****
TOTAL RUN TIME: 0 days 0 hours 0 minutes 33 seconds 3 msec
