                         Program Version 5.0.0 -  RELEASE  -
|  1> !PBE0 D3BJ RIJCOSX def2-TZVP def2/J TightSCF
|  2> *xyz 0 1
|  3> C         -1.10433        0.25137       -2.86006
|  4> C         -0.71189        0.84252       -4.21834
|  5> H          0.15463        1.49980       -4.13091
|  6> H         -1.53813        1.45922       -4.58267
|  7> C         -0.39762       -0.20587       -5.28802
|  8> F          0.61717       -0.00535       -5.99827
|  9> O         -1.13317       -1.22138       -5.34147
| 10> H         -1.95489       -0.38644       -2.98099
| 11> H         -1.34603        1.04362       -2.18269
| 12> H         -0.28606       -0.31581       -2.46809
| 13> *
| 14>
| 15> %MaxCore 64000
| 16>
| 17> %pal nprocs 4
| 18> end
| 19>
| 20> %scf
| 21>   MaxIter 150
| 22> end
| 23>
| 24>
| 25>                          ****END OF INPUT****

CARTESIAN COORDINATES (ANGSTROEM)
---------------------------------
  C     -1.104330    0.251370   -2.860060
  C     -0.711890    0.842520   -4.218340
  H      0.154630    1.499800   -4.130910
  H     -1.538130    1.459220   -4.582670
  C     -0.397620   -0.205870   -5.288020
  F      0.617170   -0.005350   -5.998270
  O     -1.133170   -1.221380   -5.341470
  H     -1.954890   -0.386440   -2.980990
  H     -1.346030    1.043620   -2.182690
  H     -0.286060   -0.315810   -2.468090

 Total Charge           Charge          ....    0
 Multiplicity           Mult            ....    1
 Number of Electrons    NEL             ....   40
 Basis Dimension        Dim             ....  185

ORBITAL ENERGIES
----------------

  NO   OCC          E(Eh)            E(eV)
   0   2.0000     -24.840538      -675.9454
   1   2.0000     -19.209676      -522.7219
   2   2.0000     -10.397421      -282.9282
   3   2.0000     -10.253561      -279.0136
   4   2.0000     -10.221749      -278.1479
   5   2.0000      -1.351821       -36.7849
   6   2.0000      -1.061161       -28.8756
   7   2.0000      -0.822420       -22.3792
   8   2.0000      -0.712641       -19.3919
   9   2.0000      -0.656667       -17.8688
  10   2.0000      -0.565386       -15.3849
  11   2.0000      -0.552303       -15.0289
  12   2.0000      -0.525369       -14.2960
  13   2.0000      -0.479606       -13.0507
  14   2.0000      -0.448141       -12.1945
  15   2.0000      -0.409486       -11.1427
  16   2.0000      -0.389479       -10.5983
  17   2.0000      -0.387140       -10.5346
  18   2.0000      -0.360348        -9.8056
  19   2.0000      -0.306397        -8.3375
  20   0.0000      -0.022487        -0.6119
  21   0.0000       0.042711         1.1622
  22   0.0000       0.082894         2.2557
  23   0.0000       0.098587         2.6827
  24   0.0000       0.108515         2.9528

MULLIKEN ATOMIC CHARGES
-----------------------
   0 C :   -0.355550
   1 C :   -0.217335
   2 H :    0.118707
   3 H :    0.130819
   4 C :    0.358170
   5 F :   -0.094415
   6 O :   -0.335032
   7 H :    0.145125
   8 H :    0.126856
   9 H :    0.122656
Sum of atomic charges:   -0.0000000

LOEWDIN ATOMIC CHARGES
----------------------
   0 C :   -0.290308
   1 C :   -0.265069
   2 H :    0.141360
   3 H :    0.156615
   4 C :   -0.502695
   5 F :    0.325903
   6 O :    0.065730
   7 H :    0.126988
   8 H :    0.120068
   9 H :    0.121407

  Mayer bond orders larger than 0.100000
B(  0-C ,  1-C ) :   1.0006 B(  0-C ,  7-H ) :   0.9645 B(  0-C ,  8-H ) :   0.9647
B(  0-C ,  9-H ) :   0.9736 B(  1-C ,  2-H ) :   0.9542 B(  1-C ,  3-H ) :   0.9278
B(  1-C ,  4-C ) :   1.0116 B(  4-C ,  5-F ) :   1.1669 B(  4-C ,  6-O ) :   2.0496

Dispersion correction           -0.005163933
FINAL SINGLE POINT ENERGY      -292.201798940656

DIPOLE MOMENT
-------------
                                X             Y             Z
Electronic contribution:      3.60390      -2.37182      -7.72306
Nuclear contribution   :     -3.36368       3.36392       8.24820
                        -----------------------------------------
Total Dipole Moment    :      0.24022       0.99210       0.52514
                        -----------------------------------------
Magnitude (a.u.)       :      1.14792
Magnitude (Debye)      :      2.91779

Rotational constants in cm-1:     0.315013     0.126712     0.098430
Rotational constants in MHz :  9443.861322  3798.734540  2950.846388

                             ****ORCA TERMINATED NORMALLY****
TOTAL RUN TIME: 0 days 0 hours 0 minutes 17 seconds 144 msec
