                         Program Version 5.0.0 -  RELEASE  -
|  1> !PBE0 D3BJ RIJCOSX def2-TZVP def2/J TightSCF
|  2> *xyz 0 1
|  3> C          2.23447       -2.98975       -2.39762
|  4> C          2.75680       -2.94555       -3.76503
|  5> C          1.98721       -2.59045       -4.81898
|  6> N          0.74322       -3.01749       -4.91352
|  7> N          2.49964       -1.84860       -5.80324
|  8> H          3.30978       -1.29282       -5.55895
|  9> H          1.80103       -1.30430       -6.28913
| 10> H          3.71612       -2.62880       -3.82953
| 11> H          0.39583       -3.62775       -4.18502
| 12> H          0.03920       -2.45438       -5.37137
| 13> C          2.19120       -1.61950       -1.71549
| 14> H          2.87278       -3.66637       -1.82801
| 15> H          1.24619       -3.44744       -2.40784
| 16> H          1.56387       -0.96046       -2.27853
| 17> H          3.18033       -1.21449       -1.66568
| 18> H          1.79916       -1.72608       -0.72562
| 19> *
| 20>
| 21> %MaxCore 64000
| 22>
| 23> %pal nprocs 4
| 24> end
| 25>
| 26> %scf
| 27>   MaxIter 150
| 28> end
| 29>
| 30>
| 31>                          ****END OF INPUT****

CARTESIAN COORDINATES (ANGSTROEM)
---------------------------------
  C      2.234470   -2.989750   -2.397620
  C      2.756800   -2.945550   -3.765030
  C      1.987210   -2.590450   -4.818980
  N      0.743220   -3.017490   -4.913520
  N      2.499640   -1.848600   -5.803240
  H      3.309780   -1.292820   -5.558950
  H      1.801030   -1.304300   -6.289130
  H      3.716120   -2.628800   -3.829530
  H      0.395830   -3.627750   -4.185020
  H      0.039200   -2.454380   -5.371370
  C      2.191200   -1.619500   -1.715490
  H      2.872780   -3.666370   -1.828010
  H      1.246190   -3.447440   -2.407840
  H      1.563870   -0.960460   -2.278530
  H      3.180330   -1.214490   -1.665680
  H      1.799160   -1.726080   -0.725620

 Total Charge           Charge          ....    0
 Multiplicity           Mult            ....    1
 Number of Electrons    NEL             ....   48
 Basis Dimension        Dim             ....  246

ORBITAL ENERGIES
----------------

  NO   OCC          E(Eh)            E(eV)
   0   2.0000     -14.387914      -391.5150
   1   2.0000     -14.383703      -391.4005
   2   2.0000     -10.267345      -279.3887
   3   2.0000     -10.196874      -277.4710
   4   2.0000     -10.186214      -277.1810
   5   2.0000     -10.144772      -276.0533
   6   2.0000      -0.997969       -27.1561
   7   2.0000      -0.904776       -24.6202
   8   2.0000      -0.796356       -21.6699
   9   2.0000      -0.713076       -19.4038
  10   2.0000      -0.637800       -17.3554
  11   2.0000      -0.596286       -16.2258
  12   2.0000      -0.558469       -15.1967
  13   2.0000      -0.522709       -14.2236
  14   2.0000      -0.483648       -13.1607
  15   2.0000      -0.463856       -12.6222
  16   2.0000      -0.425921       -11.5899
  17   2.0000      -0.406579       -11.0636
  18   2.0000      -0.384668       -10.4674
  19   2.0000      -0.371279       -10.1030
  20   2.0000      -0.338583        -9.2133
  21   2.0000      -0.331104        -9.0098
  22   2.0000      -0.287670        -7.8279
  23   2.0000      -0.169523        -4.6130
  24   0.0000       0.021831         0.5940
  25   0.0000       0.055375         1.5068
  26   0.0000       0.069156         1.8818
  27   0.0000       0.071742         1.9522
  28   0.0000       0.087940         2.3930

MULLIKEN ATOMIC CHARGES
-----------------------
   0 C :   -0.162357
   1 C :   -0.345464
   2 C :    0.273781
   3 N :   -0.460680
   4 N :   -0.441231
   5 H :    0.245877
   6 H :    0.214966
   7 H :    0.071079
   8 H :    0.247049
   9 H :    0.218445
  10 C :   -0.311943
  11 H :    0.099236
  12 H :    0.044862
  13 H :    0.097210
  14 H :    0.101102
  15 H :    0.108068
Sum of atomic charges:   -0.0000000

LOEWDIN ATOMIC CHARGES
----------------------
   0 C :   -0.320047
   1 C :   -0.284733
   2 C :   -0.471379
   3 N :    0.004363
   4 N :   -0.017929
   5 H :    0.176386
   6 H :    0.164310
   7 H :    0.117658
   8 H :    0.178564
   9 H :    0.159921
  10 C :   -0.305044
  11 H :    0.136476
  12 H :    0.124448
  13 H :    0.112066
  14 H :    0.114066
  15 H :    0.110875

  Mayer bond orders larger than 0.100000
B(  0-C ,  1-C ) :   1.0521 B(  0-C , 10-C ) :   0.9634 B(  0-C , 11-H ) :   0.9688
B(  0-C , 12-H ) :   0.9649 B(  1-C ,  2-C ) :   1.6622 B(  1-C ,  7-H ) :   1.0198
B(  2-C ,  3-N ) :   1.1762 B(  2-C ,  4-N ) :   1.1656 B(  3-N ,  8-H ) :   0.9178
B(  3-N ,  9-H ) :   0.9067 B(  4-N ,  5-H ) :   0.9163 B(  4-N ,  6-H ) :   0.9209
B( 10-C , 13-H ) :   0.9771 B( 10-C , 14-H ) :   0.9743 B( 10-C , 15-H ) :   0.9677

Dispersion correction           -0.010928471
FINAL SINGLE POINT ENERGY      -267.697925837106

DIPOLE MOMENT
-------------
                                X             Y             Z
Electronic contribution:     -0.35347      -1.34959      -5.04863
Nuclear contribution   :     -0.44240       2.20379       4.66256
                        -----------------------------------------
Total Dipole Moment    :     -0.79587       0.85420      -0.38606
                        -----------------------------------------
Magnitude (a.u.)       :      1.22968
Magnitude (Debye)      :      3.12559

Rotational constants in cm-1:     0.209447     0.075194     0.066975
Rotational constants in MHz :  6279.068019  2254.272519  2007.845458

                             ****ORCA TERMINATED NORMALLY****
TOTAL RUN TIME: 0 days 0 hours 0 minutes 33 seconds 590 msec
