                         Program Version 5.0.0 -  RELEASE  -
|  1> !PBE0 D3BJ RIJCOSX def2-TZVP def2/J TightSCF
|  2> *xyz 0 1
|  3> C         -1.10433        0.25137       -2.86006
|  4> C         -0.71189        0.84252       -4.21834
|  5> H          0.15463        1.49980       -4.13091
|  6> H         -1.53813        1.45922       -4.58267
|  7> C         -0.39762       -0.20587       -5.28802
|  8> O          0.61717       -0.00535       -5.99827
|  9> F         -1.13317       -1.22138       -5.34147
| 10> H         -1.95489       -0.38644       -2.98099
| 11> H         -1.34603        1.04362       -2.18269
| 12> H         -0.28606       -0.31581       -2.46809
| 13> *
| 14>
| 15> %MaxCore 64000
| 16>
| 17> %pal nprocs 4
| 18> end
| 19>
| 20> %scf
| 21>   MaxIter 150
| 22> end
| 23>
| 24>
| 25>                          ****END OF INPUT****

CARTESIAN COORDINATES (ANGSTROEM)
---------------------------------
  C     -1.104330    0.251370   -2.860060
  C     -0.711890    0.842520   -4.218340
  H      0.154630    1.499800   -4.130910
  H     -1.538130    1.459220   -4.582670
  C     -0.397620   -0.205870   -5.288020
  O      0.617170   -0.005350   -5.998270
  F     -1.133170   -1.221380   -5.341470
  H     -1.954890   -0.386440   -2.980990
  H     -1.346030    1.043620   -2.182690
  H     -0.286060   -0.315810   -2.468090

 Total Charge           Charge          ....    0
 Multiplicity           Mult            ....    1
 Number of Electrons    NEL             ....   40
 Basis Dimension        Dim             ....  185

ORBITAL ENERGIES
----------------

  NO   OCC          E(Eh)            E(eV)
   0   2.0000     -24.841181      -675.9629
   1   2.0000     -19.208512      -522.6902
   2   2.0000     -10.396668      -282.9077
   3   2.0000     -10.252772      -278.9921
   4   2.0000     -10.227491      -278.3042
   5   2.0000      -1.352154       -36.7940
   6   2.0000      -1.060135       -28.8477
   7   2.0000      -0.826610       -22.4932
   8   2.0000      -0.707637       -19.2558
   9   2.0000      -0.663993       -18.0682
  10   2.0000      -0.567507       -15.4427
  11   2.0000      -0.559086       -15.2135
  12   2.0000      -0.515367       -14.0238
  13   2.0000      -0.481273       -13.0961
  14   2.0000      -0.448448       -12.2029
  15   2.0000      -0.414859       -11.2889
  16   2.0000      -0.397850       -10.8261
  17   2.0000      -0.390847       -10.6355
  18   2.0000      -0.360809        -9.8181
  19   2.0000      -0.301665        -8.2087
  20   0.0000      -0.020177        -0.5490
  21   0.0000       0.037686         1.0255
  22   0.0000       0.082551         2.2463
  23   0.0000       0.101391         2.7590
  24   0.0000       0.109997         2.9932

MULLIKEN ATOMIC CHARGES
-----------------------
   0 C :   -0.361289
   1 C :   -0.214315
   2 H :    0.141602
   3 H :    0.124556
   4 C :    0.349963
   5 O :   -0.331704
   6 F :   -0.097557
   7 H :    0.126789
   8 H :    0.131985
   9 H :    0.129970
Sum of atomic charges:   -0.0000000

LOEWDIN ATOMIC CHARGES
----------------------
   0 C :   -0.299696
   1 C :   -0.260337
   2 H :    0.154273
   3 H :    0.152679
   4 C :   -0.503607
   5 O :    0.063507
   6 F :    0.328371
   7 H :    0.120705
   8 H :    0.122115
   9 H :    0.121989

  Mayer bond orders larger than 0.100000
B(  0-C ,  1-C ) :   0.9842 B(  0-C ,  7-H ) :   0.9670 B(  0-C ,  8-H ) :   0.9655
B(  0-C ,  9-H ) :   0.9716 B(  1-C ,  2-H ) :   0.9568 B(  1-C ,  3-H ) :   0.9305
B(  1-C ,  4-C ) :   1.0267 B(  4-C ,  5-O ) :   2.0646 B(  4-C ,  6-F ) :   1.1567

Dispersion correction           -0.005125717
FINAL SINGLE POINT ENERGY      -292.200975208178

DIPOLE MOMENT
-------------
                                X             Y             Z
Electronic contribution:      0.68838      -4.37449      -6.60422
Nuclear contribution   :     -1.45527       4.68977       7.53208
                        -----------------------------------------
Total Dipole Moment    :     -0.76689       0.31528       0.92786
                        -----------------------------------------
Magnitude (a.u.)       :      1.24436
Magnitude (Debye)      :      3.16292

Rotational constants in cm-1:     0.298240     0.132464     0.099915
Rotational constants in MHz :  8940.998095  3971.171647  2995.369122

                             ****ORCA TERMINATED NORMALLY****
TOTAL RUN TIME: 0 days 0 hours 0 minutes 17 seconds 334 msec
