                         Program Version 5.0.0 -  RELEASE  -
|  1> !PBE0 D3BJ RIJCOSX def2-TZVP def2/J TightSCF
|  2> *xyz 0 1
|  3> C          2.23447       -2.98975       -2.39762
|  4> N          2.75680       -2.94555       -3.76503
|  5> C          1.98721       -2.59045       -4.81898
|  6> C          0.74322       -3.01749       -4.91352
|  7> N          2.49964       -1.84860       -5.80324
|  8> H          3.30978       -1.29282       -5.55895
|  9> H          1.80103       -1.30430       -6.28913
| 10> H          3.71612       -2.62880       -3.82953
| 11> H          0.39583       -3.62775       -4.18502
| 12> H          0.03920       -2.45438       -5.37137
| 13> C          2.19120       -1.61950       -1.71549
| 14> H          2.87278       -3.66637       -1.82801
| 15> H          1.24619       -3.44744       -2.40784
| 16> H          1.56387       -0.96046       -2.27853
| 17> H          3.18033       -1.21449       -1.66568
| 18> H          1.79916       -1.72608       -0.72562
| 19> *
| 20>
| 21> %MaxCore 64000
| 22>
| 23> %pal nprocs 4
| 24> end
| 25>
| 26> %scf
| 27>   MaxIter 150
| 28> end
| 29>
| 30>
| 31>                          ****END OF INPUT****

CARTESIAN COORDINATES (ANGSTROEM)
---------------------------------
  C      2.234470   -2.989750   -2.397620
  N      2.756800   -2.945550   -3.765030
  C      1.987210   -2.590450   -4.818980
  C      0.743220   -3.017490   -4.913520
  N      2.499640   -1.848600   -5.803240
  H      3.309780   -1.292820   -5.558950
  H      1.801030   -1.304300   -6.289130
  H      3.716120   -2.628800   -3.829530
  H      0.395830   -3.627750   -4.185020
  H      0.039200   -2.454380   -5.371370
  C      2.191200   -1.619500   -1.715490
  H      2.872780   -3.666370   -1.828010
  H      1.246190   -3.447440   -2.407840
  H      1.563870   -0.960460   -2.278530
  H      3.180330   -1.214490   -1.665680
  H      1.799160   -1.726080   -0.725620

 Total Charge           Charge          ....    0
 Multiplicity           Mult            ....    1
 Number of Electrons    NEL             ....   48
 Basis Dimension        Dim             ....  246

ORBITAL ENERGIES
----------------

  NO   OCC          E(Eh)            E(eV)
   0   2.0000     -14.386165      -391.4675
   1   2.0000     -14.382144      -391.3580
   2   2.0000     -10.264681      -279.3162
   3   2.0000     -10.253078      -279.0004
   4   2.0000     -10.207457      -277.7590
   5   2.0000     -10.135573      -275.8030
   6   2.0000      -0.994802       -27.0699
   7   2.0000      -0.913787       -24.8654
   8   2.0000      -0.778376       -21.1807
   9   2.0000      -0.736311       -20.0360
  10   2.0000      -0.659504       -17.9460
  11   2.0000      -0.579462       -15.7680
  12   2.0000      -0.559036       -15.2121
  13   2.0000      -0.527177       -14.3452
  14   2.0000      -0.475086       -12.9277
  15   2.0000      -0.459973       -12.5165
  16   2.0000      -0.429921       -11.6987
  17   2.0000      -0.410551       -11.1717
  18   2.0000      -0.405839       -11.0434
  19   2.0000      -0.382717       -10.4143
  20   2.0000      -0.370403       -10.0792
  21   2.0000      -0.359460        -9.7814
  22   2.0000      -0.264358        -7.1936
  23   2.0000      -0.186315        -5.0699
  24   0.0000       0.027289         0.7426
  25   0.0000       0.056945         1.5495
  26   0.0000       0.065436         1.7806
  27   0.0000       0.078031         2.1233
  28   0.0000       0.091626         2.4933

MULLIKEN ATOMIC CHARGES
-----------------------
   0 C :   -0.092169
   1 N :   -0.309382
   2 C :    0.292298
   3 C :   -0.481340
   4 N :   -0.446556
   5 H :    0.206193
   6 H :    0.241701
   7 H :    0.188979
   8 H :    0.083377
   9 H :    0.096499
  10 C :   -0.359485
  11 H :    0.114206
  12 H :    0.113525
  13 H :    0.131178
  14 H :    0.102848
  15 H :    0.118128
Sum of atomic charges:    0.0000000

LOEWDIN ATOMIC CHARGES
----------------------
   0 C :   -0.304930
   1 N :    0.103235
   2 C :   -0.471779
   3 C :   -0.319803
   4 N :   -0.020973
   5 H :    0.155567
   6 H :    0.179838
   7 H :    0.173928
   8 H :    0.100973
   9 H :    0.099351
  10 C :   -0.311965
  11 H :    0.128963
  12 H :    0.136575
  13 H :    0.120137
  14 H :    0.112078
  15 H :    0.118805

  Mayer bond orders larger than 0.100000
B(  0-C ,  1-N ) :   0.9539 B(  0-C , 10-C ) :   0.9975 B(  0-C , 11-H ) :   0.9678
B(  0-C , 12-H ) :   0.9634 B(  1-N ,  2-C ) :   1.1434 B(  1-N ,  7-H ) :   0.9283
B(  2-C ,  3-C ) :   1.6646 B(  2-C ,  4-N ) :   1.1672 B(  3-C ,  8-H ) :   1.0063
B(  3-C ,  9-H ) :   0.9713 B(  4-N ,  5-H ) :   0.9177 B(  4-N ,  6-H ) :   0.9151
B( 10-C , 13-H ) :   0.9701 B( 10-C , 14-H ) :   0.9719 B( 10-C , 15-H ) :   0.9660

Dispersion correction           -0.010876225
FINAL SINGLE POINT ENERGY      -267.692501390366

DIPOLE MOMENT
-------------
                                X             Y             Z
Electronic contribution:      1.53121      -1.22968      -3.85774
Nuclear contribution   :     -0.86957       2.18853       4.41892
                        -----------------------------------------
Total Dipole Moment    :      0.66164       0.95885       0.56118
                        -----------------------------------------
Magnitude (a.u.)       :      1.29309
Magnitude (Debye)      :      3.28677

Rotational constants in cm-1:     0.214718     0.075736     0.068547
Rotational constants in MHz :  6437.075121  2270.519635  2054.974198

                             ****ORCA TERMINATED NORMALLY****
TOTAL RUN TIME: 0 days 0 hours 0 minutes 28 seconds 977 msec
