                         Program Version 5.0.0 -  RELEASE  -
|  1> !PBE0 D3BJ RIJCOSX def2-TZVP def2/J TightSCF
|  2> *xyz 0 1
|  3> C          2.23447       -2.98975       -2.39762
|  4> N          2.75680       -2.94555       -3.76503
|  5> C          1.98721       -2.59045       -4.81898
|  6> N          0.74322       -3.01749       -4.91352
|  7> C          2.49964       -1.84860       -5.80324
|  8> H          3.30978       -1.29282       -5.55895
|  9> H          1.80103       -1.30430       -6.28913
| 10> H          3.71612       -2.62880       -3.82953
| 11> H          0.39583       -3.62775       -4.18502
| 12> H          0.03920       -2.45438       -5.37137
| 13> C          2.19120       -1.61950       -1.71549
| 14> H          2.87278       -3.66637       -1.82801
| 15> H          1.24619       -3.44744       -2.40784
| 16> H          1.56387       -0.96046       -2.27853
| 17> H          3.18033       -1.21449       -1.66568
| 18> H          1.79916       -1.72608       -0.72562
| 19> *
| 20>
| 21> %MaxCore 64000
| 22>
| 23> %pal nprocs 4
| 24> end
| 25>
| 26> %scf
| 27>   MaxIter 150
| 28> end
| 29>
| 30>
| 31>                          ****END OF INPUT****

CARTESIAN COORDINATES (ANGSTROEM)
---------------------------------
  C      2.234470   -2.989750   -2.397620
  N      2.756800   -2.945550   -3.765030
  C      1.987210   -2.590450   -4.818980
  N      0.743220   -3.017490   -4.913520
  C      2.499640   -1.848600   -5.803240
  H      3.309780   -1.292820   -5.558950
  H      1.801030   -1.304300   -6.289130
  H      3.716120   -2.628800   -3.829530
  H      0.395830   -3.627750   -4.185020
  H      0.039200   -2.454380   -5.371370
  C      2.191200   -1.619500   -1.715490
  H      2.872780   -3.666370   -1.828010
  H      1.246190   -3.447440   -2.407840
  H      1.563870   -0.960460   -2.278530
  H      3.180330   -1.214490   -1.665680
  H      1.799160   -1.726080   -0.725620

 Total Charge           Charge          ....    0
 Multiplicity           Mult            ....    1
 Number of Electrons    NEL             ....   48
 Basis Dimension        Dim             ....  246

ORBITAL ENERGIES
----------------

  NO   OCC          E(Eh)            E(eV)
   0   2.0000     -14.385235      -391.4421
   1   2.0000     -14.385185      -391.4408
   2   2.0000     -10.268025      -279.4072
   3   2.0000     -10.261396      -279.2268
   4   2.0000     -10.211412      -277.8667
   5   2.0000     -10.130860      -275.6747
   6   2.0000      -0.996788       -27.1240
   7   2.0000      -0.913996       -24.8711
   8   2.0000      -0.790679       -21.5155
   9   2.0000      -0.729506       -19.8509
  10   2.0000      -0.649449       -17.6724
  11   2.0000      -0.618299       -16.8248
  12   2.0000      -0.554983       -15.1019
  13   2.0000      -0.505800       -13.7635
  14   2.0000      -0.504054       -13.7160
  15   2.0000      -0.451952       -12.2982
  16   2.0000      -0.441915       -12.0251
  17   2.0000      -0.414588       -11.2815
  18   2.0000      -0.389513       -10.5992
  19   2.0000      -0.378279       -10.2935
  20   2.0000      -0.376846       -10.2545
  21   2.0000      -0.366501        -9.9730
  22   2.0000      -0.266808        -7.2602
  23   2.0000      -0.181418        -4.9366
  24   0.0000       0.028408         0.7730
  25   0.0000       0.053973         1.4687
  26   0.0000       0.058003         1.5784
  27   0.0000       0.073868         2.0101
  28   0.0000       0.087109         2.3704

MULLIKEN ATOMIC CHARGES
-----------------------
   0 C :   -0.130402
   1 N :   -0.293562
   2 C :    0.265380
   3 N :   -0.462881
   4 C :   -0.434356
   5 H :    0.072894
   6 H :    0.070061
   7 H :    0.218712
   8 H :    0.223205
   9 H :    0.248467
  10 C :   -0.337982
  11 H :    0.122642
  12 H :    0.083525
  13 H :    0.126930
  14 H :    0.111215
  15 H :    0.116150
Sum of atomic charges:   -0.0000000

LOEWDIN ATOMIC CHARGES
----------------------
   0 C :   -0.320026
   1 N :    0.103957
   2 C :   -0.471361
   3 N :    0.006706
   4 C :   -0.350521
   5 H :    0.096733
   6 H :    0.101649
   7 H :    0.190919
   8 H :    0.163308
   9 H :    0.178085
  10 C :   -0.308846
  11 H :    0.130696
  12 H :    0.123861
  13 H :    0.120319
  14 H :    0.116410
  15 H :    0.118108

  Mayer bond orders larger than 0.100000
B(  0-C ,  1-N ) :   0.9798 B(  0-C , 10-C ) :   0.9864 B(  0-C , 11-H ) :   0.9682
B(  0-C , 12-H ) :   0.9729 B(  1-N ,  2-C ) :   1.1846 B(  1-N ,  7-H ) :   0.9226
B(  2-C ,  3-N ) :   1.1339 B(  2-C ,  4-C ) :   1.7439 B(  3-N ,  8-H ) :   0.9252
B(  3-N ,  9-H ) :   0.9114 B(  4-C ,  5-H ) :   1.0028 B(  4-C ,  6-H ) :   0.9909
B( 10-C , 13-H ) :   0.9704 B( 10-C , 14-H ) :   0.9707 B( 10-C , 15-H ) :   0.9647

Dispersion correction           -0.010843129
FINAL SINGLE POINT ENERGY      -267.686963300142

DIPOLE MOMENT
-------------
                                X             Y             Z
Electronic contribution:     -0.14316      -2.40599      -2.95523
Nuclear contribution   :     -0.49695       2.43650       4.23017
                        -----------------------------------------
Total Dipole Moment    :     -0.64011       0.03051       1.27494
                        -----------------------------------------
Magnitude (a.u.)       :      1.42693
Magnitude (Debye)      :      3.62697

Rotational constants in cm-1:     0.211102     0.077011     0.069221
Rotational constants in MHz :  6328.667765  2308.731604  2075.192956

                             ****ORCA TERMINATED NORMALLY****
TOTAL RUN TIME: 0 days 0 hours 0 minutes 30 seconds 365 msec
