                         Program Version 5.0.0 -  RELEASE  -
|  1> !PBE0 D3BJ RIJCOSX def2-TZVP def2/J TightSCF xyzfile
|  2>
|  3> *xyzfile 0 1 D1.xyz
|  4>
|  5> %MaxCore 64000
|  6>
|  7> %pal nprocs 18
|  8> end
|  9>
| 10> %scf
| 11>   MaxIter 150
| 12> end
| 13>
| 14>
| 15>                          ****END OF INPUT****

CARTESIAN COORDINATES (ANGSTROEM)
---------------------------------
  C      2.234473   -2.989754   -2.397622
  C      2.756799   -2.945553   -3.765029
  C     -1.104325    0.251374   -2.860056
  C     -0.711893    0.842517   -4.218344
  H      0.154626    1.499800   -4.130909
  H     -1.538134    1.459222   -4.582671
  C     -0.397624   -0.205875   -5.288018
  C      1.987208   -2.590451   -4.818975
  N      0.743221   -3.017493   -4.913524
  N      2.499636   -1.848598   -5.803241
  H      3.309780   -1.292818   -5.558947
  H      1.801025   -1.304298   -6.289129
  H      3.716116   -2.628797   -3.829533
  H      0.395828   -3.627747   -4.185024
  H      0.039201   -2.454383   -5.371367
  F      0.617165   -0.005348   -5.998273
  O     -1.133173   -1.221380   -5.341465
  C      2.191199   -1.619503   -1.715492
  H      2.872783   -3.666368   -1.828014
  H      1.246188   -3.447444   -2.407842
  C      1.298729   -0.554314   -2.359773
  H      1.872917   -1.787955   -0.681310
  H      3.216809   -1.238432   -1.654428
  C     -0.196255   -0.863365   -2.325763
  H      1.612531   -0.371346   -3.393065
  H      1.480944    0.388638   -1.834444
  H     -0.404105   -1.761825   -2.909448
  H     -0.490439   -1.087880   -1.294131
  H     -1.143842    1.066711   -2.129680
  H     -2.114401   -0.156834   -2.930323

 Total Charge           Charge          ....    0
 Multiplicity           Mult            ....    1
 Number of Electrons    NEL             ....  102
 Basis Dimension        Dim             ....  505

ORBITAL ENERGIES
----------------

  NO   OCC          E(Eh)            E(eV)
   0   2.0000     -24.875883      -676.9072
   1   2.0000     -19.242392      -523.6121
   2   2.0000     -14.370429      -391.0393
   3   2.0000     -14.361037      -390.7837
   4   2.0000     -10.426626      -283.7229
   5   2.0000     -10.266137      -279.3558
   6   2.0000     -10.256392      -279.0906
   7   2.0000     -10.240768      -278.6655
   8   2.0000     -10.219882      -278.0971
   9   2.0000     -10.216000      -277.9915
  10   2.0000     -10.203720      -277.6573
  11   2.0000     -10.192969      -277.3648
  12   2.0000     -10.135216      -275.7933
  13   2.0000      -1.389231       -37.8029
  14   2.0000      -1.099031       -29.9062
  15   2.0000      -0.984661       -26.7940
  16   2.0000      -0.890347       -24.2276
  17   2.0000      -0.854550       -23.2535
  18   2.0000      -0.813772       -22.1438
  19   2.0000      -0.776756       -21.1366
  20   2.0000      -0.732730       -19.9386
  21   2.0000      -0.710063       -19.3218
  22   2.0000      -0.673463       -18.3258
  23   2.0000      -0.632779       -17.2188
  24   2.0000      -0.607284       -16.5250
  25   2.0000      -0.599396       -16.3104
  26   2.0000      -0.587296       -15.9811
  27   2.0000      -0.568401       -15.4670
  28   2.0000      -0.559623       -15.2281
  29   2.0000      -0.533748       -14.5240
  30   2.0000      -0.509557       -13.8658
  31   2.0000      -0.495745       -13.4899
  32   2.0000      -0.489914       -13.3312
  33   2.0000      -0.471420       -12.8280
  34   2.0000      -0.458291       -12.4707
  35   2.0000      -0.451835       -12.2950
  36   2.0000      -0.436528       -11.8785
  37   2.0000      -0.422823       -11.5056
  38   2.0000      -0.407908       -11.0998
  39   2.0000      -0.400461       -10.8971
  40   2.0000      -0.389778       -10.6064
  41   2.0000      -0.379611       -10.3297
  42   2.0000      -0.370190       -10.0734
  43   2.0000      -0.358942        -9.7673
  44   2.0000      -0.349003        -9.4969
  45   2.0000      -0.338900        -9.2219
  46   2.0000      -0.328001        -8.9254
  47   2.0000      -0.322341        -8.7714
  48   2.0000      -0.315968        -8.5979
  49   2.0000      -0.269855        -7.3431
  50   2.0000      -0.159850        -4.3497
  51   0.0000      -0.053111        -1.4452
  52   0.0000       0.029062         0.7908
  53   0.0000       0.052718         1.4345
  54   0.0000       0.056289         1.5317
  55   0.0000       0.059634         1.6227

MULLIKEN ATOMIC CHARGES
-----------------------
   0 C :   -0.206331
   1 C :   -0.298569
   2 C :   -0.172744
   3 C :   -0.215683
   4 H :    0.132548
   5 H :    0.150213
   6 C :    0.358217
   7 C :    0.076249
   8 N :   -0.394259
   9 N :   -0.384063
  10 H :    0.238011
  11 H :    0.213783
  12 H :    0.062939
  13 H :    0.231129
  14 H :    0.234829
  15 F :   -0.112827
  16 O :   -0.345066
  17 C :   -0.130894
  18 H :    0.103276
  19 H :    0.075268
  20 C :   -0.158719
  21 H :    0.084846
  22 H :    0.087087
  23 C :   -0.252532
  24 H :    0.087429
  25 H :    0.094758
  26 H :    0.101610
  27 H :    0.105640
  28 H :    0.115218
  29 H :    0.118635
Sum of atomic charges:   -0.0000000

LOEWDIN ATOMIC CHARGES
----------------------
   0 C :   -0.297915
   1 C :   -0.285012
   2 C :   -0.257766
   3 C :   -0.236615
   4 H :    0.148256
   5 H :    0.162190
   6 C :   -0.494928
   7 C :   -0.490941
   8 N :    0.019410
   9 N :   -0.015019
  10 H :    0.172096
  11 H :    0.151596
  12 H :    0.116375
  13 H :    0.172917
  14 H :    0.144749
  15 F :    0.335177
  16 O :    0.080340
  17 C :   -0.262437
  18 H :    0.140125
  19 H :    0.129094
  20 C :   -0.270565
  21 H :    0.133778
  22 H :    0.136800
  23 C :   -0.271746
  24 H :    0.135845
  25 H :    0.137148
  26 H :    0.136273
  27 H :    0.141125
  28 H :    0.143382
  29 H :    0.146268

  Mayer bond orders larger than 0.100000
B(  0-C ,  1-C ) :   1.0222 B(  0-C , 17-C ) :   0.9693 B(  0-C , 18-H ) :   0.9637
B(  0-C , 19-H ) :   0.9744 B(  1-C ,  7-C ) :   1.7136 B(  1-C , 12-H ) :   1.0112
B(  2-C ,  3-C ) :   0.9961 B(  2-C , 23-C ) :   1.0068 B(  2-C , 28-H ) :   0.9524
B(  2-C , 29-H ) :   0.9527 B(  3-C ,  4-H ) :   0.9450 B(  3-C ,  5-H ) :   0.9219
B(  3-C ,  6-C ) :   1.0301 B(  6-C , 15-F ) :   1.1159 B(  6-C , 16-O ) :   1.9727
B(  7-C ,  8-N ) :   1.2461 B(  7-C ,  9-N ) :   1.1766 B(  8-N , 13-H ) :   0.9191
B(  8-N , 14-H ) :   0.8651 B(  9-N , 10-H ) :   0.9190 B(  9-N , 11-H ) :   0.9192
B( 17-C , 20-C ) :   1.0269 B( 17-C , 21-H ) :   0.9480 B( 17-C , 22-H ) :   0.9541
B( 20-C , 23-C ) :   0.9844 B( 20-C , 24-H ) :   0.9398 B( 20-C , 25-H ) :   0.9561
B( 23-C , 26-H ) :   0.9609 B( 23-C , 27-H ) :   0.9578

Dispersion correction           -0.030739849
FINAL SINGLE POINT ENERGY      -637.261294572355

DIPOLE MOMENT
-------------
                                X             Y             Z
Electronic contribution:     -3.07948       2.22468     -14.56556
Nuclear contribution   :      2.31842      -0.27661      14.74721
                        -----------------------------------------
Total Dipole Moment    :     -0.76106       1.94807       0.18164
                        -----------------------------------------
Magnitude (a.u.)       :      2.09933
Magnitude (Debye)      :      5.33607

Rotational constants in cm-1:     0.032691     0.023990     0.017099
Rotational constants in MHz :   980.050971   719.190545   512.606858

                             ****ORCA TERMINATED NORMALLY****
TOTAL RUN TIME: 0 days 0 hours 1 minutes 14 seconds 340 msec
