                         Program Version 5.0.0 -  RELEASE  -
|  1> !PBE0 D3BJ RIJCOSX def2-TZVP def2/J TightSCF xyzfile
|  2>
|  3> *xyzfile 0 1 D2.xyz
|  4>
|  5> %MaxCore 64000
|  6>
|  7> %pal nprocs 18
|  8> end
|  9>
| 10> %scf
| 11>   MaxIter 150
| 12> end
| 13>
| 14>
| 15>                          ****END OF INPUT****

CARTESIAN COORDINATES (ANGSTROEM)
---------------------------------
  C      2.234473   -2.989754   -2.397622
  N      2.756799   -2.945553   -3.765029
  C     -1.104325    0.251374   -2.860056
  C     -0.711893    0.842517   -4.218344
  H      0.154626    1.499800   -4.130909
  H     -1.538134    1.459222   -4.582671
  C     -0.397624   -0.205875   -5.288018
  C      1.987208   -2.590451   -4.818975
  C      0.743221   -3.017493   -4.913524
  N      2.499636   -1.848598   -5.803241
  H      3.309780   -1.292818   -5.558947
  H      1.801025   -1.304298   -6.289129
  H      3.716116   -2.628797   -3.829533
  H      0.395828   -3.627747   -4.185024
  H      0.039201   -2.454383   -5.371367
  F      0.617165   -0.005348   -5.998273
  O     -1.133173   -1.221380   -5.341465
  C      2.191199   -1.619503   -1.715492
  H      2.872783   -3.666368   -1.828014
  H      1.246188   -3.447444   -2.407842
  C      1.298729   -0.554314   -2.359773
  H      1.872917   -1.787955   -0.681310
  H      3.216809   -1.238432   -1.654428
  C     -0.196255   -0.863365   -2.325763
  H      1.612531   -0.371346   -3.393065
  H      1.480944    0.388638   -1.834444
  H     -0.404105   -1.761825   -2.909448
  H     -0.490439   -1.087880   -1.294131
  H     -1.143842    1.066711   -2.129680
  H     -2.114401   -0.156834   -2.930323

 Total Charge           Charge          ....    0
 Multiplicity           Mult            ....    1
 Number of Electrons    NEL             ....  102
 Basis Dimension        Dim             ....  505

ORBITAL ENERGIES
----------------

  NO   OCC          E(Eh)            E(eV)
   0   2.0000     -24.858991      -676.4475
   1   2.0000     -19.217848      -522.9442
   2   2.0000     -14.377000      -391.2181
   3   2.0000     -14.367627      -390.9630
   4   2.0000     -10.406163      -283.1661
   5   2.0000     -10.255871      -279.0764
   6   2.0000     -10.250518      -278.9308
   7   2.0000     -10.248134      -278.8659
   8   2.0000     -10.234534      -278.4958
   9   2.0000     -10.222641      -278.1722
  10   2.0000     -10.222083      -278.1570
  11   2.0000     -10.215972      -277.9907
  12   2.0000     -10.113798      -275.2104
  13   2.0000      -1.372316       -37.3426
  14   2.0000      -1.074698       -29.2440
  15   2.0000      -0.985085       -26.8055
  16   2.0000      -0.905807       -24.6483
  17   2.0000      -0.847286       -23.0558
  18   2.0000      -0.808344       -21.9962
  19   2.0000      -0.757235       -20.6054
  20   2.0000      -0.730380       -19.8747
  21   2.0000      -0.712226       -19.3806
  22   2.0000      -0.682959       -18.5842
  23   2.0000      -0.637564       -17.3490
  24   2.0000      -0.605190       -16.4680
  25   2.0000      -0.585249       -15.9254
  26   2.0000      -0.564942       -15.3728
  27   2.0000      -0.562821       -15.3151
  28   2.0000      -0.547765       -14.9054
  29   2.0000      -0.539587       -14.6829
  30   2.0000      -0.510010       -13.8781
  31   2.0000      -0.495568       -13.4851
  32   2.0000      -0.483956       -13.1691
  33   2.0000      -0.463273       -12.6063
  34   2.0000      -0.457825       -12.4581
  35   2.0000      -0.438743       -11.9388
  36   2.0000      -0.429009       -11.6739
  37   2.0000      -0.421087       -11.4583
  38   2.0000      -0.410481       -11.1698
  39   2.0000      -0.397054       -10.8044
  40   2.0000      -0.387161       -10.5352
  41   2.0000      -0.378646       -10.3035
  42   2.0000      -0.371610       -10.1120
  43   2.0000      -0.367350        -9.9961
  44   2.0000      -0.356442        -9.6993
  45   2.0000      -0.342095        -9.3089
  46   2.0000      -0.333057        -9.0629
  47   2.0000      -0.330130        -8.9833
  48   2.0000      -0.298268        -8.1163
  49   2.0000      -0.254708        -6.9309
  50   2.0000      -0.172297        -4.6884
  51   0.0000      -0.033918        -0.9229
  52   0.0000       0.027834         0.7574
  53   0.0000       0.044802         1.2191
  54   0.0000       0.054481         1.4825
  55   0.0000       0.065242         1.7753

MULLIKEN ATOMIC CHARGES
-----------------------
   0 C :   -0.144858
   1 N :   -0.266141
   2 C :   -0.174564
   3 C :   -0.217118
   4 H :    0.123813
   5 H :    0.145809
   6 C :    0.356755
   7 C :    0.149409
   8 C :   -0.482606
   9 N :   -0.402085
  10 H :    0.199418
  11 H :    0.235052
  12 H :    0.185840
  13 H :    0.077683
  14 H :    0.147525
  15 F :   -0.125781
  16 O :   -0.312254
  17 C :   -0.213778
  18 H :    0.125132
  19 H :    0.130698
  20 C :   -0.146685
  21 H :    0.094431
  22 H :    0.099804
  23 C :   -0.240540
  24 H :    0.089908
  25 H :    0.098368
  26 H :    0.141007
  27 H :    0.098016
  28 H :    0.110511
  29 H :    0.117232
Sum of atomic charges:    0.0000000

LOEWDIN ATOMIC CHARGES
----------------------
   0 C :   -0.282984
   1 N :    0.106358
   2 C :   -0.257820
   3 C :   -0.239329
   4 H :    0.144647
   5 H :    0.160274
   6 C :   -0.497893
   7 C :   -0.497395
   8 C :   -0.306086
   9 N :   -0.022620
  10 H :    0.150799
  11 H :    0.165263
  12 H :    0.172477
  13 H :    0.097543
  14 H :    0.096704
  15 F :    0.330158
  16 O :    0.099135
  17 C :   -0.274377
  18 H :    0.132831
  19 H :    0.139695
  20 C :   -0.270892
  21 H :    0.140198
  22 H :    0.134580
  23 C :   -0.270405
  24 H :    0.137047
  25 H :    0.137683
  26 H :    0.147237
  27 H :    0.138743
  28 H :    0.141117
  29 H :    0.147310

  Mayer bond orders larger than 0.100000
B(  0-C ,  1-N ) :   0.9447 B(  0-C , 17-C ) :   1.0106 B(  0-C , 18-H ) :   0.9671
B(  0-C , 19-H ) :   0.9697 B(  1-N ,  7-C ) :   1.1486 B(  1-N , 12-H ) :   0.9207
B(  2-C ,  3-C ) :   1.0005 B(  2-C , 23-C ) :   1.0121 B(  2-C , 28-H ) :   0.9541
B(  2-C , 29-H ) :   0.9498 B(  3-C ,  4-H ) :   0.9459 B(  3-C ,  5-H ) :   0.9257
B(  3-C ,  6-C ) :   1.0247 B(  6-C , 15-F ) :   1.0961 B(  6-C , 16-O ) :   2.0233
B(  7-C ,  8-C ) :   1.6468 B(  7-C ,  9-N ) :   1.1851 B(  8-C , 13-H ) :   1.0135
B(  8-C , 14-H ) :   0.9717 B(  9-N , 10-H ) :   0.9204 B(  9-N , 11-H ) :   0.9088
B( 17-C , 20-C ) :   1.0016 B( 17-C , 21-H ) :   0.9514 B( 17-C , 22-H ) :   0.9627
B( 20-C , 23-C ) :   0.9820 B( 20-C , 24-H ) :   0.9443 B( 20-C , 25-H ) :   0.9577
B( 23-C , 26-H ) :   0.9556 B( 23-C , 27-H ) :   0.9563

Dispersion correction           -0.030791336
FINAL SINGLE POINT ENERGY      -637.240300164646

DIPOLE MOMENT
-------------
                                X             Y             Z
Electronic contribution:     -1.45883       2.16884     -13.56720
Nuclear contribution   :      2.00823      -0.28769      14.57028
                        -----------------------------------------
Total Dipole Moment    :      0.54940       1.88115       1.00308
                        -----------------------------------------
Magnitude (a.u.)       :      2.20153
Magnitude (Debye)      :      5.59583

Rotational constants in cm-1:     0.033070     0.023715     0.016943
Rotational constants in MHz :   991.423248   710.957140   507.940500

                             ****ORCA TERMINATED NORMALLY****
TOTAL RUN TIME: 0 days 0 hours 0 minutes 56 seconds 120 msec
