                         Program Version 5.0.0 -  RELEASE  -
|  1> !PBE0 D3BJ RIJCOSX def2-TZVP def2/J TightSCF xyzfile
|  2>
|  3> *xyzfile 0 1 D4.xyz
|  4>
|  5> %MaxCore 64000
|  6>
|  7> %pal nprocs 18
|  8> end
|  9>
| 10> %scf
| 11>   MaxIter 150
| 12> end
| 13>
| 14>
| 15>                          ****END OF INPUT****

CARTESIAN COORDINATES (ANGSTROEM)
---------------------------------
  C      2.234473   -2.989754   -2.397622
  C      2.756799   -2.945553   -3.765029
  C     -1.104325    0.251374   -2.860056
  C     -0.711893    0.842517   -4.218344
  H      0.154626    1.499800   -4.130909
  H     -1.538134    1.459222   -4.582671
  C     -0.397624   -0.205875   -5.288018
  C      1.987208   -2.590451   -4.818975
  N      0.743221   -3.017493   -4.913524
  N      2.499636   -1.848598   -5.803241
  H      3.309780   -1.292818   -5.558947
  H      1.801025   -1.304298   -6.289129
  H      3.716116   -2.628797   -3.829533
  H      0.395828   -3.627747   -4.185024
  H      0.039201   -2.454383   -5.371367
  O      0.617165   -0.005348   -5.998273
  F     -1.133173   -1.221380   -5.341465
  C      2.191199   -1.619503   -1.715492
  H      2.872783   -3.666368   -1.828014
  H      1.246188   -3.447444   -2.407842
  C      1.298729   -0.554314   -2.359773
  H      1.872917   -1.787955   -0.681310
  H      3.216809   -1.238432   -1.654428
  C     -0.196255   -0.863365   -2.325763
  H      1.612531   -0.371346   -3.393065
  H      1.480944    0.388638   -1.834444
  H     -0.404105   -1.761825   -2.909448
  H     -0.490439   -1.087880   -1.294131
  H     -1.143842    1.066711   -2.129680
  H     -2.114401   -0.156834   -2.930323

 Total Charge           Charge          ....    0
 Multiplicity           Mult            ....    1
 Number of Electrons    NEL             ....  102
 Basis Dimension        Dim             ....  505

ORBITAL ENERGIES
----------------

  NO   OCC          E(Eh)            E(eV)
   0   2.0000     -24.876502      -676.9240
   1   2.0000     -19.241913      -523.5991
   2   2.0000     -14.373019      -391.1097
   3   2.0000     -14.356107      -390.6495
   4   2.0000     -10.425681      -283.6972
   5   2.0000     -10.264991      -279.3246
   6   2.0000     -10.254864      -279.0490
   7   2.0000     -10.244370      -278.7635
   8   2.0000     -10.225412      -278.2476
   9   2.0000     -10.214343      -277.9464
  10   2.0000     -10.203091      -277.6402
  11   2.0000     -10.193062      -277.3673
  12   2.0000     -10.133679      -275.7514
  13   2.0000      -1.390601       -37.8402
  14   2.0000      -1.096654       -29.8415
  15   2.0000      -0.982887       -26.7457
  16   2.0000      -0.888232       -24.1700
  17   2.0000      -0.858303       -23.3556
  18   2.0000      -0.813875       -22.1467
  19   2.0000      -0.775788       -21.1103
  20   2.0000      -0.728894       -19.8342
  21   2.0000      -0.710367       -19.3301
  22   2.0000      -0.676667       -18.4131
  23   2.0000      -0.633973       -17.2513
  24   2.0000      -0.615216       -16.7409
  25   2.0000      -0.599585       -16.3155
  26   2.0000      -0.590081       -16.0569
  27   2.0000      -0.578102       -15.7310
  28   2.0000      -0.544072       -14.8049
  29   2.0000      -0.533100       -14.5064
  30   2.0000      -0.504150       -13.7186
  31   2.0000      -0.498040       -13.5524
  32   2.0000      -0.489956       -13.3324
  33   2.0000      -0.466077       -12.6826
  34   2.0000      -0.455167       -12.3857
  35   2.0000      -0.451512       -12.2863
  36   2.0000      -0.443600       -12.0710
  37   2.0000      -0.417494       -11.3606
  38   2.0000      -0.411661       -11.2019
  39   2.0000      -0.405602       -11.0370
  40   2.0000      -0.397373       -10.8131
  41   2.0000      -0.375799       -10.2260
  42   2.0000      -0.372649       -10.1403
  43   2.0000      -0.358097        -9.7443
  44   2.0000      -0.350086        -9.5263
  45   2.0000      -0.337230        -9.1765
  46   2.0000      -0.328752        -8.9458
  47   2.0000      -0.318942        -8.6789
  48   2.0000      -0.316659        -8.6167
  49   2.0000      -0.269336        -7.3290
  50   2.0000      -0.158408        -4.3105
  51   0.0000      -0.049833        -1.3560
  52   0.0000       0.025786         0.7017
  53   0.0000       0.050372         1.3707
  54   0.0000       0.057466         1.5637
  55   0.0000       0.062514         1.7011

MULLIKEN ATOMIC CHARGES
-----------------------
   0 C :   -0.207107
   1 C :   -0.299941
   2 C :   -0.205313
   3 C :   -0.202175
   4 H :    0.147854
   5 H :    0.146517
   6 C :    0.352865
   7 C :    0.084257
   8 N :   -0.407417
   9 N :   -0.372766
  10 H :    0.232754
  11 H :    0.233204
  12 H :    0.065530
  13 H :    0.236322
  14 H :    0.218467
  15 O :   -0.358946
  16 F :   -0.107051
  17 C :   -0.127303
  18 H :    0.103856
  19 H :    0.069406
  20 C :   -0.175995
  21 H :    0.082171
  22 H :    0.089016
  23 C :   -0.238970
  24 H :    0.120782
  25 H :    0.095249
  26 H :    0.079263
  27 H :    0.108658
  28 H :    0.118260
  29 H :    0.118553
Sum of atomic charges:   -0.0000000

LOEWDIN ATOMIC CHARGES
----------------------
   0 C :   -0.299638
   1 C :   -0.284521
   2 C :   -0.267813
   3 C :   -0.232134
   4 H :    0.159965
   5 H :    0.158575
   6 C :   -0.497567
   7 C :   -0.487230
   8 N :    0.013013
   9 N :   -0.006337
  10 H :    0.171978
  11 H :    0.151971
  12 H :    0.117550
  13 H :    0.172763
  14 H :    0.147247
  15 O :    0.074523
  16 F :    0.339331
  17 C :   -0.262848
  18 H :    0.140046
  19 H :    0.127107
  20 C :   -0.270184
  21 H :    0.132666
  22 H :    0.137712
  23 C :   -0.274476
  24 H :    0.143113
  25 H :    0.137647
  26 H :    0.130089
  27 H :    0.141622
  28 H :    0.144579
  29 H :    0.141252

  Mayer bond orders larger than 0.100000
B(  0-C ,  1-C ) :   1.0231 B(  0-C , 17-C ) :   0.9649 B(  0-C , 18-H ) :   0.9647
B(  0-C , 19-H ) :   0.9759 B(  1-C ,  7-C ) :   1.7140 B(  1-C , 12-H ) :   1.0107
B(  2-C ,  3-C ) :   0.9740 B(  2-C , 23-C ) :   0.9882 B(  2-C , 28-H ) :   0.9487
B(  2-C , 29-H ) :   0.9660 B(  3-C ,  4-H ) :   0.9502 B(  3-C ,  5-H ) :   0.9259
B(  3-C ,  6-C ) :   1.0327 B(  6-C , 15-O ) :   1.9654 B(  6-C , 16-F ) :   1.1202
B(  7-C ,  8-N ) :   1.2088 B(  7-C ,  9-N ) :   1.2117 B(  8-N , 13-H ) :   0.9165
B(  8-N , 14-H ) :   0.8984 B(  9-N , 10-H ) :   0.9211 B(  9-N , 11-H ) :   0.8921
B( 17-C , 20-C ) :   1.0219 B( 17-C , 21-H ) :   0.9478 B( 17-C , 22-H ) :   0.9538
B( 20-C , 23-C ) :   0.9753 B( 20-C , 24-H ) :   0.9403 B( 20-C , 25-H ) :   0.9557
B( 23-C , 26-H ) :   0.9686 B( 23-C , 27-H ) :   0.9572

Dispersion correction           -0.030725295
FINAL SINGLE POINT ENERGY      -637.261086912997

DIPOLE MOMENT
-------------
                                X             Y             Z
Electronic contribution:     -5.99392       0.20944     -13.46717
Nuclear contribution   :      4.38568       1.15960      13.97148
                        -----------------------------------------
Total Dipole Moment    :     -1.60824       1.36904       0.50431
                        -----------------------------------------
Magnitude (a.u.)       :      2.17142
Magnitude (Debye)      :      5.51930

Rotational constants in cm-1:     0.032892     0.023844     0.017123
Rotational constants in MHz :   986.091711   714.821905   513.334630

                             ****ORCA TERMINATED NORMALLY****
TOTAL RUN TIME: 0 days 0 hours 1 minutes 2 seconds 780 msec
