                         Program Version 5.0.0 -  RELEASE  -
|  1> !PBE0 D3BJ RIJCOSX def2-TZVP def2/J TightSCF xyzfile
|  2>
|  3> *xyzfile 0 1 D6.xyz
|  4>
|  5> %MaxCore 64000
|  6>
|  7> %pal nprocs 18
|  8> end
|  9>
| 10> %scf
| 11>   MaxIter 150
| 12> end
| 13>
| 14>
| 15>                          ****END OF INPUT****

CARTESIAN COORDINATES (ANGSTROEM)
---------------------------------
  C      2.234473   -2.989754   -2.397622
  N      2.756799   -2.945553   -3.765029
  C     -1.104325    0.251374   -2.860056
  C     -0.711893    0.842517   -4.218344
  H      0.154626    1.499800   -4.130909
  H     -1.538134    1.459222   -4.582671
  C     -0.397624   -0.205875   -5.288018
  C      1.987208   -2.590451   -4.818975
  N      0.743221   -3.017493   -4.913524
  C      2.499636   -1.848598   -5.803241
  H      3.309780   -1.292818   -5.558947
  H      1.801025   -1.304298   -6.289129
  H      3.716116   -2.628797   -3.829533
  H      0.395828   -3.627747   -4.185024
  H      0.039201   -2.454383   -5.371367
  O      0.617165   -0.005348   -5.998273
  F     -1.133173   -1.221380   -5.341465
  C      2.191199   -1.619503   -1.715492
  H      2.872783   -3.666368   -1.828014
  H      1.246188   -3.447444   -2.407842
  C      1.298729   -0.554314   -2.359773
  H      1.872917   -1.787955   -0.681310
  H      3.216809   -1.238432   -1.654428
  C     -0.196255   -0.863365   -2.325763
  H      1.612531   -0.371346   -3.393065
  H      1.480944    0.388638   -1.834444
  H     -0.404105   -1.761825   -2.909448
  H     -0.490439   -1.087880   -1.294131
  H     -1.143842    1.066711   -2.129680
  H     -2.114401   -0.156834   -2.930323

 Total Charge           Charge          ....    0
 Multiplicity           Mult            ....    1
 Number of Electrons    NEL             ....  102
 Basis Dimension        Dim             ....  505

ORBITAL ENERGIES
----------------

  NO   OCC          E(Eh)            E(eV)
   0   2.0000     -24.862277      -676.5369
   1   2.0000     -19.221536      -523.0446
   2   2.0000     -14.375477      -391.1766
   3   2.0000     -14.370414      -391.0388
   4   2.0000     -10.406390      -283.1723
   5   2.0000     -10.257023      -279.1078
   6   2.0000     -10.255344      -279.0621
   7   2.0000     -10.252499      -278.9847
   8   2.0000     -10.242707      -278.7182
   9   2.0000     -10.229891      -278.3695
  10   2.0000     -10.224626      -278.2262
  11   2.0000     -10.222911      -278.1796
  12   2.0000     -10.108992      -275.0797
  13   2.0000      -1.376962       -37.4690
  14   2.0000      -1.075620       -29.2691
  15   2.0000      -0.986639       -26.8478
  16   2.0000      -0.905614       -24.6430
  17   2.0000      -0.855899       -23.2902
  18   2.0000      -0.813376       -22.1331
  19   2.0000      -0.765203       -20.8222
  20   2.0000      -0.731686       -19.9102
  21   2.0000      -0.704870       -19.1805
  22   2.0000      -0.683025       -18.5861
  23   2.0000      -0.636500       -17.3200
  24   2.0000      -0.622042       -16.9266
  25   2.0000      -0.599414       -16.3109
  26   2.0000      -0.582589       -15.8531
  27   2.0000      -0.576798       -15.6955
  28   2.0000      -0.545105       -14.8331
  29   2.0000      -0.526641       -14.3306
  30   2.0000      -0.506373       -13.7791
  31   2.0000      -0.495684       -13.4883
  32   2.0000      -0.485479       -13.2106
  33   2.0000      -0.475570       -12.9409
  34   2.0000      -0.460146       -12.5212
  35   2.0000      -0.451130       -12.2759
  36   2.0000      -0.428657       -11.6643
  37   2.0000      -0.423185       -11.5155
  38   2.0000      -0.401591       -10.9279
  39   2.0000      -0.396550       -10.7907
  40   2.0000      -0.393732       -10.7140
  41   2.0000      -0.383991       -10.4489
  42   2.0000      -0.378747       -10.3062
  43   2.0000      -0.371538       -10.1101
  44   2.0000      -0.349897        -9.5212
  45   2.0000      -0.344885        -9.3848
  46   2.0000      -0.343716        -9.3530
  47   2.0000      -0.336774        -9.1641
  48   2.0000      -0.299568        -8.1517
  49   2.0000      -0.256360        -6.9759
  50   2.0000      -0.165629        -4.5070
  51   0.0000      -0.033448        -0.9102
  52   0.0000       0.026512         0.7214
  53   0.0000       0.043819         1.1924
  54   0.0000       0.046162         1.2561
  55   0.0000       0.063865         1.7379

MULLIKEN ATOMIC CHARGES
-----------------------
   0 C :   -0.185266
   1 N :   -0.250231
   2 C :   -0.206761
   3 C :   -0.207293
   4 H :    0.146368
   5 H :    0.142306
   6 C :    0.341655
   7 C :    0.115565
   8 N :   -0.426773
   9 C :   -0.370179
  10 H :    0.058254
  11 H :    0.101707
  12 H :    0.215070
  13 H :    0.216653
  14 H :    0.238738
  15 O :   -0.312637
  16 F :   -0.120493
  17 C :   -0.187229
  18 H :    0.132820
  19 H :    0.103875
  20 C :   -0.188149
  21 H :    0.089676
  22 H :    0.107808
  23 C :   -0.224707
  24 H :    0.153083
  25 H :    0.101450
  26 H :    0.075678
  27 H :    0.105013
  28 H :    0.116651
  29 H :    0.117347
Sum of atomic charges:   -0.0000000

LOEWDIN ATOMIC CHARGES
----------------------
   0 C :   -0.299219
   1 N :    0.107827
   2 C :   -0.268360
   3 C :   -0.234523
   4 H :    0.159559
   5 H :    0.156855
   6 C :   -0.507360
   7 C :   -0.492255
   8 N :    0.014198
   9 C :   -0.337817
  10 H :    0.094176
  11 H :    0.100765
  12 H :    0.190385
  13 H :    0.157855
  14 H :    0.160288
  15 O :    0.104112
  16 F :    0.331064
  17 C :   -0.274092
  18 H :    0.134135
  19 H :    0.126572
  20 C :   -0.269199
  21 H :    0.138381
  22 H :    0.138971
  23 C :   -0.276489
  24 H :    0.150722
  25 H :    0.139874
  26 H :    0.128976
  27 H :    0.139684
  28 H :    0.143475
  29 H :    0.141440

  Mayer bond orders larger than 0.100000
B(  0-C ,  1-N ) :   0.9747 B(  0-C , 17-C ) :   0.9919 B(  0-C , 18-H ) :   0.9693
B(  0-C , 19-H ) :   0.9819 B(  1-N ,  7-C ) :   1.2056 B(  1-N , 12-H ) :   0.9163
B(  2-C ,  3-C ) :   0.9720 B(  2-C , 23-C ) :   0.9957 B(  2-C , 28-H ) :   0.9502
B(  2-C , 29-H ) :   0.9652 B(  3-C ,  4-H ) :   0.9515 B(  3-C ,  5-H ) :   0.9289
B(  3-C ,  6-C ) :   1.0342 B(  6-C , 15-O ) :   2.0193 B(  6-C , 16-F ) :   1.0972
B(  7-C ,  8-N ) :   1.1475 B(  7-C ,  9-C ) :   1.7254 B(  8-N , 13-H ) :   0.9235
B(  8-N , 14-H ) :   0.8948 B(  9-C , 10-H ) :   0.9878 B(  9-C , 11-H ) :   0.9905
B( 17-C , 20-C ) :   0.9929 B( 17-C , 21-H ) :   0.9500 B( 17-C , 22-H ) :   0.9583
B( 20-C , 23-C ) :   0.9753 B( 20-C , 24-H ) :   0.9420 B( 20-C , 25-H ) :   0.9538
B( 23-C , 26-H ) :   0.9664 B( 23-C , 27-H ) :   0.9542

Dispersion correction           -0.030677249
FINAL SINGLE POINT ENERGY      -637.235691978507

DIPOLE MOMENT
-------------
                                X             Y             Z
Electronic contribution:     -5.68149      -0.73223     -11.72643
Nuclear contribution   :      4.34606       1.32859      13.65749
                        -----------------------------------------
Total Dipole Moment    :     -1.33543       0.59636       1.93105
                        -----------------------------------------
Magnitude (a.u.)       :      2.42239
Magnitude (Debye)      :      6.15723

Rotational constants in cm-1:     0.033551     0.023540     0.017085
Rotational constants in MHz :  1005.818710   705.725032   512.192443

                             ****ORCA TERMINATED NORMALLY****
TOTAL RUN TIME: 0 days 0 hours 0 minutes 50 seconds 253 msec
