                         Program Version 5.0.0 -  RELEASE  -
|  1> !CAM-B3LYP RIJCOSX def2-SVPD def2/J TightSCF
|  2> *xyz -1 1
|  3> C         -0.25875        1.00432       -5.40983
|  4> C          0.39596       -0.37070       -5.33994
|  5> O         -0.32633       -1.39040       -5.49128
|  6> O          1.61941       -0.40073       -5.03683
|  7> H         -1.28979        0.89539       -5.67439
|  8> H          0.23798        1.59877       -6.14792
|  9> H         -0.18395        1.48386       -4.45623
| 10> *
| 11> %MaxCore 64000
| 12>
| 13> %pal nprocs 4
| 14> end
| 15>
| 16> %scf
| 17>   MaxIter 150
| 18> end
| 19>
| 20>
| 21>                          ****END OF INPUT****

CARTESIAN COORDINATES (ANGSTROEM)
---------------------------------
  C     -0.258750    1.004320   -5.409830
  C      0.395960   -0.370700   -5.339940
  O     -0.326330   -1.390400   -5.491280
  O      1.619410   -0.400730   -5.036830
  H     -1.289790    0.895390   -5.674390
  H      0.237980    1.598770   -6.147920
  H     -0.183950    1.483860   -4.456230

 Total Charge           Charge          ....   -1
 Multiplicity           Mult            ....    1
 Number of Electrons    NEL             ....   32
 Basis Dimension        Dim             ....  110

ORBITAL ENERGIES
----------------

  NO   OCC          E(Eh)            E(eV)
   0   2.0000     -18.950400      -515.6666
   1   2.0000     -18.947616      -515.5908
   2   2.0000     -10.148329      -276.1501
   3   2.0000     -10.074016      -274.1279
   4   2.0000      -0.890319       -24.2268
   5   2.0000      -0.793910       -21.6034
   6   2.0000      -0.622217       -16.9314
   7   2.0000      -0.375959       -10.2304
   8   2.0000      -0.332650        -9.0519
   9   2.0000      -0.317404        -8.6370
  10   2.0000      -0.296759        -8.0752
  11   2.0000      -0.253824        -6.9069
  12   2.0000      -0.234375        -6.3777
  13   2.0000      -0.111233        -3.0268
  14   2.0000      -0.109797        -2.9877
  15   2.0000      -0.092945        -2.5292
  16   0.0000       0.198995         5.4149
  17   0.0000       0.238697         6.4953
  18   0.0000       0.256582         6.9819
  19   0.0000       0.269846         7.3429
  20   0.0000       0.293893         7.9972

MULLIKEN ATOMIC CHARGES
-----------------------
   0 C :    0.671502
   1 C :    0.007368
   2 O :   -0.630220
   3 O :   -0.660286
   4 H :   -0.144128
   5 H :   -0.120803
   6 H :   -0.123433
Sum of atomic charges:   -1.0000000

LOEWDIN ATOMIC CHARGES
----------------------
   0 C :    0.143624
   1 C :   -0.340299
   2 O :   -0.341595
   3 O :   -0.348184
   4 H :   -0.042997
   5 H :   -0.036720
   6 H :   -0.033829

  Mayer bond orders larger than 0.100000
B(  0-C ,  1-C ) :   1.1786 B(  0-C ,  4-H ) :   0.8283 B(  0-C ,  5-H ) :   0.7758
B(  0-C ,  6-H ) :   0.7913 B(  1-C ,  2-O ) :   1.5225 B(  1-C ,  3-O ) :   1.5239
B(  1-C ,  4-H ) :   0.2719 B(  1-C ,  5-H ) :   0.1928 B(  1-C ,  6-H ) :   0.1779

FINAL SINGLE POINT ENERGY      -228.282015309336

DIPOLE MOMENT
-------------
                                X             Y             Z
Electronic contribution:      1.50102      -3.18436       0.18029
Nuclear contribution   :     -2.15615       4.52621      -0.30445
                        -----------------------------------------
Total Dipole Moment    :     -0.65513       1.34185      -0.12416
                        -----------------------------------------
Magnitude (a.u.)       :      1.49839
Magnitude (Debye)      :      3.80860

Rotational constants in cm-1:     0.393591     0.332639     0.186460
Rotational constants in MHz : 11799.557437  9972.275109  5589.926304

                             ****ORCA TERMINATED NORMALLY****
TOTAL RUN TIME: 0 days 0 hours 0 minutes 14 seconds 668 msec
