                         Program Version 5.0.0 -  RELEASE  -
|  1> !CAM-B3LYP RIJCOSX def2-SVPD def2/J TightSCF
|  2> *xyz 1 1
|  3> C          0.81607       -2.10149       -2.18655
|  4> N          1.10055       -2.46749       -3.59927
|  5> H          1.70061       -1.75723       -4.07838
|  6> H          0.29386       -2.35977       -4.25632
|  7> H          1.50132       -3.42848       -3.69491
|  8> H          0.40947       -1.11246       -2.14929
|  9> H          1.72290       -2.13590       -1.61965
| 10> H          0.11112       -2.79271       -1.77405
| 11> *
| 12> %MaxCore 64000
| 13>
| 14> %pal nprocs 4
| 15> end
| 16>
| 17> %scf
| 18>   MaxIter 150
| 19> end
| 20>
| 21>
| 22>                          ****END OF INPUT****

CARTESIAN COORDINATES (ANGSTROEM)
---------------------------------
  C      0.816070   -2.101490   -2.186550
  N      1.100550   -2.467490   -3.599270
  H      1.700610   -1.757230   -4.078380
  H      0.293860   -2.359770   -4.256320
  H      1.501320   -3.428480   -3.694910
  H      0.409470   -1.112460   -2.149290
  H      1.722900   -2.135900   -1.619650
  H      0.111120   -2.792710   -1.774050

 Total Charge           Charge          ....    1
 Multiplicity           Mult            ....    1
 Number of Electrons    NEL             ....   18
 Basis Dimension        Dim             ....   88

ORBITAL ENERGIES
----------------

  NO   OCC          E(Eh)            E(eV)
   0   2.0000     -14.757184      -401.5634
   1   2.0000     -10.518148      -286.2133
   2   2.0000      -1.294551       -35.2265
   3   2.0000      -1.015808       -27.6415
   4   2.0000      -0.888129       -24.1672
   5   2.0000      -0.853529       -23.2257
   6   2.0000      -0.787693       -21.4342
   7   2.0000      -0.696218       -18.9450
   8   2.0000      -0.690509       -18.7897
   9   0.0000      -0.171954        -4.6791
  10   0.0000      -0.102822        -2.7979
  11   0.0000      -0.100379        -2.7314
  12   0.0000      -0.098094        -2.6693
  13   0.0000      -0.048898        -1.3306

MULLIKEN ATOMIC CHARGES
-----------------------
   0 C :    1.141007
   1 N :   -0.848607
   2 H :    0.358576
   3 H :    0.343394
   4 H :    0.376597
   5 H :   -0.128980
   6 H :   -0.116994
   7 H :   -0.124993
Sum of atomic charges:    1.0000000

LOEWDIN ATOMIC CHARGES
----------------------
   0 C :    0.279112
   1 N :    0.288642
   2 H :    0.117445
   3 H :    0.118151
   4 H :    0.123821
   5 H :    0.024233
   6 H :    0.024784
   7 H :    0.023812

  Mayer bond orders larger than 0.100000
B(  0-C ,  1-N ) :   0.7514 B(  0-C ,  5-H ) :   0.8608 B(  0-C ,  6-H ) :   0.8570
B(  0-C ,  7-H ) :   0.8668 B(  1-N ,  2-H ) :   0.7909 B(  1-N ,  3-H ) :   0.8106
B(  1-N ,  4-H ) :   0.7485 B(  1-N ,  5-H ) :   0.1080 B(  1-N ,  6-H ) :   0.1081
B(  1-N ,  7-H ) :   0.1010

FINAL SINGLE POINT ENERGY       -96.088497770838

DIPOLE MOMENT
-------------
                                X             Y             Z
Electronic contribution:      0.21354      -0.31167      -0.97436
Nuclear contribution   :     -0.05716       0.15480       0.08012
                        -----------------------------------------
Total Dipole Moment    :      0.15638      -0.15687      -0.89424
                        -----------------------------------------
Magnitude (a.u.)       :      0.92126
Magnitude (Debye)      :      2.34167

Rotational constants in cm-1:     2.875975     0.681325     0.670600
Rotational constants in MHz : 86219.567947 20425.600745 20104.086440

                             ****ORCA TERMINATED NORMALLY****
TOTAL RUN TIME: 0 days 0 hours 0 minutes 15 seconds 264 msec
