                         Program Version 5.0.0 -  RELEASE  -
|  1> !CAM-B3LYP RIJCOSX def2-SVPD def2/J TightSCF xyzfile
|  2>
|  3> *xyzfile 0 1 B.xyz
|  4>
|  5> %MaxCore 64000
|  6>
|  7> %pal nprocs 4
|  8> end
|  9>
| 10> %scf
| 11>   MaxIter 150
| 12> end
| 13>
| 14>
| 15>                          ****END OF INPUT****

CARTESIAN COORDINATES (ANGSTROEM)
---------------------------------
  C      0.816067   -2.101491   -2.186546
  H      1.696232   -2.368691   -1.600457
  N      1.100552   -2.467492   -3.599269
  C      0.516243   -0.613634   -2.039373
  H     -0.020066   -2.712849   -1.840844
  C     -0.868621   -0.193925   -2.546303
  C     -0.984801    1.284739   -2.928686
  H     -0.764939    1.904116   -2.051568
  H     -2.032613    1.478953   -3.178952
  C     -0.106085    1.769914   -4.089836
  H     -0.347744    2.822196   -4.262942
  H      0.949683    1.745875   -3.808781
  C     -0.258747    1.004323   -5.409829
  C      0.395958   -0.370696   -5.339939
  H      0.239150    1.569393   -6.201253
  H     -1.309360    0.888694   -5.682455
  H      1.700606   -1.757225   -4.078378
  H      0.293855   -2.359766   -4.256324
  H      1.501324   -3.428479   -3.694915
  O     -0.326329   -1.390398   -5.491279
  O      1.619412   -0.400726   -5.036827
  H     -1.607271   -0.412651   -1.768955
  H     -1.157234   -0.796164   -3.409254
  H      1.299044   -0.056805   -2.558982
  H      0.612393   -0.365579   -0.979171

 Total Charge           Charge          ....    0
 Multiplicity           Mult            ....    1
 Number of Electrons    NEL             ....   80
 Basis Dimension        Dim             ....  326

ORBITAL ENERGIES
----------------

  NO   OCC          E(Eh)            E(eV)
   0   2.0000     -19.152571      -521.1679
   1   2.0000     -19.151393      -521.1359
   2   2.0000     -14.492178      -394.3522
   3   2.0000     -10.340433      -281.3775
   4   2.0000     -10.332966      -281.1743
   5   2.0000     -10.273242      -279.5491
   6   2.0000     -10.254997      -279.0527
   7   2.0000     -10.250706      -278.9359
   8   2.0000     -10.244096      -278.7560
   9   2.0000     -10.235286      -278.5163
  10   2.0000      -1.106308       -30.1042
  11   2.0000      -1.053882       -28.6776
  12   2.0000      -1.002724       -27.2855
  13   2.0000      -0.893741       -24.3199
  14   2.0000      -0.849807       -23.1244
  15   2.0000      -0.802157       -21.8278
  16   2.0000      -0.736615       -20.0443
  17   2.0000      -0.703059       -19.1312
  18   2.0000      -0.651131       -17.7182
  19   2.0000      -0.639148       -17.3921
  20   2.0000      -0.614768       -16.7287
  21   2.0000      -0.588833       -16.0230
  22   2.0000      -0.552596       -15.0369
  23   2.0000      -0.541616       -14.7381
  24   2.0000      -0.527829       -14.3629
  25   2.0000      -0.516612       -14.0577
  26   2.0000      -0.496434       -13.5086
  27   2.0000      -0.489395       -13.3171
  28   2.0000      -0.470197       -12.7947
  29   2.0000      -0.459972       -12.5165
  30   2.0000      -0.456332       -12.4174
  31   2.0000      -0.440981       -11.9997
  32   2.0000      -0.419594       -11.4177
  33   2.0000      -0.415874       -11.3165
  34   2.0000      -0.391171       -10.6443
  35   2.0000      -0.376541       -10.2462
  36   2.0000      -0.373077       -10.1520
  37   2.0000      -0.317591        -8.6421
  38   2.0000      -0.306215        -8.3325
  39   2.0000      -0.299041        -8.1373
  40   0.0000       0.023036         0.6269
  41   0.0000       0.055001         1.4966
  42   0.0000       0.064639         1.7589
  43   0.0000       0.068267         1.8576
  44   0.0000       0.079655         2.1675

MULLIKEN ATOMIC CHARGES
-----------------------
   0 C :    1.184254
   1 H :   -0.243382
   2 N :   -0.425020
   3 C :    0.246604
   4 H :   -0.251342
   5 C :    0.359338
   6 C :    0.489559
   7 H :   -0.147176
   8 H :   -0.005727
   9 C :    0.187769
  10 H :   -0.299532
  11 H :    0.016170
  12 C :    0.475277
  13 C :    0.193009
  14 H :   -0.063771
  15 H :   -0.123573
  16 H :    0.259284
  17 H :    0.204851
  18 H :    0.228532
  19 O :   -0.653187
  20 O :   -0.692001
  21 H :   -0.219513
  22 H :   -0.326050
  23 H :   -0.072313
  24 H :   -0.322061
Sum of atomic charges:    0.0000000

LOEWDIN ATOMIC CHARGES
----------------------
   0 C :    0.086274
   1 H :    0.030795
   2 N :    0.310660
   3 C :   -0.000060
   4 H :    0.035835
   5 C :   -0.012386
   6 C :   -0.020959
   7 H :    0.021140
   8 H :    0.023649
   9 C :   -0.022107
  10 H :    0.018143
  11 H :    0.010919
  12 C :    0.047386
  13 C :   -0.206539
  14 H :    0.032048
  15 H :    0.025910
  16 H :   -0.023772
  17 H :   -0.021688
  18 H :    0.103198
  19 O :   -0.252091
  20 O :   -0.243706
  21 H :    0.023270
  22 H :   -0.003935
  23 H :    0.010096
  24 H :    0.027923

  Mayer bond orders larger than 0.100000
B(  0-C ,  1-H ) :   0.6813 B(  0-C ,  2-N ) :   0.7158 B(  0-C ,  3-C ) :   1.1297
B(  0-C ,  4-H ) :   0.7396 B(  1-H ,  2-N ) :   0.1073 B(  1-H ,  3-C ) :   0.2417
B(  1-H ,  4-H ) :  -0.1414 B(  2-N ,  4-H ) :   0.2264 B(  2-N , 13-C ) :   0.1148
B(  2-N , 16-H ) :   0.8238 B(  2-N , 17-H ) :   0.9209 B(  2-N , 18-H ) :   0.7996
B(  3-C ,  5-C ) :   1.1336 B(  3-C , 21-H ) :   0.2398 B(  3-C , 22-H ) :   0.1352
B(  3-C , 23-H ) :   0.8604 B(  3-C , 24-H ) :   0.8193 B(  5-C ,  6-C ) :   1.2140
B(  5-C ,  7-H ) :   0.1712 B(  5-C ,  8-H ) :   0.2426 B(  5-C ,  9-C ) :   0.1032
B(  5-C , 21-H ) :   0.7191 B(  5-C , 22-H ) :   0.7656 B(  5-C , 23-H ) :   0.1160
B(  5-C , 24-H ) :   0.1818 B(  6-C ,  7-H ) :   0.7760 B(  6-C ,  8-H ) :   0.6212
B(  6-C ,  9-C ) :   1.2084 B(  6-C , 10-H ) :   0.1564 B(  6-C , 11-H ) :   0.1088
B(  6-C , 21-H ) :   0.1204 B(  7-H ,  9-C ) :   0.1707 B(  8-H ,  9-C ) :   0.1673
B(  9-C , 10-H ) :   0.8305 B(  9-C , 11-H ) :   0.8011 B(  9-C , 12-C ) :   1.2162
B(  9-C , 14-H ) :   0.1860 B(  9-C , 15-H ) :   0.1318 B( 10-H , 11-H ) :  -0.1357
B( 10-H , 12-C ) :   0.1273 B( 11-H , 12-C ) :   0.1100 B( 12-C , 13-C ) :   1.1423
B( 12-C , 14-H ) :   0.6707 B( 12-C , 15-H ) :   0.7995 B( 13-C , 14-H ) :   0.1940
B( 13-C , 15-H ) :   0.2891 B( 13-C , 19-O ) :   1.4752 B( 13-C , 20-O ) :   1.3917
B( 16-H , 20-O ) :   0.2200 B( 17-H , 19-O ) :   0.2258 B( 19-O , 20-O ) :   0.1089

FINAL SINGLE POINT ENERGY      -480.441557450252

DIPOLE MOMENT
-------------
                                X             Y             Z
Electronic contribution:      2.28623      -3.08946      -6.22707
Nuclear contribution   :     -2.02598       1.95876       8.24116
                        -----------------------------------------
Total Dipole Moment    :      0.26025      -1.13070       2.01409
                        -----------------------------------------
Magnitude (a.u.)       :      2.32439
Magnitude (Debye)      :      5.90812

Rotational constants in cm-1:     0.052900     0.041948     0.028766
Rotational constants in MHz :  1585.892512  1257.572595   862.390225

                             ****ORCA TERMINATED NORMALLY****
TOTAL RUN TIME: 0 days 0 hours 2 minutes 20 seconds 656 msec
