                         Program Version 5.0.0 -  RELEASE  -
|  1> !CAM-B3LYP RIJCOSX def2-SVPD def2/J TightSCF
|  2> *xyz 0 1
|  3> C         -0.25875        1.00432       -5.40983
|  4> C          0.39596       -0.37070       -5.33994
|  5> F         -0.32633       -1.39040       -5.49128
|  6> O          1.61941       -0.40073       -5.03683
|  7> H         -1.28979        0.89539       -5.67439
|  8> H          0.23798        1.59877       -6.14792
|  9> H         -0.18395        1.48386       -4.45623
| 10> *
| 11> %MaxCore 64000
| 12>
| 13> %pal nprocs 4
| 14> end
| 15>
| 16> %scf
| 17>   MaxIter 150
| 18> end
| 19>
| 20>
| 21>                          ****END OF INPUT****

CARTESIAN COORDINATES (ANGSTROEM)
---------------------------------
  C     -0.258750    1.004320   -5.409830
  C      0.395960   -0.370700   -5.339940
  F     -0.326330   -1.390400   -5.491280
  O      1.619410   -0.400730   -5.036830
  H     -1.289790    0.895390   -5.674390
  H      0.237980    1.598770   -6.147920
  H     -0.183950    1.483860   -4.456230

 Total Charge           Charge          ....    0
 Multiplicity           Mult            ....    1
 Number of Electrons    NEL             ....   32
 Basis Dimension        Dim             ....  110

ORBITAL ENERGIES
----------------

  NO   OCC          E(Eh)            E(eV)
   0   2.0000     -24.850714      -676.2223
   1   2.0000     -19.227956      -523.2193
   2   2.0000     -10.453913      -284.4654
   3   2.0000     -10.290878      -280.0290
   4   2.0000      -1.393284       -37.9132
   5   2.0000      -1.109360       -30.1872
   6   2.0000      -0.853867       -23.2349
   7   2.0000      -0.739379       -20.1195
   8   2.0000      -0.630825       -17.1656
   9   2.0000      -0.626337       -17.0435
  10   2.0000      -0.580199       -15.7880
  11   2.0000      -0.520202       -14.1554
  12   2.0000      -0.506776       -13.7901
  13   2.0000      -0.478979       -13.0337
  14   2.0000      -0.424336       -11.5468
  15   2.0000      -0.368797       -10.0355
  16   0.0000       0.010606         0.2886
  17   0.0000       0.039681         1.0798
  18   0.0000       0.083178         2.2634
  19   0.0000       0.115581         3.1451
  20   0.0000       0.117019         3.1843

MULLIKEN ATOMIC CHARGES
-----------------------
   0 C :    0.600672
   1 C :    0.352533
   2 F :   -0.328969
   3 O :   -0.443705
   4 H :   -0.098295
   5 H :   -0.043956
   6 H :   -0.038281
Sum of atomic charges:    0.0000000

LOEWDIN ATOMIC CHARGES
----------------------
   0 C :    0.215880
   1 C :   -0.036173
   2 F :   -0.036705
   3 O :   -0.141749
   4 H :   -0.012525
   5 H :    0.004852
   6 H :    0.006421

  Mayer bond orders larger than 0.100000
B(  0-C ,  1-C ) :   1.2340 B(  0-C ,  4-H ) :   0.8498 B(  0-C ,  5-H ) :   0.7717
B(  0-C ,  6-H ) :   0.7875 B(  1-C ,  2-F ) :   0.8352 B(  1-C ,  3-O ) :   1.8505
B(  1-C ,  4-H ) :   0.1724 B(  1-C ,  5-H ) :   0.1722 B(  1-C ,  6-H ) :   0.1538

FINAL SINGLE POINT ENERGY      -252.815150816890

DIPOLE MOMENT
-------------
                                X             Y             Z
Electronic contribution:      0.42092      -5.02044      -0.10154
Nuclear contribution   :     -1.44986       5.66477      -0.12483
                        -----------------------------------------
Total Dipole Moment    :     -1.02894       0.64433      -0.22637
                        -----------------------------------------
Magnitude (a.u.)       :      1.23495
Magnitude (Debye)      :      3.13900

Rotational constants in cm-1:     0.371735     0.317798     0.176902
Rotational constants in MHz : 11144.324945  9527.341239  5303.391856

                             ****ORCA TERMINATED NORMALLY****
TOTAL RUN TIME: 0 days 0 hours 0 minutes 11 seconds 724 msec
