                         Program Version 5.0.0 -  RELEASE  -
|  1> !CAM-B3LYP RIJCOSX def2-SVPD def2/J TightSCF
|  2> *xyz 0 1
|  3> C          0.81607       -2.10149       -2.18655
|  4> C          1.10055       -2.46749       -3.59927
|  5> H          1.70061       -1.75723       -4.07838
|  6> H          0.29386       -2.35977       -4.25632
|  7> H          1.50132       -3.42848       -3.69491
|  8> H          0.40947       -1.11246       -2.14929
|  9> H          1.72290       -2.13590       -1.61965
| 10> H          0.11112       -2.79271       -1.77405
| 11> *
| 12> %MaxCore 64000
| 13>
| 14> %pal nprocs 4
| 15> end
| 16>
| 17> %scf
| 18>   MaxIter 150
| 19> end
| 20>
| 21>
| 22>                          ****END OF INPUT****

CARTESIAN COORDINATES (ANGSTROEM)
---------------------------------
  C      0.816070   -2.101490   -2.186550
  C      1.100550   -2.467490   -3.599270
  H      1.700610   -1.757230   -4.078380
  H      0.293860   -2.359770   -4.256320
  H      1.501320   -3.428480   -3.694910
  H      0.409470   -1.112460   -2.149290
  H      1.722900   -2.135900   -1.619650
  H      0.111120   -2.792710   -1.774050

 Total Charge           Charge          ....    0
 Multiplicity           Mult            ....    1
 Number of Electrons    NEL             ....   18
 Basis Dimension        Dim             ....   88

ORBITAL ENERGIES
----------------

  NO   OCC          E(Eh)            E(eV)
   0   2.0000     -10.238057      -278.5917
   1   2.0000     -10.228989      -278.3449
   2   2.0000      -0.843266       -22.9464
   3   2.0000      -0.696685       -18.9578
   4   2.0000      -0.524502       -14.2724
   5   2.0000      -0.505690       -13.7605
   6   2.0000      -0.442792       -12.0490
   7   2.0000      -0.417738       -11.3672
   8   2.0000      -0.396558       -10.7909
   9   0.0000       0.056757         1.5444
  10   0.0000       0.086338         2.3494
  11   0.0000       0.133211         3.6248
  12   0.0000       0.138486         3.7684
  13   0.0000       0.156056         4.2465

MULLIKEN ATOMIC CHARGES
-----------------------
   0 C :    0.505596
   1 C :    0.584810
   2 H :   -0.235098
   3 H :   -0.249247
   4 H :   -0.224669
   5 H :   -0.118678
   6 H :   -0.128727
   7 H :   -0.133987
Sum of atomic charges:    0.0000000

LOEWDIN ATOMIC CHARGES
----------------------
   0 C :    0.078005
   1 C :    0.066443
   2 H :   -0.032949
   3 H :   -0.033236
   4 H :   -0.025180
   5 H :   -0.017064
   6 H :   -0.017337
   7 H :   -0.018682

  Mayer bond orders larger than 0.100000
B(  0-C ,  1-C ) :   1.4047 B(  0-C ,  2-H ) :   0.1487 B(  0-C ,  3-H ) :   0.1350
B(  0-C ,  4-H ) :   0.1594 B(  0-C ,  5-H ) :   0.8319 B(  0-C ,  6-H ) :   0.8080
B(  0-C ,  7-H ) :   0.8242 B(  1-C ,  2-H ) :   0.7356 B(  1-C ,  3-H ) :   0.7388
B(  1-C ,  4-H ) :   0.7931 B(  1-C ,  5-H ) :   0.1735 B(  1-C ,  6-H ) :   0.1733
B(  1-C ,  7-H ) :   0.1661 B(  2-H ,  3-H ) :   0.2651

FINAL SINGLE POINT ENERGY       -79.704668244291

DIPOLE MOMENT
-------------
                                X             Y             Z
Electronic contribution:      0.00470      -0.07042       0.12588
Nuclear contribution   :     -0.00793       0.09023      -0.16124
                        -----------------------------------------
Total Dipole Moment    :     -0.00323       0.01981      -0.03537
                        -----------------------------------------
Magnitude (a.u.)       :      0.04067
Magnitude (Debye)      :      0.10337

Rotational constants in cm-1:     2.876169     0.710562     0.698917
Rotational constants in MHz : 86225.370734 21302.115394 20952.991121

                             ****ORCA TERMINATED NORMALLY****
TOTAL RUN TIME: 0 days 0 hours 0 minutes 6 seconds 726 msec
