                         Program Version 5.0.0 -  RELEASE  -
|  1> !CAM-B3LYP RIJCOSX def2-SVPD def2/J TightSCF
|  2> *xyz 0 1
|  3> C         -0.25875        1.00432       -5.40983
|  4> C          0.39596       -0.37070       -5.33994
|  5> O         -0.32633       -1.39040       -5.49128
|  6> F          1.61941       -0.40073       -5.03683
|  7> H         -1.28979        0.89539       -5.67439
|  8> H          0.23798        1.59877       -6.14792
|  9> H         -0.18395        1.48386       -4.45623
| 10> *
| 11> %MaxCore 64000
| 12>
| 13> %pal nprocs 4
| 14> end
| 15>
| 16> %scf
| 17>   MaxIter 150
| 18> end
| 19>
| 20>
| 21>                          ****END OF INPUT****

CARTESIAN COORDINATES (ANGSTROEM)
---------------------------------
  C     -0.258750    1.004320   -5.409830
  C      0.395960   -0.370700   -5.339940
  O     -0.326330   -1.390400   -5.491280
  F      1.619410   -0.400730   -5.036830
  H     -1.289790    0.895390   -5.674390
  H      0.237980    1.598770   -6.147920
  H     -0.183950    1.483860   -4.456230

 Total Charge           Charge          ....    0
 Multiplicity           Mult            ....    1
 Number of Electrons    NEL             ....   32
 Basis Dimension        Dim             ....  110

ORBITAL ENERGIES
----------------

  NO   OCC          E(Eh)            E(eV)
   0   2.0000     -24.848628      -676.1655
   1   2.0000     -19.229867      -523.2713
   2   2.0000     -10.453748      -284.4609
   3   2.0000     -10.290722      -280.0248
   4   2.0000      -1.390975       -37.8504
   5   2.0000      -1.110991       -30.2316
   6   2.0000      -0.854923       -23.2636
   7   2.0000      -0.737422       -20.0663
   8   2.0000      -0.630213       -17.1490
   9   2.0000      -0.624869       -17.0035
  10   2.0000      -0.579887       -15.7795
  11   2.0000      -0.518912       -14.1203
  12   2.0000      -0.507102       -13.7990
  13   2.0000      -0.479171       -13.0389
  14   2.0000      -0.428655       -11.6643
  15   2.0000      -0.369823       -10.0634
  16   0.0000       0.014150         0.3850
  17   0.0000       0.040110         1.0915
  18   0.0000       0.083124         2.2619
  19   0.0000       0.112443         3.0597
  20   0.0000       0.120402         3.2763

MULLIKEN ATOMIC CHARGES
-----------------------
   0 C :    0.614013
   1 C :    0.365334
   2 O :   -0.418878
   3 F :   -0.354049
   4 H :   -0.116702
   5 H :   -0.046849
   6 H :   -0.042870
Sum of atomic charges:    0.0000000

LOEWDIN ATOMIC CHARGES
----------------------
   0 C :    0.215944
   1 C :   -0.038849
   2 O :   -0.136997
   3 F :   -0.039833
   4 H :    0.000336
   5 H :   -0.001962
   6 H :    0.001362

  Mayer bond orders larger than 0.100000
B(  0-C ,  1-C ) :   1.2155 B(  0-C ,  4-H ) :   0.8503 B(  0-C ,  5-H ) :   0.7766
B(  0-C ,  6-H ) :   0.7868 B(  1-C ,  2-O ) :   1.8790 B(  1-C ,  3-F ) :   0.7921
B(  1-C ,  4-H ) :   0.2344 B(  1-C ,  5-H ) :   0.1501 B(  1-C ,  6-H ) :   0.1409

FINAL SINGLE POINT ENERGY      -252.817705557582

DIPOLE MOMENT
-------------
                                X             Y             Z
Electronic contribution:      3.59488      -3.40560       0.64056
Nuclear contribution   :     -3.46039       4.64214      -0.59441
                        -----------------------------------------
Total Dipole Moment    :      0.13449       1.23654       0.04615
                        -----------------------------------------
Magnitude (a.u.)       :      1.24469
Magnitude (Debye)      :      3.16374

Rotational constants in cm-1:     0.366844     0.321935     0.177045
Rotational constants in MHz : 10997.709774  9651.373819  5307.687677

                             ****ORCA TERMINATED NORMALLY****
TOTAL RUN TIME: 0 days 0 hours 0 minutes 11 seconds 460 msec
