                         Program Version 5.0.0 -  RELEASE  -
|  1> !CAM-B3LYP RIJCOSX def2-SVPD def2/J TightSCF xyzfile
|  2>
|  3> *xyzfile 0 1 D1.xyz
|  4>
|  5> %MaxCore 64000
|  6>
|  7> %pal nprocs 4
|  8> end
|  9>
| 10> %scf
| 11>   MaxIter 150
| 12> end
| 13>
| 14>
| 15>                          ****END OF INPUT****

CARTESIAN COORDINATES (ANGSTROEM)
---------------------------------
  C      0.816067   -2.101491   -2.186546
  H      1.696232   -2.368691   -1.600457
  C      1.100552   -2.467492   -3.599269
  C      0.516243   -0.613634   -2.039373
  H     -0.020066   -2.712849   -1.840844
  C     -0.868621   -0.193925   -2.546303
  C     -0.984801    1.284739   -2.928686
  H     -0.764939    1.904116   -2.051568
  H     -2.032613    1.478953   -3.178952
  C     -0.106085    1.769914   -4.089836
  H     -0.347744    2.822196   -4.262942
  H      0.949683    1.745875   -3.808781
  C     -0.258747    1.004323   -5.409829
  C      0.395958   -0.370696   -5.339939
  H      0.239150    1.569393   -6.201253
  H     -1.309360    0.888694   -5.682455
  H      1.700606   -1.757225   -4.078378
  H      0.293855   -2.359766   -4.256324
  H      1.501324   -3.428479   -3.694915
  F     -0.326329   -1.390398   -5.491279
  O      1.619412   -0.400726   -5.036827
  H     -1.607271   -0.412651   -1.768955
  H     -1.157234   -0.796164   -3.409254
  H      1.299044   -0.056805   -2.558982
  H      0.612393   -0.365579   -0.979171

 Total Charge           Charge          ....    0
 Multiplicity           Mult            ....    1
 Number of Electrons    NEL             ....   80
 Basis Dimension        Dim             ....  326

ORBITAL ENERGIES
----------------

  NO   OCC          E(Eh)            E(eV)
   0   2.0000     -24.855884      -676.3630
   1   2.0000     -19.231658      -523.3200
   2   2.0000     -10.455179      -284.4999
   3   2.0000     -10.294998      -280.1411
   4   2.0000     -10.273732      -279.5625
   5   2.0000     -10.261725      -279.2357
   6   2.0000     -10.254051      -279.0269
   7   2.0000     -10.240050      -278.6459
   8   2.0000     -10.230794      -278.3941
   9   2.0000     -10.182776      -277.0874
  10   2.0000      -1.403127       -38.1810
  11   2.0000      -1.122007       -30.5314
  12   2.0000      -0.905558       -24.6415
  13   2.0000      -0.872122       -23.7317
  14   2.0000      -0.822511       -22.3817
  15   2.0000      -0.784164       -21.3382
  16   2.0000      -0.743225       -20.2242
  17   2.0000      -0.714193       -19.4342
  18   2.0000      -0.676447       -18.4071
  19   2.0000      -0.639884       -17.4121
  20   2.0000      -0.628905       -17.1134
  21   2.0000      -0.618488       -16.8299
  22   2.0000      -0.600252       -16.3337
  23   2.0000      -0.552158       -15.0250
  24   2.0000      -0.531145       -14.4532
  25   2.0000      -0.515222       -14.0199
  26   2.0000      -0.509777       -13.8717
  27   2.0000      -0.497503       -13.5377
  28   2.0000      -0.482470       -13.1287
  29   2.0000      -0.470937       -12.8149
  30   2.0000      -0.452239       -12.3061
  31   2.0000      -0.435945       -11.8627
  32   2.0000      -0.431984       -11.7549
  33   2.0000      -0.417600       -11.3635
  34   2.0000      -0.403890       -10.9904
  35   2.0000      -0.392786       -10.6883
  36   2.0000      -0.383731       -10.4418
  37   2.0000      -0.371747       -10.1158
  38   2.0000      -0.362728        -9.8703
  39   2.0000      -0.331103        -9.0098
  40   0.0000       0.001164         0.0317
  41   0.0000       0.043657         1.1880
  42   0.0000       0.064736         1.7616
  43   0.0000       0.069271         1.8850
  44   0.0000       0.071405         1.9430

MULLIKEN ATOMIC CHARGES
-----------------------
   0 C :    0.321555
   1 H :   -0.180357
   2 C :    1.614015
   3 C :    0.353939
   4 H :   -0.249805
   5 C :    0.339777
   6 C :    0.490904
   7 H :   -0.140591
   8 H :   -0.023613
   9 C :    0.213579
  10 H :   -0.285164
  11 H :    0.033348
  12 C :    0.410924
  13 C :    0.448432
  14 H :   -0.058184
  15 H :   -0.100236
  16 H :   -0.379022
  17 H :   -0.453474
  18 H :   -0.351331
  19 F :   -0.457593
  20 O :   -0.518236
  21 H :   -0.198887
  22 H :   -0.379953
  23 H :   -0.091906
  24 H :   -0.358122
Sum of atomic charges:   -0.0000000

LOEWDIN ATOMIC CHARGES
----------------------
   0 C :   -0.046863
   1 H :    0.021501
   2 C :    0.127433
   3 C :   -0.020083
   4 H :    0.021491
   5 C :   -0.014782
   6 C :   -0.023722
   7 H :    0.026896
   8 H :    0.020968
   9 C :   -0.013114
  10 H :    0.024959
  11 H :    0.018318
  12 C :    0.066924
  13 C :    0.027388
  14 H :    0.043169
  15 H :    0.031221
  16 H :   -0.101065
  17 H :   -0.077564
  18 H :   -0.013443
  19 F :   -0.045475
  20 O :   -0.123277
  21 H :    0.027186
  22 H :   -0.002399
  23 H :    0.005514
  24 H :    0.018820

  Mayer bond orders larger than 0.100000
B(  0-C ,  1-H ) :   0.7403 B(  0-C ,  2-C ) :   1.0185 B(  0-C ,  3-C ) :   1.1606
B(  0-C ,  4-H ) :   0.7566 B(  0-C , 16-H ) :   0.3158 B(  0-C , 17-H ) :   0.2406
B(  0-C , 18-H ) :   0.1983 B(  0-C , 23-H ) :   0.1748 B(  0-C , 24-H ) :   0.1004
B(  1-H ,  3-C ) :   0.1941 B(  1-H ,  4-H ) :  -0.1512 B(  2-C ,  3-C ) :   0.1767
B(  2-C ,  4-H ) :   0.1620 B(  2-C , 16-H ) :   0.3445 B(  2-C , 17-H ) :   0.1366
B(  2-C , 18-H ) :   0.5125 B(  2-C , 23-H ) :  -0.1834 B(  2-C , 24-H ) :   0.1250
B(  3-C ,  5-C ) :   1.1225 B(  3-C , 21-H ) :   0.2602 B(  3-C , 22-H ) :   0.1171
B(  3-C , 23-H ) :   0.7945 B(  3-C , 24-H ) :   0.8288 B(  5-C ,  6-C ) :   1.2016
B(  5-C ,  7-H ) :   0.1760 B(  5-C ,  8-H ) :   0.2386 B(  5-C ,  9-C ) :   0.1106
B(  5-C , 21-H ) :   0.7332 B(  5-C , 22-H ) :   0.7733 B(  5-C , 23-H ) :   0.1213
B(  5-C , 24-H ) :   0.2087 B(  6-C ,  7-H ) :   0.7741 B(  6-C ,  8-H ) :   0.6246
B(  6-C ,  9-C ) :   1.2118 B(  6-C , 10-H ) :   0.1621 B(  6-C , 11-H ) :   0.1101
B(  6-C , 21-H ) :   0.1211 B(  6-C , 22-H ) :   0.1044 B(  7-H ,  9-C ) :   0.1624
B(  8-H ,  9-C ) :   0.1580 B(  9-C , 10-H ) :   0.8316 B(  9-C , 11-H ) :   0.8029
B(  9-C , 12-C ) :   1.1996 B(  9-C , 14-H ) :   0.1851 B(  9-C , 15-H ) :   0.1200
B( 10-H , 11-H ) :  -0.1290 B( 10-H , 12-C ) :   0.1378 B( 11-H , 12-C ) :   0.1052
B( 12-C , 13-C ) :   1.2237 B( 12-C , 14-H ) :   0.6671 B( 12-C , 15-H ) :   0.8431
B( 13-C , 14-H ) :   0.2131 B( 13-C , 15-H ) :   0.1802 B( 13-C , 16-H ) :   0.1126
B( 13-C , 17-H ) :   0.1351 B( 13-C , 19-F ) :   0.7033 B( 13-C , 20-O ) :   1.7683
B( 16-H , 17-H ) :   0.4398 B( 16-H , 20-O ) :   0.1955 B( 16-H , 23-H ) :   0.2358
B( 16-H , 24-H ) :  -0.1816 B( 17-H , 19-F ) :   0.2185 B( 18-H , 23-H ) :  -0.1414

FINAL SINGLE POINT ENERGY      -488.333970192156

DIPOLE MOMENT
-------------
                                X             Y             Z
Electronic contribution:      0.32459      -1.95952     -10.57409
Nuclear contribution   :     -1.21560       2.80077      10.24180
                        -----------------------------------------
Total Dipole Moment    :     -0.89101       0.84125      -0.33229
                        -----------------------------------------
Magnitude (a.u.)       :      1.26965
Magnitude (Debye)      :      3.22720

Rotational constants in cm-1:     0.051255     0.042531     0.028894
Rotational constants in MHz :  1536.587743  1275.050721   866.218876

                             ****ORCA TERMINATED NORMALLY****
TOTAL RUN TIME: 0 days 0 hours 2 minutes 30 seconds 534 msec
