                         Program Version 5.0.0 -  RELEASE  -
|  1> !DLPNO-CCSD(T) aug-cc-pVTZ aug-cc-pVTZ/C TightSCF TightPNO RIJCOSX def2/J
|  2> *xyz -1 1
|  3> C         -0.29041        0.95134       -5.15342
|  4> C         -0.05517        1.61942       -3.78858
|  5> H          0.04501        0.86230       -3.00301
|  6> H         -0.92294        2.23033       -3.51703
|  7> C          1.22302        2.46987       -3.75691
|  8> H          1.11470        3.25807       -4.53300
|  9> H          1.23773        3.01124       -2.79216
| 10> O          2.35381        1.71203       -3.93448
| 11> H         -0.38575        1.70447       -5.90748
| 12> H         -1.18723        0.36894       -5.11561
| 13> H          0.53806        0.31571       -5.38692
| 14> *
| 15>
| 16> %MaxCore 64000
| 17>
| 18> %pal nprocs 8
| 19> end
| 20>
| 21> %scf
| 22>   MaxIter 150
| 23> end
| 24>
| 25>
| 26>                          ****END OF INPUT****

CARTESIAN COORDINATES (ANGSTROEM)
---------------------------------
  C     -0.290410    0.951340   -5.153420
  C     -0.055170    1.619420   -3.788580
  H      0.045010    0.862300   -3.003010
  H     -0.922940    2.230330   -3.517030
  C      1.223020    2.469870   -3.756910
  H      1.114700    3.258070   -4.533000
  H      1.237730    3.011240   -2.792160
  O      2.353810    1.712030   -3.934480
  H     -0.385750    1.704470   -5.907480
  H     -1.187230    0.368940   -5.115610
  H      0.538060    0.315710   -5.386920

 Total Charge           Charge          ....   -1
 Multiplicity           Mult            ....    1
 Number of Electrons    NEL             ....   34
 Basis Dimension        Dim             ....  345

ORBITAL ENERGIES
----------------

  NO   OCC          E(Eh)            E(eV)
   0   2.0000     -20.205979      -549.8326
   1   2.0000     -11.039911      -300.4112
   2   2.0000     -11.037608      -300.3486
   3   2.0000     -11.030289      -300.1494
   4   2.0000      -0.996836       -27.1253
   5   2.0000      -0.849863       -23.1260
   6   2.0000      -0.706691       -19.2300
   7   2.0000      -0.576159       -15.6781
   8   2.0000      -0.437307       -11.8997
   9   2.0000      -0.427515       -11.6333
  10   2.0000      -0.373678       -10.1683
  11   2.0000      -0.337440        -9.1822
  12   2.0000      -0.302176        -8.2226
  13   2.0000      -0.295052        -8.0288
  14   2.0000      -0.256501        -6.9798
  15   2.0000      -0.115189        -3.1344
  16   2.0000      -0.113234        -3.0813
  17   0.0000       0.122158         3.3241
  18   0.0000       0.134289         3.6542
  19   0.0000       0.137285         3.7357
  20   0.0000       0.148671         4.0455
  21   0.0000       0.155459         4.2303

MULLIKEN ATOMIC CHARGES
-----------------------
   0 C :   -0.966310
   1 C :   -0.467709
   2 H :    0.246036
   3 H :    0.246465
   4 C :   -0.200720
   5 H :    0.188956
   6 H :    0.195926
   7 O :   -1.131014
   8 H :    0.290598
   9 H :    0.259068
  10 H :    0.338704
Sum of atomic charges:   -1.0000000

LOEWDIN ATOMIC CHARGES
----------------------
   0 C :    0.549650
   1 C :    0.180965
   2 H :   -0.179996
   3 H :   -0.188337
   4 C :   -0.394473
   5 H :   -0.225259
   6 H :   -0.232855
   7 O :    0.116384
   8 H :   -0.203995
   9 H :   -0.216819
  10 H :   -0.205266

  Mayer bond orders larger than 0.100000
B(  0-C ,  1-C ) :   0.8152 B(  0-C ,  8-H ) :   0.9329 B(  0-C ,  9-H ) :   0.9865
B(  0-C , 10-H ) :   0.8975 B(  1-C ,  2-H ) :   0.9561 B(  1-C ,  3-H ) :   0.9404
B(  1-C ,  4-C ) :   0.8495 B(  4-C ,  5-H ) :   0.9941 B(  4-C ,  6-H ) :   1.0448
B(  4-C ,  7-O ) :   1.1200

E(0)                                       ...   -192.559133616
E(0)                                       ...   -192.559133616
E(CORR)(strong-pairs)                      ...     -0.838522247
E(CORR)(weak-pairs)                        ...     -0.000683263
E(CORR)(corrected)                         ...     -0.839205510
E(TOT)                                     ...   -193.398339125
E(CCSD(T))                                 ...   -193.432415440
FINAL SINGLE POINT ENERGY      -193.432415439851

DIPOLE MOMENT
-------------
                                X             Y             Z
Electronic contribution:      2.78790      -0.02319       0.70484
Nuclear contribution   :     -4.97104      -0.06484      -1.04325
                        -----------------------------------------
Total Dipole Moment    :     -2.18314      -0.08803      -0.33841
                        -----------------------------------------
Magnitude (a.u.)       :      2.21097
Magnitude (Debye)      :      5.61983

Rotational constants in cm-1:     0.508668     0.174500     0.148765
Rotational constants in MHz : 15249.486055  5231.367342  4459.875680

                             ****ORCA TERMINATED NORMALLY****
TOTAL RUN TIME: 0 days 0 hours 5 minutes 29 seconds 593 msec
