                         Program Version 5.0.0 -  RELEASE  -
|  1> !DLPNO-CCSD(T) aug-cc-pVTZ aug-cc-pVTZ/C TightSCF TightPNO RIJCOSX def2/J
|  2> *xyz 1 1
|  3> C          1.63556       -1.67040       -5.29211
|  4> C          0.33848       -1.50091       -4.50540
|  5> N          2.48451       -0.50741       -5.14039
|  6> C         -0.68487       -0.52803       -5.09989
|  7> H          1.39834       -1.82924       -6.35259
|  8> H          2.15586       -2.56540       -4.93209
|  9> C          3.45115       -0.14953       -5.95259
| 10> N          3.92267        1.08956       -5.85071
| 11> N          3.96616       -1.00618       -6.86788
| 12> H          3.52139       -1.90647       -6.99527
| 13> H          4.44482       -0.62347       -7.67035
| 14> H          2.25200        0.24080       -4.49879
| 15> H          3.46428        1.64078       -5.13639
| 16> H          4.83447        1.31375       -6.22465
| 17> H          0.59489       -1.21158       -3.48231
| 18> H         -0.12653       -2.48766       -4.43418
| 19> H         -0.92267       -0.82721       -6.09931
| 20> H         -0.27317        0.45953       -5.11162
| 21> H         -1.57350       -0.53693       -4.50394
| 22> *
| 23>
| 24> %MaxCore 64000
| 25>
| 26> %pal nprocs 2
| 27> end
| 28>
| 29> %scf
| 30>   MaxIter 150
| 31> end
| 32>
| 33>
| 34>                          ****END OF INPUT****

CARTESIAN COORDINATES (ANGSTROEM)
---------------------------------
  C      1.635560   -1.670400   -5.292110
  C      0.338480   -1.500910   -4.505400
  N      2.484510   -0.507410   -5.140390
  C     -0.684870   -0.528030   -5.099890
  H      1.398340   -1.829240   -6.352590
  H      2.155860   -2.565400   -4.932090
  C      3.451150   -0.149530   -5.952590
  N      3.922670    1.089560   -5.850710
  N      3.966160   -1.006180   -6.867880
  H      3.521390   -1.906470   -6.995270
  H      4.444820   -0.623470   -7.670350
  H      2.252000    0.240800   -4.498790
  H      3.464280    1.640780   -5.136390
  H      4.834470    1.313750   -6.224650
  H      0.594890   -1.211580   -3.482310
  H     -0.126530   -2.487660   -4.434180
  H     -0.922670   -0.827210   -6.099310
  H     -0.273170    0.459530   -5.111620
  H     -1.573500   -0.536930   -4.503940

 Total Charge           Charge          ....    1
 Multiplicity           Mult            ....    1
 Number of Electrons    NEL             ....   56
 Basis Dimension        Dim             ....  598

ORBITAL ENERGIES
----------------

  NO   OCC          E(Eh)            E(eV)
   0   2.0000     -15.784671      -429.5227
   1   2.0000     -15.784549      -429.5194
   2   2.0000     -15.782308      -429.4584
   3   2.0000     -11.583482      -315.2026
   4   2.0000     -11.431104      -311.0561
   5   2.0000     -11.366655      -309.3024
   6   2.0000     -11.335330      -308.4500
   7   2.0000      -1.543281       -41.9948
   8   2.0000      -1.404969       -38.2311
   9   2.0000      -1.387798       -37.7639
  10   2.0000      -1.209765       -32.9194
  11   2.0000      -1.103713       -30.0336
  12   2.0000      -1.035540       -28.1785
  13   2.0000      -0.981133       -26.6980
  14   2.0000      -0.960024       -26.1236
  15   2.0000      -0.926024       -25.1984
  16   2.0000      -0.857881       -23.3441
  17   2.0000      -0.852250       -23.1909
  18   2.0000      -0.827090       -22.5063
  19   2.0000      -0.805668       -21.9233
  20   2.0000      -0.753856       -20.5135
  21   2.0000      -0.734807       -19.9951
  22   2.0000      -0.707460       -19.2510
  23   2.0000      -0.643108       -17.4999
  24   2.0000      -0.628194       -17.0940
  25   2.0000      -0.627056       -17.0630
  26   2.0000      -0.620838       -16.8939
  27   2.0000      -0.583676       -15.8826
  28   0.0000      -0.091069        -2.4781
  29   0.0000      -0.074672        -2.0319
  30   0.0000      -0.064484        -1.7547
  31   0.0000      -0.060277        -1.6402
  32   0.0000      -0.046192        -1.2569

MULLIKEN ATOMIC CHARGES
-----------------------
   0 C :   -0.208624
   1 C :   -0.470149
   2 N :    0.008348
   3 C :   -0.912077
   4 H :    0.352631
   5 H :    0.310099
   6 C :    0.413259
   7 N :   -0.395153
   8 N :   -0.335871
   9 H :    0.185652
  10 H :    0.143011
  11 H :    0.159846
  12 H :    0.155276
  13 H :    0.200628
  14 H :    0.217062
  15 H :    0.264341
  16 H :    0.267782
  17 H :    0.311338
  18 H :    0.332600
Sum of atomic charges:    1.0000000

LOEWDIN ATOMIC CHARGES
----------------------
   0 C :    0.230402
   1 C :    0.300862
   2 N :    0.623185
   3 C :    0.627265
   4 H :   -0.131941
   5 H :   -0.120584
   6 C :   -0.358870
   7 N :    0.942920
   8 N :    0.949512
   9 H :   -0.270797
  10 H :   -0.247074
  11 H :   -0.257558
  12 H :   -0.256181
  13 H :   -0.233123
  14 H :   -0.138588
  15 H :   -0.133381
  16 H :   -0.174767
  17 H :   -0.184427
  18 H :   -0.166853

  Mayer bond orders larger than 0.100000
B(  0-C ,  1-C ) :   0.8623 B(  0-C ,  2-N ) :   0.6940 B(  0-C ,  4-H ) :   0.8800
B(  0-C ,  5-H ) :   0.9256 B(  0-C ,  6-C ) :  -0.1689 B(  1-C ,  3-C ) :   0.8415
B(  1-C , 14-H ) :   0.9894 B(  1-C , 15-H ) :   0.9898 B(  2-N ,  6-C ) :   1.0771
B(  2-N ,  7-N ) :  -0.1236 B(  2-N , 11-H ) :   0.9993 B(  3-C , 16-H ) :   0.9630
B(  3-C , 17-H ) :   0.9077 B(  3-C , 18-H ) :   0.9392 B(  6-C ,  7-N ) :   1.1381
B(  6-C ,  8-N ) :   0.9710 B(  7-N ,  8-N ) :  -0.1170 B(  7-N , 12-H ) :   1.0538
B(  7-N , 13-H ) :   1.0369 B(  8-N ,  9-H ) :   0.9953 B(  8-N , 10-H ) :   1.0635

E(0)                                       ...   -321.752696978
E(0)                                       ...   -321.752696978
E(CORR)(strong-pairs)                      ...     -1.369590822
E(CORR)(weak-pairs)                        ...     -0.001652612
E(CORR)(corrected)                         ...     -1.371243433
E(TOT)                                     ...   -323.123940411
E(CCSD(T))                                 ...   -323.178879060
FINAL SINGLE POINT ENERGY      -323.178879060332

DIPOLE MOMENT
-------------
                                X             Y             Z
Electronic contribution:      7.38055       1.76738      -1.62398
Nuclear contribution   :     -5.91327      -1.13589       1.03073
                        -----------------------------------------
Total Dipole Moment    :      1.46728       0.63149      -0.59325
                        -----------------------------------------
Magnitude (a.u.)       :      1.70400
Magnitude (Debye)      :      4.33123

Rotational constants in cm-1:     0.176161     0.043658     0.038822
Rotational constants in MHz :  5281.161077  1308.843263  1163.840625

                             ****ORCA TERMINATED NORMALLY****
TOTAL RUN TIME: 0 days 1 hours 56 minutes 53 seconds 409 msec
