                         Program Version 5.0.0 -  RELEASE  -
|  1> !DLPNO-CCSD(T) aug-cc-pVTZ aug-cc-pVTZ/C TightSCF TightPNO RIJCOSX def2/J
|  2>
|  3> *xyzfile 0 1 B.xyz
|  4>
|  5> %MaxCore 64000
|  6>
|  7> %pal nprocs 18
|  8> end
|  9>
| 10> %scf
| 11>   MaxIter 150
| 12> end
| 13>
| 14>
| 15>                          ****END OF INPUT****

CARTESIAN COORDINATES (ANGSTROEM)
---------------------------------
  C      1.635557   -1.670396   -5.292109
  C      0.338484   -1.500907   -4.505398
  N      2.484511   -0.507410   -5.140392
  C     -0.684873   -0.528026   -5.099889
  C     -0.290406    0.951335   -5.153423
  H      0.607991    1.070692   -5.764412
  C     -0.055168    1.619420   -3.788577
  H     -1.080912    1.483775   -5.689436
  H      0.045006    0.862302   -3.003015
  H     -0.922936    2.230329   -3.517028
  C      1.223022    2.469865   -3.756911
  H      1.114701    3.258074   -4.532999
  H      1.237732    3.011242   -2.792157
  O      2.353815    1.712032   -3.934477
  H      1.398337   -1.829239   -6.352591
  H      2.155864   -2.565398   -4.932091
  C      3.451149   -0.149530   -5.952589
  N      3.922667    1.089559   -5.850711
  N      3.966162   -1.006183   -6.867880
  H      3.521391   -1.906467   -6.995270
  H      4.444824   -0.623472   -7.670348
  H      2.251995    0.240804   -4.498792
  H      3.464277    1.640782   -5.136392
  H      4.834470    1.313745   -6.224653
  H     -0.937999   -0.869056   -6.110838
  H     -1.604638   -0.622496   -4.513132
  H      0.594887   -1.211578   -3.482312
  H     -0.126530   -2.487656   -4.434176

 Total Charge           Charge          ....    0
 Multiplicity           Mult            ....    1
 Number of Electrons    NEL             ....   88
 Basis Dimension        Dim             ....  897

ORBITAL ENERGIES
----------------

  NO   OCC          E(Eh)            E(eV)
   0   2.0000     -20.402685      -555.1853
   1   2.0000     -15.624318      -425.1593
   2   2.0000     -15.576351      -423.8541
   3   2.0000     -15.574965      -423.8163
   4   2.0000     -11.398312      -310.1639
   5   2.0000     -11.279524      -306.9315
   6   2.0000     -11.226308      -305.4834
   7   2.0000     -11.212989      -305.1209
   8   2.0000     -11.199363      -304.7501
   9   2.0000     -11.193118      -304.5802
  10   2.0000     -11.173400      -304.0437
  11   2.0000      -1.358567       -36.9685
  12   2.0000      -1.231500       -33.5108
  13   2.0000      -1.209188       -32.9037
  14   2.0000      -1.196376       -32.5551
  15   2.0000      -1.074638       -29.2424
  16   2.0000      -1.008657       -27.4470
  17   2.0000      -0.938169       -25.5289
  18   2.0000      -0.877990       -23.8913
  19   2.0000      -0.844662       -22.9844
  20   2.0000      -0.798350       -21.7242
  21   2.0000      -0.781846       -21.2751
  22   2.0000      -0.752269       -20.4703
  23   2.0000      -0.731848       -19.9146
  24   2.0000      -0.683425       -18.5969
  25   2.0000      -0.670720       -18.2512
  26   2.0000      -0.662609       -18.0305
  27   2.0000      -0.644317       -17.5328
  28   2.0000      -0.602450       -16.3935
  29   2.0000      -0.586511       -15.9598
  30   2.0000      -0.573351       -15.6017
  31   2.0000      -0.568082       -15.4583
  32   2.0000      -0.539190       -14.6721
  33   2.0000      -0.514285       -13.9944
  34   2.0000      -0.506117       -13.7721
  35   2.0000      -0.482302       -13.1241
  36   2.0000      -0.463421       -12.6103
  37   2.0000      -0.455783       -12.4025
  38   2.0000      -0.442978       -12.0540
  39   2.0000      -0.433191       -11.7877
  40   2.0000      -0.428611       -11.6631
  41   2.0000      -0.393615       -10.7108
  42   2.0000      -0.318908        -8.6779
  43   2.0000      -0.316165        -8.6033
  44   0.0000       0.010749         0.2925
  45   0.0000       0.025590         0.6963
  46   0.0000       0.034244         0.9318
  47   0.0000       0.036252         0.9865
  48   0.0000       0.046007         1.2519

MULLIKEN ATOMIC CHARGES
-----------------------
   0 C :   -0.622466
   1 C :   -0.420709
   2 N :    0.025955
   3 C :   -0.510864
   4 C :   -0.409612
   5 H :    0.118264
   6 C :   -0.502457
   7 H :    0.423028
   8 H :    0.258749
   9 H :    0.246400
  10 C :   -0.384541
  11 H :    0.184340
  12 H :    0.299388
  13 O :   -0.931429
  14 H :    0.275947
  15 H :    0.316467
  16 C :    0.319166
  17 N :   -0.538040
  18 N :   -0.508781
  19 H :    0.133208
  20 H :    0.130734
  21 H :    0.824533
  22 H :    0.293616
  23 H :    0.098369
  24 H :    0.243900
  25 H :    0.178987
  26 H :    0.099512
  27 H :    0.358336
Sum of atomic charges:   -0.0000000

LOEWDIN ATOMIC CHARGES
----------------------
   0 C :    0.225234
   1 C :    0.308846
   2 N :    0.625784
   3 C :    0.297821
   4 C :    0.285102
   5 H :   -0.180101
   6 C :    0.263448
   7 H :   -0.144874
   8 H :   -0.173927
   9 H :   -0.152871
  10 C :   -0.155157
  11 H :   -0.176317
  12 H :   -0.185393
  13 O :    0.538414
  14 H :   -0.141457
  15 H :   -0.132028
  16 C :   -0.362925
  17 N :    0.929156
  18 N :    0.916456
  19 H :   -0.290345
  20 H :   -0.268267
  21 H :   -0.627727
  22 H :   -0.571659
  23 H :   -0.252318
  24 H :   -0.146029
  25 H :   -0.140384
  26 H :   -0.147087
  27 H :   -0.141395

  Mayer bond orders larger than 0.100000
B(  0-C ,  1-C ) :   0.8559 B(  0-C ,  2-N ) :   0.9637 B(  0-C , 14-H ) :   0.9784
B(  0-C , 15-H ) :   0.9199 B(  0-C , 16-C ) :  -0.2157 B(  1-C ,  3-C ) :   0.8366
B(  1-C , 26-H ) :   1.1539 B(  1-C , 27-H ) :   0.8432 B(  2-N , 16-C ) :   1.1355
B(  2-N , 21-H ) :   0.3181 B(  3-C ,  4-C ) :   0.8028 B(  3-C , 24-H ) :   0.9653
B(  3-C , 25-H ) :   1.0595 B(  4-C ,  5-H ) :   1.1093 B(  4-C ,  6-C ) :   0.8024
B(  4-C ,  7-H ) :   0.8177 B(  6-C ,  8-H ) :   0.9413 B(  6-C ,  9-H ) :   0.9773
B(  6-C , 10-C ) :   0.9730 B( 10-C , 11-H ) :   1.0173 B( 10-C , 12-H ) :   0.9626
B( 10-C , 13-O ) :   0.9880 B( 13-O , 16-C ) :   0.1161 B( 13-O , 22-H ) :   0.2430
B( 16-C , 17-N ) :   1.1189 B( 16-C , 18-N ) :   0.8968 B( 16-C , 20-H ) :  -0.1059
B( 16-C , 21-H ) :  -0.2842 B( 17-N , 18-N ) :  -0.1475 B( 17-N , 22-H ) :   0.7723
B( 17-N , 23-H ) :   1.1127 B( 18-N , 19-H ) :   1.0455 B( 18-N , 20-H ) :   1.0795

E(0)                                       ...   -513.335388563
E(0)                                       ...   -513.335388563
E(CORR)(strong-pairs)                      ...     -2.190483807
E(CORR)(weak-pairs)                        ...     -0.003390520
E(CORR)(corrected)                         ...     -2.193874327
E(TOT)                                     ...   -515.529262890
E(CCSD(T))                                 ...   -515.621951788
FINAL SINGLE POINT ENERGY      -515.621951787765

DIPOLE MOMENT
-------------
                                X             Y             Z
Electronic contribution:      8.41186      -1.01917      -2.36842
Nuclear contribution   :     -7.46499      -1.05836       0.01518
                        -----------------------------------------
Total Dipole Moment    :      0.94687      -2.07753      -2.35324
                        -----------------------------------------
Magnitude (a.u.)       :      3.27879
Magnitude (Debye)      :      8.33401

Rotational constants in cm-1:     0.044680     0.028958     0.019773
Rotational constants in MHz :  1339.486245   868.136755   592.791310

                             ****ORCA TERMINATED NORMALLY****
TOTAL RUN TIME: 0 days 2 hours 33 minutes 3 seconds 689 msec
