                         Program Version 5.0.0 -  RELEASE  -
|  1> !DLPNO-CCSD(T) aug-cc-pVTZ aug-cc-pVTZ/C TightSCF TightPNO RIJCOSX def2/J
|  2> *xyz 0 1
|  3> C         -0.29041        0.95134       -5.15342
|  4> C         -0.05517        1.61942       -3.78858
|  5> H          0.04501        0.86230       -3.00301
|  6> H         -0.92294        2.23033       -3.51703
|  7> C          1.22302        2.46987       -3.75691
|  8> H          1.11470        3.25807       -4.53300
|  9> H          1.23773        3.01124       -2.79216
| 10> F          2.35381        1.71203       -3.93448
| 11> H         -0.38575        1.70447       -5.90748
| 12> H         -1.18723        0.36894       -5.11561
| 13> H          0.53806        0.31571       -5.38692
| 14> *
| 15>
| 16> %MaxCore 64000
| 17>
| 18> %pal nprocs 8
| 19> end
| 20>
| 21> %scf
| 22>   MaxIter 150
| 23> end
| 24>
| 25>
| 26>                          ****END OF INPUT****

CARTESIAN COORDINATES (ANGSTROEM)
---------------------------------
  C     -0.290410    0.951340   -5.153420
  C     -0.055170    1.619420   -3.788580
  H      0.045010    0.862300   -3.003010
  H     -0.922940    2.230330   -3.517030
  C      1.223020    2.469870   -3.756910
  H      1.114700    3.258070   -4.533000
  H      1.237730    3.011240   -2.792160
  F      2.353810    1.712030   -3.934480
  H     -0.385750    1.704470   -5.907480
  H     -1.187230    0.368940   -5.115610
  H      0.538060    0.315710   -5.386920

 Total Charge           Charge          ....    0
 Multiplicity           Mult            ....    1
 Number of Electrons    NEL             ....   34
 Basis Dimension        Dim             ....  345

ORBITAL ENERGIES
----------------

  NO   OCC          E(Eh)            E(eV)
   0   2.0000     -26.282833      -715.1922
   1   2.0000     -11.308235      -307.7127
   2   2.0000     -11.230338      -305.5930
   3   2.0000     -11.209511      -305.0263
   4   2.0000      -1.594163       -43.3794
   5   2.0000      -1.061760       -28.8920
   6   2.0000      -0.937904       -25.5217
   7   2.0000      -0.819469       -22.2989
   8   2.0000      -0.703634       -19.1469
   9   2.0000      -0.699727       -19.0405
  10   2.0000      -0.663605       -18.0576
  11   2.0000      -0.604861       -16.4591
  12   2.0000      -0.578453       -15.7405
  13   2.0000      -0.539333       -14.6760
  14   2.0000      -0.501405       -13.6439
  15   2.0000      -0.477169       -12.9844
  16   2.0000      -0.474060       -12.8998
  17   0.0000       0.030262         0.8235
  18   0.0000       0.038579         1.0498
  19   0.0000       0.040475         1.1014
  20   0.0000       0.045893         1.2488
  21   0.0000       0.062477         1.7001

MULLIKEN ATOMIC CHARGES
-----------------------
   0 C :   -0.963771
   1 C :   -0.502102
   2 H :    0.262543
   3 H :    0.304759
   4 C :   -0.105792
   5 H :    0.276640
   6 H :    0.303110
   7 F :   -0.500335
   8 H :    0.307023
   9 H :    0.293279
  10 H :    0.324646
Sum of atomic charges:   -0.0000000

LOEWDIN ATOMIC CHARGES
----------------------
   0 C :    0.594154
   1 C :    0.251910
   2 H :   -0.158819
   3 H :   -0.151526
   4 C :   -0.104727
   5 H :   -0.161331
   6 H :   -0.167697
   7 F :    0.462236
   8 H :   -0.189254
   9 H :   -0.187838
  10 H :   -0.187108

  Mayer bond orders larger than 0.100000
B(  0-C ,  1-C ) :   0.8408 B(  0-C ,  8-H ) :   0.9178 B(  0-C ,  9-H ) :   0.9642
B(  0-C , 10-H ) :   0.9138 B(  1-C ,  2-H ) :   0.9456 B(  1-C ,  3-H ) :   0.9074
B(  1-C ,  4-C ) :   0.9109 B(  4-C ,  5-H ) :   0.9425 B(  4-C ,  6-H ) :   0.9559
B(  4-C ,  7-F ) :   0.6178

E(0)                                       ...   -217.195852314
E(0)                                       ...   -217.195852314
E(CORR)(strong-pairs)                      ...     -0.831768259
E(CORR)(weak-pairs)                        ...     -0.000646824
E(CORR)(corrected)                         ...     -0.832415083
E(TOT)                                     ...   -218.028267396
E(CCSD(T))                                 ...   -218.057030669
FINAL SINGLE POINT ENERGY      -218.057030668668

DIPOLE MOMENT
-------------
                                X             Y             Z
Electronic contribution:      6.13248       0.42414       1.40692
Nuclear contribution   :     -6.82889      -0.09322      -1.32039
                        -----------------------------------------
Total Dipole Moment    :     -0.69640       0.33092       0.08654
                        -----------------------------------------
Magnitude (a.u.)       :      0.77587
Magnitude (Debye)      :      1.97211

Rotational constants in cm-1:     0.494282     0.164406     0.140369
Rotational constants in MHz : 14818.207649  4928.760399  4208.156468

                             ****ORCA TERMINATED NORMALLY****
TOTAL RUN TIME: 0 days 0 hours 4 minutes 39 seconds 921 msec
