                         Program Version 5.0.0 -  RELEASE  -
|  1> !DLPNO-CCSD(T) aug-cc-pVTZ aug-cc-pVTZ/C TightSCF TightPNO RIJCOSX def2/J
|  2> *xyz 0 1
|  3> C          1.63556       -1.67040       -5.29211
|  4> C          0.33848       -1.50091       -4.50540
|  5> C          2.48451       -0.50741       -5.14039
|  6> C         -0.68487       -0.52803       -5.09989
|  7> H          1.39834       -1.82924       -6.35259
|  8> H          2.15586       -2.56540       -4.93209
|  9> C          3.45115       -0.14953       -5.95259
| 10> N          3.92267        1.08956       -5.85071
| 11> N          3.96616       -1.00618       -6.86788
| 12> H          3.52139       -1.90647       -6.99527
| 13> H          4.44482       -0.62347       -7.67035
| 14> H          2.25200        0.24080       -4.49879
| 15> H          3.46428        1.64078       -5.13639
| 16> H          4.83447        1.31375       -6.22465
| 17> H          0.59489       -1.21158       -3.48231
| 18> H         -0.12653       -2.48766       -4.43418
| 19> H         -0.92267       -0.82721       -6.09931
| 20> H         -0.27317        0.45953       -5.11162
| 21> H         -1.57350       -0.53693       -4.50394
| 22> *
| 23>
| 24> %MaxCore 64000
| 25>
| 26> %pal nprocs 2
| 27> end
| 28>
| 29> %scf
| 30>   MaxIter 150
| 31> end
| 32>
| 33>
| 34>                          ****END OF INPUT****

CARTESIAN COORDINATES (ANGSTROEM)
---------------------------------
  C      1.635560   -1.670400   -5.292110
  C      0.338480   -1.500910   -4.505400
  C      2.484510   -0.507410   -5.140390
  C     -0.684870   -0.528030   -5.099890
  H      1.398340   -1.829240   -6.352590
  H      2.155860   -2.565400   -4.932090
  C      3.451150   -0.149530   -5.952590
  N      3.922670    1.089560   -5.850710
  N      3.966160   -1.006180   -6.867880
  H      3.521390   -1.906470   -6.995270
  H      4.444820   -0.623470   -7.670350
  H      2.252000    0.240800   -4.498790
  H      3.464280    1.640780   -5.136390
  H      4.834470    1.313750   -6.224650
  H      0.594890   -1.211580   -3.482310
  H     -0.126530   -2.487660   -4.434180
  H     -0.922670   -0.827210   -6.099310
  H     -0.273170    0.459530   -5.111620
  H     -1.573500   -0.536930   -4.503940

 Total Charge           Charge          ....    0
 Multiplicity           Mult            ....    1
 Number of Electrons    NEL             ....   56
 Basis Dimension        Dim             ....  598

ORBITAL ENERGIES
----------------

  NO   OCC          E(Eh)            E(eV)
   0   2.0000     -15.562198      -423.4689
   1   2.0000     -15.557053      -423.3289
   2   2.0000     -11.277163      -306.8672
   3   2.0000     -11.202016      -304.8224
   4   2.0000     -11.198073      -304.7151
   5   2.0000     -11.191911      -304.5474
   6   2.0000     -11.138701      -303.0995
   7   2.0000      -1.274047       -34.6686
   8   2.0000      -1.163649       -31.6645
   9   2.0000      -1.065454       -28.9925
  10   2.0000      -0.986861       -26.8539
  11   2.0000      -0.901478       -24.5305
  12   2.0000      -0.801829       -21.8189
  13   2.0000      -0.772659       -21.0251
  14   2.0000      -0.713736       -19.4217
  15   2.0000      -0.696991       -18.9661
  16   2.0000      -0.632100       -17.2003
  17   2.0000      -0.610703       -16.6181
  18   2.0000      -0.599134       -16.3033
  19   2.0000      -0.574375       -15.6295
  20   2.0000      -0.546763       -14.8782
  21   2.0000      -0.528871       -14.3913
  22   2.0000      -0.514615       -14.0034
  23   2.0000      -0.466752       -12.7010
  24   2.0000      -0.456819       -12.4307
  25   2.0000      -0.452182       -12.3045
  26   2.0000      -0.413199       -11.2437
  27   2.0000      -0.263125        -7.1600
  28   0.0000       0.024970         0.6795
  29   0.0000       0.034651         0.9429
  30   0.0000       0.037230         1.0131
  31   0.0000       0.044399         1.2082
  32   0.0000       0.050161         1.3650

MULLIKEN ATOMIC CHARGES
-----------------------
   0 C :   -0.239684
   1 C :   -0.532676
   2 C :   -0.190637
   3 C :   -0.961008
   4 H :    0.183538
   5 H :    0.237403
   6 C :    0.579833
   7 N :   -0.540548
   8 N :   -0.520327
   9 H :    0.139220
  10 H :    0.124098
  11 H :    0.181610
  12 H :    0.105180
  13 H :    0.107360
  14 H :    0.181716
  15 H :    0.255359
  16 H :    0.247180
  17 H :    0.338436
  18 H :    0.303947
Sum of atomic charges:   -0.0000000

LOEWDIN ATOMIC CHARGES
----------------------
   0 C :    0.213822
   1 C :    0.264188
   2 C :    0.190399
   3 C :    0.605963
   4 H :   -0.151309
   5 H :   -0.143188
   6 C :   -0.419469
   7 N :    0.855370
   8 N :    0.874504
   9 H :   -0.295064
  10 H :   -0.286583
  11 H :   -0.285560
  12 H :   -0.290145
  13 H :   -0.277149
  14 H :   -0.146456
  15 H :   -0.153629
  16 H :   -0.182999
  17 H :   -0.186996
  18 H :   -0.185699

  Mayer bond orders larger than 0.100000
B(  0-C ,  1-C ) :   0.9472 B(  0-C ,  2-C ) :   0.5478 B(  0-C ,  4-H ) :   0.9256
B(  0-C ,  5-H ) :   1.0185 B(  1-C ,  3-C ) :   0.8378 B(  1-C , 14-H ) :   1.0279
B(  1-C , 15-H ) :   0.9938 B(  2-C ,  6-C ) :   1.2421 B(  2-C ,  7-N ) :  -0.3117
B(  2-C ,  8-N ) :  -0.1805 B(  2-C , 11-H ) :   1.0995 B(  3-C , 16-H ) :   0.9835
B(  3-C , 17-H ) :   0.8975 B(  3-C , 18-H ) :   0.9589 B(  6-C ,  7-N ) :   0.9963
B(  6-C ,  8-N ) :   0.7948 B(  6-C , 11-H ) :   0.1671 B(  6-C , 13-H ) :  -0.1138
B(  7-N ,  8-N ) :  -0.1563 B(  7-N , 12-H ) :   1.0941 B(  7-N , 13-H ) :   1.1240
B(  8-N ,  9-H ) :   1.0527 B(  8-N , 10-H ) :   1.0875

E(0)                                       ...   -305.299338662
E(0)                                       ...   -305.299338662
E(CORR)(strong-pairs)                      ...     -1.353094230
E(CORR)(weak-pairs)                        ...     -0.001647023
E(CORR)(corrected)                         ...     -1.354741253
E(TOT)                                     ...   -306.654079915
E(CCSD(T))                                 ...   -306.709314287
FINAL SINGLE POINT ENERGY      -306.709314287247

DIPOLE MOMENT
-------------
                                X             Y             Z
Electronic contribution:      6.37913       1.44711      -1.68073
Nuclear contribution   :     -5.84539      -1.11717       1.11949
                        -----------------------------------------
Total Dipole Moment    :      0.53374       0.32994      -0.56124
                        -----------------------------------------
Magnitude (a.u.)       :      0.84186
Magnitude (Debye)      :      2.13984

Rotational constants in cm-1:     0.177055     0.043715     0.038831
Rotational constants in MHz :  5307.971484  1310.555422  1164.112547

                             ****ORCA TERMINATED NORMALLY****
TOTAL RUN TIME: 0 days 2 hours 13 minutes 50 seconds 427 msec
