                         Program Version 5.0.0 -  RELEASE  -
|  1> !DLPNO-CCSD(T) aug-cc-pVTZ aug-cc-pVTZ/C TightSCF TightPNO RIJCOSX def2/J
|  2> *xyz 0 1
|  3> C          1.63556       -1.67040       -5.29211
|  4> C          0.33848       -1.50091       -4.50540
|  5> N          2.48451       -0.50741       -5.14039
|  6> C         -0.68487       -0.52803       -5.09989
|  7> H          1.39834       -1.82924       -6.35259
|  8> H          2.15586       -2.56540       -4.93209
|  9> C          3.45115       -0.14953       -5.95259
| 10> C          3.92267        1.08956       -5.85071
| 11> N          3.96616       -1.00618       -6.86788
| 12> H          3.52139       -1.90647       -6.99527
| 13> H          4.44482       -0.62347       -7.67035
| 14> H          2.25200        0.24080       -4.49879
| 15> H          3.46428        1.64078       -5.13639
| 16> H          4.83447        1.31375       -6.22465
| 17> H          0.59489       -1.21158       -3.48231
| 18> H         -0.12653       -2.48766       -4.43418
| 19> H         -0.92267       -0.82721       -6.09931
| 20> H         -0.27317        0.45953       -5.11162
| 21> H         -1.57350       -0.53693       -4.50394
| 22> *
| 23>
| 24> %MaxCore 64000
| 25>
| 26> %pal nprocs 2
| 27> end
| 28>
| 29> %scf
| 30>   MaxIter 150
| 31> end
| 32>
| 33>
| 34>                          ****END OF INPUT****

CARTESIAN COORDINATES (ANGSTROEM)
---------------------------------
  C      1.635560   -1.670400   -5.292110
  C      0.338480   -1.500910   -4.505400
  N      2.484510   -0.507410   -5.140390
  C     -0.684870   -0.528030   -5.099890
  H      1.398340   -1.829240   -6.352590
  H      2.155860   -2.565400   -4.932090
  C      3.451150   -0.149530   -5.952590
  C      3.922670    1.089560   -5.850710
  N      3.966160   -1.006180   -6.867880
  H      3.521390   -1.906470   -6.995270
  H      4.444820   -0.623470   -7.670350
  H      2.252000    0.240800   -4.498790
  H      3.464280    1.640780   -5.136390
  H      4.834470    1.313750   -6.224650
  H      0.594890   -1.211580   -3.482310
  H     -0.126530   -2.487660   -4.434180
  H     -0.922670   -0.827210   -6.099310
  H     -0.273170    0.459530   -5.111620
  H     -1.573500   -0.536930   -4.503940

 Total Charge           Charge          ....    0
 Multiplicity           Mult            ....    1
 Number of Electrons    NEL             ....   56
 Basis Dimension        Dim             ....  598

ORBITAL ENERGIES
----------------

  NO   OCC          E(Eh)            E(eV)
   0   2.0000     -15.561259      -423.4434
   1   2.0000     -15.558478      -423.3677
   2   2.0000     -11.284628      -307.0703
   3   2.0000     -11.268504      -306.6316
   4   2.0000     -11.233295      -305.6735
   5   2.0000     -11.214568      -305.1639
   6   2.0000     -11.125612      -302.7433
   7   2.0000      -1.289245       -35.0821
   8   2.0000      -1.180964       -32.1357
   9   2.0000      -1.067384       -29.0450
  10   2.0000      -0.987104       -26.8605
  11   2.0000      -0.917382       -24.9632
  12   2.0000      -0.818755       -22.2795
  13   2.0000      -0.798964       -21.7409
  14   2.0000      -0.716446       -19.4955
  15   2.0000      -0.675344       -18.3770
  16   2.0000      -0.643400       -17.5078
  17   2.0000      -0.633468       -17.2375
  18   2.0000      -0.611309       -16.6346
  19   2.0000      -0.576904       -15.6983
  20   2.0000      -0.550768       -14.9872
  21   2.0000      -0.542345       -14.7580
  22   2.0000      -0.527523       -14.3546
  23   2.0000      -0.498023       -13.5519
  24   2.0000      -0.494430       -13.4541
  25   2.0000      -0.484350       -13.1798
  26   2.0000      -0.402304       -10.9473
  27   2.0000      -0.262385        -7.1398
  28   0.0000       0.025232         0.6866
  29   0.0000       0.032051         0.8722
  30   0.0000       0.037387         1.0173
  31   0.0000       0.039042         1.0624
  32   0.0000       0.050554         1.3756

MULLIKEN ATOMIC CHARGES
-----------------------
   0 C :   -0.257387
   1 C :   -0.472945
   2 N :    0.091460
   3 C :   -0.931269
   4 H :    0.324562
   5 H :    0.285909
   6 C :    0.251213
   7 C :   -1.203347
   8 N :   -0.484888
   9 H :    0.149255
  10 H :    0.073283
  11 H :    0.096240
  12 H :    0.256942
  13 H :    0.465809
  14 H :    0.208076
  15 H :    0.248984
  16 H :    0.258304
  17 H :    0.328066
  18 H :    0.311733
Sum of atomic charges:   -0.0000000

LOEWDIN ATOMIC CHARGES
----------------------
   0 C :    0.196055
   1 C :    0.280089
   2 N :    0.567851
   3 C :    0.612496
   4 H :   -0.143830
   5 H :   -0.136150
   6 C :   -0.452040
   7 C :    0.543772
   8 N :    0.870835
   9 H :   -0.308819
  10 H :   -0.275497
  11 H :   -0.284267
  12 H :   -0.323781
  13 H :   -0.306819
  14 H :   -0.144799
  15 H :   -0.149064
  16 H :   -0.181240
  17 H :   -0.183115
  18 H :   -0.181678

  Mayer bond orders larger than 0.100000
B(  0-C ,  1-C ) :   0.8553 B(  0-C ,  2-N ) :   0.7329 B(  0-C ,  4-H ) :   0.8955
B(  0-C ,  5-H ) :   0.9566 B(  0-C ,  6-C ) :  -0.1622 B(  1-C ,  3-C ) :   0.8304
B(  1-C , 14-H ) :   0.9913 B(  1-C , 15-H ) :   1.0003 B(  2-N ,  6-C ) :   0.7198
B(  2-N ,  7-C ) :  -0.3129 B(  2-N ,  8-N ) :  -0.1553 B(  2-N , 11-H ) :   1.0831
B(  3-C , 16-H ) :   0.9731 B(  3-C , 17-H ) :   0.8958 B(  3-C , 18-H ) :   0.9568
B(  6-C ,  7-C ) :   1.2455 B(  6-C ,  8-N ) :   0.7855 B(  7-C ,  8-N ) :  -0.2095
B(  7-C , 12-H ) :   1.1122 B(  7-C , 13-H ) :   0.8058 B(  8-N ,  9-H ) :   1.0328
B(  8-N , 10-H ) :   1.1358

E(0)                                       ...   -305.291403049
E(0)                                       ...   -305.291403049
E(CORR)(strong-pairs)                      ...     -1.349525919
E(CORR)(weak-pairs)                        ...     -0.001623897
E(CORR)(corrected)                         ...     -1.351149816
E(TOT)                                     ...   -306.642552866
E(CCSD(T))                                 ...   -306.697656459
FINAL SINGLE POINT ENERGY      -306.697656458544

DIPOLE MOMENT
-------------
                                X             Y             Z
Electronic contribution:      4.72822      -0.22684      -1.04655
Nuclear contribution   :     -5.53036      -0.76734       0.96389
                        -----------------------------------------
Total Dipole Moment    :     -0.80214      -0.99419      -0.08266
                        -----------------------------------------
Magnitude (a.u.)       :      1.28011
Magnitude (Debye)      :      3.25378

Rotational constants in cm-1:     0.181901     0.044719     0.039941
Rotational constants in MHz :  5453.254735  1340.639344  1197.391002

                             ****ORCA TERMINATED NORMALLY****
TOTAL RUN TIME: 0 days 2 hours 25 minutes 3 seconds 90 msec
