                         Program Version 5.0.0 -  RELEASE  -
|  1> !DLPNO-CCSD(T) aug-cc-pVTZ aug-cc-pVTZ/C TightSCF TightPNO RIJCOSX def2/J
|  2> *xyz 0 1
|  3> C          1.63556       -1.67040       -5.29211
|  4> C          0.33848       -1.50091       -4.50540
|  5> N          2.48451       -0.50741       -5.14039
|  6> C         -0.68487       -0.52803       -5.09989
|  7> H          1.39834       -1.82924       -6.35259
|  8> H          2.15586       -2.56540       -4.93209
|  9> C          3.45115       -0.14953       -5.95259
| 10> N          3.92267        1.08956       -5.85071
| 11> C          3.96616       -1.00618       -6.86788
| 12> H          3.52139       -1.90647       -6.99527
| 13> H          4.44482       -0.62347       -7.67035
| 14> H          2.25200        0.24080       -4.49879
| 15> H          3.46428        1.64078       -5.13639
| 16> H          4.83447        1.31375       -6.22465
| 17> H          0.59489       -1.21158       -3.48231
| 18> H         -0.12653       -2.48766       -4.43418
| 19> H         -0.92267       -0.82721       -6.09931
| 20> H         -0.27317        0.45953       -5.11162
| 21> H         -1.57350       -0.53693       -4.50394
| 22> *
| 23>
| 24> %MaxCore 64000
| 25>
| 26> %pal nprocs 2
| 27> end
| 28>
| 29> %scf
| 30>   MaxIter 150
| 31> end
| 32>
| 33>
| 34>                          ****END OF INPUT****

CARTESIAN COORDINATES (ANGSTROEM)
---------------------------------
  C      1.635560   -1.670400   -5.292110
  C      0.338480   -1.500910   -4.505400
  N      2.484510   -0.507410   -5.140390
  C     -0.684870   -0.528030   -5.099890
  H      1.398340   -1.829240   -6.352590
  H      2.155860   -2.565400   -4.932090
  C      3.451150   -0.149530   -5.952590
  N      3.922670    1.089560   -5.850710
  C      3.966160   -1.006180   -6.867880
  H      3.521390   -1.906470   -6.995270
  H      4.444820   -0.623470   -7.670350
  H      2.252000    0.240800   -4.498790
  H      3.464280    1.640780   -5.136390
  H      4.834470    1.313750   -6.224650
  H      0.594890   -1.211580   -3.482310
  H     -0.126530   -2.487660   -4.434180
  H     -0.922670   -0.827210   -6.099310
  H     -0.273170    0.459530   -5.111620
  H     -1.573500   -0.536930   -4.503940

 Total Charge           Charge          ....    0
 Multiplicity           Mult            ....    1
 Number of Electrons    NEL             ....   56
 Basis Dimension        Dim             ....  598

ORBITAL ENERGIES
----------------

  NO   OCC          E(Eh)            E(eV)
   0   2.0000     -15.565685      -423.5638
   1   2.0000     -15.564075      -423.5200
   2   2.0000     -11.286791      -307.1292
   3   2.0000     -11.261687      -306.4461
   4   2.0000     -11.229735      -305.5766
   5   2.0000     -11.213518      -305.1353
   6   2.0000     -11.127497      -302.7946
   7   2.0000      -1.299087       -35.3500
   8   2.0000      -1.187116       -32.3031
   9   2.0000      -1.058740       -28.8098
  10   2.0000      -0.967149       -26.3175
  11   2.0000      -0.939630       -25.5686
  12   2.0000      -0.826499       -22.4902
  13   2.0000      -0.769525       -20.9398
  14   2.0000      -0.718991       -19.5647
  15   2.0000      -0.706431       -19.2230
  16   2.0000      -0.641244       -17.4491
  17   2.0000      -0.637854       -17.3569
  18   2.0000      -0.595092       -16.1933
  19   2.0000      -0.581270       -15.8172
  20   2.0000      -0.545913       -14.8551
  21   2.0000      -0.541348       -14.7308
  22   2.0000      -0.523173       -14.2363
  23   2.0000      -0.499086       -13.5808
  24   2.0000      -0.489364       -13.3163
  25   2.0000      -0.483612       -13.1598
  26   2.0000      -0.394245       -10.7280
  27   2.0000      -0.264813        -7.2059
  28   0.0000       0.024038         0.6541
  29   0.0000       0.032147         0.8748
  30   0.0000       0.037622         1.0237
  31   0.0000       0.039650         1.0789
  32   0.0000       0.049647         1.3510

MULLIKEN ATOMIC CHARGES
-----------------------
   0 C :   -0.231924
   1 C :   -0.476092
   2 N :   -0.010743
   3 C :   -0.940125
   4 H :    0.327658
   5 H :    0.269263
   6 C :    0.372067
   7 N :   -0.544566
   8 C :   -1.223959
   9 H :    0.420149
  10 H :    0.336348
  11 H :    0.110561
  12 H :    0.090775
  13 H :    0.136517
  14 H :    0.214394
  15 H :    0.248474
  16 H :    0.264893
  17 H :    0.318810
  18 H :    0.317502
Sum of atomic charges:    0.0000000

LOEWDIN ATOMIC CHARGES
----------------------
   0 C :    0.200579
   1 C :    0.278893
   2 N :    0.567589
   3 C :    0.610051
   4 H :   -0.142470
   5 H :   -0.129215
   6 C :   -0.459621
   7 N :    0.864095
   8 C :    0.552164
   9 H :   -0.334986
  10 H :   -0.318813
  11 H :   -0.285700
  12 H :   -0.295452
  13 H :   -0.262062
  14 H :   -0.147688
  15 H :   -0.147789
  16 H :   -0.180409
  17 H :   -0.186478
  18 H :   -0.182689

  Mayer bond orders larger than 0.100000
B(  0-C ,  1-C ) :   0.8623 B(  0-C ,  2-N ) :   0.7533 B(  0-C ,  4-H ) :   0.9061
B(  0-C ,  5-H ) :   0.9671 B(  0-C ,  6-C ) :  -0.1124 B(  1-C ,  3-C ) :   0.8334
B(  1-C , 14-H ) :   0.9844 B(  1-C , 15-H ) :   1.0067 B(  2-N ,  6-C ) :   0.7308
B(  2-N ,  7-N ) :  -0.2246 B(  2-N ,  8-C ) :  -0.1675 B(  2-N , 11-H ) :   1.0735
B(  3-C , 16-H ) :   0.9664 B(  3-C , 17-H ) :   0.9071 B(  3-C , 18-H ) :   0.9503
B(  6-C ,  7-N ) :   1.0263 B(  6-C ,  8-C ) :   1.1717 B(  7-N ,  8-C ) :  -0.2000
B(  7-N , 12-H ) :   1.1386 B(  7-N , 13-H ) :   1.0868 B(  8-C ,  9-H ) :   0.8521
B(  8-C , 10-H ) :   1.0032

E(0)                                       ...   -305.291722804
E(0)                                       ...   -305.291722804
E(CORR)(strong-pairs)                      ...     -1.350191516
E(CORR)(weak-pairs)                        ...     -0.001626426
E(CORR)(corrected)                         ...     -1.351817941
E(TOT)                                     ...   -306.643540746
E(CCSD(T))                                 ...   -306.698859179
FINAL SINGLE POINT ENERGY      -306.698859178656

DIPOLE MOMENT
-------------
                                X             Y             Z
Electronic contribution:      4.76829       1.94920       0.06429
Nuclear contribution   :     -5.52083      -1.22643       0.74108
                        -----------------------------------------
Total Dipole Moment    :     -0.75254       0.72277       0.80537
                        -----------------------------------------
Magnitude (a.u.)       :      1.31808
Magnitude (Debye)      :      3.35030

Rotational constants in cm-1:     0.181479     0.044588     0.039739
Rotational constants in MHz :  5440.604457  1336.706831  1191.355312

                             ****ORCA TERMINATED NORMALLY****
TOTAL RUN TIME: 0 days 2 hours 22 minutes 54 seconds 968 msec
