                         Program Version 5.0.0 -  RELEASE  -
|  1> !DLPNO-CCSD(T) aug-cc-pVTZ aug-cc-pVTZ/C TightSCF TightPNO RIJCOSX def2/J
|  2>
|  3> *xyzfile 0 1 D2.xyz
|  4>
|  5> %MaxCore 64000
|  6>
|  7> %pal nprocs 18
|  8> end
|  9>
| 10> %scf
| 11>   MaxIter 150
| 12> end
| 13>
| 14>
| 15>                          ****END OF INPUT****

CARTESIAN COORDINATES (ANGSTROEM)
---------------------------------
  C      1.635557   -1.670396   -5.292109
  C      0.338484   -1.500907   -4.505398
  N      2.484511   -0.507410   -5.140392
  C     -0.684873   -0.528026   -5.099889
  C     -0.290406    0.951335   -5.153423
  H      0.607991    1.070692   -5.764412
  C     -0.055168    1.619420   -3.788577
  H     -1.080912    1.483775   -5.689436
  H      0.045006    0.862302   -3.003015
  H     -0.922936    2.230329   -3.517028
  C      1.223022    2.469865   -3.756911
  H      1.114701    3.258074   -4.532999
  H      1.237732    3.011242   -2.792157
  F      2.353815    1.712032   -3.934477
  H      1.398337   -1.829239   -6.352591
  H      2.155864   -2.565398   -4.932091
  C      3.451149   -0.149530   -5.952589
  C      3.922667    1.089559   -5.850711
  N      3.966162   -1.006183   -6.867880
  H      3.521391   -1.906467   -6.995270
  H      4.444824   -0.623472   -7.670348
  H      2.251995    0.240804   -4.498792
  H      3.464277    1.640782   -5.136392
  H      4.834470    1.313745   -6.224653
  H     -0.937999   -0.869056   -6.110838
  H     -1.604638   -0.622496   -4.513132
  H      0.594887   -1.211578   -3.482312
  H     -0.126530   -2.487656   -4.434176

 Total Charge           Charge          ....    0
 Multiplicity           Mult            ....    1
 Number of Electrons    NEL             ....   88
 Basis Dimension        Dim             ....  897

ORBITAL ENERGIES
----------------

  NO   OCC          E(Eh)            E(eV)
   0   2.0000     -26.308294      -715.8851
   1   2.0000     -15.545688      -423.0197
   2   2.0000     -15.529301      -422.5738
   3   2.0000     -11.322026      -308.0880
   4   2.0000     -11.264758      -306.5296
   5   2.0000     -11.256547      -306.3062
   6   2.0000     -11.239219      -305.8347
   7   2.0000     -11.227566      -305.5176
   8   2.0000     -11.226939      -305.5006
   9   2.0000     -11.224716      -305.4400
  10   2.0000     -11.097819      -301.9870
  11   2.0000      -1.634133       -44.4670
  12   2.0000      -1.270806       -34.5804
  13   2.0000      -1.165579       -31.7170
  14   2.0000      -1.098178       -29.8829
  15   2.0000      -1.046262       -28.4702
  16   2.0000      -0.996047       -27.1038
  17   2.0000      -0.937715       -25.5165
  18   2.0000      -0.887554       -24.1516
  19   2.0000      -0.846392       -23.0315
  20   2.0000      -0.791626       -21.5412
  21   2.0000      -0.776228       -21.1222
  22   2.0000      -0.745737       -20.2925
  23   2.0000      -0.725270       -19.7356
  24   2.0000      -0.702808       -19.1244
  25   2.0000      -0.691566       -18.8185
  26   2.0000      -0.659769       -17.9532
  27   2.0000      -0.647007       -17.6060
  28   2.0000      -0.617124       -16.7928
  29   2.0000      -0.607875       -16.5411
  30   2.0000      -0.588068       -16.0022
  31   2.0000      -0.579240       -15.7619
  32   2.0000      -0.559039       -15.2122
  33   2.0000      -0.540211       -14.6999
  34   2.0000      -0.519311       -14.1312
  35   2.0000      -0.513486       -13.9727
  36   2.0000      -0.502286       -13.6679
  37   2.0000      -0.499592       -13.5946
  38   2.0000      -0.484032       -13.1712
  39   2.0000      -0.465941       -12.6789
  40   2.0000      -0.460626       -12.5343
  41   2.0000      -0.457569       -12.4511
  42   2.0000      -0.382297       -10.4028
  43   2.0000      -0.241756        -6.5785
  44   0.0000       0.024066         0.6549
  45   0.0000       0.029147         0.7931
  46   0.0000       0.033491         0.9113
  47   0.0000       0.035186         0.9574
  48   0.0000       0.045490         1.2378

MULLIKEN ATOMIC CHARGES
-----------------------
   0 C :   -0.604600
   1 C :   -0.412957
   2 N :    0.083642
   3 C :   -0.511103
   4 C :   -0.421403
   5 H :    0.159863
   6 C :   -0.554162
   7 H :    0.428909
   8 H :    0.266626
   9 H :    0.282331
  10 C :   -0.386353
  11 H :    0.293441
  12 H :    0.347959
  13 F :   -0.498215
  14 H :    0.259991
  15 H :    0.311047
  16 C :    0.285096
  17 C :   -1.504180
  18 N :   -0.631407
  19 H :    0.077033
  20 H :    0.075953
  21 H :    0.811720
  22 H :    0.788175
  23 H :    0.196843
  24 H :    0.257181
  25 H :    0.173996
  26 H :    0.083008
  27 H :    0.341564
Sum of atomic charges:   -0.0000000

LOEWDIN ATOMIC CHARGES
----------------------
   0 C :    0.211093
   1 C :    0.301120
   2 N :    0.577492
   3 C :    0.303821
   4 C :    0.297601
   5 H :   -0.173393
   6 C :    0.297823
   7 H :   -0.140249
   8 H :   -0.166788
   9 H :   -0.136517
  10 C :    0.016164
  11 H :   -0.135637
  12 H :   -0.150387
  13 F :    0.750148
  14 H :   -0.141895
  15 H :   -0.134741
  16 C :   -0.431177
  17 C :    0.546069
  18 N :    0.869405
  19 H :   -0.311366
  20 H :   -0.278860
  21 H :   -0.560081
  22 H :   -0.532663
  23 H :   -0.302351
  24 H :   -0.139193
  25 H :   -0.141839
  26 H :   -0.152216
  27 H :   -0.141382

  Mayer bond orders larger than 0.100000
B(  0-C ,  1-C ) :   0.8569 B(  0-C ,  2-N ) :   0.9600 B(  0-C , 14-H ) :   0.9903
B(  0-C , 15-H ) :   0.9510 B(  0-C , 16-C ) :  -0.2273 B(  1-C ,  3-C ) :   0.8236
B(  1-C , 26-H ) :   1.1586 B(  1-C , 27-H ) :   0.8617 B(  2-N , 13-F ) :  -0.1382
B(  2-N , 16-C ) :   0.7920 B(  2-N , 17-C ) :  -0.2032 B(  2-N , 18-N ) :  -0.1889
B(  2-N , 21-H ) :   0.4901 B(  3-C ,  4-C ) :   0.8234 B(  3-C ,  5-H ) :   0.1111
B(  3-C , 24-H ) :   0.9588 B(  3-C , 25-H ) :   1.0618 B(  4-C ,  5-H ) :   1.0797
B(  4-C ,  6-C ) :   0.8069 B(  4-C ,  7-H ) :   0.8107 B(  6-C ,  8-H ) :   0.9516
B(  6-C ,  9-H ) :   0.9396 B(  6-C , 10-C ) :   1.0055 B( 10-C , 11-H ) :   0.9349
B( 10-C , 12-H ) :   0.9119 B( 10-C , 13-F ) :   0.8758 B( 13-F , 21-H ) :  -0.3172
B( 16-C , 17-C ) :   1.3184 B( 16-C , 18-N ) :   0.7126 B( 16-C , 21-H ) :  -0.2885
B( 17-C , 18-N ) :  -0.2701 B( 17-C , 21-H ) :  -0.1246 B( 17-C , 22-H ) :   0.3044
B( 17-C , 23-H ) :   1.2943 B( 18-N , 19-H ) :   1.1430 B( 18-N , 20-H ) :   1.1485

E(0)                                       ...   -521.280235008
E(0)                                       ...   -521.280235008
E(CORR)(strong-pairs)                      ...     -2.163621104
E(CORR)(weak-pairs)                        ...     -0.003343729
E(CORR)(corrected)                         ...     -2.166964833
E(TOT)                                     ...   -523.447199840
E(CCSD(T))                                 ...   -523.534796808
FINAL SINGLE POINT ENERGY      -523.534796807941

DIPOLE MOMENT
-------------
                                X             Y             Z
Electronic contribution:      6.26994       2.41903       1.73644
Nuclear contribution   :     -7.85451      -2.70006      -1.48294
                        -----------------------------------------
Total Dipole Moment    :     -1.58457      -0.28104       0.25349
                        -----------------------------------------
Magnitude (a.u.)       :      1.62914
Magnitude (Debye)      :      4.14094

Rotational constants in cm-1:     0.044065     0.029250     0.019826
Rotational constants in MHz :  1321.026981   876.903192   594.367265

                             ****ORCA TERMINATED NORMALLY****
TOTAL RUN TIME: 0 days 3 hours 3 minutes 55 seconds 623 msec
