                         Program Version 5.0.0 -  RELEASE  -
|  1> !B3LYP D3BJ RIJCOSX def2-TZVPD def2/J TightSCF
|  2> *xyz -1 1
|  3> C          0.13297        2.38587       -4.02462
|  4> C         -1.36646        2.47911       -4.31393
|  5> C         -2.35773        2.30686       -3.13675
|  6> H         -1.63680        1.72709       -5.06399
|  7> H         -1.58235        3.44561       -4.76869
|  8> O         -3.44376        2.84652       -3.25274
|  9> O         -1.97092        1.58304       -2.15123
| 10> H          0.68084        2.52514       -4.93310
| 11> H          0.35823        1.42282       -3.61633
| 12> H          0.40851        3.14443       -3.32208
| 13> *
| 14> %MaxCore 64000
| 15>
| 16> %pal nprocs 4
| 17> end
| 18>
| 19> %scf
| 20>   MaxIter 150
| 21> end
| 22>
| 23>
| 24>                          ****END OF INPUT****

CARTESIAN COORDINATES (ANGSTROEM)
---------------------------------
  C      0.132970    2.385870   -4.024620
  C     -1.366460    2.479110   -4.313930
  C     -2.357730    2.306860   -3.136750
  H     -1.636800    1.727090   -5.063990
  H     -1.582350    3.445610   -4.768690
  O     -3.443760    2.846520   -3.252740
  O     -1.970920    1.583040   -2.151230
  H      0.680840    2.525140   -4.933100
  H      0.358230    1.422820   -3.616330
  H      0.408510    3.144430   -3.322080

 Total Charge           Charge          ....   -1
 Multiplicity           Mult            ....    1
 Number of Electrons    NEL             ....   40
 Basis Dimension        Dim             ....  236

ORBITAL ENERGIES
----------------

  NO   OCC          E(Eh)            E(eV)
   0   2.0000     -18.866758      -513.3906
   1   2.0000     -18.857336      -513.1342
   2   2.0000     -10.052016      -273.5292
   3   2.0000     -10.001382      -272.1515
   4   2.0000      -9.993875      -271.9472
   5   2.0000      -0.827979       -22.5304
   6   2.0000      -0.728831       -19.8325
   7   2.0000      -0.601451       -16.3663
   8   2.0000      -0.472103       -12.8466
   9   2.0000      -0.314707        -8.5636
  10   2.0000      -0.292811        -7.9678
  11   2.0000      -0.261058        -7.1038
  12   2.0000      -0.228377        -6.2145
  13   2.0000      -0.215211        -5.8562
  14   2.0000      -0.209205        -5.6928
  15   2.0000      -0.179633        -4.8880
  16   2.0000      -0.162085        -4.4106
  17   2.0000      -0.050589        -1.3766
  18   2.0000      -0.042813        -1.1650
  19   2.0000      -0.030003        -0.8164
  20   0.0000       0.132792         3.6135
  21   0.0000       0.158162         4.3038
  22   0.0000       0.173590         4.7236
  23   0.0000       0.184053         5.0083
  24   0.0000       0.203114         5.5270

MULLIKEN ATOMIC CHARGES
-----------------------
   0 C :   -0.930241
   1 C :   -0.069691
   2 C :    0.340981
   3 H :    0.151065
   4 H :    0.196136
   5 O :   -0.684890
   6 O :   -0.754793
   7 H :    0.289395
   8 H :    0.223818
   9 H :    0.238221
Sum of atomic charges:   -1.0000000

LOEWDIN ATOMIC CHARGES
----------------------
   0 C :   -0.136516
   1 C :   -0.204662
   2 C :   -0.775534
   3 H :    0.091833
   4 H :    0.081627
   5 O :   -0.069918
   6 O :   -0.129816
   7 H :    0.038279
   8 H :    0.050172
   9 H :    0.054535

  Mayer bond orders larger than 0.100000
B(  0-C ,  1-C ) :   0.5982 B(  0-C ,  7-H ) :   0.9578 B(  0-C ,  8-H ) :   1.0298
B(  0-C ,  9-H ) :   0.9949 B(  1-C ,  2-C ) :   0.9435 B(  1-C ,  3-H ) :   0.9613
B(  1-C ,  4-H ) :   1.0041 B(  2-C ,  5-O ) :   1.4961 B(  2-C ,  6-O ) :   1.4304

Dispersion correction           -0.010839796
FINAL SINGLE POINT ENERGY      -267.815966966722

DIPOLE MOMENT
-------------
                                X             Y             Z
Electronic contribution:     -5.27553      -0.37364       3.21694
Nuclear contribution   :      6.75610       0.63068      -4.53972
                        -----------------------------------------
Total Dipole Moment    :      1.48057       0.25704      -1.32278
                        -----------------------------------------
Magnitude (a.u.)       :      2.00198
Magnitude (Debye)      :      5.08863

Rotational constants in cm-1:     0.335096     0.130241     0.099025
Rotational constants in MHz : 10045.924902  3904.536250  2968.708333

                             ****ORCA TERMINATED NORMALLY****
TOTAL RUN TIME: 0 days 0 hours 0 minutes 31 seconds 760 msec
