                         Program Version 5.0.0 -  RELEASE  -
|  1> !B3LYP D3BJ RIJCOSX def2-TZVPD def2/J TightSCF
|  2> *xyz 1 1
|  3> C          0.64866        1.00359       -3.64560
|  4> N          0.28128        0.67645       -2.24018
|  5> C          0.13297        2.38587       -4.02462
|  6> H          0.39079       -0.31925       -2.02649
|  7> H         -0.69269        0.99010       -2.13812
|  8> H          0.85421        1.21221       -1.57528
|  9> H          0.19099        0.23965       -4.27575
| 10> H          1.73157        0.93173       -3.75075
| 11> H          0.40589        2.60338       -5.03610
| 12> H          0.56342        3.11797       -3.37374
| 13> H         -0.93265        2.40724       -3.93025
| 14> *
| 15> %MaxCore 64000
| 16>
| 17> %pal nprocs 4
| 18> end
| 19>
| 20> %scf
| 21>   MaxIter 150
| 22> end
| 23>
| 24>
| 25>                          ****END OF INPUT****

CARTESIAN COORDINATES (ANGSTROEM)
---------------------------------
  C      0.648660    1.003590   -3.645600
  N      0.281280    0.676450   -2.240180
  C      0.132970    2.385870   -4.024620
  H      0.390790   -0.319250   -2.026490
  H     -0.692690    0.990100   -2.138120
  H      0.854210    1.212210   -1.575280
  H      0.190990    0.239650   -4.275750
  H      1.731570    0.931730   -3.750750
  H      0.405890    2.603380   -5.036100
  H      0.563420    3.117970   -3.373740
  H     -0.932650    2.407240   -3.930250

 Total Charge           Charge          ....    1
 Multiplicity           Mult            ....    1
 Number of Electrons    NEL             ....   26
 Basis Dimension        Dim             ....  183

ORBITAL ENERGIES
----------------

  NO   OCC          E(Eh)            E(eV)
   0   2.0000     -14.649511      -398.6335
   1   2.0000     -10.422919      -283.6220
   2   2.0000     -10.345415      -281.5130
   3   2.0000      -1.216902       -33.1136
   4   2.0000      -0.965866       -26.2826
   5   2.0000      -0.845388       -23.0042
   6   2.0000      -0.800726       -21.7888
   7   2.0000      -0.793684       -21.5972
   8   2.0000      -0.695008       -18.9121
   9   2.0000      -0.643217       -17.5028
  10   2.0000      -0.585850       -15.9418
  11   2.0000      -0.572344       -15.5743
  12   2.0000      -0.555372       -15.1124
  13   0.0000      -0.202592        -5.5128
  14   0.0000      -0.142783        -3.8853
  15   0.0000      -0.140041        -3.8107
  16   0.0000      -0.134693        -3.6652
  17   0.0000      -0.101792        -2.7699

MULLIKEN ATOMIC CHARGES
-----------------------
   0 C :   -0.269557
   1 N :   -0.245940
   2 C :   -1.096237
   3 H :    0.330796
   4 H :    0.314215
   5 H :    0.330450
   6 H :    0.291661
   7 H :    0.301619
   8 H :    0.304174
   9 H :    0.353088
  10 H :    0.385731
Sum of atomic charges:    1.0000000

LOEWDIN ATOMIC CHARGES
----------------------
   0 C :   -0.196525
   1 N :    0.185729
   2 C :   -0.049530
   3 H :    0.179484
   4 H :    0.174292
   5 H :    0.181209
   6 H :    0.134285
   7 H :    0.134779
   8 H :    0.092352
   9 H :    0.082455
  10 H :    0.081471

  Mayer bond orders larger than 0.100000
B(  0-C ,  1-N ) :   0.9298 B(  0-C ,  2-C ) :   0.6278 B(  0-C ,  6-H ) :   0.9343
B(  0-C ,  7-H ) :   0.9361 B(  1-N ,  3-H ) :   0.8751 B(  1-N ,  4-H ) :   0.8776
B(  1-N ,  5-H ) :   0.8769 B(  2-C ,  8-H ) :   0.9911 B(  2-C ,  9-H ) :   0.9350
B(  2-C , 10-H ) :   0.8886

Dispersion correction           -0.010093854
FINAL SINGLE POINT ENERGY      -135.505679882373

DIPOLE MOMENT
-------------
                                X             Y             Z
Electronic contribution:      0.17190      -1.29261       1.30452
Nuclear contribution   :     -0.22655       0.48066      -0.09136
                        -----------------------------------------
Total Dipole Moment    :     -0.05464      -0.81195       1.21316
                        -----------------------------------------
Magnitude (a.u.)       :      1.46083
Magnitude (Debye)      :      3.71312

Rotational constants in cm-1:     0.998155     0.284845     0.251232
Rotational constants in MHz : 29923.943568  8539.431565  7531.732866

                             ****ORCA TERMINATED NORMALLY****
TOTAL RUN TIME: 0 days 0 hours 0 minutes 18 seconds 166 msec
