                         Program Version 5.0.0 -  RELEASE  -
|  1> !B3LYP D3BJ RIJCOSX def2-TZVPD def2/J TightSCF xyzfile
|  2>
|  3> *xyzfile 0 1 B.xyz
|  4>
|  5> %MaxCore 64000
|  6>
|  7> %pal nprocs 4
|  8> end
|  9>
| 10> %scf
| 11>   MaxIter 150
| 12> end
| 13>
| 14>
| 15>                          ****END OF INPUT****

CARTESIAN COORDINATES (ANGSTROEM)
---------------------------------
  C      0.648656    1.003595   -3.645601
  N      0.281280    0.676454   -2.240179
  C      0.132968    2.385869   -4.024618
  C     -1.366462    2.479106   -4.313932
  C     -2.357732    2.306858   -3.136753
  H     -1.636802    1.727095   -5.063993
  H     -1.582347    3.445605   -4.768687
  H      0.390790   -0.319253   -2.026495
  H     -0.692686    0.990104   -2.138123
  H      0.854206    1.212214   -1.575279
  O     -3.443763    2.846518   -3.252744
  O     -1.970922    1.583042   -2.151229
  H      0.190993    0.239655   -4.275752
  H      1.731572    0.931729   -3.750751
  H      0.414839    3.102847   -3.245165
  H      0.683167    2.687560   -4.919721

 Total Charge           Charge          ....    0
 Multiplicity           Mult            ....    1
 Number of Electrons    NEL             ....   56
 Basis Dimension        Dim             ....  346

ORBITAL ENERGIES
----------------

  NO   OCC          E(Eh)            E(eV)
   0   2.0000     -19.052993      -518.4583
   1   2.0000     -19.032175      -517.8918
   2   2.0000     -14.425600      -392.5405
   3   2.0000     -10.257421      -279.1186
   4   2.0000     -10.230026      -278.3732
   5   2.0000     -10.197369      -277.4845
   6   2.0000     -10.159759      -276.4611
   7   2.0000      -1.022387       -27.8206
   8   2.0000      -1.000670       -27.2296
   9   2.0000      -0.920568       -25.0499
  10   2.0000      -0.811867       -22.0920
  11   2.0000      -0.717033       -19.5115
  12   2.0000      -0.638064       -17.3626
  13   2.0000      -0.604644       -16.4532
  14   2.0000      -0.594905       -16.1882
  15   2.0000      -0.524080       -14.2609
  16   2.0000      -0.483157       -13.1474
  17   2.0000      -0.479599       -13.0505
  18   2.0000      -0.437554       -11.9064
  19   2.0000      -0.424450       -11.5499
  20   2.0000      -0.390109       -10.6154
  21   2.0000      -0.386734       -10.5236
  22   2.0000      -0.378713       -10.3053
  23   2.0000      -0.359714        -9.7883
  24   2.0000      -0.336568        -9.1585
  25   2.0000      -0.235518        -6.4088
  26   2.0000      -0.234601        -6.3838
  27   2.0000      -0.204321        -5.5599
  28   0.0000      -0.043317        -1.1787
  29   0.0000      -0.004492        -0.1222
  30   0.0000      -0.001975        -0.0537
  31   0.0000       0.021349         0.5809
  32   0.0000       0.036673         0.9979

MULLIKEN ATOMIC CHARGES
-----------------------
   0 C :   -0.510124
   1 N :   -0.155948
   2 C :   -0.209496
   3 C :   -0.420822
   4 C :    0.459667
   5 H :    0.202255
   6 H :    0.193448
   7 H :    0.298328
   8 H :    0.291922
   9 H :    0.316367
  10 O :   -0.623279
  11 O :   -0.797487
  12 H :    0.286177
  13 H :    0.256053
  14 H :    0.200876
  15 H :    0.212063
Sum of atomic charges:    0.0000000

LOEWDIN ATOMIC CHARGES
----------------------
   0 C :   -0.164668
   1 N :    0.147497
   2 C :   -0.186684
   3 C :   -0.113999
   4 C :   -0.666766
   5 H :    0.116031
   6 H :    0.109522
   7 H :    0.160038
   8 H :   -0.005197
   9 H :    0.164206
  10 O :    0.023060
  11 O :   -0.060297
  12 H :    0.129079
  13 H :    0.116603
  14 H :    0.120499
  15 H :    0.111076

  Mayer bond orders larger than 0.100000
B(  0-C ,  1-N ) :   0.9592 B(  0-C ,  2-C ) :   0.7937 B(  0-C , 12-H ) :   0.9228
B(  0-C , 13-H ) :   0.9766 B(  1-N ,  7-H ) :   0.8841 B(  1-N ,  8-H ) :   0.8037
B(  1-N ,  9-H ) :   0.8674 B(  2-C ,  3-C ) :   0.8055 B(  2-C , 14-H ) :   0.9849
B(  2-C , 15-H ) :   1.0112 B(  3-C ,  4-C ) :   0.9971 B(  3-C ,  5-H ) :   0.9464
B(  3-C ,  6-H ) :   1.0255 B(  4-C , 10-O ) :   1.5541 B(  4-C , 11-O ) :   1.2407
B(  8-H , 11-O ) :   0.1597

Dispersion correction           -0.022616319
FINAL SINGLE POINT ENERGY      -363.004010583850

DIPOLE MOMENT
-------------
                                X             Y             Z
Electronic contribution:     -5.84186       0.94962       2.53213
Nuclear contribution   :      9.92875      -2.62114      -2.63866
                        -----------------------------------------
Total Dipole Moment    :      4.08689      -1.67152      -0.10653
                        -----------------------------------------
Magnitude (a.u.)       :      4.41679
Magnitude (Debye)      :     11.22658

Rotational constants in cm-1:     0.159108     0.062474     0.047603
Rotational constants in MHz :  4769.938632  1872.932224  1427.103830

                             ****ORCA TERMINATED NORMALLY****
TOTAL RUN TIME: 0 days 0 hours 1 minutes 11 seconds 719 msec
