                         Program Version 5.0.0 -  RELEASE  -
|  1> !B3LYP D3BJ RIJCOSX def2-TZVPD def2/J TightSCF
|  2> *xyz 0 1
|  3> C          0.13297        2.38587       -4.02462
|  4> C         -1.36646        2.47911       -4.31393
|  5> C         -2.35773        2.30686       -3.13675
|  6> H         -1.63680        1.72709       -5.06399
|  7> H         -1.58235        3.44561       -4.76869
|  8> F         -3.44376        2.84652       -3.25274
|  9> O         -1.97092        1.58304       -2.15123
| 10> H          0.68084        2.52514       -4.93310
| 11> H          0.35823        1.42282       -3.61633
| 12> H          0.40851        3.14443       -3.32208
| 13> *
| 14> %MaxCore 64000
| 15>
| 16> %pal nprocs 4
| 17> end
| 18>
| 19> %scf
| 20>   MaxIter 150
| 21> end
| 22>
| 23>
| 24>                          ****END OF INPUT****

CARTESIAN COORDINATES (ANGSTROEM)
---------------------------------
  C      0.132970    2.385870   -4.024620
  C     -1.366460    2.479110   -4.313930
  C     -2.357730    2.306860   -3.136750
  H     -1.636800    1.727090   -5.063990
  H     -1.582350    3.445610   -4.768690
  F     -3.443760    2.846520   -3.252740
  O     -1.970920    1.583040   -2.151230
  H      0.680840    2.525140   -4.933100
  H      0.358230    1.422820   -3.616330
  H      0.408510    3.144430   -3.322080

 Total Charge           Charge          ....    0
 Multiplicity           Mult            ....    1
 Number of Electrons    NEL             ....   40
 Basis Dimension        Dim             ....  236

ORBITAL ENERGIES
----------------

  NO   OCC          E(Eh)            E(eV)
   0   2.0000     -24.767020      -673.9449
   1   2.0000     -19.128267      -520.5066
   2   2.0000     -10.352370      -281.7023
   3   2.0000     -10.202515      -277.6246
   4   2.0000     -10.168721      -276.7050
   5   2.0000      -1.349639       -36.7255
   6   2.0000      -1.017559       -27.6892
   7   2.0000      -0.796593       -21.6764
   8   2.0000      -0.700853       -19.0712
   9   2.0000      -0.647446       -17.6179
  10   2.0000      -0.566320       -15.4104
  11   2.0000      -0.548785       -14.9332
  12   2.0000      -0.507914       -13.8210
  13   2.0000      -0.467725       -12.7274
  14   2.0000      -0.431481       -11.7412
  15   2.0000      -0.393656       -10.7119
  16   2.0000      -0.375923       -10.2294
  17   2.0000      -0.373203       -10.1554
  18   2.0000      -0.343710        -9.3528
  19   2.0000      -0.288281        -7.8445
  20   0.0000      -0.033146        -0.9019
  21   0.0000       0.000087         0.0024
  22   0.0000       0.024991         0.6800
  23   0.0000       0.038358         1.0438
  24   0.0000       0.047871         1.3026

MULLIKEN ATOMIC CHARGES
-----------------------
   0 C :   -0.991309
   1 C :   -0.152802
   2 C :    0.526085
   3 H :    0.233721
   4 H :    0.260409
   5 F :   -0.201515
   6 O :   -0.518348
   7 H :    0.300254
   8 H :    0.265926
   9 H :    0.277578
Sum of atomic charges:   -0.0000000

LOEWDIN ATOMIC CHARGES
----------------------
   0 C :   -0.087541
   1 C :   -0.153989
   2 C :   -0.493074
   3 H :    0.119072
   4 H :    0.104696
   5 F :    0.249549
   6 O :    0.055258
   7 H :    0.066161
   8 H :    0.068533
   9 H :    0.071335

  Mayer bond orders larger than 0.100000
B(  0-C ,  1-C ) :   0.6875 B(  0-C ,  7-H ) :   0.9563 B(  0-C ,  8-H ) :   0.9979
B(  0-C ,  9-H ) :   0.9665 B(  1-C ,  2-C ) :   0.9334 B(  1-C ,  3-H ) :   0.9269
B(  1-C ,  4-H ) :   0.9531 B(  2-C ,  5-F ) :   1.0377 B(  2-C ,  6-O ) :   1.7231

Dispersion correction           -0.010289897
FINAL SINGLE POINT ENERGY      -292.370494200934

DIPOLE MOMENT
-------------
                                X             Y             Z
Electronic contribution:     -8.36997       0.47382       3.57526
Nuclear contribution   :      8.54799       0.05434      -4.66633
                        -----------------------------------------
Total Dipole Moment    :      0.17801       0.52816      -1.09106
                        -----------------------------------------
Magnitude (a.u.)       :      1.22517
Magnitude (Debye)      :      3.11415

Rotational constants in cm-1:     0.325803     0.123345     0.094275
Rotational constants in MHz :  9767.324172  3697.779805  2826.305733

                             ****ORCA TERMINATED NORMALLY****
TOTAL RUN TIME: 0 days 0 hours 0 minutes 28 seconds 180 msec
