                         Program Version 5.0.0 -  RELEASE  -
|  1> !B3LYP D3BJ RIJCOSX def2-TZVPD def2/J TightSCF
|  2> *xyz 0 1
|  3> C          0.64866        1.00359       -3.64560
|  4> C          0.28128        0.67645       -2.24018
|  5> C          0.13297        2.38587       -4.02462
|  6> H          0.39079       -0.31925       -2.02649
|  7> H         -0.69269        0.99010       -2.13812
|  8> H          0.85421        1.21221       -1.57528
|  9> H          0.19099        0.23965       -4.27575
| 10> H          1.73157        0.93173       -3.75075
| 11> H          0.40589        2.60338       -5.03610
| 12> H          0.56342        3.11797       -3.37374
| 13> H         -0.93265        2.40724       -3.93025
| 14> *
| 15> %MaxCore 64000
| 16>
| 17> %pal nprocs 4
| 18> end
| 19>
| 20> %scf
| 21>   MaxIter 150
| 22> end
| 23>
| 24>
| 25>                          ****END OF INPUT****

CARTESIAN COORDINATES (ANGSTROEM)
---------------------------------
  C      0.648660    1.003590   -3.645600
  C      0.281280    0.676450   -2.240180
  C      0.132970    2.385870   -4.024620
  H      0.390790   -0.319250   -2.026490
  H     -0.692690    0.990100   -2.138120
  H      0.854210    1.212210   -1.575280
  H      0.190990    0.239650   -4.275750
  H      1.731570    0.931730   -3.750750
  H      0.405890    2.603380   -5.036100
  H      0.563420    3.117970   -3.373740
  H     -0.932650    2.407240   -3.930250

 Total Charge           Charge          ....    0
 Multiplicity           Mult            ....    1
 Number of Electrons    NEL             ....   26
 Basis Dimension        Dim             ....  183

ORBITAL ENERGIES
----------------

  NO   OCC          E(Eh)            E(eV)
   0   2.0000     -10.153321      -276.2859
   1   2.0000     -10.145255      -276.0664
   2   2.0000     -10.126287      -275.5503
   3   2.0000      -0.791585       -21.5401
   4   2.0000      -0.687894       -18.7185
   5   2.0000      -0.584812       -15.9135
   6   2.0000      -0.467510       -12.7216
   7   2.0000      -0.449114       -12.2210
   8   2.0000      -0.402164       -10.9434
   9   2.0000      -0.386857       -10.5269
  10   2.0000      -0.338121        -9.2007
  11   2.0000      -0.334528        -9.1030
  12   2.0000      -0.327984        -8.9249
  13   0.0000       0.013130         0.3573
  14   0.0000       0.036760         1.0003
  15   0.0000       0.039610         1.0779
  16   0.0000       0.059351         1.6150
  17   0.0000       0.080534         2.1914

MULLIKEN ATOMIC CHARGES
-----------------------
   0 C :    0.083699
   1 C :   -1.236293
   2 C :   -1.074245
   3 H :    0.315013
   4 H :    0.310299
   5 H :    0.339376
   6 H :    0.202223
   7 H :    0.206293
   8 H :    0.269736
   9 H :    0.287586
  10 H :    0.296315
Sum of atomic charges:   -0.0000000

LOEWDIN ATOMIC CHARGES
----------------------
   0 C :   -0.313534
   1 C :   -0.121437
   2 C :   -0.112242
   3 H :    0.049899
   4 H :    0.051284
   5 H :    0.054755
   6 H :    0.101025
   7 H :    0.100879
   8 H :    0.059212
   9 H :    0.066085
  10 H :    0.064072

  Mayer bond orders larger than 0.100000
B(  0-C ,  1-C ) :   0.5751 B(  0-C ,  2-C ) :   0.6203 B(  0-C ,  6-H ) :   0.9915
B(  0-C ,  7-H ) :   0.9723 B(  1-C ,  2-C ) :   0.1283 B(  1-C ,  3-H ) :   0.9563
B(  1-C ,  4-H ) :   0.9735 B(  1-C ,  5-H ) :   0.9526 B(  2-C ,  8-H ) :   0.9957
B(  2-C ,  9-H ) :   0.9845 B(  2-C , 10-H ) :   0.9753

Dispersion correction           -0.010170709
FINAL SINGLE POINT ENERGY      -119.094127234002

DIPOLE MOMENT
-------------
                                X             Y             Z
Electronic contribution:      0.26007      -0.28162      -0.24429
Nuclear contribution   :     -0.24754       0.26111       0.24628
                        -----------------------------------------
Total Dipole Moment    :      0.01253      -0.02050       0.00198
                        -----------------------------------------
Magnitude (a.u.)       :      0.02411
Magnitude (Debye)      :      0.06129

Rotational constants in cm-1:     1.006509     0.299509     0.263145
Rotational constants in MHz : 30174.379724  8979.049324  7888.875355

                             ****ORCA TERMINATED NORMALLY****
TOTAL RUN TIME: 0 days 0 hours 0 minutes 19 seconds 7 msec
