                         Program Version 5.0.0 -  RELEASE  -
|  1> !B3LYP D3BJ RIJCOSX def2-TZVPD def2/J TightSCF
|  2> *xyz 0 1
|  3> C          0.13297        2.38587       -4.02462
|  4> C         -1.36646        2.47911       -4.31393
|  5> C         -2.35773        2.30686       -3.13675
|  6> H         -1.63680        1.72709       -5.06399
|  7> H         -1.58235        3.44561       -4.76869
|  8> O         -3.44376        2.84652       -3.25274
|  9> F         -1.97092        1.58304       -2.15123
| 10> H          0.68084        2.52514       -4.93310
| 11> H          0.35823        1.42282       -3.61633
| 12> H          0.40851        3.14443       -3.32208
| 13> *
| 14> %MaxCore 64000
| 15>
| 16> %pal nprocs 4
| 17> end
| 18>
| 19> %scf
| 20>   MaxIter 150
| 21> end
| 22>
| 23>
| 24>                          ****END OF INPUT****

CARTESIAN COORDINATES (ANGSTROEM)
---------------------------------
  C      0.132970    2.385870   -4.024620
  C     -1.366460    2.479110   -4.313930
  C     -2.357730    2.306860   -3.136750
  H     -1.636800    1.727090   -5.063990
  H     -1.582350    3.445610   -4.768690
  O     -3.443760    2.846520   -3.252740
  F     -1.970920    1.583040   -2.151230
  H      0.680840    2.525140   -4.933100
  H      0.358230    1.422820   -3.616330
  H      0.408510    3.144430   -3.322080

 Total Charge           Charge          ....    0
 Multiplicity           Mult            ....    1
 Number of Electrons    NEL             ....   40
 Basis Dimension        Dim             ....  236

ORBITAL ENERGIES
----------------

  NO   OCC          E(Eh)            E(eV)
   0   2.0000     -24.743568      -673.3067
   1   2.0000     -19.137031      -520.7451
   2   2.0000     -10.346666      -281.5471
   3   2.0000     -10.200979      -277.5828
   4   2.0000     -10.173497      -276.8349
   5   2.0000      -1.301613       -35.4187
   6   2.0000      -1.057962       -28.7886
   7   2.0000      -0.798810       -21.7367
   8   2.0000      -0.682178       -18.5630
   9   2.0000      -0.638947       -17.3866
  10   2.0000      -0.540836       -14.7169
  11   2.0000      -0.535819       -14.5804
  12   2.0000      -0.498347       -13.5607
  13   2.0000      -0.467729       -12.7276
  14   2.0000      -0.434529       -11.8241
  15   2.0000      -0.407073       -11.0770
  16   2.0000      -0.391897       -10.6641
  17   2.0000      -0.376964       -10.2577
  18   2.0000      -0.356778        -9.7084
  19   2.0000      -0.299176        -8.1410
  20   0.0000      -0.028328        -0.7708
  21   0.0000      -0.001884        -0.0513
  22   0.0000       0.027826         0.7572
  23   0.0000       0.036102         0.9824
  24   0.0000       0.048219         1.3121

MULLIKEN ATOMIC CHARGES
-----------------------
   0 C :   -1.029365
   1 C :   -0.078274
   2 C :    0.450800
   3 H :    0.236320
   4 H :    0.237002
   5 O :   -0.458173
   6 F :   -0.230293
   7 H :    0.289868
   8 H :    0.282823
   9 H :    0.299291
Sum of atomic charges:    0.0000000

LOEWDIN ATOMIC CHARGES
----------------------
   0 C :   -0.094721
   1 C :   -0.146232
   2 C :   -0.484129
   3 H :    0.119861
   4 H :    0.112967
   5 O :    0.112479
   6 F :    0.179423
   7 H :    0.066089
   8 H :    0.064943
   9 H :    0.069321

  Mayer bond orders larger than 0.100000
B(  0-C ,  1-C ) :   0.6214 B(  0-C ,  7-H ) :   0.9829 B(  0-C ,  8-H ) :   0.9810
B(  0-C ,  9-H ) :   0.9651 B(  1-C ,  2-C ) :   0.9230 B(  1-C ,  3-H ) :   0.9203
B(  1-C ,  4-H ) :   0.9712 B(  2-C ,  5-O ) :   1.7911 B(  2-C ,  6-F ) :   1.0070

Dispersion correction           -0.010203597
FINAL SINGLE POINT ENERGY      -292.387773732042

DIPOLE MOMENT
-------------
                                X             Y             Z
Electronic contribution:     -5.89554      -1.62639       5.39027
Nuclear contribution   :      6.94213       1.43193      -5.86732
                        -----------------------------------------
Total Dipole Moment    :      1.04659      -0.19447      -0.47705
                        -----------------------------------------
Magnitude (a.u.)       :      1.16651
Magnitude (Debye)      :      2.96504

Rotational constants in cm-1:     0.306336     0.129048     0.095707
Rotational constants in MHz :  9183.725605  3868.769583  2869.236577

                             ****ORCA TERMINATED NORMALLY****
TOTAL RUN TIME: 0 days 0 hours 0 minutes 30 seconds 687 msec
