                         Program Version 5.0.0 -  RELEASE  -
|  1> !B3LYP D3BJ RIJCOSX def2-TZVPD def2/J TightSCF xyzfile
|  2>
|  3> *xyzfile 0 1 D1.xyz
|  4>
|  5> %MaxCore 64000
|  6>
|  7> %pal nprocs 4
|  8> end
|  9>
| 10> %scf
| 11>   MaxIter 150
| 12> end
| 13>
| 14>
| 15>                          ****END OF INPUT****

CARTESIAN COORDINATES (ANGSTROEM)
---------------------------------
  C      0.648656    1.003595   -3.645601
  C      0.281280    0.676454   -2.240179
  C      0.132968    2.385869   -4.024618
  C     -1.366462    2.479106   -4.313932
  C     -2.357732    2.306858   -3.136753
  H     -1.636802    1.727095   -5.063993
  H     -1.582347    3.445605   -4.768687
  H      0.390790   -0.319253   -2.026495
  H     -0.692686    0.990104   -2.138123
  H      0.854206    1.212214   -1.575279
  F     -3.443763    2.846518   -3.252744
  O     -1.970922    1.583042   -2.151229
  H      0.190993    0.239655   -4.275752
  H      1.731572    0.931729   -3.750751
  H      0.414839    3.102847   -3.245165
  H      0.683167    2.687560   -4.919721

 Total Charge           Charge          ....    0
 Multiplicity           Mult            ....    1
 Number of Electrons    NEL             ....   56
 Basis Dimension        Dim             ....  346

ORBITAL ENERGIES
----------------

  NO   OCC          E(Eh)            E(eV)
   0   2.0000     -24.777412      -674.2277
   1   2.0000     -19.136340      -520.7263
   2   2.0000     -10.367025      -282.1011
   3   2.0000     -10.207381      -277.7570
   4   2.0000     -10.176362      -276.9129
   5   2.0000     -10.147673      -276.1322
   6   2.0000     -10.076320      -274.1906
   7   2.0000      -1.359898       -37.0047
   8   2.0000      -1.041227       -28.3332
   9   2.0000      -0.815367       -22.1873
  10   2.0000      -0.757564       -20.6144
  11   2.0000      -0.692165       -18.8348
  12   2.0000      -0.658658       -17.9230
  13   2.0000      -0.583438       -15.8762
  14   2.0000      -0.573475       -15.6050
  15   2.0000      -0.559443       -15.2232
  16   2.0000      -0.526617       -14.3300
  17   2.0000      -0.481119       -13.0919
  18   2.0000      -0.451779       -12.2935
  19   2.0000      -0.435745       -11.8572
  20   2.0000      -0.410501       -11.1703
  21   2.0000      -0.383583       -10.4378
  22   2.0000      -0.378309       -10.2943
  23   2.0000      -0.357165        -9.7189
  24   2.0000      -0.342687        -9.3250
  25   2.0000      -0.321484        -8.7480
  26   2.0000      -0.312159        -8.4943
  27   2.0000      -0.247826        -6.7437
  28   0.0000      -0.046780        -1.2730
  29   0.0000      -0.001129        -0.0307
  30   0.0000       0.021743         0.5917
  31   0.0000       0.028176         0.7667
  32   0.0000       0.035109         0.9554

MULLIKEN ATOMIC CHARGES
-----------------------
   0 C :   -0.139555
   1 C :   -1.223938
   2 C :   -0.274787
   3 C :   -0.444136
   4 C :    0.577881
   5 H :    0.257615
   6 H :    0.245626
   7 H :    0.323648
   8 H :    0.355179
   9 H :    0.349750
  10 F :   -0.242287
  11 O :   -0.534409
  12 H :    0.227368
  13 H :    0.150808
  14 H :    0.196638
  15 H :    0.174600
Sum of atomic charges:   -0.0000000

LOEWDIN ATOMIC CHARGES
----------------------
   0 C :   -0.247169
   1 C :   -0.117451
   2 C :   -0.196826
   3 C :   -0.084600
   4 C :   -0.424913
   5 H :    0.128440
   6 H :    0.110955
   7 H :    0.054996
   8 H :   -0.054280
   9 H :    0.060732
  10 F :    0.265156
  11 O :    0.064953
  12 H :    0.108701
  13 H :    0.102586
  14 H :    0.121340
  15 H :    0.107381

  Mayer bond orders larger than 0.100000
B(  0-C ,  1-C ) :   0.6265 B(  0-C ,  2-C ) :   0.8267 B(  0-C ,  8-H ) :  -0.1033
B(  0-C , 12-H ) :   0.9663 B(  0-C , 13-H ) :   1.0220 B(  1-C ,  2-C ) :   0.1029
B(  1-C ,  7-H ) :   1.0288 B(  1-C ,  8-H ) :   1.0651 B(  1-C ,  9-H ) :   1.0335
B(  2-C ,  3-C ) :   0.8669 B(  2-C , 14-H ) :   0.9825 B(  2-C , 15-H ) :   1.0242
B(  3-C ,  4-C ) :   0.9209 B(  3-C ,  5-H ) :   0.9372 B(  3-C ,  6-H ) :   0.9771
B(  4-C , 10-F ) :   1.0053 B(  4-C , 11-O ) :   1.7169 B(  8-H , 11-O ) :  -0.2906

Dispersion correction           -0.022141557
FINAL SINGLE POINT ENERGY      -370.920663494615

DIPOLE MOMENT
-------------
                                X             Y             Z
Electronic contribution:    -12.99951       4.58041       1.42550
Nuclear contribution   :     12.79331      -3.91961      -2.45895
                        -----------------------------------------
Total Dipole Moment    :     -0.20619       0.66080      -1.03345
                        -----------------------------------------
Magnitude (a.u.)       :      1.24386
Magnitude (Debye)      :      3.16163

Rotational constants in cm-1:     0.162888     0.059977     0.046450
Rotational constants in MHz :  4883.250030  1798.063289  1392.548669

                             ****ORCA TERMINATED NORMALLY****
TOTAL RUN TIME: 0 days 0 hours 1 minutes 16 seconds 534 msec
