                         Program Version 5.0.0 -  RELEASE  -
|  1> !B3LYP D3BJ RIJCOSX def2-TZVPD def2/J TightSCF xyzfile
|  2>
|  3> *xyzfile 0 1 D2.xyz
|  4>
|  5> %MaxCore 64000
|  6>
|  7> %pal nprocs 4
|  8> end
|  9>
| 10> %scf
| 11>   MaxIter 150
| 12> end
| 13>
| 14>
| 15>                          ****END OF INPUT****

CARTESIAN COORDINATES (ANGSTROEM)
---------------------------------
  C      0.648656    1.003595   -3.645601
  C      0.281280    0.676454   -2.240179
  C      0.132968    2.385869   -4.024618
  C     -1.366462    2.479106   -4.313932
  C     -2.357732    2.306858   -3.136753
  H     -1.636802    1.727095   -5.063993
  H     -1.582347    3.445605   -4.768687
  H      0.390790   -0.319253   -2.026495
  H     -0.692686    0.990104   -2.138123
  H      0.854206    1.212214   -1.575279
  O     -3.443763    2.846518   -3.252744
  F     -1.970922    1.583042   -2.151229
  H      0.190993    0.239655   -4.275752
  H      1.731572    0.931729   -3.750751
  H      0.414839    3.102847   -3.245165
  H      0.683167    2.687560   -4.919721

 Total Charge           Charge          ....    0
 Multiplicity           Mult            ....    1
 Number of Electrons    NEL             ....   56
 Basis Dimension        Dim             ....  346

ORBITAL ENERGIES
----------------

  NO   OCC          E(Eh)            E(eV)
   0   2.0000     -24.754332      -673.5996
   1   2.0000     -19.144049      -520.9360
   2   2.0000     -10.354046      -281.7479
   3   2.0000     -10.203462      -277.6503
   4   2.0000     -10.179894      -277.0090
   5   2.0000     -10.161087      -276.4972
   6   2.0000     -10.107910      -275.0502
   7   2.0000      -1.323535       -36.0152
   8   2.0000      -1.065475       -28.9930
   9   2.0000      -0.823172       -22.3996
  10   2.0000      -0.764045       -20.7907
  11   2.0000      -0.680406       -18.5148
  12   2.0000      -0.676672       -18.4132
  13   2.0000      -0.585060       -15.9203
  14   2.0000      -0.562613       -15.3095
  15   2.0000      -0.551584       -15.0094
  16   2.0000      -0.508831       -13.8460
  17   2.0000      -0.472157       -12.8481
  18   2.0000      -0.453461       -12.3393
  19   2.0000      -0.448738       -12.2108
  20   2.0000      -0.422881       -11.5072
  21   2.0000      -0.392139       -10.6706
  22   2.0000      -0.385338       -10.4856
  23   2.0000      -0.366701        -9.9784
  24   2.0000      -0.338197        -9.2028
  25   2.0000      -0.333514        -9.0754
  26   2.0000      -0.325553        -8.8587
  27   2.0000      -0.293956        -7.9990
  28   0.0000      -0.035489        -0.9657
  29   0.0000       0.000562         0.0153
  30   0.0000       0.022919         0.6237
  31   0.0000       0.025286         0.6881
  32   0.0000       0.028665         0.7800

MULLIKEN ATOMIC CHARGES
-----------------------
   0 C :   -0.111696
   1 C :   -1.362871
   2 C :   -0.299360
   3 C :   -0.359154
   4 C :    0.488954
   5 H :    0.250688
   6 H :    0.217944
   7 H :    0.341033
   8 H :    0.444545
   9 H :    0.370170
  10 O :   -0.489909
  11 F :   -0.285703
  12 H :    0.238382
  13 H :    0.166500
  14 H :    0.210848
  15 H :    0.179629
Sum of atomic charges:   -0.0000000

LOEWDIN ATOMIC CHARGES
----------------------
   0 C :   -0.247539
   1 C :   -0.099847
   2 C :   -0.204269
   3 C :   -0.083559
   4 C :   -0.446871
   5 H :    0.128316
   6 H :    0.118682
   7 H :    0.058419
   8 H :   -0.014817
   9 H :    0.063766
  10 O :    0.126921
  11 F :    0.158479
  12 H :    0.109858
  13 H :    0.105174
  14 H :    0.119522
  15 H :    0.107764

  Mayer bond orders larger than 0.100000
B(  0-C ,  1-C ) :   0.5990 B(  0-C ,  2-C ) :   0.7695 B(  0-C ,  8-H ) :  -0.1019
B(  0-C , 12-H ) :   0.9758 B(  0-C , 13-H ) :   1.0179 B(  1-C ,  2-C ) :   0.1434
B(  1-C ,  7-H ) :   0.9716 B(  1-C ,  8-H ) :   0.9719 B(  1-C ,  9-H ) :   0.9697
B(  1-C , 11-F ) :   0.1320 B(  2-C ,  3-C ) :   0.8119 B(  2-C , 14-H ) :   0.9971
B(  2-C , 15-H ) :   1.0316 B(  3-C ,  4-C ) :   0.9063 B(  3-C ,  5-H ) :   0.9276
B(  3-C ,  6-H ) :   1.0151 B(  4-C , 10-O ) :   1.7551 B(  4-C , 11-F ) :   0.9927
B(  8-H , 11-F ) :  -0.2390

Dispersion correction           -0.021806028
FINAL SINGLE POINT ENERGY      -370.939311810017

DIPOLE MOMENT
-------------
                                X             Y             Z
Electronic contribution:    -10.27504       2.33572       3.30310
Nuclear contribution   :     11.08738      -2.45618      -3.73478
                        -----------------------------------------
Total Dipole Moment    :      0.81235      -0.12046      -0.43168
                        -----------------------------------------
Magnitude (a.u.)       :      0.92777
Magnitude (Debye)      :      2.35821

Rotational constants in cm-1:     0.156244     0.063730     0.048063
Rotational constants in MHz :  4684.071402  1910.571278  1440.877811

                             ****ORCA TERMINATED NORMALLY****
TOTAL RUN TIME: 0 days 0 hours 1 minutes 2 seconds 503 msec
