                         Program Version 5.0.0 -  RELEASE  -
|  1> !PBE D3BJ RIJCOSX def2-SVPD def2/J TightSCF
|  2> *xyz -1 1
|  3> C          0.61188        1.65763       -4.50029
|  4> C          1.69499        1.54179       -5.57045
|  5> H          2.69733        1.73466       -5.18400
|  6> H          1.50666        2.27224       -6.35808
|  7> S          1.78029       -0.03313       -6.42874
|  8> O          2.56929        0.21366       -7.60736
|  9> O          0.41688       -0.46297       -6.61859
| 10> O          2.50513       -0.93326       -5.48257
| 11> H         -0.34424        1.45871       -4.93752
| 12> H          0.61845        2.64655       -4.09174
| 13> H          0.80247        0.94882       -3.72173
| 14> *
| 15> %MaxCore 64000
| 16>
| 17> %pal nprocs 4
| 18> end
| 19>
| 20> %scf
| 21>   MaxIter 150
| 22> end
| 23>
| 24>
| 25>                          ****END OF INPUT****

CARTESIAN COORDINATES (ANGSTROEM)
---------------------------------
  C      0.611880    1.657630   -4.500290
  C      1.694990    1.541790   -5.570450
  H      2.697330    1.734660   -5.184000
  H      1.506660    2.272240   -6.358080
  S      1.780290   -0.033130   -6.428740
  O      2.569290    0.213660   -7.607360
  O      0.416880   -0.462970   -6.618590
  O      2.505130   -0.933260   -5.482570
  H     -0.344240    1.458710   -4.937520
  H      0.618450    2.646550   -4.091740
  H      0.802470    0.948820   -3.721730

 Total Charge           Charge          ....   -1
 Multiplicity           Mult            ....    1
 Number of Electrons    NEL             ....   58
 Basis Dimension        Dim             ....  176

ORBITAL ENERGIES
----------------

  NO   OCC          E(Eh)            E(eV)
   0   2.0000     -88.053197     -2396.0493
   1   2.0000     -18.547835      -504.7123
   2   2.0000     -18.547092      -504.6920
   3   2.0000     -18.529319      -504.2084
   4   2.0000      -9.757249      -265.5082
   5   2.0000      -9.753276      -265.4001
   6   2.0000      -7.657682      -208.3761
   7   2.0000      -5.684749      -154.6899
   8   2.0000      -5.684503      -154.6832
   9   2.0000      -5.683892      -154.6666
  10   2.0000      -0.841390       -22.8954
  11   2.0000      -0.710831       -19.3427
  12   2.0000      -0.677536       -18.4367
  13   2.0000      -0.556725       -15.1493
  14   2.0000      -0.441039       -12.0013
  15   2.0000      -0.323274        -8.7967
  16   2.0000      -0.269833        -7.3425
  17   2.0000      -0.263789        -7.1781
  18   2.0000      -0.230099        -6.2613
  19   2.0000      -0.212493        -5.7822
  20   2.0000      -0.208498        -5.6735
  21   2.0000      -0.187150        -5.0926
  22   2.0000      -0.171160        -4.6575
  23   2.0000      -0.104286        -2.8378
  24   2.0000      -0.103853        -2.8260
  25   2.0000      -0.073503        -2.0001
  26   2.0000      -0.069271        -1.8850
  27   2.0000      -0.051023        -1.3884
  28   2.0000      -0.018110        -0.4928
  29   0.0000       0.125930         3.4267
  30   0.0000       0.154852         4.2137
  31   0.0000       0.163558         4.4506
  32   0.0000       0.168923         4.5966
  33   0.0000       0.190911         5.1949

MULLIKEN ATOMIC CHARGES
-----------------------
   0 C :    0.773749
   1 C :   -0.382603
   2 H :   -0.061489
   3 H :   -0.015096
   4 S :    1.174119
   5 O :   -0.729102
   6 O :   -0.744252
   7 O :   -0.795463
   8 H :   -0.047625
   9 H :   -0.114770
  10 H :   -0.057468
Sum of atomic charges:   -1.0000000

LOEWDIN ATOMIC CHARGES
----------------------
   0 C :    0.100188
   1 C :   -0.144006
   2 H :    0.003833
   3 H :   -0.003880
   4 S :    0.803402
   5 O :   -0.552322
   6 O :   -0.547219
   7 O :   -0.582722
   8 H :   -0.025189
   9 H :   -0.035593
  10 H :   -0.016491

  Mayer bond orders larger than 0.100000
B(  0-C ,  1-C ) :   1.3304 B(  0-C ,  3-H ) :   0.1029 B(  0-C ,  8-H ) :   0.8074
B(  0-C ,  9-H ) :   0.7378 B(  0-C , 10-H ) :   0.8029 B(  1-C ,  2-H ) :   0.9778
B(  1-C ,  3-H ) :   0.9739 B(  1-C ,  4-S ) :   0.8994 B(  1-C ,  8-H ) :   0.2189
B(  1-C ,  9-H ) :   0.2372 B(  1-C , 10-H ) :   0.2038 B(  4-S ,  5-O ) :   1.3710
B(  4-S ,  6-O ) :   1.3370 B(  4-S ,  7-O ) :   1.3020

Dispersion correction           -0.009639369
FINAL SINGLE POINT ENERGY      -702.285668965494

DIPOLE MOMENT
-------------
                                X             Y             Z
Electronic contribution:      2.23901      -5.65463      -5.01155
Nuclear contribution   :     -2.69163       7.29476       5.86550
                        -----------------------------------------
Total Dipole Moment    :     -0.45262       1.64013       0.85395
                        -----------------------------------------
Magnitude (a.u.)       :      1.90371
Magnitude (Debye)      :      4.83886

Rotational constants in cm-1:     0.163060     0.082831     0.081111
Rotational constants in MHz :  4888.419330  2483.225008  2431.646841

                             ****ORCA TERMINATED NORMALLY****
TOTAL RUN TIME: 0 days 0 hours 0 minutes 6 seconds 380 msec
