                         Program Version 5.0.0 -  RELEASE  -
|  1> !PBE D3BJ RIJCOSX def2-SVPD def2/J TightSCF
|  2> *xyz 1 1
|  3> C          1.96337       -1.74915       -1.89689
|  4> N          2.73849       -2.01517       -3.09711
|  5> C          4.04974       -2.15472       -3.15204
|  6> N          4.65821       -1.98629       -4.31866
|  7> N          4.76423       -2.45444       -2.05049
|  8> H          4.28736       -2.77626       -1.21750
|  9> H          5.75082       -2.65835       -2.12599
| 10> H          2.34518       -1.69027       -3.97145
| 11> H          4.10900       -1.59268       -5.07176
| 12> H          5.64910       -2.15646       -4.42724
| 13> C          2.08852       -0.30091       -1.41520
| 14> H          2.23127       -2.45162       -1.10264
| 15> H          0.93025       -1.97780       -2.15544
| 16> H          1.82118        0.36368       -2.21003
| 17> H          3.09792       -0.11068       -1.11551
| 18> H          1.43391       -0.14382       -0.58352
| 19> *
| 20> %MaxCore 64000
| 21>
| 22> %pal nprocs 4
| 23> end
| 24>
| 25> %scf
| 26>   MaxIter 150
| 27> end
| 28>
| 29>
| 30>                          ****END OF INPUT****

CARTESIAN COORDINATES (ANGSTROEM)
---------------------------------
  C      1.963370   -1.749150   -1.896890
  N      2.738490   -2.015170   -3.097110
  C      4.049740   -2.154720   -3.152040
  N      4.658210   -1.986290   -4.318660
  N      4.764230   -2.454440   -2.050490
  H      4.287360   -2.776260   -1.217500
  H      5.750820   -2.658350   -2.125990
  H      2.345180   -1.690270   -3.971450
  H      4.109000   -1.592680   -5.071760
  H      5.649100   -2.156460   -4.427240
  C      2.088520   -0.300910   -1.415200
  H      2.231270   -2.451620   -1.102640
  H      0.930250   -1.977800   -2.155440
  H      1.821180    0.363680   -2.210030
  H      3.097920   -0.110680   -1.115510
  H      1.433910   -0.143820   -0.583520

 Total Charge           Charge          ....    1
 Multiplicity           Mult            ....    1
 Number of Electrons    NEL             ....   48
 Basis Dimension        Dim             ....  200

ORBITAL ENERGIES
----------------

  NO   OCC          E(Eh)            E(eV)
   0   2.0000     -14.224731      -387.0746
   1   2.0000     -14.224319      -387.0634
   2   2.0000     -14.222214      -387.0061
   3   2.0000     -10.218724      -278.0656
   4   2.0000     -10.103757      -274.9372
   5   2.0000     -10.033605      -273.0283
   6   2.0000      -1.126023       -30.6406
   7   2.0000      -1.021461       -27.7954
   8   2.0000      -1.008969       -27.4554
   9   2.0000      -0.857936       -23.3456
  10   2.0000      -0.778725       -21.1902
  11   2.0000      -0.745587       -20.2885
  12   2.0000      -0.731528       -19.9059
  13   2.0000      -0.691172       -18.8077
  14   2.0000      -0.647311       -17.6142
  15   2.0000      -0.639693       -17.4069
  16   2.0000      -0.610254       -16.6059
  17   2.0000      -0.580986       -15.8094
  18   2.0000      -0.554596       -15.0913
  19   2.0000      -0.521084       -14.1794
  20   2.0000      -0.489186       -13.3114
  21   2.0000      -0.470363       -12.7992
  22   2.0000      -0.437631       -11.9086
  23   2.0000      -0.413943       -11.2640
  24   0.0000      -0.203855        -5.5472
  25   0.0000      -0.179572        -4.8864
  26   0.0000      -0.147041        -4.0012
  27   0.0000      -0.136949        -3.7266
  28   0.0000      -0.113846        -3.0979

MULLIKEN ATOMIC CHARGES
-----------------------
   0 C :    0.339668
   1 N :   -0.387886
   2 C :    1.425697
   3 N :   -0.062354
   4 N :    0.024846
   5 H :   -0.051834
   6 H :   -0.170861
   7 H :   -0.200034
   8 H :   -0.024964
   9 H :   -0.086370
  10 C :    0.708780
  11 H :   -0.097581
  12 H :   -0.310309
  13 H :   -0.045513
  14 H :   -0.061203
  15 H :   -0.000083
Sum of atomic charges:    1.0000000

LOEWDIN ATOMIC CHARGES
----------------------
   0 C :    0.037224
   1 N :    0.050190
   2 C :   -0.058863
   3 N :    0.275841
   4 N :    0.293171
   5 H :    0.019651
   6 H :    0.034539
   7 H :    0.054519
   8 H :    0.036255
   9 H :    0.041506
  10 C :    0.164877
  11 H :    0.027839
  12 H :    0.041552
  13 H :   -0.006133
  14 H :   -0.015855
  15 H :    0.003688

  Mayer bond orders larger than 0.100000
B(  0-C ,  1-N ) :   0.9549 B(  0-C ,  7-H ) :  -0.1354 B(  0-C , 10-C ) :   1.2774
B(  0-C , 11-H ) :   0.8846 B(  0-C , 12-H ) :   0.8333 B(  0-C , 13-H ) :   0.2342
B(  0-C , 14-H ) :   0.1913 B(  0-C , 15-H ) :   0.1733 B(  1-N ,  2-C ) :   0.9860
B(  1-N ,  3-N ) :   0.3441 B(  1-N ,  4-N ) :   0.2488 B(  1-N ,  7-H ) :   1.2507
B(  1-N , 11-H ) :   0.1344 B(  1-N , 12-H ) :   0.2274 B(  2-C ,  3-N ) :   0.7796
B(  2-C ,  4-N ) :   0.9017 B(  2-C ,  5-H ) :  -0.1390 B(  2-C ,  6-H ) :  -0.1784
B(  2-C ,  7-H ) :  -0.2334 B(  2-C ,  8-H ) :  -0.1546 B(  2-C ,  9-H ) :  -0.1501
B(  3-N ,  4-N ) :   0.1927 B(  3-N ,  8-H ) :   1.1574 B(  3-N ,  9-H ) :   1.2551
B(  4-N ,  5-H ) :   1.0907 B(  4-N ,  6-H ) :   1.2845 B(  5-H ,  6-H ) :  -0.2149
B(  8-H ,  9-H ) :  -0.1825 B( 10-C , 13-H ) :   0.7963 B( 10-C , 14-H ) :   0.8340
B( 10-C , 15-H ) :   0.7875

Dispersion correction           -0.012419522
FINAL SINGLE POINT ENERGY      -283.865273869130

DIPOLE MOMENT
-------------
                                X             Y             Z
Electronic contribution:      3.00094      -2.70328      -3.07965
Nuclear contribution   :     -2.17768       2.37118       2.44574
                        -----------------------------------------
Total Dipole Moment    :      0.82326      -0.33210      -0.63391
                        -----------------------------------------
Magnitude (a.u.)       :      1.09082
Magnitude (Debye)      :      2.77264

Rotational constants in cm-1:     0.215650     0.075183     0.066454
Rotational constants in MHz :  6465.033740  2253.919004  1992.232519

                             ****ORCA TERMINATED NORMALLY****
TOTAL RUN TIME: 0 days 0 hours 0 minutes 7 seconds 361 msec
