                         Program Version 5.0.0 -  RELEASE  -
|  1> !PBE D3BJ RIJCOSX def2-SVPD def2/J TightSCF
|  2> *xyz 0 1
|  3> C          0.61188        1.65763       -4.50029
|  4> C          1.69499        1.54179       -5.57045
|  5> H          2.69733        1.73466       -5.18400
|  6> H          1.50666        2.27224       -6.35808
|  7> S          1.78029       -0.03313       -6.42874
|  8> F          2.56929        0.21366       -7.60736
|  9> O          0.41688       -0.46297       -6.61859
| 10> O          2.50513       -0.93326       -5.48257
| 11> H         -0.34424        1.45871       -4.93752
| 12> H          0.61845        2.64655       -4.09174
| 13> H          0.80247        0.94882       -3.72173
| 14> *
| 15> %MaxCore 64000
| 16>
| 17> %pal nprocs 4
| 18> end
| 19>
| 20> %scf
| 21>   MaxIter 150
| 22> end
| 23>
| 24>
| 25>                          ****END OF INPUT****

CARTESIAN COORDINATES (ANGSTROEM)
---------------------------------
  C      0.611880    1.657630   -4.500290
  C      1.694990    1.541790   -5.570450
  H      2.697330    1.734660   -5.184000
  H      1.506660    2.272240   -6.358080
  S      1.780290   -0.033130   -6.428740
  F      2.569290    0.213660   -7.607360
  O      0.416880   -0.462970   -6.618590
  O      2.505130   -0.933260   -5.482570
  H     -0.344240    1.458710   -4.937520
  H      0.618450    2.646550   -4.091740
  H      0.802470    0.948820   -3.721730

 Total Charge           Charge          ....    0
 Multiplicity           Mult            ....    1
 Number of Electrons    NEL             ....   58
 Basis Dimension        Dim             ....  176

ORBITAL ENERGIES
----------------

  NO   OCC          E(Eh)            E(eV)
   0   2.0000     -88.309561     -2403.0253
   1   2.0000     -24.390327      -663.6945
   2   2.0000     -18.779960      -511.0287
   3   2.0000     -18.761301      -510.5210
   4   2.0000      -9.958888      -270.9951
   5   2.0000      -9.917011      -269.8556
   6   2.0000      -7.915018      -215.3786
   7   2.0000      -5.946273      -161.8063
   8   2.0000      -5.939743      -161.6286
   9   2.0000      -5.938168      -161.5858
  10   2.0000      -1.274444       -34.6794
  11   2.0000      -1.018026       -27.7019
  12   2.0000      -0.913117       -24.8472
  13   2.0000      -0.748517       -20.3682
  14   2.0000      -0.671511       -18.2727
  15   2.0000      -0.614064       -16.7095
  16   2.0000      -0.527888       -14.3645
  17   2.0000      -0.525425       -14.2975
  18   2.0000      -0.500059       -13.6073
  19   2.0000      -0.446835       -12.1590
  20   2.0000      -0.433583       -11.7984
  21   2.0000      -0.395452       -10.7608
  22   2.0000      -0.389256       -10.5922
  23   2.0000      -0.366992        -9.9864
  24   2.0000      -0.347410        -9.4535
  25   2.0000      -0.338373        -9.2076
  26   2.0000      -0.293294        -7.9809
  27   2.0000      -0.274839        -7.4788
  28   2.0000      -0.257496        -7.0068
  29   0.0000      -0.028986        -0.7887
  30   0.0000      -0.006877        -0.1871
  31   0.0000       0.015460         0.4207
  32   0.0000       0.021284         0.5792
  33   0.0000       0.024284         0.6608

MULLIKEN ATOMIC CHARGES
-----------------------
   0 C :    0.782575
   1 C :   -0.407716
   2 H :   -0.014143
   3 H :    0.032063
   4 S :    1.372417
   5 F :   -0.355747
   6 O :   -0.607772
   7 O :   -0.655182
   8 H :   -0.025429
   9 H :   -0.081784
  10 H :   -0.039282
Sum of atomic charges:   -0.0000000

LOEWDIN ATOMIC CHARGES
----------------------
   0 C :    0.146151
   1 C :   -0.109126
   2 H :    0.024103
   3 H :    0.014720
   4 S :    1.072167
   5 F :   -0.239975
   6 O :   -0.436029
   7 O :   -0.464902
   8 H :   -0.006484
   9 H :   -0.002776
  10 H :    0.002150

  Mayer bond orders larger than 0.100000
B(  0-C ,  1-C ) :   1.4021 B(  0-C ,  3-H ) :   0.1044 B(  0-C ,  8-H ) :   0.8009
B(  0-C ,  9-H ) :   0.7363 B(  0-C , 10-H ) :   0.8020 B(  1-C ,  2-H ) :   0.9652
B(  1-C ,  3-H ) :   0.9415 B(  1-C ,  4-S ) :   0.9506 B(  1-C ,  8-H ) :   0.2131
B(  1-C ,  9-H ) :   0.2249 B(  1-C , 10-H ) :   0.1978 B(  4-S ,  5-F ) :   0.7271
B(  4-S ,  6-O ) :   1.5396 B(  4-S ,  7-O ) :   1.4948

Dispersion correction           -0.009229727
FINAL SINGLE POINT ENERGY      -726.757234067791

DIPOLE MOMENT
-------------
                                X             Y             Z
Electronic contribution:      3.84236      -5.67713      -7.50732
Nuclear contribution   :     -3.66946       7.33549       7.42434
                        -----------------------------------------
Total Dipole Moment    :      0.17290       1.65836      -0.08298
                        -----------------------------------------
Magnitude (a.u.)       :      1.66941
Magnitude (Debye)      :      4.24332

Rotational constants in cm-1:     0.158379     0.080294     0.077843
Rotational constants in MHz :  4748.076444  2407.152850  2333.668303

                             ****ORCA TERMINATED NORMALLY****
TOTAL RUN TIME: 0 days 0 hours 0 minutes 6 seconds 265 msec
