                         Program Version 5.0.0 -  RELEASE  -
|  1> !PBE D3BJ RIJCOSX def2-SVPD def2/J TightSCF
|  2> *xyz 0 1
|  3> C          1.96337       -1.74915       -1.89689
|  4> C          2.73849       -2.01517       -3.09711
|  5> C          4.04974       -2.15472       -3.15204
|  6> N          4.65821       -1.98629       -4.31866
|  7> N          4.76423       -2.45444       -2.05049
|  8> H          4.28736       -2.77626       -1.21750
|  9> H          5.75082       -2.65835       -2.12599
| 10> H          2.34518       -1.69027       -3.97145
| 11> H          4.10900       -1.59268       -5.07176
| 12> H          5.64910       -2.15646       -4.42724
| 13> C          2.08852       -0.30091       -1.41520
| 14> H          2.23127       -2.45162       -1.10264
| 15> H          0.93025       -1.97780       -2.15544
| 16> H          1.82118        0.36368       -2.21003
| 17> H          3.09792       -0.11068       -1.11551
| 18> H          1.43391       -0.14382       -0.58352
| 19> *
| 20> %MaxCore 64000
| 21>
| 22> %pal nprocs 4
| 23> end
| 24>
| 25> %scf
| 26>   MaxIter 150
| 27> end
| 28>
| 29>
| 30>                          ****END OF INPUT****

CARTESIAN COORDINATES (ANGSTROEM)
---------------------------------
  C      1.963370   -1.749150   -1.896890
  C      2.738490   -2.015170   -3.097110
  C      4.049740   -2.154720   -3.152040
  N      4.658210   -1.986290   -4.318660
  N      4.764230   -2.454440   -2.050490
  H      4.287360   -2.776260   -1.217500
  H      5.750820   -2.658350   -2.125990
  H      2.345180   -1.690270   -3.971450
  H      4.109000   -1.592680   -5.071760
  H      5.649100   -2.156460   -4.427240
  C      2.088520   -0.300910   -1.415200
  H      2.231270   -2.451620   -1.102640
  H      0.930250   -1.977800   -2.155440
  H      1.821180    0.363680   -2.210030
  H      3.097920   -0.110680   -1.115510
  H      1.433910   -0.143820   -0.583520

 Total Charge           Charge          ....    0
 Multiplicity           Mult            ....    1
 Number of Electrons    NEL             ....   48
 Basis Dimension        Dim             ....  200

ORBITAL ENERGIES
----------------

  NO   OCC          E(Eh)            E(eV)
   0   2.0000     -14.003054      -381.0425
   1   2.0000     -14.000437      -380.9713
   2   2.0000      -9.932354      -270.2731
   3   2.0000      -9.871569      -268.6191
   4   2.0000      -9.860323      -268.3130
   5   2.0000      -9.817850      -267.1573
   6   2.0000      -0.870994       -23.7010
   7   2.0000      -0.787694       -21.4343
   8   2.0000      -0.694639       -18.9021
   9   2.0000      -0.621053       -16.8997
  10   2.0000      -0.552724       -15.0404
  11   2.0000      -0.522990       -14.2313
  12   2.0000      -0.492087       -13.3904
  13   2.0000      -0.456677       -12.4268
  14   2.0000      -0.427419       -11.6306
  15   2.0000      -0.391033       -10.6405
  16   2.0000      -0.372019       -10.1231
  17   2.0000      -0.338931        -9.2228
  18   2.0000      -0.334999        -9.1158
  19   2.0000      -0.313813        -8.5393
  20   2.0000      -0.285871        -7.7790
  21   2.0000      -0.275665        -7.5012
  22   2.0000      -0.223758        -6.0888
  23   2.0000      -0.130148        -3.5415
  24   0.0000      -0.007634        -0.2077
  25   0.0000       0.020222         0.5503
  26   0.0000       0.026566         0.7229
  27   0.0000       0.037443         1.0189
  28   0.0000       0.055527         1.5110

MULLIKEN ATOMIC CHARGES
-----------------------
   0 C :   -0.162885
   1 C :   -0.364617
   2 C :    0.870230
   3 N :   -0.004276
   4 N :   -0.058412
   5 H :   -0.023789
   6 H :   -0.295933
   7 H :   -0.116161
   8 H :   -0.019757
   9 H :   -0.193656
  10 C :    0.707858
  11 H :   -0.082843
  12 H :   -0.113805
  13 H :   -0.054252
  14 H :   -0.061325
  15 H :   -0.026377
Sum of atomic charges:   -0.0000000

LOEWDIN ATOMIC CHARGES
----------------------
   0 C :   -0.104050
   1 C :   -0.044976
   2 C :   -0.234519
   3 N :    0.190397
   4 N :    0.213658
   5 H :   -0.010475
   6 H :   -0.016206
   7 H :   -0.049271
   8 H :    0.003463
   9 H :   -0.010648
  10 C :    0.122555
  11 H :    0.002374
  12 H :    0.011988
  13 H :   -0.019485
  14 H :   -0.026453
  15 H :   -0.028350

  Mayer bond orders larger than 0.100000
B(  0-C ,  1-C ) :   1.2704 B(  0-C ,  7-H ) :   0.3126 B(  0-C , 10-C ) :   1.2533
B(  0-C , 11-H ) :   0.8612 B(  0-C , 12-H ) :   0.7902 B(  0-C , 13-H ) :   0.2444
B(  0-C , 14-H ) :   0.2128 B(  0-C , 15-H ) :   0.1884 B(  1-C ,  2-C ) :   1.6798
B(  1-C ,  3-N ) :   0.3572 B(  1-C ,  4-N ) :   0.2514 B(  1-C ,  7-H ) :   0.7552
B(  1-C , 11-H ) :   0.2225 B(  1-C , 12-H ) :   0.2850 B(  2-C ,  3-N ) :   0.8510
B(  2-C ,  4-N ) :   0.8586 B(  2-C ,  6-H ) :  -0.2271 B(  2-C ,  7-H ) :   0.2861
B(  2-C ,  9-H ) :  -0.1030 B(  3-N ,  4-N ) :   0.1418 B(  3-N ,  8-H ) :   1.1394
B(  3-N ,  9-H ) :   1.2678 B(  4-N ,  5-H ) :   1.0383 B(  4-N ,  6-H ) :   1.3944
B(  5-H ,  6-H ) :  -0.2170 B(  8-H ,  9-H ) :  -0.1757 B( 10-C , 13-H ) :   0.8156
B( 10-C , 14-H ) :   0.8278 B( 10-C , 15-H ) :   0.7848

Dispersion correction           -0.012877387
FINAL SINGLE POINT ENERGY      -267.398115891308

DIPOLE MOMENT
-------------
                                X             Y             Z
Electronic contribution:      3.29847      -2.44223      -2.53849
Nuclear contribution   :     -2.31778       2.31977       2.35294
                        -----------------------------------------
Total Dipole Moment    :      0.98069      -0.12246      -0.18555
                        -----------------------------------------
Magnitude (a.u.)       :      1.00558
Magnitude (Debye)      :      2.55597

Rotational constants in cm-1:     0.219415     0.075373     0.066689
Rotational constants in MHz :  6577.897266  2259.621393  1999.290981

                             ****ORCA TERMINATED NORMALLY****
TOTAL RUN TIME: 0 days 0 hours 0 minutes 8 seconds 215 msec
