                         Program Version 5.0.0 -  RELEASE  -
|  1> !PBE D3BJ RIJCOSX def2-SVPD def2/J TightSCF
|  2> *xyz 0 1
|  3> C          0.61188        1.65763       -4.50029
|  4> C          1.69499        1.54179       -5.57045
|  5> H          2.69733        1.73466       -5.18400
|  6> H          1.50666        2.27224       -6.35808
|  7> S          1.78029       -0.03313       -6.42874
|  8> O          2.56929        0.21366       -7.60736
|  9> F          0.41688       -0.46297       -6.61859
| 10> O          2.50513       -0.93326       -5.48257
| 11> H         -0.34424        1.45871       -4.93752
| 12> H          0.61845        2.64655       -4.09174
| 13> H          0.80247        0.94882       -3.72173
| 14> *
| 15> %MaxCore 64000
| 16>
| 17> %pal nprocs 4
| 18> end
| 19>
| 20> %scf
| 21>   MaxIter 150
| 22> end
| 23>
| 24>
| 25>                          ****END OF INPUT****

CARTESIAN COORDINATES (ANGSTROEM)
---------------------------------
  C      0.611880    1.657630   -4.500290
  C      1.694990    1.541790   -5.570450
  H      2.697330    1.734660   -5.184000
  H      1.506660    2.272240   -6.358080
  S      1.780290   -0.033130   -6.428740
  O      2.569290    0.213660   -7.607360
  F      0.416880   -0.462970   -6.618590
  O      2.505130   -0.933260   -5.482570
  H     -0.344240    1.458710   -4.937520
  H      0.618450    2.646550   -4.091740
  H      0.802470    0.948820   -3.721730

 Total Charge           Charge          ....    0
 Multiplicity           Mult            ....    1
 Number of Electrons    NEL             ....   58
 Basis Dimension        Dim             ....  176

ORBITAL ENERGIES
----------------

  NO   OCC          E(Eh)            E(eV)
   0   2.0000     -88.309387     -2403.0206
   1   2.0000     -24.390032      -663.6865
   2   2.0000     -18.779579      -511.0183
   3   2.0000     -18.761547      -510.5276
   4   2.0000      -9.958693      -270.9898
   5   2.0000      -9.921961      -269.9903
   6   2.0000      -7.914856      -215.3742
   7   2.0000      -5.946236      -161.8053
   8   2.0000      -5.939528      -161.6228
   9   2.0000      -5.937957      -161.5800
  10   2.0000      -1.273034       -34.6410
  11   2.0000      -1.019138       -27.7322
  12   2.0000      -0.913002       -24.8441
  13   2.0000      -0.751993       -20.4628
  14   2.0000      -0.667902       -18.1745
  15   2.0000      -0.618511       -16.8305
  16   2.0000      -0.538951       -14.6656
  17   2.0000      -0.524010       -14.2590
  18   2.0000      -0.491202       -13.3663
  19   2.0000      -0.448077       -12.1928
  20   2.0000      -0.428402       -11.6574
  21   2.0000      -0.406199       -11.0532
  22   2.0000      -0.392641       -10.6843
  23   2.0000      -0.370201       -10.0737
  24   2.0000      -0.354108        -9.6358
  25   2.0000      -0.336851        -9.1662
  26   2.0000      -0.293005        -7.9731
  27   2.0000      -0.274560        -7.4712
  28   2.0000      -0.257729        -7.0132
  29   0.0000      -0.035268        -0.9597
  30   0.0000       0.002638         0.0718
  31   0.0000       0.014754         0.4015
  32   0.0000       0.019188         0.5221
  33   0.0000       0.023110         0.6289

MULLIKEN ATOMIC CHARGES
-----------------------
   0 C :    0.791760
   1 C :   -0.372083
   2 H :   -0.020799
   3 H :    0.026686
   4 S :    1.341346
   5 O :   -0.587655
   6 F :   -0.364680
   7 O :   -0.652938
   8 H :   -0.040400
   9 H :   -0.083796
  10 H :   -0.037441
Sum of atomic charges:   -0.0000000

LOEWDIN ATOMIC CHARGES
----------------------
   0 C :    0.130948
   1 C :   -0.096731
   2 H :    0.036720
   3 H :    0.018609
   4 S :    1.069454
   5 O :   -0.436280
   6 F :   -0.239389
   7 O :   -0.463873
   8 H :   -0.012627
   9 H :   -0.004742
  10 H :   -0.002088

  Mayer bond orders larger than 0.100000
B(  0-C ,  1-C ) :   1.3526 B(  0-C ,  8-H ) :   0.8038 B(  0-C ,  9-H ) :   0.7331
B(  0-C , 10-H ) :   0.8112 B(  1-C ,  2-H ) :   0.9699 B(  1-C ,  3-H ) :   0.9673
B(  1-C ,  4-S ) :   0.9752 B(  1-C ,  8-H ) :   0.2017 B(  1-C ,  9-H ) :   0.2296
B(  1-C , 10-H ) :   0.1952 B(  4-S ,  5-O ) :   1.5772 B(  4-S ,  6-F ) :   0.7147
B(  4-S ,  7-O ) :   1.5067

Dispersion correction           -0.009174978
FINAL SINGLE POINT ENERGY      -726.757044938184

DIPOLE MOMENT
-------------
                                X             Y             Z
Electronic contribution:      0.29132      -6.78406      -5.85344
Nuclear contribution   :     -1.42658       8.04056       6.39401
                        -----------------------------------------
Total Dipole Moment    :     -1.13526       1.25650       0.54058
                        -----------------------------------------
Magnitude (a.u.)       :      1.77759
Magnitude (Debye)      :      4.51828

Rotational constants in cm-1:     0.153659     0.082363     0.078978
Rotational constants in MHz :  4606.587369  2469.179541  2367.702074

                             ****ORCA TERMINATED NORMALLY****
TOTAL RUN TIME: 0 days 0 hours 0 minutes 5 seconds 810 msec
