                         Program Version 5.0.0 -  RELEASE  -
|  1> !PBE D3BJ RIJCOSX def2-SVPD def2/J TightSCF
|  2> *xyz 0 1
|  3> C          1.96337       -1.74915       -1.89689
|  4> N          2.73849       -2.01517       -3.09711
|  5> C          4.04974       -2.15472       -3.15204
|  6> C          4.65821       -1.98629       -4.31866
|  7> N          4.76423       -2.45444       -2.05049
|  8> H          4.28736       -2.77626       -1.21750
|  9> H          5.75082       -2.65835       -2.12599
| 10> H          2.34518       -1.69027       -3.97145
| 11> H          4.10900       -1.59268       -5.07176
| 12> H          5.64910       -2.15646       -4.42724
| 13> C          2.08852       -0.30091       -1.41520
| 14> H          2.23127       -2.45162       -1.10264
| 15> H          0.93025       -1.97780       -2.15544
| 16> H          1.82118        0.36368       -2.21003
| 17> H          3.09792       -0.11068       -1.11551
| 18> H          1.43391       -0.14382       -0.58352
| 19> *
| 20> %MaxCore 64000
| 21>
| 22> %pal nprocs 4
| 23> end
| 24>
| 25> %scf
| 26>   MaxIter 150
| 27> end
| 28>
| 29>
| 30>                          ****END OF INPUT****

CARTESIAN COORDINATES (ANGSTROEM)
---------------------------------
  C      1.963370   -1.749150   -1.896890
  N      2.738490   -2.015170   -3.097110
  C      4.049740   -2.154720   -3.152040
  C      4.658210   -1.986290   -4.318660
  N      4.764230   -2.454440   -2.050490
  H      4.287360   -2.776260   -1.217500
  H      5.750820   -2.658350   -2.125990
  H      2.345180   -1.690270   -3.971450
  H      4.109000   -1.592680   -5.071760
  H      5.649100   -2.156460   -4.427240
  C      2.088520   -0.300910   -1.415200
  H      2.231270   -2.451620   -1.102640
  H      0.930250   -1.977800   -2.155440
  H      1.821180    0.363680   -2.210030
  H      3.097920   -0.110680   -1.115510
  H      1.433910   -0.143820   -0.583520

 Total Charge           Charge          ....    0
 Multiplicity           Mult            ....    1
 Number of Electrons    NEL             ....   48
 Basis Dimension        Dim             ....  200

ORBITAL ENERGIES
----------------

  NO   OCC          E(Eh)            E(eV)
   0   2.0000     -14.001073      -380.9886
   1   2.0000     -14.000970      -380.9858
   2   2.0000      -9.935221      -270.3511
   3   2.0000      -9.933012      -270.2910
   4   2.0000      -9.885050      -268.9859
   5   2.0000      -9.809182      -266.9214
   6   2.0000      -0.879241       -23.9254
   7   2.0000      -0.799273       -21.7493
   8   2.0000      -0.695016       -18.9123
   9   2.0000      -0.627853       -17.0847
  10   2.0000      -0.564324       -15.3560
  11   2.0000      -0.542104       -14.7514
  12   2.0000      -0.484096       -13.1729
  13   2.0000      -0.446292       -12.1442
  14   2.0000      -0.432508       -11.7691
  15   2.0000      -0.390841       -10.6353
  16   2.0000      -0.385128       -10.4799
  17   2.0000      -0.355564        -9.6754
  18   2.0000      -0.337663        -9.1883
  19   2.0000      -0.331373        -9.0171
  20   2.0000      -0.316204        -8.6044
  21   2.0000      -0.313479        -8.5302
  22   2.0000      -0.213736        -5.8160
  23   2.0000      -0.132712        -3.6113
  24   0.0000      -0.008288        -0.2255
  25   0.0000       0.019405         0.5280
  26   0.0000       0.025375         0.6905
  27   0.0000       0.031632         0.8608
  28   0.0000       0.050916         1.3855

MULLIKEN ATOMIC CHARGES
-----------------------
   0 C :    0.333907
   1 N :   -0.334120
   2 C :    0.679246
   3 C :    0.359949
   4 N :    0.142033
   5 H :   -0.146614
   6 H :   -0.198684
   7 H :   -0.227228
   8 H :   -0.224355
   9 H :   -0.409384
  10 C :    0.676684
  11 H :   -0.129550
  12 H :   -0.347948
  13 H :   -0.071427
  14 H :   -0.062561
  15 H :   -0.039948
Sum of atomic charges:   -0.0000000

LOEWDIN ATOMIC CHARGES
----------------------
   0 C :    0.004488
   1 N :   -0.009689
   2 C :   -0.256190
   3 C :    0.147020
   4 N :    0.212083
   5 H :   -0.027189
   6 H :    0.001772
   7 H :    0.028917
   8 H :   -0.100279
   9 H :   -0.099351
  10 C :    0.135624
  11 H :    0.008999
  12 H :    0.017527
  13 H :   -0.018086
  14 H :   -0.023530
  15 H :   -0.022117

  Mayer bond orders larger than 0.100000
B(  0-C ,  1-N ) :   0.9202 B(  0-C ,  7-H ) :  -0.1397 B(  0-C , 10-C ) :   1.2474
B(  0-C , 11-H ) :   0.8854 B(  0-C , 12-H ) :   0.8409 B(  0-C , 13-H ) :   0.2457
B(  0-C , 14-H ) :   0.1953 B(  0-C , 15-H ) :   0.1820 B(  1-N ,  2-C ) :   1.0597
B(  1-N ,  3-C ) :   0.3037 B(  1-N ,  4-N ) :   0.1770 B(  1-N ,  7-H ) :   1.1940
B(  1-N , 11-H ) :   0.1500 B(  1-N , 12-H ) :   0.2233 B(  2-C ,  3-C ) :   1.2892
B(  2-C ,  4-N ) :   0.9451 B(  2-C ,  6-H ) :  -0.1158 B(  2-C ,  7-H ) :  -0.1710
B(  2-C ,  8-H ) :   0.1107 B(  2-C ,  9-H ) :   0.1522 B(  3-C ,  4-N ) :   0.2250
B(  3-C ,  8-H ) :   0.8588 B(  3-C ,  9-H ) :   0.8028 B(  4-N ,  5-H ) :   1.0665
B(  4-N ,  6-H ) :   1.2472 B(  5-H ,  6-H ) :  -0.2090 B(  8-H ,  9-H ) :   0.1092
B( 10-C , 13-H ) :   0.7960 B( 10-C , 14-H ) :   0.8318 B( 10-C , 15-H ) :   0.8133

Dispersion correction           -0.012775246
FINAL SINGLE POINT ENERGY      -267.391635495601

DIPOLE MOMENT
-------------
                                X             Y             Z
Electronic contribution:      1.41804      -2.34484      -1.23016
Nuclear contribution   :     -1.91052       2.32590       2.09379
                        -----------------------------------------
Total Dipole Moment    :     -0.49248      -0.01894       0.86364
                        -----------------------------------------
Magnitude (a.u.)       :      0.99437
Magnitude (Debye)      :      2.52748

Rotational constants in cm-1:     0.219448     0.077923     0.068804
Rotational constants in MHz :  6578.886179  2336.083179  2062.700476

                             ****ORCA TERMINATED NORMALLY****
TOTAL RUN TIME: 0 days 0 hours 0 minutes 8 seconds 118 msec
