                         Program Version 5.0.0 -  RELEASE  -
|  1> !PBE D3BJ RIJCOSX def2-SVPD def2/J TightSCF
|  2> *xyz 0 1
|  3> C          0.61188        1.65763       -4.50029
|  4> C          1.69499        1.54179       -5.57045
|  5> H          2.69733        1.73466       -5.18400
|  6> H          1.50666        2.27224       -6.35808
|  7> S          1.78029       -0.03313       -6.42874
|  8> O          2.56929        0.21366       -7.60736
|  9> O          0.41688       -0.46297       -6.61859
| 10> F          2.50513       -0.93326       -5.48257
| 11> H         -0.34424        1.45871       -4.93752
| 12> H          0.61845        2.64655       -4.09174
| 13> H          0.80247        0.94882       -3.72173
| 14> *
| 15> %MaxCore 64000
| 16>
| 17> %pal nprocs 4
| 18> end
| 19>
| 20> %scf
| 21>   MaxIter 150
| 22> end
| 23>
| 24>
| 25>                          ****END OF INPUT****

CARTESIAN COORDINATES (ANGSTROEM)
---------------------------------
  C      0.611880    1.657630   -4.500290
  C      1.694990    1.541790   -5.570450
  H      2.697330    1.734660   -5.184000
  H      1.506660    2.272240   -6.358080
  S      1.780290   -0.033130   -6.428740
  O      2.569290    0.213660   -7.607360
  O      0.416880   -0.462970   -6.618590
  F      2.505130   -0.933260   -5.482570
  H     -0.344240    1.458710   -4.937520
  H      0.618450    2.646550   -4.091740
  H      0.802470    0.948820   -3.721730

 Total Charge           Charge          ....    0
 Multiplicity           Mult            ....    1
 Number of Electrons    NEL             ....   58
 Basis Dimension        Dim             ....  176

ORBITAL ENERGIES
----------------

  NO   OCC          E(Eh)            E(eV)
   0   2.0000     -88.306589     -2402.9444
   1   2.0000     -24.363360      -662.9607
   2   2.0000     -18.779860      -511.0260
   3   2.0000     -18.779022      -511.0032
   4   2.0000      -9.957431      -270.9555
   5   2.0000      -9.917175      -269.8600
   6   2.0000      -7.912087      -215.2988
   7   2.0000      -5.943048      -161.7186
   8   2.0000      -5.937107      -161.5569
   9   2.0000      -5.935479      -161.5126
  10   2.0000      -1.230098       -33.4727
  11   2.0000      -1.029508       -28.0143
  12   2.0000      -0.940436       -25.5906
  13   2.0000      -0.748478       -20.3671
  14   2.0000      -0.653347       -17.7785
  15   2.0000      -0.607015       -16.5177
  16   2.0000      -0.517634       -14.0855
  17   2.0000      -0.494962       -13.4686
  18   2.0000      -0.490027       -13.3343
  19   2.0000      -0.445808       -12.1311
  20   2.0000      -0.428138       -11.6502
  21   2.0000      -0.409049       -11.1308
  22   2.0000      -0.389710       -10.6045
  23   2.0000      -0.363636        -9.8950
  24   2.0000      -0.358775        -9.7628
  25   2.0000      -0.338782        -9.2187
  26   2.0000      -0.298027        -8.1097
  27   2.0000      -0.293372        -7.9831
  28   2.0000      -0.278280        -7.5724
  29   0.0000      -0.029252        -0.7960
  30   0.0000       0.001106         0.0301
  31   0.0000       0.013102         0.3565
  32   0.0000       0.022225         0.6048
  33   0.0000       0.025842         0.7032

MULLIKEN ATOMIC CHARGES
-----------------------
   0 C :    0.811271
   1 C :   -0.401286
   2 H :   -0.021077
   3 H :    0.030838
   4 S :    1.361387
   5 O :   -0.605073
   6 O :   -0.624138
   7 F :   -0.388698
   8 H :   -0.023259
   9 H :   -0.083561
  10 H :   -0.056403
Sum of atomic charges:   -0.0000000

LOEWDIN ATOMIC CHARGES
----------------------
   0 C :    0.133197
   1 C :   -0.099413
   2 H :    0.022523
   3 H :    0.029641
   4 S :    1.068034
   5 O :   -0.437598
   6 O :   -0.434169
   7 F :   -0.263601
   8 H :   -0.007770
   9 H :   -0.005439
  10 H :   -0.005405

  Mayer bond orders larger than 0.100000
B(  0-C ,  1-C ) :   1.3680 B(  0-C ,  8-H ) :   0.8074 B(  0-C ,  9-H ) :   0.7303
B(  0-C , 10-H ) :   0.7967 B(  1-C ,  2-H ) :   0.9632 B(  1-C ,  3-H ) :   0.9642
B(  1-C ,  4-S ) :   0.9752 B(  1-C ,  8-H ) :   0.2143 B(  1-C ,  9-H ) :   0.2253
B(  1-C , 10-H ) :   0.1991 B(  4-S ,  5-O ) :   1.5716 B(  4-S ,  6-O ) :   1.5448
B(  4-S ,  7-F ) :   0.6487 B(  5-O ,  6-O ) :   0.1107

Dispersion correction           -0.009198964
FINAL SINGLE POINT ENERGY      -726.780576039897

DIPOLE MOMENT
-------------
                                X             Y             Z
Electronic contribution:      3.75759      -7.60083      -3.95998
Nuclear contribution   :     -3.60260       8.53062       5.21025
                        -----------------------------------------
Total Dipole Moment    :      0.15498       0.92979       1.25026
                        -----------------------------------------
Magnitude (a.u.)       :      1.56578
Magnitude (Debye)      :      3.97991

Rotational constants in cm-1:     0.154011     0.080858     0.079602
Rotational constants in MHz :  4617.134198  2424.070332  2386.404775

                             ****ORCA TERMINATED NORMALLY****
TOTAL RUN TIME: 0 days 0 hours 0 minutes 6 seconds 52 msec
