                         Program Version 5.0.0 -  RELEASE  -
|  1> !PBE D3BJ RIJCOSX def2-SVPD def2/J TightSCF
|  2> *xyz 0 1
|  3> C          1.96337       -1.74915       -1.89689
|  4> N          2.73849       -2.01517       -3.09711
|  5> C          4.04974       -2.15472       -3.15204
|  6> N          4.65821       -1.98629       -4.31866
|  7> C          4.76423       -2.45444       -2.05049
|  8> H          4.28736       -2.77626       -1.21750
|  9> H          5.75082       -2.65835       -2.12599
| 10> H          2.34518       -1.69027       -3.97145
| 11> H          4.10900       -1.59268       -5.07176
| 12> H          5.64910       -2.15646       -4.42724
| 13> C          2.08852       -0.30091       -1.41520
| 14> H          2.23127       -2.45162       -1.10264
| 15> H          0.93025       -1.97780       -2.15544
| 16> H          1.82118        0.36368       -2.21003
| 17> H          3.09792       -0.11068       -1.11551
| 18> H          1.43391       -0.14382       -0.58352
| 19> *
| 20> %MaxCore 64000
| 21>
| 22> %pal nprocs 4
| 23> end
| 24>
| 25> %scf
| 26>   MaxIter 150
| 27> end
| 28>
| 29>
| 30>                          ****END OF INPUT****

CARTESIAN COORDINATES (ANGSTROEM)
---------------------------------
  C      1.963370   -1.749150   -1.896890
  N      2.738490   -2.015170   -3.097110
  C      4.049740   -2.154720   -3.152040
  N      4.658210   -1.986290   -4.318660
  C      4.764230   -2.454440   -2.050490
  H      4.287360   -2.776260   -1.217500
  H      5.750820   -2.658350   -2.125990
  H      2.345180   -1.690270   -3.971450
  H      4.109000   -1.592680   -5.071760
  H      5.649100   -2.156460   -4.427240
  C      2.088520   -0.300910   -1.415200
  H      2.231270   -2.451620   -1.102640
  H      0.930250   -1.977800   -2.155440
  H      1.821180    0.363680   -2.210030
  H      3.097920   -0.110680   -1.115510
  H      1.433910   -0.143820   -0.583520

 Total Charge           Charge          ....    0
 Multiplicity           Mult            ....    1
 Number of Electrons    NEL             ....   48
 Basis Dimension        Dim             ....  200

ORBITAL ENERGIES
----------------

  NO   OCC          E(Eh)            E(eV)
   0   2.0000     -14.005334      -381.1045
   1   2.0000     -14.002827      -381.0363
   2   2.0000      -9.934742      -270.3381
   3   2.0000      -9.928969      -270.1810
   4   2.0000      -9.878636      -268.8114
   5   2.0000      -9.809896      -266.9408
   6   2.0000      -0.884922       -24.0799
   7   2.0000      -0.803246       -21.8574
   8   2.0000      -0.679123       -18.4799
   9   2.0000      -0.633182       -17.2298
  10   2.0000      -0.578305       -15.7365
  11   2.0000      -0.504735       -13.7345
  12   2.0000      -0.496561       -13.5121
  13   2.0000      -0.472564       -12.8591
  14   2.0000      -0.421644       -11.4735
  15   2.0000      -0.392030       -10.6677
  16   2.0000      -0.372272       -10.1300
  17   2.0000      -0.352063        -9.5801
  18   2.0000      -0.335896        -9.1402
  19   2.0000      -0.322829        -8.7846
  20   2.0000      -0.319455        -8.6928
  21   2.0000      -0.304427        -8.2839
  22   2.0000      -0.211636        -5.7589
  23   2.0000      -0.134698        -3.6653
  24   0.0000      -0.009219        -0.2509
  25   0.0000       0.017632         0.4798
  26   0.0000       0.028861         0.7853
  27   0.0000       0.032441         0.8828
  28   0.0000       0.055363         1.5065

MULLIKEN ATOMIC CHARGES
-----------------------
   0 C :    0.301220
   1 N :   -0.333709
   2 C :    0.718429
   3 N :    0.056391
   4 C :    0.349581
   5 H :   -0.071092
   6 H :   -0.569962
   7 H :   -0.318905
   8 H :   -0.157853
   9 H :   -0.109281
  10 C :    0.700962
  11 H :    0.001568
  12 H :   -0.362075
  13 H :   -0.080181
  14 H :   -0.081035
  15 H :   -0.044057
Sum of atomic charges:    0.0000000

LOEWDIN ATOMIC CHARGES
----------------------
   0 C :    0.013101
   1 N :   -0.012541
   2 C :   -0.256570
   3 N :    0.196308
   4 C :    0.162145
   5 H :   -0.111994
   6 H :   -0.105750
   7 H :    0.014256
   8 H :   -0.014007
   9 H :    0.008928
  10 C :    0.138453
  11 H :    0.017640
  12 H :    0.017406
  13 H :   -0.022494
  14 H :   -0.024171
  15 H :   -0.020709

  Mayer bond orders larger than 0.100000
B(  0-C ,  1-N ) :   0.9081 B(  0-C ,  4-C ) :   0.1126 B(  0-C ,  7-H ) :  -0.1248
B(  0-C , 10-C ) :   1.2337 B(  0-C , 11-H ) :   0.8672 B(  0-C , 12-H ) :   0.8900
B(  0-C , 13-H ) :   0.2337 B(  0-C , 14-H ) :   0.1996 B(  0-C , 15-H ) :   0.1890
B(  1-N ,  2-C ) :   0.9169 B(  1-N ,  3-N ) :   0.2279 B(  1-N ,  4-C ) :   0.3770
B(  1-N ,  7-H ) :   1.2704 B(  1-N , 11-H ) :   0.1010 B(  1-N , 12-H ) :   0.1946
B(  2-C ,  3-N ) :   0.8674 B(  2-C ,  4-C ) :   1.5730 B(  2-C ,  5-H ) :   0.2825
B(  2-C ,  6-H ) :   0.1380 B(  2-C ,  7-H ) :  -0.2277 B(  3-N ,  4-C ) :   0.2439
B(  3-N ,  8-H ) :   1.1843 B(  3-N ,  9-H ) :   1.2387 B(  4-C ,  5-H ) :   0.5939
B(  4-C ,  6-H ) :   0.9434 B(  5-H , 11-H ) :   0.1066 B(  8-H ,  9-H ) :  -0.1750
B( 10-C , 13-H ) :   0.8057 B( 10-C , 14-H ) :   0.8440 B( 10-C , 15-H ) :   0.8045

Dispersion correction           -0.012840197
FINAL SINGLE POINT ENERGY      -267.391331811163

DIPOLE MOMENT
-------------
                                X             Y             Z
Electronic contribution:      1.35317      -1.84460      -3.41933
Nuclear contribution   :     -1.88803       2.22658       2.57497
                        -----------------------------------------
Total Dipole Moment    :     -0.53486       0.38198      -0.84436
                        -----------------------------------------
Magnitude (a.u.)       :      1.07001
Magnitude (Debye)      :      2.71975

Rotational constants in cm-1:     0.226509     0.075782     0.067928
Rotational constants in MHz :  6790.555051  2271.890226  2036.439218

                             ****ORCA TERMINATED NORMALLY****
TOTAL RUN TIME: 0 days 0 hours 0 minutes 8 seconds 361 msec
