                         Program Version 5.0.0 -  RELEASE  -
|  1> !PBE D3BJ RIJCOSX def2-SVPD def2/J TightSCF xyzfile
|  2>
|  3> *xyzfile 0 1 D2.xyz
|  4>
|  5> %MaxCore 64000
|  6>
|  7> %pal nprocs 4
|  8> end
|  9>
| 10> %scf
| 11>   MaxIter 150
| 12> end
| 13>
| 14>
| 15>                          ****END OF INPUT****

CARTESIAN COORDINATES (ANGSTROEM)
---------------------------------
  C      1.963365   -1.749150   -1.896887
  N      2.738490   -2.015170   -3.097113
  C      0.611877    1.657634   -4.500288
  C      1.694991    1.541794   -5.570447
  H      2.697326    1.734659   -5.183996
  H      1.506656    2.272239   -6.358076
  S      1.780287   -0.033128   -6.428739
  C      4.049736   -2.154717   -3.152044
  C      4.658206   -1.986293   -4.318655
  N      4.764231   -2.454435   -2.050491
  H      4.287363   -2.776259   -1.217496
  H      5.750825   -2.658351   -2.125988
  H      2.345176   -1.690274   -3.971447
  H      4.109004   -1.592677   -5.071760
  H      5.649095   -2.156462   -4.427237
  F      2.569287    0.213657   -7.607360
  O      0.416880   -0.462969   -6.618595
  C      2.088520   -0.300912   -1.415204
  H      2.231272   -2.451616   -1.102643
  H      0.930249   -1.977801   -2.155438
  C      0.680356    0.655418   -3.348038
  H     -0.356865    1.549231   -4.991128
  H      0.650228    2.675438   -4.096000
  C      1.968993    0.733582   -2.535654
  H      3.051356   -0.168602   -0.911868
  H      1.316501   -0.136231   -0.657252
  O      2.505129   -0.933263   -5.482570
  H      2.824195    0.624726   -3.208464
  H      2.058919    1.730331   -2.093112
  H      0.542252   -0.344731   -3.766662
  H     -0.174219    0.829692   -2.685182

 Total Charge           Charge          ....    0
 Multiplicity           Mult            ....    1
 Number of Electrons    NEL             ....  120
 Basis Dimension        Dim             ....  432

ORBITAL ENERGIES
----------------

  NO   OCC          E(Eh)            E(eV)
   0   2.0000     -88.322887     -2403.3880
   1   2.0000     -24.399490      -663.9439
   2   2.0000     -18.790143      -511.3058
   3   2.0000     -18.775960      -510.9199
   4   2.0000     -13.983338      -380.5060
   5   2.0000     -13.970335      -380.1522
   6   2.0000      -9.962075      -271.0819
   7   2.0000      -9.929426      -270.1934
   8   2.0000      -9.918607      -269.8990
   9   2.0000      -9.911058      -269.6936
  10   2.0000      -9.904642      -269.5190
  11   2.0000      -9.895063      -269.2584
  12   2.0000      -9.889606      -269.1099
  13   2.0000      -9.780944      -266.1530
  14   2.0000      -7.926837      -215.7002
  15   2.0000      -5.957979      -162.1248
  16   2.0000      -5.951928      -161.9602
  17   2.0000      -5.949988      -161.9074
  18   2.0000      -1.282761       -34.9057
  19   2.0000      -1.030247       -28.0344
  20   2.0000      -0.930264       -25.3138
  21   2.0000      -0.857638       -23.3375
  22   2.0000      -0.781344       -21.2615
  23   2.0000      -0.765275       -20.8242
  24   2.0000      -0.718319       -19.5465
  25   2.0000      -0.688701       -18.7405
  26   2.0000      -0.654793       -17.8178
  27   2.0000      -0.628316       -17.0973
  28   2.0000      -0.592463       -16.1217
  29   2.0000      -0.564065       -15.3490
  30   2.0000      -0.544206       -14.8086
  31   2.0000      -0.532895       -14.5008
  32   2.0000      -0.526474       -14.3261
  33   2.0000      -0.506333       -13.7780
  34   2.0000      -0.501224       -13.6390
  35   2.0000      -0.465306       -12.6616
  36   2.0000      -0.452757       -12.3201
  37   2.0000      -0.450239       -12.2516
  38   2.0000      -0.428488       -11.6598
  39   2.0000      -0.425899       -11.5893
  40   2.0000      -0.419195       -11.4069
  41   2.0000      -0.410836       -11.1794
  42   2.0000      -0.394330       -10.7303
  43   2.0000      -0.387471       -10.5436
  44   2.0000      -0.371903       -10.1200
  45   2.0000      -0.356008        -9.6875
  46   2.0000      -0.343635        -9.3508
  47   2.0000      -0.340954        -9.2778
  48   2.0000      -0.329829        -8.9751
  49   2.0000      -0.319053        -8.6819
  50   2.0000      -0.314175        -8.5491
  51   2.0000      -0.310208        -8.4412
  52   2.0000      -0.303519        -8.2592
  53   2.0000      -0.291364        -7.9284
  54   2.0000      -0.289337        -7.8733
  55   2.0000      -0.282416        -7.6849
  56   2.0000      -0.281323        -7.6552
  57   2.0000      -0.258859        -7.0439
  58   2.0000      -0.193187        -5.2569
  59   2.0000      -0.111725        -3.0402
  60   0.0000      -0.034438        -0.9371
  61   0.0000      -0.015821        -0.4305
  62   0.0000       0.002736         0.0745
  63   0.0000       0.006900         0.1878
  64   0.0000       0.015444         0.4203

MULLIKEN ATOMIC CHARGES
-----------------------
   0 C :    0.999758
   1 N :   -0.015389
   2 C :    0.428710
   3 C :    0.075114
   4 H :    0.139617
   5 H :   -0.082990
   6 S :    1.507168
   7 C :    0.712941
   8 C :    0.612945
   9 N :    0.185877
  10 H :   -0.088976
  11 H :   -0.231172
  12 H :   -0.597460
  13 H :   -0.218336
  14 H :   -0.666927
  15 F :   -0.420057
  16 O :   -0.651878
  17 C :    0.399265
  18 H :   -0.445049
  19 H :   -0.163593
  20 C :   -0.019167
  21 H :    0.012884
  22 H :   -0.041423
  23 C :   -0.011637
  24 H :   -0.027307
  25 H :   -0.101678
  26 O :   -0.832910
  27 H :    0.127637
  28 H :   -0.351792
  29 H :   -0.040252
  30 H :   -0.193925
Sum of atomic charges:   -0.0000000

LOEWDIN ATOMIC CHARGES
----------------------
   0 C :    0.054161
   1 N :    0.022274
   2 C :   -0.021751
   3 C :   -0.052222
   4 H :    0.023113
   5 H :    0.018389
   6 S :    1.141226
   7 C :   -0.234180
   8 C :    0.166694
   9 N :    0.208020
  10 H :   -0.031518
  11 H :   -0.002699
  12 H :   -0.074443
  13 H :   -0.166221
  14 H :   -0.100974
  15 F :   -0.222087
  16 O :   -0.419042
  17 C :   -0.017501
  18 H :    0.006244
  19 H :    0.016735
  20 C :   -0.023784
  21 H :    0.030540
  22 H :    0.039814
  23 C :   -0.027973
  24 H :    0.017756
  25 H :    0.017244
  26 O :   -0.449106
  27 H :    0.011667
  28 H :    0.025063
  29 H :    0.009339
  30 H :    0.035224

  Mayer bond orders larger than 0.100000
B(  0-C ,  1-N ) :   0.9198 B(  0-C , 12-H ) :  -0.3448 B(  0-C , 17-C ) :   1.0590
B(  0-C , 18-H ) :   0.8640 B(  0-C , 19-H ) :   0.6011 B(  0-C , 23-C ) :   0.1305
B(  0-C , 25-H ) :   0.1335 B(  1-N ,  7-C ) :   1.0435 B(  1-N ,  8-C ) :   0.2584
B(  1-N ,  9-N ) :   0.2680 B(  1-N , 12-H ) :   1.1012 B(  1-N , 18-H ) :   0.1105
B(  1-N , 19-H ) :   0.1501 B(  2-C ,  3-C ) :   1.3289 B(  2-C ,  4-H ) :   0.1105
B(  2-C ,  5-H ) :   0.2045 B(  2-C , 20-C ) :   1.2780 B(  2-C , 21-H ) :   0.6323
B(  2-C , 22-H ) :   0.7506 B(  3-C ,  4-H ) :   0.8496 B(  3-C ,  5-H ) :   0.7874
B(  3-C ,  6-S ) :   1.0168 B(  3-C , 21-H ) :   0.1274 B(  3-C , 22-H ) :   0.1554
B(  6-S , 15-F ) :   0.6383 B(  6-S , 16-O ) :   1.4701 B(  6-S , 26-O ) :   1.3514
B(  7-C ,  8-C ) :   1.2658 B(  7-C ,  9-N ) :   0.9233 B(  7-C , 11-H ) :  -0.1338
B(  7-C , 12-H ) :  -0.3727 B(  7-C , 13-H ) :   0.1293 B(  7-C , 14-H ) :   0.2564
B(  8-C ,  9-N ) :   0.3015 B(  8-C , 13-H ) :   0.5687 B(  8-C , 14-H ) :   0.7009
B(  9-N , 10-H ) :   0.9657 B(  9-N , 11-H ) :   1.2838 B(  9-N , 18-H ) :   0.1088
B( 10-H , 11-H ) :  -0.2151 B( 12-H , 13-H ) :  -0.1011 B( 12-H , 19-H ) :   0.2027
B( 12-H , 24-H ) :   0.1504 B( 12-H , 27-H ) :   0.1215 B( 12-H , 28-H ) :  -0.1234
B( 13-H , 14-H ) :  -0.1998 B( 13-H , 26-O ) :   0.2631 B( 16-O , 26-O ) :   0.1659
B( 17-C , 18-H ) :   0.1419 B( 17-C , 19-H ) :   0.1155 B( 17-C , 23-C ) :   1.2719
B( 17-C , 24-H ) :   0.7287 B( 17-C , 25-H ) :   0.8610 B( 18-H , 19-H ) :  -0.1537
B( 20-C , 21-H ) :   0.2869 B( 20-C , 22-H ) :   0.1061 B( 20-C , 23-C ) :   1.1923
B( 20-C , 27-H ) :   0.1060 B( 20-C , 28-H ) :   0.1515 B( 20-C , 29-H ) :   0.9298
B( 20-C , 30-H ) :   0.8265 B( 23-C , 24-H ) :   0.2226 B( 23-C , 25-H ) :   0.1381
B( 23-C , 27-H ) :   0.8368 B( 23-C , 28-H ) :   0.9109 B( 23-C , 30-H ) :   0.1434

Dispersion correction           -0.037628914
FINAL SINGLE POINT ENERGY     -1071.429051565150

DIPOLE MOMENT
-------------
                                X             Y             Z
Electronic contribution:     -0.88338      -0.87697     -22.47824
Nuclear contribution   :      0.43347       2.59110      22.83150
                        -----------------------------------------
Total Dipole Moment    :     -0.44991       1.71413       0.35325
                        -----------------------------------------
Magnitude (a.u.)       :      1.80705
Magnitude (Debye)      :      4.59316

Rotational constants in cm-1:     0.029257     0.014415     0.010996
Rotational constants in MHz :   877.098782   432.159206   329.643335

                             ****ORCA TERMINATED NORMALLY****
TOTAL RUN TIME: 0 days 0 hours 0 minutes 43 seconds 883 msec
