                         Program Version 5.0.0 -  RELEASE  -
|  1> !PBE D3BJ RIJCOSX def2-SVPD def2/J TightSCF xyzfile
|  2>
|  3> *xyzfile 0 1 D4.xyz
|  4>
|  5> %MaxCore 64000
|  6>
|  7> %pal nprocs 4
|  8> end
|  9>
| 10> %scf
| 11>   MaxIter 150
| 12> end
| 13>
| 14>
| 15>                          ****END OF INPUT****

CARTESIAN COORDINATES (ANGSTROEM)
---------------------------------
  C      1.963365   -1.749150   -1.896887
  C      2.738490   -2.015170   -3.097113
  C      0.611877    1.657634   -4.500288
  C      1.694991    1.541794   -5.570447
  H      2.697326    1.734659   -5.183996
  H      1.506656    2.272239   -6.358076
  S      1.780287   -0.033128   -6.428739
  C      4.049736   -2.154717   -3.152044
  N      4.658206   -1.986293   -4.318655
  N      4.764231   -2.454435   -2.050491
  H      4.287363   -2.776259   -1.217496
  H      5.750825   -2.658351   -2.125988
  H      2.345176   -1.690274   -3.971447
  H      4.109004   -1.592677   -5.071760
  H      5.649095   -2.156462   -4.427237
  O      2.569287    0.213657   -7.607360
  F      0.416880   -0.462969   -6.618595
  C      2.088520   -0.300912   -1.415204
  H      2.231272   -2.451616   -1.102643
  H      0.930249   -1.977801   -2.155438
  C      0.680356    0.655418   -3.348038
  H     -0.356865    1.549231   -4.991128
  H      0.650228    2.675438   -4.096000
  C      1.968993    0.733582   -2.535654
  H      3.051356   -0.168602   -0.911868
  H      1.316501   -0.136231   -0.657252
  O      2.505129   -0.933263   -5.482570
  H      2.824195    0.624726   -3.208464
  H      2.058919    1.730331   -2.093112
  H      0.542252   -0.344731   -3.766662
  H     -0.174219    0.829692   -2.685182

 Total Charge           Charge          ....    0
 Multiplicity           Mult            ....    1
 Number of Electrons    NEL             ....  120
 Basis Dimension        Dim             ....  432

ORBITAL ENERGIES
----------------

  NO   OCC          E(Eh)            E(eV)
   0   2.0000     -88.320831     -2403.3320
   1   2.0000     -24.398051      -663.9047
   2   2.0000     -18.787677      -511.2387
   3   2.0000     -18.774580      -510.8823
   4   2.0000     -13.986921      -380.6035
   5   2.0000     -13.971369      -380.1803
   6   2.0000      -9.958807      -270.9929
   7   2.0000      -9.925942      -270.0986
   8   2.0000      -9.912054      -269.7207
   9   2.0000      -9.898763      -269.3590
  10   2.0000      -9.884014      -268.9577
  11   2.0000      -9.872231      -268.6371
  12   2.0000      -9.860985      -268.3311
  13   2.0000      -9.788938      -266.3705
  14   2.0000      -7.924871      -215.6467
  15   2.0000      -5.956221      -162.0770
  16   2.0000      -5.949963      -161.9067
  17   2.0000      -5.947808      -161.8481
  18   2.0000      -1.280114       -34.8337
  19   2.0000      -1.029517       -28.0146
  20   2.0000      -0.928705       -25.2714
  21   2.0000      -0.850103       -23.1325
  22   2.0000      -0.767562       -20.8864
  23   2.0000      -0.763396       -20.7731
  24   2.0000      -0.716579       -19.4991
  25   2.0000      -0.681686       -18.5496
  26   2.0000      -0.657408       -17.8890
  27   2.0000      -0.626094       -17.0369
  28   2.0000      -0.587499       -15.9867
  29   2.0000      -0.560109       -15.2413
  30   2.0000      -0.540903       -14.7187
  31   2.0000      -0.535637       -14.5754
  32   2.0000      -0.523205       -14.2371
  33   2.0000      -0.494925       -13.4676
  34   2.0000      -0.490926       -13.3588
  35   2.0000      -0.472707       -12.8630
  36   2.0000      -0.448231       -12.1970
  37   2.0000      -0.444696       -12.1008
  38   2.0000      -0.427951       -11.6451
  39   2.0000      -0.426594       -11.6082
  40   2.0000      -0.418727       -11.3941
  41   2.0000      -0.398254       -10.8371
  42   2.0000      -0.391785       -10.6610
  43   2.0000      -0.386016       -10.5040
  44   2.0000      -0.374417       -10.1884
  45   2.0000      -0.349536        -9.5114
  46   2.0000      -0.343540        -9.3482
  47   2.0000      -0.337249        -9.1770
  48   2.0000      -0.330325        -8.9886
  49   2.0000      -0.319783        -8.7018
  50   2.0000      -0.308700        -8.4002
  51   2.0000      -0.297393        -8.0925
  52   2.0000      -0.294813        -8.0223
  53   2.0000      -0.288270        -7.8442
  54   2.0000      -0.278657        -7.5826
  55   2.0000      -0.274063        -7.4576
  56   2.0000      -0.261881        -7.1261
  57   2.0000      -0.239402        -6.5145
  58   2.0000      -0.203468        -5.5366
  59   2.0000      -0.110914        -3.0181
  60   0.0000      -0.038056        -1.0356
  61   0.0000      -0.003469        -0.0944
  62   0.0000       0.003206         0.0872
  63   0.0000       0.007051         0.1919
  64   0.0000       0.011731         0.3192

MULLIKEN ATOMIC CHARGES
-----------------------
   0 C :    0.285855
   1 C :   -0.071089
   2 C :    0.456852
   3 C :    0.102706
   4 H :    0.101828
   5 H :   -0.093622
   6 S :    1.414817
   7 C :    0.787809
   8 N :    0.159418
   9 N :   -0.016841
  10 H :   -0.043694
  11 H :   -0.295068
  12 H :   -0.287498
  13 H :   -0.164643
  14 H :   -0.299616
  15 O :   -0.618093
  16 F :   -0.416507
  17 C :    0.583080
  18 H :   -0.371086
  19 H :    0.118315
  20 C :    0.003466
  21 H :   -0.017051
  22 H :   -0.052332
  23 C :   -0.173424
  24 H :   -0.020554
  25 H :    0.039027
  26 O :   -0.724424
  27 H :    0.068141
  28 H :   -0.215161
  29 H :   -0.040653
  30 H :   -0.199957
Sum of atomic charges:    0.0000000

LOEWDIN ATOMIC CHARGES
----------------------
   0 C :   -0.052198
   1 C :   -0.028852
   2 C :   -0.039277
   3 C :   -0.040787
   4 H :    0.033640
   5 H :    0.021533
   6 S :    1.135779
   7 C :   -0.209439
   8 N :    0.217439
   9 N :    0.210013
  10 H :   -0.015094
  11 H :   -0.020140
  12 H :   -0.133353
  13 H :   -0.075592
  14 H :   -0.012089
  15 O :   -0.421659
  16 F :   -0.222464
  17 C :   -0.023460
  18 H :   -0.000798
  19 H :    0.008287
  20 C :   -0.025054
  21 H :    0.023927
  22 H :    0.036301
  23 C :   -0.028575
  24 H :    0.018298
  25 H :    0.014012
  26 O :   -0.448142
  27 H :    0.011693
  28 H :    0.023320
  29 H :    0.008394
  30 H :    0.034336

  Mayer bond orders larger than 0.100000
B(  0-C ,  1-C ) :   1.0552 B(  0-C ,  7-C ) :   0.1637 B(  0-C , 12-H ) :   0.4570
B(  0-C , 17-C ) :   1.1171 B(  0-C , 18-H ) :   0.8208 B(  0-C , 19-H ) :   0.6330
B(  0-C , 23-C ) :   0.1750 B(  0-C , 24-H ) :   0.1423 B(  0-C , 25-H ) :   0.2055
B(  1-C ,  7-C ) :   1.6869 B(  1-C ,  8-N ) :   0.2924 B(  1-C ,  9-N ) :   0.2907
B(  1-C , 10-H ) :  -0.1045 B(  1-C , 12-H ) :   0.1750 B(  1-C , 18-H ) :   0.2626
B(  1-C , 19-H ) :   0.3023 B(  1-C , 26-O ) :  -0.1053 B(  1-C , 28-H ) :   0.1224
B(  2-C ,  3-C ) :   1.2827 B(  2-C ,  4-H ) :   0.1131 B(  2-C ,  5-H ) :   0.1906
B(  2-C , 20-C ) :   1.2715 B(  2-C , 21-H ) :   0.6285 B(  2-C , 22-H ) :   0.7529
B(  3-C ,  4-H ) :   0.8660 B(  3-C ,  5-H ) :   0.8399 B(  3-C ,  6-S ) :   1.0403
B(  3-C , 21-H ) :   0.1224 B(  3-C , 22-H ) :   0.1433 B(  6-S , 15-O ) :   1.5758
B(  6-S , 16-F ) :   0.5940 B(  6-S , 26-O ) :   1.3626 B(  7-C ,  8-N ) :   0.7533
B(  7-C ,  9-N ) :   0.8657 B(  7-C , 11-H ) :  -0.2041 B(  7-C , 12-H ) :   0.5169
B(  7-C , 13-H ) :  -0.1282 B(  7-C , 14-H ) :  -0.2747 B(  8-N ,  9-N ) :   0.1346
B(  8-N , 12-H ) :   0.1192 B(  8-N , 13-H ) :   1.1543 B(  8-N , 14-H ) :   1.4018
B(  9-N , 10-H ) :   1.0604 B(  9-N , 11-H ) :   1.3897 B( 10-H , 11-H ) :  -0.2227
B( 12-H , 23-C ) :   0.1201 B( 12-H , 26-O ) :   0.1149 B( 12-H , 27-H ) :   0.1123
B( 12-H , 28-H ) :  -0.1545 B( 13-H , 14-H ) :  -0.2177 B( 13-H , 26-O ) :   0.1287
B( 15-O , 26-O ) :   0.1046 B( 16-F , 26-O ) :   0.1547 B( 17-C , 19-H ) :   0.1033
B( 17-C , 23-C ) :   1.2467 B( 17-C , 24-H ) :   0.7085 B( 17-C , 25-H ) :   0.6529
B( 17-C , 27-H ) :   0.1123 B( 17-C , 28-H ) :   0.1084 B( 20-C , 21-H ) :   0.2826
B( 20-C , 22-H ) :   0.1078 B( 20-C , 23-C ) :   1.2263 B( 20-C , 27-H ) :   0.1182
B( 20-C , 28-H ) :   0.1762 B( 20-C , 29-H ) :   0.9004 B( 20-C , 30-H ) :   0.8205
B( 21-H , 22-H ) :  -0.1058 B( 23-C , 24-H ) :   0.2595 B( 23-C , 25-H ) :   0.1639
B( 23-C , 27-H ) :   0.8718 B( 23-C , 28-H ) :   0.8675 B( 23-C , 29-H ) :   0.1298
B( 23-C , 30-H ) :   0.1650

Dispersion correction           -0.037702067
FINAL SINGLE POINT ENERGY     -1071.434448636571

DIPOLE MOMENT
-------------
                                X             Y             Z
Electronic contribution:     -2.94648      -2.20798     -21.74700
Nuclear contribution   :      2.64598       3.36033      21.85869
                        -----------------------------------------
Total Dipole Moment    :     -0.30049       1.15236       0.11170
                        -----------------------------------------
Magnitude (a.u.)       :      1.19612
Magnitude (Debye)      :      3.04029

Rotational constants in cm-1:     0.028973     0.014435     0.011026
Rotational constants in MHz :   868.588266   432.748309   330.548534

                             ****ORCA TERMINATED NORMALLY****
TOTAL RUN TIME: 0 days 0 hours 0 minutes 43 seconds 399 msec
