                         Program Version 5.0.0 -  RELEASE  -
|  1> !PBE D3BJ RIJCOSX def2-SVPD def2/J TightSCF xyzfile
|  2>
|  3> *xyzfile 0 1 D7.xyz
|  4>
|  5> %MaxCore 64000
|  6>
|  7> %pal nprocs 4
|  8> end
|  9>
| 10> %scf
| 11>   MaxIter 150
| 12> end
| 13>
| 14>
| 15>                          ****END OF INPUT****

CARTESIAN COORDINATES (ANGSTROEM)
---------------------------------
  C      1.963365   -1.749150   -1.896887
  C      2.738490   -2.015170   -3.097113
  C      0.611877    1.657634   -4.500288
  C      1.694991    1.541794   -5.570447
  H      2.697326    1.734659   -5.183996
  H      1.506656    2.272239   -6.358076
  S      1.780287   -0.033128   -6.428739
  C      4.049736   -2.154717   -3.152044
  N      4.658206   -1.986293   -4.318655
  N      4.764231   -2.454435   -2.050491
  H      4.287363   -2.776259   -1.217496
  H      5.750825   -2.658351   -2.125988
  H      2.345176   -1.690274   -3.971447
  H      4.109004   -1.592677   -5.071760
  H      5.649095   -2.156462   -4.427237
  O      2.569287    0.213657   -7.607360
  O      0.416880   -0.462969   -6.618595
  C      2.088520   -0.300912   -1.415204
  H      2.231272   -2.451616   -1.102643
  H      0.930249   -1.977801   -2.155438
  C      0.680356    0.655418   -3.348038
  H     -0.356865    1.549231   -4.991128
  H      0.650228    2.675438   -4.096000
  C      1.968993    0.733582   -2.535654
  H      3.051356   -0.168602   -0.911868
  H      1.316501   -0.136231   -0.657252
  F      2.505129   -0.933263   -5.482570
  H      2.824195    0.624726   -3.208464
  H      2.058919    1.730331   -2.093112
  H      0.542252   -0.344731   -3.766662
  H     -0.174219    0.829692   -2.685182

 Total Charge           Charge          ....    0
 Multiplicity           Mult            ....    1
 Number of Electrons    NEL             ....  120
 Basis Dimension        Dim             ....  432

ORBITAL ENERGIES
----------------

  NO   OCC          E(Eh)            E(eV)
   0   2.0000     -88.310234     -2403.0436
   1   2.0000     -24.374330      -663.2592
   2   2.0000     -18.782151      -511.0883
   3   2.0000     -18.781842      -511.0799
   4   2.0000     -14.005195      -381.1007
   5   2.0000     -14.000023      -380.9600
   6   2.0000      -9.953033      -270.8358
   7   2.0000      -9.934813      -270.3400
   8   2.0000      -9.919035      -269.9107
   9   2.0000      -9.899891      -269.3897
  10   2.0000      -9.891763      -269.1685
  11   2.0000      -9.882231      -268.9092
  12   2.0000      -9.875013      -268.7128
  13   2.0000      -9.815959      -267.1058
  14   2.0000      -7.914572      -215.3665
  15   2.0000      -5.945833      -161.7943
  16   2.0000      -5.939530      -161.6228
  17   2.0000      -5.937825      -161.5764
  18   2.0000      -1.243527       -33.8381
  19   2.0000      -1.033078       -28.1115
  20   2.0000      -0.942386       -25.6436
  21   2.0000      -0.873249       -23.7623
  22   2.0000      -0.790388       -21.5076
  23   2.0000      -0.759271       -20.6608
  24   2.0000      -0.723519       -19.6880
  25   2.0000      -0.682310       -18.5666
  26   2.0000      -0.664579       -18.0841
  27   2.0000      -0.628652       -17.1065
  28   2.0000      -0.599459       -16.3121
  29   2.0000      -0.564418       -15.3586
  30   2.0000      -0.532298       -14.4846
  31   2.0000      -0.519206       -14.1283
  32   2.0000      -0.516802       -14.0629
  33   2.0000      -0.503907       -13.7120
  34   2.0000      -0.492500       -13.4016
  35   2.0000      -0.488859       -13.3025
  36   2.0000      -0.454414       -12.3652
  37   2.0000      -0.443048       -12.0559
  38   2.0000      -0.440069       -11.9749
  39   2.0000      -0.425498       -11.5784
  40   2.0000      -0.421078       -11.4581
  41   2.0000      -0.407410       -11.0862
  42   2.0000      -0.399012       -10.8577
  43   2.0000      -0.386805       -10.5255
  44   2.0000      -0.376948       -10.2573
  45   2.0000      -0.353660        -9.6236
  46   2.0000      -0.350894        -9.5483
  47   2.0000      -0.349156        -9.5010
  48   2.0000      -0.340186        -9.2569
  49   2.0000      -0.324817        -8.8387
  50   2.0000      -0.313943        -8.5428
  51   2.0000      -0.304275        -8.2797
  52   2.0000      -0.297519        -8.0959
  53   2.0000      -0.292572        -7.9613
  54   2.0000      -0.284072        -7.7300
  55   2.0000      -0.280756        -7.6398
  56   2.0000      -0.273527        -7.4431
  57   2.0000      -0.269558        -7.3350
  58   2.0000      -0.225585        -6.1385
  59   2.0000      -0.133105        -3.6220
  60   0.0000      -0.025490        -0.6936
  61   0.0000      -0.008479        -0.2307
  62   0.0000      -0.001225        -0.0333
  63   0.0000       0.005201         0.1415
  64   0.0000       0.012693         0.3454

MULLIKEN ATOMIC CHARGES
-----------------------
   0 C :    0.292956
   1 C :   -0.029561
   2 C :    0.490792
   3 C :    0.094194
   4 H :    0.146712
   5 H :   -0.165892
   6 S :    1.396564
   7 C :    0.816416
   8 N :    0.200824
   9 N :   -0.018988
  10 H :   -0.034447
  11 H :   -0.291055
  12 H :   -0.347104
  13 H :   -0.216404
  14 H :   -0.289698
  15 O :   -0.640753
  16 O :   -0.671341
  17 C :    0.566201
  18 H :   -0.368111
  19 H :    0.121448
  20 C :   -0.021495
  21 H :   -0.008359
  22 H :   -0.043713
  23 C :   -0.160644
  24 H :   -0.024682
  25 H :    0.039149
  26 F :   -0.443816
  27 H :    0.054849
  28 H :   -0.197702
  29 H :   -0.082037
  30 H :   -0.164305
Sum of atomic charges:   -0.0000000

LOEWDIN ATOMIC CHARGES
----------------------
   0 C :   -0.048389
   1 C :   -0.027744
   2 C :   -0.033887
   3 C :   -0.046704
   4 H :    0.019218
   5 H :    0.031132
   6 S :    1.090248
   7 C :   -0.208945
   8 N :    0.214174
   9 N :    0.216638
  10 H :   -0.010412
  11 H :   -0.015286
  12 H :   -0.105632
  13 H :   -0.053019
  14 H :   -0.005053
  15 O :   -0.427979
  16 O :   -0.418029
  17 C :   -0.022103
  18 H :    0.003004
  19 H :    0.013025
  20 C :   -0.023256
  21 H :    0.029609
  22 H :    0.035717
  23 C :   -0.033325
  24 H :    0.018465
  25 H :    0.017351
  26 F :   -0.286019
  27 H :    0.006539
  28 H :    0.025197
  29 H :    0.009202
  30 H :    0.036262

  Mayer bond orders larger than 0.100000
B(  0-C ,  1-C ) :   1.0827 B(  0-C ,  7-C ) :   0.1633 B(  0-C , 12-H ) :   0.4540
B(  0-C , 17-C ) :   1.1291 B(  0-C , 18-H ) :   0.8008 B(  0-C , 19-H ) :   0.6364
B(  0-C , 23-C ) :   0.1784 B(  0-C , 24-H ) :   0.1321 B(  0-C , 25-H ) :   0.1891
B(  1-C ,  7-C ) :   1.6211 B(  1-C ,  8-N ) :   0.3066 B(  1-C ,  9-N ) :   0.2737
B(  1-C , 10-H ) :  -0.1013 B(  1-C , 18-H ) :   0.2823 B(  1-C , 19-H ) :   0.3105
B(  2-C ,  3-C ) :   1.2726 B(  2-C ,  4-H ) :   0.1324 B(  2-C ,  5-H ) :   0.1896
B(  2-C , 20-C ) :   1.2759 B(  2-C , 21-H ) :   0.6380 B(  2-C , 22-H ) :   0.7331
B(  3-C ,  4-H ) :   0.8463 B(  3-C ,  5-H ) :   0.7977 B(  3-C ,  6-S ) :   1.0471
B(  3-C , 21-H ) :   0.1387 B(  3-C , 22-H ) :   0.1389 B(  5-H ,  6-S ) :   0.1021
B(  6-S , 15-O ) :   1.5332 B(  6-S , 16-O ) :   1.4722 B(  6-S , 26-F ) :   0.6242
B(  7-C ,  8-N ) :   0.7808 B(  7-C ,  9-N ) :   0.8907 B(  7-C , 11-H ) :  -0.2131
B(  7-C , 12-H ) :   0.5328 B(  7-C , 13-H ) :  -0.1131 B(  7-C , 14-H ) :  -0.2649
B(  8-N ,  9-N ) :   0.1315 B(  8-N , 13-H ) :   1.1710 B(  8-N , 14-H ) :   1.3811
B(  9-N , 10-H ) :   1.0494 B(  9-N , 11-H ) :   1.3934 B( 10-H , 11-H ) :  -0.2228
B( 12-H , 23-C ) :   0.1284 B( 12-H , 28-H ) :  -0.1125 B( 13-H , 14-H ) :  -0.1978
B( 13-H , 26-F ) :   0.1669 B( 16-O , 26-F ) :   0.1061 B( 17-C , 19-H ) :   0.1044
B( 17-C , 23-C ) :   1.2461 B( 17-C , 24-H ) :   0.7218 B( 17-C , 25-H ) :   0.6578
B( 17-C , 27-H ) :   0.1212 B( 17-C , 28-H ) :   0.1147 B( 20-C , 21-H ) :   0.2863
B( 20-C , 22-H ) :   0.1107 B( 20-C , 23-C ) :   1.2219 B( 20-C , 27-H ) :   0.1026
B( 20-C , 28-H ) :   0.1761 B( 20-C , 29-H ) :   0.9255 B( 20-C , 30-H ) :   0.8024
B( 23-C , 24-H ) :   0.2643 B( 23-C , 25-H ) :   0.1622 B( 23-C , 27-H ) :   0.8722
B( 23-C , 28-H ) :   0.8696 B( 23-C , 29-H ) :   0.1066 B( 23-C , 30-H ) :   0.1763

Dispersion correction           -0.037371291
FINAL SINGLE POINT ENERGY     -1071.451797581516

DIPOLE MOMENT
-------------
                                X             Y             Z
Electronic contribution:      0.76839      -3.15567     -19.43935
Nuclear contribution   :      0.26049       3.89757      20.56096
                        -----------------------------------------
Total Dipole Moment    :      1.02888       0.74190       1.12161
                        -----------------------------------------
Magnitude (a.u.)       :      1.69323
Magnitude (Debye)      :      4.30385

Rotational constants in cm-1:     0.029090     0.014735     0.011139
Rotational constants in MHz :   872.086433   441.731892   333.928051

                             ****ORCA TERMINATED NORMALLY****
TOTAL RUN TIME: 0 days 0 hours 0 minutes 41 seconds 597 msec
