                         Program Version 5.0.0 -  RELEASE  -
|  1> !PBE D3BJ RIJCOSX def2-SVPD def2/J TightSCF xyzfile
|  2>
|  3> *xyzfile 0 1 D8.xyz
|  4>
|  5> %MaxCore 64000
|  6>
|  7> %pal nprocs 4
|  8> end
|  9>
| 10> %scf
| 11>   MaxIter 150
| 12> end
| 13>
| 14>
| 15>                          ****END OF INPUT****

CARTESIAN COORDINATES (ANGSTROEM)
---------------------------------
  C      1.963365   -1.749150   -1.896887
  N      2.738490   -2.015170   -3.097113
  C      0.611877    1.657634   -4.500288
  C      1.694991    1.541794   -5.570447
  H      2.697326    1.734659   -5.183996
  H      1.506656    2.272239   -6.358076
  S      1.780287   -0.033128   -6.428739
  C      4.049736   -2.154717   -3.152044
  C      4.658206   -1.986293   -4.318655
  N      4.764231   -2.454435   -2.050491
  H      4.287363   -2.776259   -1.217496
  H      5.750825   -2.658351   -2.125988
  H      2.345176   -1.690274   -3.971447
  H      4.109004   -1.592677   -5.071760
  H      5.649095   -2.156462   -4.427237
  O      2.569287    0.213657   -7.607360
  O      0.416880   -0.462969   -6.618595
  C      2.088520   -0.300912   -1.415204
  H      2.231272   -2.451616   -1.102643
  H      0.930249   -1.977801   -2.155438
  C      0.680356    0.655418   -3.348038
  H     -0.356865    1.549231   -4.991128
  H      0.650228    2.675438   -4.096000
  C      1.968993    0.733582   -2.535654
  H      3.051356   -0.168602   -0.911868
  H      1.316501   -0.136231   -0.657252
  F      2.505129   -0.933263   -5.482570
  H      2.824195    0.624726   -3.208464
  H      2.058919    1.730331   -2.093112
  H      0.542252   -0.344731   -3.766662
  H     -0.174219    0.829692   -2.685182

 Total Charge           Charge          ....    0
 Multiplicity           Mult            ....    1
 Number of Electrons    NEL             ....  120
 Basis Dimension        Dim             ....  432

ORBITAL ENERGIES
----------------

  NO   OCC          E(Eh)            E(eV)
   0   2.0000     -88.311949     -2403.0903
   1   2.0000     -24.375222      -663.2835
   2   2.0000     -18.783930      -511.1367
   3   2.0000     -18.782202      -511.0897
   4   2.0000     -14.002183      -381.0188
   5   2.0000     -13.998271      -380.9123
   6   2.0000      -9.956237      -270.9230
   7   2.0000      -9.935909      -270.3698
   8   2.0000      -9.934452      -270.3302
   9   2.0000      -9.927004      -270.1275
  10   2.0000      -9.914398      -269.7845
  11   2.0000      -9.907543      -269.5980
  12   2.0000      -9.902991      -269.4741
  13   2.0000      -9.807684      -266.8807
  14   2.0000      -7.916118      -215.4085
  15   2.0000      -5.947362      -161.8359
  16   2.0000      -5.941062      -161.6645
  17   2.0000      -5.939438      -161.6203
  18   2.0000      -1.244291       -33.8589
  19   2.0000      -1.034119       -28.1398
  20   2.0000      -0.943387       -25.6709
  21   2.0000      -0.881286       -23.9810
  22   2.0000      -0.802363       -21.8334
  23   2.0000      -0.766569       -20.8594
  24   2.0000      -0.725161       -19.7326
  25   2.0000      -0.694347       -18.8941
  26   2.0000      -0.652876       -17.7657
  27   2.0000      -0.643132       -17.5005
  28   2.0000      -0.605201       -16.4684
  29   2.0000      -0.573489       -15.6054
  30   2.0000      -0.539678       -14.6854
  31   2.0000      -0.536048       -14.5866
  32   2.0000      -0.513595       -13.9756
  33   2.0000      -0.508630       -13.8405
  34   2.0000      -0.495671       -13.4879
  35   2.0000      -0.481258       -13.0957
  36   2.0000      -0.453785       -12.3481
  37   2.0000      -0.449751       -12.2383
  38   2.0000      -0.439533       -11.9603
  39   2.0000      -0.436167       -11.8687
  40   2.0000      -0.424072       -11.5396
  41   2.0000      -0.414353       -11.2751
  42   2.0000      -0.400786       -10.9059
  43   2.0000      -0.392991       -10.6938
  44   2.0000      -0.381633       -10.3848
  45   2.0000      -0.361520        -9.8375
  46   2.0000      -0.356441        -9.6992
  47   2.0000      -0.351922        -9.5763
  48   2.0000      -0.341573        -9.2947
  49   2.0000      -0.333886        -9.0855
  50   2.0000      -0.328188        -8.9304
  51   2.0000      -0.320249        -8.7144
  52   2.0000      -0.307133        -8.3575
  53   2.0000      -0.304808        -8.2942
  54   2.0000      -0.298160        -8.1133
  55   2.0000      -0.293699        -7.9919
  56   2.0000      -0.290714        -7.9107
  57   2.0000      -0.281009        -7.6466
  58   2.0000      -0.214792        -5.8448
  59   2.0000      -0.134851        -3.6695
  60   0.0000      -0.025498        -0.6938
  61   0.0000      -0.011099        -0.3020
  62   0.0000      -0.003687        -0.1003
  63   0.0000       0.004096         0.1115
  64   0.0000       0.007980         0.2171

MULLIKEN ATOMIC CHARGES
-----------------------
   0 C :    1.005880
   1 N :   -0.028569
   2 C :    0.491434
   3 C :    0.087629
   4 H :    0.152060
   5 H :   -0.161005
   6 S :    1.404806
   7 C :    0.796616
   8 C :    0.636612
   9 N :    0.180667
  10 H :   -0.071305
  11 H :   -0.228126
  12 H :   -0.592876
  13 H :   -0.309168
  14 H :   -0.629784
  15 O :   -0.631944
  16 O :   -0.671942
  17 C :    0.399821
  18 H :   -0.440822
  19 H :   -0.160778
  20 C :   -0.019682
  21 H :    0.004373
  22 H :   -0.039280
  23 C :   -0.026699
  24 H :   -0.025609
  25 H :   -0.108737
  26 F :   -0.551032
  27 H :    0.127558
  28 H :   -0.336963
  29 H :   -0.092470
  30 H :   -0.160665
Sum of atomic charges:    0.0000000

LOEWDIN ATOMIC CHARGES
----------------------
   0 C :    0.055960
   1 N :    0.016452
   2 C :   -0.032456
   3 C :   -0.045205
   4 H :    0.021287
   5 H :    0.032148
   6 S :    1.090956
   7 C :   -0.232556
   8 C :    0.171059
   9 N :    0.214991
  10 H :   -0.026622
  11 H :    0.002319
  12 H :   -0.048611
  13 H :   -0.141363
  14 H :   -0.092528
  15 O :   -0.418009
  16 O :   -0.422734
  17 C :   -0.015963
  18 H :    0.009708
  19 H :    0.018803
  20 C :   -0.027990
  21 H :    0.030587
  22 H :    0.036969
  23 C :   -0.030154
  24 H :    0.019095
  25 H :    0.020438
  26 F :   -0.285333
  27 H :    0.008774
  28 H :    0.028498
  29 H :    0.004809
  30 H :    0.036671

  Mayer bond orders larger than 0.100000
B(  0-C ,  1-N ) :   0.9153 B(  0-C , 12-H ) :  -0.3290 B(  0-C , 17-C ) :   1.0571
B(  0-C , 18-H ) :   0.8597 B(  0-C , 19-H ) :   0.6049 B(  0-C , 23-C ) :   0.1272
B(  0-C , 25-H ) :   0.1236 B(  1-N ,  7-C ) :   1.0520 B(  1-N ,  8-C ) :   0.2623
B(  1-N ,  9-N ) :   0.2639 B(  1-N , 12-H ) :   1.1147 B(  1-N , 18-H ) :   0.1120
B(  1-N , 19-H ) :   0.1612 B(  2-C ,  3-C ) :   1.2783 B(  2-C ,  4-H ) :   0.1228
B(  2-C ,  5-H ) :   0.1808 B(  2-C , 20-C ) :   1.2774 B(  2-C , 21-H ) :   0.6320
B(  2-C , 22-H ) :   0.7320 B(  2-C , 29-H ) :   0.1001 B(  3-C ,  4-H ) :   0.8526
B(  3-C ,  5-H ) :   0.8040 B(  3-C ,  6-S ) :   1.0345 B(  3-C , 21-H ) :   0.1412
B(  3-C , 22-H ) :   0.1443 B(  5-H ,  6-S ) :   0.1004 B(  6-S , 15-O ) :   1.5366
B(  6-S , 16-O ) :   1.4527 B(  6-S , 26-F ) :   0.6301 B(  7-C ,  8-C ) :   1.2415
B(  7-C ,  9-N ) :   0.8991 B(  7-C , 11-H ) :  -0.1509 B(  7-C , 12-H ) :  -0.3618
B(  7-C , 13-H ) :   0.1098 B(  7-C , 14-H ) :   0.2998 B(  8-C ,  9-N ) :   0.3231
B(  8-C , 13-H ) :   0.5240 B(  8-C , 14-H ) :   0.6809 B(  9-N , 10-H ) :   0.9576
B(  9-N , 11-H ) :   1.2835 B(  9-N , 18-H ) :   0.1059 B( 10-H , 11-H ) :  -0.2172
B( 12-H , 13-H ) :  -0.1128 B( 12-H , 19-H ) :   0.1912 B( 12-H , 24-H ) :   0.1262
B( 12-H , 27-H ) :   0.1004 B( 12-H , 28-H ) :  -0.1040 B( 13-H , 14-H ) :  -0.2450
B( 13-H , 26-F ) :   0.3526 B( 16-O , 26-F ) :   0.1081 B( 17-C , 18-H ) :   0.1423
B( 17-C , 19-H ) :   0.1113 B( 17-C , 23-C ) :   1.2605 B( 17-C , 24-H ) :   0.7349
B( 17-C , 25-H ) :   0.8718 B( 17-C , 27-H ) :   0.1031 B( 18-H , 19-H ) :  -0.1582
B( 20-C , 21-H ) :   0.2895 B( 20-C , 22-H ) :   0.1071 B( 20-C , 23-C ) :   1.2036
B( 20-C , 28-H ) :   0.1557 B( 20-C , 29-H ) :   0.9371 B( 20-C , 30-H ) :   0.8129
B( 23-C , 24-H ) :   0.2226 B( 23-C , 25-H ) :   0.1390 B( 23-C , 27-H ) :   0.8285
B( 23-C , 28-H ) :   0.9236 B( 23-C , 30-H ) :   0.1553

Dispersion correction           -0.037189537
FINAL SINGLE POINT ENERGY     -1071.445900208038

DIPOLE MOMENT
-------------
                                X             Y             Z
Electronic contribution:     -0.85944      -2.96623     -18.39340
Nuclear contribution   :      0.50676       3.90127      20.40426
                        -----------------------------------------
Total Dipole Moment    :     -0.35269       0.93505       2.01086
                        -----------------------------------------
Magnitude (a.u.)       :      2.24550
Magnitude (Debye)      :      5.70759

Rotational constants in cm-1:     0.029548     0.014706     0.011197
Rotational constants in MHz :   885.834387   440.871746   335.667619

                             ****ORCA TERMINATED NORMALLY****
TOTAL RUN TIME: 0 days 0 hours 0 minutes 43 seconds 272 msec
