                         Program Version 5.0.0 -  RELEASE  -
|  1> !M062X D3Zero RIJCOSX def2-SVP def2/J TightSCF
|  2> *xyz -1 1
|  3> C         -0.87096        0.24804       -2.66280
|  4> C         -0.47749        0.60819       -4.10105
|  5> H          0.20677        1.45830       -4.11875
|  6> H         -1.36844        0.92942       -4.64785
|  7> C          0.18467       -0.50664       -4.91676
|  8> O         -0.15869       -1.70109       -4.65798
|  9> O          1.05594       -0.17441       -5.74037
| 10> H         -1.54056       -0.58646       -2.67455
| 11> H         -1.35339        1.08600       -2.20455
| 12> H          0.00660       -0.00662       -2.10609
| 13> *
| 14>
| 15> %MaxCore 64000
| 16>
| 17> %pal nprocs 4
| 18> end
| 19>
| 20> %scf
| 21>   MaxIter 150
| 22> end
| 23>
| 24>
| 25>                          ****END OF INPUT****

CARTESIAN COORDINATES (ANGSTROEM)
---------------------------------
  C     -0.870960    0.248040   -2.662800
  C     -0.477490    0.608190   -4.101050
  H      0.206770    1.458300   -4.118750
  H     -1.368440    0.929420   -4.647850
  C      0.184670   -0.506640   -4.916760
  O     -0.158690   -1.701090   -4.657980
  O      1.055940   -0.174410   -5.740370
  H     -1.540560   -0.586460   -2.674550
  H     -1.353390    1.086000   -2.204550
  H      0.006600   -0.006620   -2.106090

 Total Charge           Charge          ....   -1
 Multiplicity           Mult            ....    1
 Number of Electrons    NEL             ....   40
 Basis Dimension        Dim             ....   95

ORBITAL ENERGIES
----------------

  NO   OCC          E(Eh)            E(eV)
   0   2.0000     -19.333263      -526.0848
   1   2.0000     -19.330136      -525.9997
   2   2.0000     -10.408371      -283.2262
   3   2.0000     -10.379300      -282.4351
   4   2.0000     -10.361156      -281.9414
   5   2.0000      -0.896503       -24.3951
   6   2.0000      -0.794534       -21.6204
   7   2.0000      -0.679821       -18.4989
   8   2.0000      -0.542559       -14.7638
   9   2.0000      -0.373868       -10.1735
  10   2.0000      -0.351282        -9.5589
  11   2.0000      -0.313602        -8.5335
  12   2.0000      -0.280237        -7.6256
  13   2.0000      -0.267278        -7.2730
  14   2.0000      -0.257828        -7.0158
  15   2.0000      -0.224471        -6.1082
  16   2.0000      -0.206550        -5.6205
  17   2.0000      -0.081421        -2.2156
  18   2.0000      -0.076934        -2.0935
  19   2.0000      -0.070783        -1.9261
  20   0.0000       0.253945         6.9102
  21   0.0000       0.305113         8.3025
  22   0.0000       0.312394         8.5007
  23   0.0000       0.321407         8.7459
  24   0.0000       0.330881         9.0037

MULLIKEN ATOMIC CHARGES
-----------------------
   0 C :   -0.024627
   1 C :   -0.095260
   2 H :   -0.020588
   3 H :   -0.010133
   4 C :    0.114769
   5 O :   -0.494627
   6 O :   -0.461512
   7 H :    0.017881
   8 H :   -0.032516
   9 H :    0.006613
Sum of atomic charges:   -1.0000000

LOEWDIN ATOMIC CHARGES
----------------------
   0 C :   -0.070187
   1 C :   -0.103760
   2 H :    0.002963
   3 H :    0.010167
   4 C :   -0.029585
   5 O :   -0.432438
   6 O :   -0.398641
   7 H :    0.014758
   8 H :   -0.005639
   9 H :    0.012362

  Mayer bond orders larger than 0.100000
B(  0-C ,  1-C ) :   1.0722 B(  0-C ,  7-H ) :   0.9645 B(  0-C ,  8-H ) :   0.9635
B(  0-C ,  9-H ) :   0.9778 B(  1-C ,  2-H ) :   0.9486 B(  1-C ,  3-H ) :   0.9418
B(  1-C ,  4-C ) :   0.9077 B(  4-C ,  5-O ) :   1.8077 B(  4-C ,  6-O ) :   1.8550
B(  5-O ,  6-O ) :   0.1044

Dispersion correction           -0.000090013
FINAL SINGLE POINT ENERGY      -267.494840810019

DIPOLE MOMENT
-------------
                                X             Y             Z
Electronic contribution:      2.68406      -3.00877      -4.66256
Nuclear contribution   :     -3.54611       4.15440       5.90446
                        -----------------------------------------
Total Dipole Moment    :     -0.86205       1.14563       1.24190
                        -----------------------------------------
Magnitude (a.u.)       :      1.89682
Magnitude (Debye)      :      4.82132

Rotational constants in cm-1:     0.332789     0.132085     0.101080
Rotational constants in MHz :  9976.755824  3959.803182  3030.288811

                             ****ORCA TERMINATED NORMALLY****
TOTAL RUN TIME: 0 days 0 hours 0 minutes 12 seconds 388 msec
