                         Program Version 5.0.0 -  RELEASE  -
|  1> !M062X D3Zero RIJCOSX def2-SVP def2/J TightSCF
|  2> *xyz 1 1
|  3> C          2.48645       -2.67712       -2.56345
|  4> C          3.03764       -2.36672       -3.92351
|  5> N          2.28036       -2.45441       -4.96769
|  6> N          4.32174       -2.01793       -4.01664
|  7> H          4.87994       -1.91167       -3.17382
|  8> H          4.71015       -1.67088       -4.88356
|  9> H          1.27042       -2.41265       -4.86614
| 10> H          2.58183       -2.05528       -5.84688
| 11> C          2.49799       -1.46946       -1.61030
| 12> H          1.47259       -3.05153       -2.69437
| 13> H          3.08320       -3.49064       -2.14147
| 14> H          1.91240       -0.67831       -2.02991
| 15> H          3.50450       -1.13364       -1.47227
| 16> H          2.08509       -1.75655       -0.66585
| 17> *
| 18>
| 19> %MaxCore 64000
| 20>
| 21> %pal nprocs 4
| 22> end
| 23>
| 24> %scf
| 25>   MaxIter 150
| 26> end
| 27>
| 28>
| 29>                          ****END OF INPUT****

CARTESIAN COORDINATES (ANGSTROEM)
---------------------------------
  C      2.486450   -2.677120   -2.563450
  C      3.037640   -2.366720   -3.923510
  N      2.280360   -2.454410   -4.967690
  N      4.321740   -2.017930   -4.016640
  H      4.879940   -1.911670   -3.173820
  H      4.710150   -1.670880   -4.883560
  H      1.270420   -2.412650   -4.866140
  H      2.581830   -2.055280   -5.846880
  C      2.497990   -1.469460   -1.610300
  H      1.472590   -3.051530   -2.694370
  H      3.083200   -3.490640   -2.141470
  H      1.912400   -0.678310   -2.029910
  H      3.504500   -1.133640   -1.472270
  H      2.085090   -1.756550   -0.665850

 Total Charge           Charge          ....    1
 Multiplicity           Mult            ....    1
 Number of Electrons    NEL             ....   40
 Basis Dimension        Dim             ....  115

ORBITAL ENERGIES
----------------

  NO   OCC          E(Eh)            E(eV)
   0   2.0000     -15.012035      -408.4982
   1   2.0000     -15.006354      -408.3436
   2   2.0000     -10.878632      -296.0226
   3   2.0000     -10.748956      -292.4940
   4   2.0000     -10.709743      -291.4269
   5   2.0000      -1.309062       -35.6214
   6   2.0000      -1.203828       -32.7578
   7   2.0000      -1.058857       -28.8130
   8   2.0000      -0.947186       -25.7742
   9   2.0000      -0.895074       -24.3562
  10   2.0000      -0.850382       -23.1401
  11   2.0000      -0.824909       -22.4469
  12   2.0000      -0.772048       -21.0085
  13   2.0000      -0.725352       -19.7378
  14   2.0000      -0.691365       -18.8130
  15   2.0000      -0.677633       -18.4393
  16   2.0000      -0.611059       -16.6277
  17   2.0000      -0.600890       -16.3510
  18   2.0000      -0.590693       -16.0736
  19   2.0000      -0.557442       -15.1688
  20   0.0000      -0.166982        -4.5438
  21   0.0000      -0.108500        -2.9524
  22   0.0000      -0.065517        -1.7828
  23   0.0000      -0.063475        -1.7272
  24   0.0000      -0.029770        -0.8101

MULLIKEN ATOMIC CHARGES
-----------------------
   0 C :   -0.065885
   1 C :   -0.037113
   2 N :   -0.005484
   3 N :   -0.053148
   4 H :    0.198716
   5 H :    0.188999
   6 H :    0.202750
   7 H :    0.183484
   8 C :   -0.041224
   9 H :    0.077227
  10 H :    0.121877
  11 H :    0.069574
  12 H :    0.057252
  13 H :    0.102975
Sum of atomic charges:    1.0000000

LOEWDIN ATOMIC CHARGES
----------------------
   0 C :   -0.039197
   1 C :    0.158670
   2 N :    0.098353
   3 N :    0.074745
   4 H :    0.123420
   5 H :    0.114351
   6 H :    0.128868
   7 H :    0.116163
   8 C :   -0.026875
   9 H :    0.053399
  10 H :    0.071143
  11 H :    0.039739
  12 H :    0.030619
  13 H :    0.056603

  Mayer bond orders larger than 0.100000
B(  0-C ,  1-C ) :   1.0125 B(  0-C ,  8-C ) :   1.0634 B(  0-C ,  9-H ) :   0.9278
B(  0-C , 10-H ) :   0.9201 B(  1-C ,  2-N ) :   1.5335 B(  1-C ,  3-N ) :   1.4917
B(  2-N ,  6-H ) :   0.9119 B(  2-N ,  7-H ) :   0.9261 B(  3-N ,  4-H ) :   0.9172
B(  3-N ,  5-H ) :   0.9250 B(  8-C , 11-H ) :   0.9709 B(  8-C , 12-H ) :   0.9727
B(  8-C , 13-H ) :   0.9625

Dispersion correction           -0.000199988
FINAL SINGLE POINT ENERGY      -228.738866178490

DIPOLE MOMENT
-------------
                                X             Y             Z
Electronic contribution:      1.06273      -1.04843      -3.94864
Nuclear contribution   :     -0.84604       1.34287       2.92710
                        -----------------------------------------
Total Dipole Moment    :      0.21669       0.29444      -1.02154
                        -----------------------------------------
Magnitude (a.u.)       :      1.08498
Magnitude (Debye)      :      2.75781

Rotational constants in cm-1:     0.265816     0.126189     0.097583
Rotational constants in MHz :  7968.948902  3783.040103  2925.457702

                             ****ORCA TERMINATED NORMALLY****
TOTAL RUN TIME: 0 days 0 hours 0 minutes 14 seconds 626 msec
