                         Program Version 5.0.0 -  RELEASE  -
|  1> !M062X D3Zero RIJCOSX def2-TZVP def2/J TightSCF xyzfile
|  2>
|  3> *xyzfile 0 1 B.xyz
|  4>
|  5> %MaxCore 64000
|  6>
|  7> %pal nprocs 18
|  8> end
|  9>
| 10> %scf
| 11>   MaxIter 150
| 12> end
| 13>
| 14>
| 15>                          ****END OF INPUT****

CARTESIAN COORDINATES (ANGSTROEM)
---------------------------------
  C      2.486452   -2.677121   -2.563447
  C     -0.870963    0.248043   -2.662804
  C     -0.477492    0.608191   -4.101052
  H      0.206773    1.458299   -4.118748
  H     -1.368442    0.929419   -4.647855
  C      0.184673   -0.506640   -4.916760
  C      3.037640   -2.366715   -3.923509
  N      2.280360   -2.454408   -4.967692
  N      4.321736   -2.017932   -4.016641
  H      4.879940   -1.911668   -3.173823
  H      4.710148   -1.670882   -4.883561
  H      1.270423   -2.412650   -4.866143
  H      2.581829   -2.055282   -5.846878
  O     -0.158685   -1.701088   -4.657981
  O      1.055938   -0.174410   -5.740373
  C      2.497991   -1.469464   -1.610303
  C      1.582841   -0.321986   -2.042619
  H      2.193083   -1.833912   -0.625420
  H      3.523356   -1.103982   -1.490392
  C      0.100160   -0.673551   -1.915815
  H      1.822311   -0.040361   -3.072834
  H      1.813180    0.557019   -1.433266
  H     -0.063284   -1.679120   -2.301112
  H     -0.168820   -0.691680   -0.853831
  H     -1.001048    1.181040   -2.104071
  H     -1.844645   -0.246592   -2.663281
  H      1.472592   -3.051527   -2.694366
  H      3.083201   -3.490638   -2.141472

 Total Charge           Charge          ....    0
 Multiplicity           Mult            ....    1
 Number of Electrons    NEL             ....   94
 Basis Dimension        Dim             ....  468

ORBITAL ENERGIES
----------------

  NO   OCC          E(Eh)            E(eV)
   0   2.0000     -19.535626      -531.5914
   1   2.0000     -19.528129      -531.3874
   2   2.0000     -14.831096      -403.5746
   3   2.0000     -14.795235      -402.5988
   4   2.0000     -10.690523      -290.9039
   5   2.0000     -10.588541      -288.1289
   6   2.0000     -10.581081      -287.9259
   7   2.0000     -10.562561      -287.4219
   8   2.0000     -10.531755      -286.5836
   9   2.0000     -10.513004      -286.0734
  10   2.0000     -10.508282      -285.9449
  11   2.0000     -10.495676      -285.6019
  12   2.0000      -1.145879       -31.1810
  13   2.0000      -1.120710       -30.4961
  14   2.0000      -1.040230       -28.3061
  15   2.0000      -1.020790       -27.7771
  16   2.0000      -0.931368       -25.3438
  17   2.0000      -0.875621       -23.8268
  18   2.0000      -0.827876       -22.5277
  19   2.0000      -0.768557       -20.9135
  20   2.0000      -0.745886       -20.2966
  21   2.0000      -0.699808       -19.0427
  22   2.0000      -0.683809       -18.6074
  23   2.0000      -0.657915       -17.9028
  24   2.0000      -0.636614       -17.3231
  25   2.0000      -0.597816       -16.2674
  26   2.0000      -0.573134       -15.5958
  27   2.0000      -0.553052       -15.0493
  28   2.0000      -0.534261       -14.5380
  29   2.0000      -0.523526       -14.2459
  30   2.0000      -0.518374       -14.1057
  31   2.0000      -0.492559       -13.4032
  32   2.0000      -0.480725       -13.0812
  33   2.0000      -0.477390       -12.9905
  34   2.0000      -0.463297       -12.6069
  35   2.0000      -0.450224       -12.2512
  36   2.0000      -0.438452       -11.9309
  37   2.0000      -0.421533       -11.4705
  38   2.0000      -0.414366       -11.2755
  39   2.0000      -0.398785       -10.8515
  40   2.0000      -0.384598       -10.4655
  41   2.0000      -0.375306       -10.2126
  42   2.0000      -0.365309        -9.9406
  43   2.0000      -0.356343        -9.6966
  44   2.0000      -0.291944        -7.9442
  45   2.0000      -0.283376        -7.7111
  46   2.0000      -0.273510        -7.4426
  47   0.0000      -0.003297        -0.0897
  48   0.0000       0.014801         0.4028
  49   0.0000       0.055156         1.5009
  50   0.0000       0.077475         2.1082
  51   0.0000       0.084609         2.3023

MULLIKEN ATOMIC CHARGES
-----------------------
   0 C :   -0.410096
   1 C :   -0.256353
   2 C :   -0.334821
   3 H :    0.151871
   4 H :    0.143663
   5 C :    0.329531
   6 C :    0.413753
   7 N :   -0.351186
   8 N :   -0.476065
   9 H :    0.279993
  10 H :    0.275668
  11 H :    0.323675
  12 H :    0.265348
  13 O :   -0.581092
  14 O :   -0.519181
  15 C :   -0.283088
  16 C :   -0.331140
  17 H :    0.164023
  18 H :    0.143133
  19 C :   -0.251105
  20 H :    0.192325
  21 H :    0.146071
  22 H :    0.159575
  23 H :    0.133093
  24 H :    0.130581
  25 H :    0.137356
  26 H :    0.214981
  27 H :    0.189486
Sum of atomic charges:   -0.0000000

LOEWDIN ATOMIC CHARGES
----------------------
   0 C :   -0.208824
   1 C :   -0.268336
   2 C :   -0.252779
   3 H :    0.140457
   4 H :    0.146964
   5 C :   -0.652565
   6 C :   -0.316607
   7 N :    0.147065
   8 N :    0.048634
   9 H :    0.191143
  10 H :    0.186990
  11 H :    0.168280
  12 H :    0.189750
  13 O :   -0.093189
  14 O :   -0.068335
  15 C :   -0.259012
  16 C :   -0.261609
  17 H :    0.147281
  18 H :    0.131309
  19 C :   -0.275123
  20 H :    0.150402
  21 H :    0.139067
  22 H :    0.141062
  23 H :    0.132766
  24 H :    0.133126
  25 H :    0.141191
  26 H :    0.163402
  27 H :    0.157493

  Mayer bond orders larger than 0.100000
B(  0-C ,  6-C ) :   0.9313 B(  0-C , 15-C ) :   0.8887 B(  0-C , 26-H ) :   0.9807
B(  0-C , 27-H ) :   0.9694 B(  1-C ,  2-C ) :   0.9021 B(  1-C , 19-C ) :   0.9405
B(  1-C , 24-H ) :   0.9823 B(  1-C , 25-H ) :   0.9791 B(  2-C ,  3-H ) :   0.9813
B(  2-C ,  4-H ) :   0.9627 B(  2-C ,  5-C ) :   0.9381 B(  5-C , 13-O ) :   1.5824
B(  5-C , 14-O ) :   1.8014 B(  6-C ,  7-N ) :   1.5634 B(  6-C ,  8-N ) :   1.2493
B(  7-N , 11-H ) :   0.7301 B(  7-N , 12-H ) :   0.8983 B(  8-N ,  9-H ) :   0.9046
B(  8-N , 10-H ) :   0.9080 B( 11-H , 13-O ) :   0.2226 B( 15-C , 16-C ) :   0.8927
B( 15-C , 17-H ) :   0.9770 B( 15-C , 18-H ) :   0.9898 B( 16-C , 19-C ) :   0.8692
B( 16-C , 20-H ) :   0.9710 B( 16-C , 21-H ) :   0.9711 B( 19-C , 22-H ) :   0.9842
B( 19-C , 23-H ) :   0.9692

Dispersion correction           -0.001393253
FINAL SINGLE POINT ENERGY      -574.429986346386

DIPOLE MOMENT
-------------
                                X             Y             Z
Electronic contribution:      1.74269      -2.91403      -8.79847
Nuclear contribution   :      1.39386       1.90489      10.36520
                        -----------------------------------------
Total Dipole Moment    :      3.13655      -1.00914       1.56674
                        -----------------------------------------
Magnitude (a.u.)       :      3.64842
Magnitude (Debye)      :      9.27354

Rotational constants in cm-1:     0.041165     0.025922     0.019001
Rotational constants in MHz :  1234.086888   777.109255   569.639629

                             ****ORCA TERMINATED NORMALLY****
TOTAL RUN TIME: 0 days 0 hours 0 minutes 55 seconds 593 msec
