                         Program Version 5.0.0 -  RELEASE  -
|  1> !M062X D3Zero RIJCOSX def2-SVP def2/J TightSCF
|  2> *xyz 0 1
|  3> C         -0.87096        0.24804       -2.66280
|  4> C         -0.47749        0.60819       -4.10105
|  5> H          0.20677        1.45830       -4.11875
|  6> H         -1.36844        0.92942       -4.64785
|  7> C          0.18467       -0.50664       -4.91676
|  8> F         -0.15869       -1.70109       -4.65798
|  9> O          1.05594       -0.17441       -5.74037
| 10> H         -1.54056       -0.58646       -2.67455
| 11> H         -1.35339        1.08600       -2.20455
| 12> H          0.00660       -0.00662       -2.10609
| 13> *
| 14>
| 15> %MaxCore 64000
| 16>
| 17> %pal nprocs 4
| 18> end
| 19>
| 20> %scf
| 21>   MaxIter 150
| 22> end
| 23>
| 24>
| 25>                          ****END OF INPUT****

CARTESIAN COORDINATES (ANGSTROEM)
---------------------------------
  C     -0.870960    0.248040   -2.662800
  C     -0.477490    0.608190   -4.101050
  H      0.206770    1.458300   -4.118750
  H     -1.368440    0.929420   -4.647850
  C      0.184670   -0.506640   -4.916760
  F     -0.158690   -1.701090   -4.657980
  O      1.055940   -0.174410   -5.740370
  H     -1.540560   -0.586460   -2.674550
  H     -1.353390    1.086000   -2.204550
  H      0.006600   -0.006620   -2.106090

 Total Charge           Charge          ....    0
 Multiplicity           Mult            ....    1
 Number of Electrons    NEL             ....   40
 Basis Dimension        Dim             ....   95

ORBITAL ENERGIES
----------------

  NO   OCC          E(Eh)            E(eV)
   0   2.0000     -25.309281      -688.7005
   1   2.0000     -19.636662      -534.3407
   2   2.0000     -10.726956      -291.8953
   3   2.0000     -10.579658      -287.8871
   4   2.0000     -10.558834      -287.3205
   5   2.0000      -1.425974       -38.8027
   6   2.0000      -1.142053       -31.0769
   7   2.0000      -0.890446       -24.2303
   8   2.0000      -0.768429       -20.9100
   9   2.0000      -0.724732       -19.7210
  10   2.0000      -0.632367       -17.2076
  11   2.0000      -0.625997       -17.0342
  12   2.0000      -0.572041       -15.5660
  13   2.0000      -0.536092       -14.5878
  14   2.0000      -0.503429       -13.6990
  15   2.0000      -0.469694       -12.7810
  16   2.0000      -0.452822       -12.3219
  17   2.0000      -0.440691       -11.9918
  18   2.0000      -0.410525       -11.1709
  19   2.0000      -0.362460        -9.8631
  20   0.0000       0.028169         0.7665
  21   0.0000       0.090319         2.4577
  22   0.0000       0.141796         3.8585
  23   0.0000       0.152598         4.1524
  24   0.0000       0.166409         4.5282

MULLIKEN ATOMIC CHARGES
-----------------------
   0 C :   -0.060252
   1 C :   -0.166726
   2 H :    0.079802
   3 H :    0.081630
   4 C :    0.307510
   5 F :   -0.123588
   6 O :   -0.271060
   7 H :    0.050937
   8 H :    0.049781
   9 H :    0.051966
Sum of atomic charges:   -0.0000000

LOEWDIN ATOMIC CHARGES
----------------------
   0 C :   -0.056113
   1 C :   -0.080810
   2 H :    0.049896
   3 H :    0.051191
   4 C :    0.126519
   5 F :    0.011384
   6 O :   -0.192069
   7 H :    0.027694
   8 H :    0.033067
   9 H :    0.029242

  Mayer bond orders larger than 0.100000
B(  0-C ,  1-C ) :   1.0613 B(  0-C ,  7-H ) :   0.9729 B(  0-C ,  8-H ) :   0.9671
B(  0-C ,  9-H ) :   0.9798 B(  1-C ,  2-H ) :   0.9511 B(  1-C ,  3-H ) :   0.9323
B(  1-C ,  4-C ) :   0.9966 B(  4-C ,  5-F ) :   1.1429 B(  4-C ,  6-O ) :   2.0874

Dispersion correction           -0.000096223
FINAL SINGLE POINT ENERGY      -292.048752575525

DIPOLE MOMENT
-------------
                                X             Y             Z
Electronic contribution:      2.64232      -5.36352      -5.34773
Nuclear contribution   :     -3.42837       5.66737       6.17046
                        -----------------------------------------
Total Dipole Moment    :     -0.78605       0.30385       0.82272
                        -----------------------------------------
Magnitude (a.u.)       :      1.17774
Magnitude (Debye)      :      2.99358

Rotational constants in cm-1:     0.304660     0.130969     0.097716
Rotational constants in MHz :  9133.464515  3926.366384  2929.457090

                             ****ORCA TERMINATED NORMALLY****
TOTAL RUN TIME: 0 days 0 hours 0 minutes 11 seconds 627 msec
