                         Program Version 5.0.0 -  RELEASE  -
|  1> !M062X D3Zero RIJCOSX def2-SVP def2/J TightSCF
|  2> *xyz 0 1
|  3> C          2.48645       -2.67712       -2.56345
|  4> C          3.03764       -2.36672       -3.92351
|  5> C          2.28036       -2.45441       -4.96769
|  6> N          4.32174       -2.01793       -4.01664
|  7> H          4.87994       -1.91167       -3.17382
|  8> H          4.71015       -1.67088       -4.88356
|  9> H          1.27042       -2.41265       -4.86614
| 10> H          2.58183       -2.05528       -5.84688
| 11> C          2.49799       -1.46946       -1.61030
| 12> H          1.47259       -3.05153       -2.69437
| 13> H          3.08320       -3.49064       -2.14147
| 14> H          1.91240       -0.67831       -2.02991
| 15> H          3.50450       -1.13364       -1.47227
| 16> H          2.08509       -1.75655       -0.66585
| 17> *
| 18>
| 19> %MaxCore 64000
| 20>
| 21> %pal nprocs 4
| 22> end
| 23>
| 24> %scf
| 25>   MaxIter 150
| 26> end
| 27>
| 28>
| 29>                          ****END OF INPUT****

CARTESIAN COORDINATES (ANGSTROEM)
---------------------------------
  C      2.486450   -2.677120   -2.563450
  C      3.037640   -2.366720   -3.923510
  C      2.280360   -2.454410   -4.967690
  N      4.321740   -2.017930   -4.016640
  H      4.879940   -1.911670   -3.173820
  H      4.710150   -1.670880   -4.883560
  H      1.270420   -2.412650   -4.866140
  H      2.581830   -2.055280   -5.846880
  C      2.497990   -1.469460   -1.610300
  H      1.472590   -3.051530   -2.694370
  H      3.083200   -3.490640   -2.141470
  H      1.912400   -0.678310   -2.029910
  H      3.504500   -1.133640   -1.472270
  H      2.085090   -1.756550   -0.665850

 Total Charge           Charge          ....    0
 Multiplicity           Mult            ....    1
 Number of Electrons    NEL             ....   40
 Basis Dimension        Dim             ....  115

ORBITAL ENERGIES
----------------

  NO   OCC          E(Eh)            E(eV)
   0   2.0000     -14.754320      -401.4855
   1   2.0000     -10.565770      -287.5092
   2   2.0000     -10.546678      -286.9897
   3   2.0000     -10.539653      -286.7985
   4   2.0000     -10.478029      -285.1217
   5   2.0000      -1.015185       -27.6246
   6   2.0000      -0.864745       -23.5309
   7   2.0000      -0.806588       -21.9484
   8   2.0000      -0.712472       -19.3874
   9   2.0000      -0.636597       -17.3227
  10   2.0000      -0.592101       -16.1119
  11   2.0000      -0.544220       -14.8090
  12   2.0000      -0.501442       -13.6449
  13   2.0000      -0.495766       -13.4905
  14   2.0000      -0.448912       -12.2155
  15   2.0000      -0.445193       -12.1143
  16   2.0000      -0.413810       -11.2604
  17   2.0000      -0.391990       -10.6666
  18   2.0000      -0.384594       -10.4653
  19   2.0000      -0.243522        -6.6266
  20   0.0000       0.084400         2.2967
  21   0.0000       0.098671         2.6850
  22   0.0000       0.136722         3.7204
  23   0.0000       0.140559         3.8248
  24   0.0000       0.159440         4.3386

MULLIKEN ATOMIC CHARGES
-----------------------
   0 C :   -0.022483
   1 C :   -0.100980
   2 C :   -0.068515
   3 N :   -0.145670
   4 H :    0.123293
   5 H :    0.131728
   6 H :   -0.015487
   7 H :   -0.034494
   8 C :   -0.036370
   9 H :    0.031247
  10 H :    0.039334
  11 H :    0.038415
  12 H :    0.019476
  13 H :    0.040506
Sum of atomic charges:   -0.0000000

LOEWDIN ATOMIC CHARGES
----------------------
   0 C :   -0.035544
   1 C :    0.010749
   2 C :   -0.176939
   3 N :   -0.029570
   4 H :    0.072205
   5 H :    0.079198
   6 H :    0.004756
   7 H :   -0.004243
   8 C :   -0.053314
   9 H :    0.035199
  10 H :    0.028567
  11 H :    0.027090
  12 H :    0.015564
  13 H :    0.026283

  Mayer bond orders larger than 0.100000
B(  0-C ,  1-C ) :   1.0202 B(  0-C ,  8-C ) :   1.0781 B(  0-C ,  9-H ) :   0.9404
B(  0-C , 10-H ) :   0.9379 B(  1-C ,  2-C ) :   1.8990 B(  1-C ,  3-N ) :   1.2394
B(  2-C ,  6-H ) :   0.9385 B(  2-C ,  7-H ) :   0.9540 B(  3-N ,  4-H ) :   0.9501
B(  3-N ,  5-H ) :   0.9463 B(  8-C , 11-H ) :   0.9718 B(  8-C , 12-H ) :   0.9733
B(  8-C , 13-H ) :   0.9713

Dispersion correction           -0.000196499
FINAL SINGLE POINT ENERGY      -212.283114308117

DIPOLE MOMENT
-------------
                                X             Y             Z
Electronic contribution:      1.58505      -0.86883      -2.12507
Nuclear contribution   :     -0.99743       1.27863       2.57190
                        -----------------------------------------
Total Dipole Moment    :      0.58762       0.40980       0.44683
                        -----------------------------------------
Magnitude (a.u.)       :      0.84433
Magnitude (Debye)      :      2.14611

Rotational constants in cm-1:     0.274050     0.130114     0.100964
Rotational constants in MHz :  8215.815505  3900.722919  3026.834930

                             ****ORCA TERMINATED NORMALLY****
TOTAL RUN TIME: 0 days 0 hours 0 minutes 15 seconds 201 msec
