                         Program Version 5.0.0 -  RELEASE  -
|  1> !M062X D3Zero RIJCOSX def2-SVP def2/J TightSCF
|  2> *xyz 0 1
|  3> C         -0.87096        0.24804       -2.66280
|  4> C         -0.47749        0.60819       -4.10105
|  5> H          0.20677        1.45830       -4.11875
|  6> H         -1.36844        0.92942       -4.64785
|  7> C          0.18467       -0.50664       -4.91676
|  8> O         -0.15869       -1.70109       -4.65798
|  9> F          1.05594       -0.17441       -5.74037
| 10> H         -1.54056       -0.58646       -2.67455
| 11> H         -1.35339        1.08600       -2.20455
| 12> H          0.00660       -0.00662       -2.10609
| 13> *
| 14>
| 15> %MaxCore 64000
| 16>
| 17> %pal nprocs 4
| 18> end
| 19>
| 20> %scf
| 21>   MaxIter 150
| 22> end
| 23>
| 24>
| 25>                          ****END OF INPUT****

CARTESIAN COORDINATES (ANGSTROEM)
---------------------------------
  C     -0.870960    0.248040   -2.662800
  C     -0.477490    0.608190   -4.101050
  H      0.206770    1.458300   -4.118750
  H     -1.368440    0.929420   -4.647850
  C      0.184670   -0.506640   -4.916760
  O     -0.158690   -1.701090   -4.657980
  F      1.055940   -0.174410   -5.740370
  H     -1.540560   -0.586460   -2.674550
  H     -1.353390    1.086000   -2.204550
  H      0.006600   -0.006620   -2.106090

 Total Charge           Charge          ....    0
 Multiplicity           Mult            ....    1
 Number of Electrons    NEL             ....   40
 Basis Dimension        Dim             ....   95

ORBITAL ENERGIES
----------------

  NO   OCC          E(Eh)            E(eV)
   0   2.0000     -25.318311      -688.9463
   1   2.0000     -19.633659      -534.2590
   2   2.0000     -10.729337      -291.9601
   3   2.0000     -10.580986      -287.9233
   4   2.0000     -10.553134      -287.1654
   5   2.0000      -1.445308       -39.3288
   6   2.0000      -1.126360       -30.6498
   7   2.0000      -0.886530       -24.1237
   8   2.0000      -0.780248       -21.2316
   9   2.0000      -0.723704       -19.6930
  10   2.0000      -0.642019       -17.4702
  11   2.0000      -0.626487       -17.0476
  12   2.0000      -0.583418       -15.8756
  13   2.0000      -0.534790       -14.5524
  14   2.0000      -0.501407       -13.6440
  15   2.0000      -0.457995       -12.4627
  16   2.0000      -0.440344       -11.9824
  17   2.0000      -0.436677       -11.8826
  18   2.0000      -0.405556       -11.0357
  19   2.0000      -0.361005        -9.8235
  20   0.0000       0.025093         0.6828
  21   0.0000       0.095753         2.6056
  22   0.0000       0.143102         3.8940
  23   0.0000       0.152040         4.1372
  24   0.0000       0.167847         4.5674

MULLIKEN ATOMIC CHARGES
-----------------------
   0 C :   -0.033363
   1 C :   -0.171342
   2 H :    0.054997
   3 H :    0.082770
   4 C :    0.303992
   5 O :   -0.301125
   6 F :   -0.091155
   7 H :    0.064265
   8 H :    0.042413
   9 H :    0.048548
Sum of atomic charges:   -0.0000000

LOEWDIN ATOMIC CHARGES
----------------------
   0 C :   -0.042770
   1 C :   -0.084306
   2 H :    0.034106
   3 H :    0.053091
   4 C :    0.123056
   5 O :   -0.221776
   6 F :    0.043786
   7 H :    0.034788
   8 H :    0.029924
   9 H :    0.030101

  Mayer bond orders larger than 0.100000
B(  0-C ,  1-C ) :   1.0872 B(  0-C ,  7-H ) :   0.9685 B(  0-C ,  8-H ) :   0.9672
B(  0-C ,  9-H ) :   0.9806 B(  1-C ,  2-H ) :   0.9423 B(  1-C ,  3-H ) :   0.9262
B(  1-C ,  4-C ) :   0.9947 B(  4-C ,  5-O ) :   2.0491 B(  4-C ,  6-F ) :   1.1794

Dispersion correction           -0.000089599
FINAL SINGLE POINT ENERGY      -292.041980271901

DIPOLE MOMENT
-------------
                                X             Y             Z
Electronic contribution:      4.63769      -2.88176      -7.14046
Nuclear contribution   :     -4.75269       4.00281       7.35060
                        -----------------------------------------
Total Dipole Moment    :     -0.11501       1.12106       0.21014
                        -----------------------------------------
Magnitude (a.u.)       :      1.14636
Magnitude (Debye)      :      2.91382

Rotational constants in cm-1:     0.323805     0.124913     0.096140
Rotational constants in MHz :  9707.430323  3744.789513  2882.191141

                             ****ORCA TERMINATED NORMALLY****
TOTAL RUN TIME: 0 days 0 hours 0 minutes 11 seconds 967 msec
