                         Program Version 5.0.0 -  RELEASE  -
|  1> !M062X D3Zero RIJCOSX def2-SVP def2/J TightSCF
|  2> *xyz 0 1
|  3> C          2.48645       -2.67712       -2.56345
|  4> C          3.03764       -2.36672       -3.92351
|  5> N          2.28036       -2.45441       -4.96769
|  6> C          4.32174       -2.01793       -4.01664
|  7> H          4.87994       -1.91167       -3.17382
|  8> H          4.71015       -1.67088       -4.88356
|  9> H          1.27042       -2.41265       -4.86614
| 10> H          2.58183       -2.05528       -5.84688
| 11> C          2.49799       -1.46946       -1.61030
| 12> H          1.47259       -3.05153       -2.69437
| 13> H          3.08320       -3.49064       -2.14147
| 14> H          1.91240       -0.67831       -2.02991
| 15> H          3.50450       -1.13364       -1.47227
| 16> H          2.08509       -1.75655       -0.66585
| 17> *
| 18>
| 19> %MaxCore 64000
| 20>
| 21> %pal nprocs 4
| 22> end
| 23>
| 24> %scf
| 25>   MaxIter 150
| 26> end
| 27>
| 28>
| 29>                          ****END OF INPUT****

CARTESIAN COORDINATES (ANGSTROEM)
---------------------------------
  C      2.486450   -2.677120   -2.563450
  C      3.037640   -2.366720   -3.923510
  N      2.280360   -2.454410   -4.967690
  C      4.321740   -2.017930   -4.016640
  H      4.879940   -1.911670   -3.173820
  H      4.710150   -1.670880   -4.883560
  H      1.270420   -2.412650   -4.866140
  H      2.581830   -2.055280   -5.846880
  C      2.497990   -1.469460   -1.610300
  H      1.472590   -3.051530   -2.694370
  H      3.083200   -3.490640   -2.141470
  H      1.912400   -0.678310   -2.029910
  H      3.504500   -1.133640   -1.472270
  H      2.085090   -1.756550   -0.665850

 Total Charge           Charge          ....    0
 Multiplicity           Mult            ....    1
 Number of Electrons    NEL             ....   40
 Basis Dimension        Dim             ....  115

ORBITAL ENERGIES
----------------

  NO   OCC          E(Eh)            E(eV)
   0   2.0000     -14.758253      -401.5925
   1   2.0000     -10.566130      -287.5190
   2   2.0000     -10.547341      -287.0077
   3   2.0000     -10.535430      -286.6836
   4   2.0000     -10.478478      -285.1339
   5   2.0000      -1.031154       -28.0591
   6   2.0000      -0.866330       -23.5740
   7   2.0000      -0.789464       -21.4824
   8   2.0000      -0.717869       -19.5342
   9   2.0000      -0.640423       -17.4268
  10   2.0000      -0.589170       -16.0321
  11   2.0000      -0.548690       -14.9306
  12   2.0000      -0.511159       -13.9094
  13   2.0000      -0.470801       -12.8111
  14   2.0000      -0.457294       -12.4436
  15   2.0000      -0.439947       -11.9716
  16   2.0000      -0.411775       -11.2050
  17   2.0000      -0.395016       -10.7489
  18   2.0000      -0.393046       -10.6953
  19   2.0000      -0.233109        -6.3432
  20   0.0000       0.088217         2.4005
  21   0.0000       0.093104         2.5335
  22   0.0000       0.134853         3.6695
  23   0.0000       0.139453         3.7947
  24   0.0000       0.162506         4.4220

MULLIKEN ATOMIC CHARGES
-----------------------
   0 C :   -0.025390
   1 C :   -0.152645
   2 N :   -0.097715
   3 C :   -0.068863
   4 H :   -0.018261
   5 H :   -0.031216
   6 H :    0.122625
   7 H :    0.125617
   8 C :   -0.027915
   9 H :    0.008476
  10 H :    0.058760
  11 H :    0.030775
  12 H :    0.041853
  13 H :    0.033898
Sum of atomic charges:   -0.0000000

LOEWDIN ATOMIC CHARGES
----------------------
   0 C :   -0.036712
   1 C :   -0.004138
   2 N :   -0.005543
   3 C :   -0.183864
   4 H :   -0.000500
   5 H :   -0.006510
   6 H :    0.073290
   7 H :    0.079823
   8 C :   -0.045881
   9 H :    0.017493
  10 H :    0.041220
  11 H :    0.023050
  12 H :    0.025711
  13 H :    0.022562

  Mayer bond orders larger than 0.100000
B(  0-C ,  1-C ) :   0.9927 B(  0-C ,  8-C ) :   1.0918 B(  0-C ,  9-H ) :   0.9428
B(  0-C , 10-H ) :   0.9419 B(  1-C ,  2-N ) :   1.2760 B(  1-C ,  3-C ) :   1.8564
B(  2-N ,  6-H ) :   0.9450 B(  2-N ,  7-H ) :   0.9475 B(  3-C ,  4-H ) :   0.9520
B(  3-C ,  5-H ) :   0.9537 B(  8-C , 11-H ) :   0.9727 B(  8-C , 12-H ) :   0.9747
B(  8-C , 13-H ) :   0.9699

Dispersion correction           -0.000196929
FINAL SINGLE POINT ENERGY      -212.283628015155

DIPOLE MOMENT
-------------
                                X             Y             Z
Electronic contribution:     -0.29375      -1.19831      -2.99890
Nuclear contribution   :     -0.52463       1.37972       2.79217
                        -----------------------------------------
Total Dipole Moment    :     -0.81838       0.18140      -0.20673
                        -----------------------------------------
Magnitude (a.u.)       :      0.86336
Magnitude (Debye)      :      2.19449

Rotational constants in cm-1:     0.281086     0.127387     0.100311
Rotational constants in MHz :  8426.743103  3818.969834  3007.238026

                             ****ORCA TERMINATED NORMALLY****
TOTAL RUN TIME: 0 days 0 hours 0 minutes 15 seconds 143 msec
