                         Program Version 5.0.0 -  RELEASE  -
|  1> !M062X D3Zero RIJCOSX def2-TZVP def2/J TightSCF xyzfile
|  2>
|  3> *xyzfile 0 1 D1.xyz
|  4>
|  5> %MaxCore 64000
|  6>
|  7> %pal nprocs 18
|  8> end
|  9>
| 10> %scf
| 11>   MaxIter 150
| 12> end
| 13>
| 14>
| 15>                          ****END OF INPUT****

CARTESIAN COORDINATES (ANGSTROEM)
---------------------------------
  C      2.486452   -2.677121   -2.563447
  C     -0.870963    0.248043   -2.662804
  C     -0.477492    0.608191   -4.101052
  H      0.206773    1.458299   -4.118748
  H     -1.368442    0.929419   -4.647855
  C      0.184673   -0.506640   -4.916760
  C      3.037640   -2.366715   -3.923509
  C      2.280360   -2.454408   -4.967692
  N      4.321736   -2.017932   -4.016641
  H      4.879940   -1.911668   -3.173823
  H      4.710148   -1.670882   -4.883561
  H      1.270423   -2.412650   -4.866143
  H      2.581829   -2.055282   -5.846878
  F     -0.158685   -1.701088   -4.657981
  O      1.055938   -0.174410   -5.740373
  C      2.497991   -1.469464   -1.610303
  C      1.582841   -0.321986   -2.042619
  H      2.193083   -1.833912   -0.625420
  H      3.523356   -1.103982   -1.490392
  C      0.100160   -0.673551   -1.915815
  H      1.822311   -0.040361   -3.072834
  H      1.813180    0.557019   -1.433266
  H     -0.063284   -1.679120   -2.301112
  H     -0.168820   -0.691680   -0.853831
  H     -1.001048    1.181040   -2.104071
  H     -1.844645   -0.246592   -2.663281
  H      1.472592   -3.051527   -2.694366
  H      3.083201   -3.490638   -2.141472

 Total Charge           Charge          ....    0
 Multiplicity           Mult            ....    1
 Number of Electrons    NEL             ....   94
 Basis Dimension        Dim             ....  468

ORBITAL ENERGIES
----------------

  NO   OCC          E(Eh)            E(eV)
   0   2.0000     -25.311876      -688.7712
   1   2.0000     -19.632050      -534.2152
   2   2.0000     -14.734089      -400.9349
   3   2.0000     -10.718104      -291.6544
   4   2.0000     -10.564172      -287.4657
   5   2.0000     -10.548964      -287.0519
   6   2.0000     -10.541346      -286.8446
   7   2.0000     -10.536829      -286.7217
   8   2.0000     -10.533875      -286.6413
   9   2.0000     -10.532416      -286.6016
  10   2.0000     -10.527794      -286.4758
  11   2.0000     -10.443530      -284.1829
  12   2.0000      -1.462766       -39.8039
  13   2.0000      -1.162086       -31.6220
  14   2.0000      -1.021497       -27.7963
  15   2.0000      -0.927670       -25.2432
  16   2.0000      -0.890911       -24.2429
  17   2.0000      -0.839929       -22.8556
  18   2.0000      -0.816544       -22.2193
  19   2.0000      -0.770687       -20.9715
  20   2.0000      -0.749361       -20.3912
  21   2.0000      -0.704412       -19.1680
  22   2.0000      -0.663445       -18.0533
  23   2.0000      -0.661479       -17.9997
  24   2.0000      -0.641034       -17.4434
  25   2.0000      -0.619281       -16.8515
  26   2.0000      -0.584163       -15.8959
  27   2.0000      -0.577286       -15.7087
  28   2.0000      -0.552085       -15.0230
  29   2.0000      -0.542802       -14.7704
  30   2.0000      -0.528196       -14.3729
  31   2.0000      -0.511368       -13.9150
  32   2.0000      -0.499709       -13.5978
  33   2.0000      -0.484044       -13.1715
  34   2.0000      -0.469795       -12.7838
  35   2.0000      -0.454246       -12.3607
  36   2.0000      -0.441439       -12.0122
  37   2.0000      -0.437669       -11.9096
  38   2.0000      -0.422637       -11.5005
  39   2.0000      -0.415721       -11.3124
  40   2.0000      -0.402090       -10.9414
  41   2.0000      -0.397607       -10.8194
  42   2.0000      -0.379813       -10.3352
  43   2.0000      -0.374957       -10.2031
  44   2.0000      -0.369278       -10.0486
  45   2.0000      -0.360614        -9.8128
  46   2.0000      -0.236334        -6.4310
  47   0.0000       0.018098         0.4925
  48   0.0000       0.054144         1.4733
  49   0.0000       0.063702         1.7334
  50   0.0000       0.082372         2.2415
  51   0.0000       0.087695         2.3863

MULLIKEN ATOMIC CHARGES
-----------------------
   0 C :   -0.429557
   1 C :   -0.264964
   2 C :   -0.342220
   3 H :    0.190982
   4 H :    0.173690
   5 C :    0.382747
   6 C :    0.342295
   7 C :   -0.424770
   8 N :   -0.561369
   9 H :    0.238826
  10 H :    0.246501
  11 H :    0.097133
  12 H :    0.114744
  13 F :   -0.126763
  14 O :   -0.322525
  15 C :   -0.263966
  16 C :   -0.313967
  17 H :    0.146273
  18 H :    0.143080
  19 C :   -0.327526
  20 H :    0.197146
  21 H :    0.145824
  22 H :    0.166700
  23 H :    0.149177
  24 H :    0.150951
  25 H :    0.154112
  26 H :    0.173108
  27 H :    0.164338
Sum of atomic charges:   -0.0000000

LOEWDIN ATOMIC CHARGES
----------------------
   0 C :   -0.221122
   1 C :   -0.268492
   2 C :   -0.236472
   3 H :    0.159254
   4 H :    0.157224
   5 C :   -0.490271
   6 C :   -0.379872
   7 C :   -0.260058
   8 N :   -0.021045
   9 H :    0.166408
  10 H :    0.172048
  11 H :    0.099847
  12 H :    0.103604
  13 F :    0.312183
  14 O :    0.095039
  15 C :   -0.264872
  16 C :   -0.263974
  17 H :    0.139210
  18 H :    0.133234
  19 C :   -0.273705
  20 H :    0.149017
  21 H :    0.137778
  22 H :    0.138066
  23 H :    0.140519
  24 H :    0.142583
  25 H :    0.141777
  26 H :    0.146797
  27 H :    0.145296

  Mayer bond orders larger than 0.100000
B(  0-C ,  6-C ) :   0.8904 B(  0-C , 15-C ) :   0.8743 B(  0-C , 26-H ) :   1.0141
B(  0-C , 27-H ) :   0.9900 B(  1-C ,  2-C ) :   0.8951 B(  1-C , 19-C ) :   0.9126
B(  1-C , 24-H ) :   0.9761 B(  1-C , 25-H ) :   0.9877 B(  2-C ,  3-H ) :   0.9690
B(  2-C ,  4-H ) :   0.9577 B(  2-C ,  5-C ) :   0.9725 B(  5-C , 13-F ) :   1.0849
B(  5-C , 14-O ) :   2.0420 B(  6-C ,  7-C ) :   1.7186 B(  6-C ,  8-N ) :   1.0323
B(  7-C , 11-H ) :   1.0421 B(  7-C , 12-H ) :   1.0134 B(  8-N ,  9-H ) :   0.9316
B(  8-N , 10-H ) :   0.9274 B( 15-C , 16-C ) :   0.9054 B( 15-C , 17-H ) :   0.9863
B( 15-C , 18-H ) :   0.9847 B( 16-C , 19-C ) :   0.8756 B( 16-C , 20-H ) :   0.9687
B( 16-C , 21-H ) :   0.9739 B( 19-C , 22-H ) :   0.9965 B( 19-C , 23-H ) :   0.9727

Dispersion correction           -0.001380164
FINAL SINGLE POINT ENERGY      -582.325503153212

DIPOLE MOMENT
-------------
                                X             Y             Z
Electronic contribution:     -3.68916      -1.62211     -10.23444
Nuclear contribution   :      3.32973       2.37270      11.37738
                        -----------------------------------------
Total Dipole Moment    :     -0.35943       0.75059       1.14294
                        -----------------------------------------
Magnitude (a.u.)       :      1.41382
Magnitude (Debye)      :      3.59365

Rotational constants in cm-1:     0.040902     0.025807     0.019036
Rotational constants in MHz :  1226.202138   773.670450   570.681201

                             ****ORCA TERMINATED NORMALLY****
TOTAL RUN TIME: 0 days 0 hours 1 minutes 1 seconds 944 msec
