                         Program Version 5.0.0 -  RELEASE  -
|  1> !M062X D3Zero RIJCOSX def2-TZVP def2/J TightSCF xyzfile
|  2>
|  3> *xyzfile 0 1 D2.xyz
|  4>
|  5> %MaxCore 64000
|  6>
|  7> %pal nprocs 18
|  8> end
|  9>
| 10> %scf
| 11>   MaxIter 150
| 12> end
| 13>
| 14>
| 15>                          ****END OF INPUT****

CARTESIAN COORDINATES (ANGSTROEM)
---------------------------------
  C      2.486452   -2.677121   -2.563447
  C     -0.870963    0.248043   -2.662804
  C     -0.477492    0.608191   -4.101052
  H      0.206773    1.458299   -4.118748
  H     -1.368442    0.929419   -4.647855
  C      0.184673   -0.506640   -4.916760
  C      3.037640   -2.366715   -3.923509
  N      2.280360   -2.454408   -4.967692
  C      4.321736   -2.017932   -4.016641
  H      4.879940   -1.911668   -3.173823
  H      4.710148   -1.670882   -4.883561
  H      1.270423   -2.412650   -4.866143
  H      2.581829   -2.055282   -5.846878
  F     -0.158685   -1.701088   -4.657981
  O      1.055938   -0.174410   -5.740373
  C      2.497991   -1.469464   -1.610303
  C      1.582841   -0.321986   -2.042619
  H      2.193083   -1.833912   -0.625420
  H      3.523356   -1.103982   -1.490392
  C      0.100160   -0.673551   -1.915815
  H      1.822311   -0.040361   -3.072834
  H      1.813180    0.557019   -1.433266
  H     -0.063284   -1.679120   -2.301112
  H     -0.168820   -0.691680   -0.853831
  H     -1.001048    1.181040   -2.104071
  H     -1.844645   -0.246592   -2.663281
  H      1.472592   -3.051527   -2.694366
  H      3.083201   -3.490638   -2.141472

 Total Charge           Charge          ....    0
 Multiplicity           Mult            ....    1
 Number of Electrons    NEL             ....   94
 Basis Dimension        Dim             ....  468

ORBITAL ENERGIES
----------------

  NO   OCC          E(Eh)            E(eV)
   0   2.0000     -25.340441      -689.5485
   1   2.0000     -19.652185      -534.7631
   2   2.0000     -14.724245      -400.6671
   3   2.0000     -10.737203      -292.1742
   4   2.0000     -10.575697      -287.7793
   5   2.0000     -10.556520      -287.2575
   6   2.0000     -10.545465      -286.9567
   7   2.0000     -10.542128      -286.8659
   8   2.0000     -10.534981      -286.6714
   9   2.0000     -10.531805      -286.5850
  10   2.0000     -10.529055      -286.5102
  11   2.0000     -10.453157      -284.4449
  12   2.0000      -1.490053       -40.5464
  13   2.0000      -1.182043       -32.1650
  14   2.0000      -1.033029       -28.1102
  15   2.0000      -0.935674       -25.4610
  16   2.0000      -0.893668       -24.3179
  17   2.0000      -0.850897       -23.1541
  18   2.0000      -0.804610       -21.8945
  19   2.0000      -0.785128       -21.3644
  20   2.0000      -0.758573       -20.6418
  21   2.0000      -0.713477       -19.4147
  22   2.0000      -0.685933       -18.6652
  23   2.0000      -0.672297       -18.2941
  24   2.0000      -0.659654       -17.9501
  25   2.0000      -0.621078       -16.9004
  26   2.0000      -0.593407       -16.1474
  27   2.0000      -0.572483       -15.5781
  28   2.0000      -0.555587       -15.1183
  29   2.0000      -0.550077       -14.9683
  30   2.0000      -0.543502       -14.7894
  31   2.0000      -0.516446       -14.0532
  32   2.0000      -0.499516       -13.5925
  33   2.0000      -0.489573       -13.3220
  34   2.0000      -0.475822       -12.9478
  35   2.0000      -0.461568       -12.5599
  36   2.0000      -0.452961       -12.3257
  37   2.0000      -0.443735       -12.0747
  38   2.0000      -0.431135       -11.7318
  39   2.0000      -0.419528       -11.4159
  40   2.0000      -0.407291       -11.0830
  41   2.0000      -0.403135       -10.9699
  42   2.0000      -0.391419       -10.6511
  43   2.0000      -0.382148       -10.3988
  44   2.0000      -0.374549       -10.1920
  45   2.0000      -0.370262       -10.0753
  46   2.0000      -0.226014        -6.1502
  47   0.0000       0.000392         0.0107
  48   0.0000       0.047862         1.3024
  49   0.0000       0.072605         1.9757
  50   0.0000       0.081426         2.2157
  51   0.0000       0.087560         2.3826

MULLIKEN ATOMIC CHARGES
-----------------------
   0 C :   -0.423164
   1 C :   -0.266549
   2 C :   -0.342670
   3 H :    0.197494
   4 H :    0.177319
   5 C :    0.367217
   6 C :    0.294181
   7 N :   -0.486667
   8 C :   -0.449383
   9 H :    0.093317
  10 H :    0.102255
  11 H :    0.246352
  12 H :    0.250573
  13 F :   -0.140773
  14 O :   -0.319581
  15 C :   -0.254765
  16 C :   -0.322339
  17 H :    0.139149
  18 H :    0.157588
  19 C :   -0.328722
  20 H :    0.198174
  21 H :    0.149083
  22 H :    0.164267
  23 H :    0.153057
  24 H :    0.154916
  25 H :    0.156370
  26 H :    0.159647
  27 H :    0.173656
Sum of atomic charges:    0.0000000

LOEWDIN ATOMIC CHARGES
----------------------
   0 C :   -0.217623
   1 C :   -0.268068
   2 C :   -0.234509
   3 H :    0.161956
   4 H :    0.158935
   5 C :   -0.494694
   6 C :   -0.388708
   7 N :    0.025080
   8 C :   -0.285801
   9 H :    0.101673
  10 H :    0.095973
  11 H :    0.150367
  12 H :    0.175026
  13 F :    0.307785
  14 O :    0.088925
  15 C :   -0.255727
  16 C :   -0.264728
  17 H :    0.137366
  18 H :    0.141922
  19 C :   -0.275471
  20 H :    0.147786
  21 H :    0.139518
  22 H :    0.135605
  23 H :    0.141923
  24 H :    0.144345
  25 H :    0.141954
  26 H :    0.134394
  27 H :    0.154797

  Mayer bond orders larger than 0.100000
B(  0-C ,  6-C ) :   0.8583 B(  0-C , 15-C ) :   0.8965 B(  0-C , 26-H ) :   1.0197
B(  0-C , 27-H ) :   0.9848 B(  1-C ,  2-C ) :   0.8946 B(  1-C , 19-C ) :   0.9079
B(  1-C , 24-H ) :   0.9745 B(  1-C , 25-H ) :   0.9886 B(  2-C ,  3-H ) :   0.9671
B(  2-C ,  4-H ) :   0.9533 B(  2-C ,  5-C ) :   0.9754 B(  5-C , 13-F ) :   1.0593
B(  5-C , 14-O ) :   2.0413 B(  6-C ,  7-N ) :   1.1444 B(  6-C ,  8-C ) :   1.7303
B(  7-N , 11-H ) :   0.9151 B(  7-N , 12-H ) :   0.9258 B(  8-C ,  9-H ) :   1.0017
B(  8-C , 10-H ) :   0.9946 B( 15-C , 16-C ) :   0.9261 B( 15-C , 17-H ) :   0.9845
B( 15-C , 18-H ) :   0.9765 B( 16-C , 19-C ) :   0.8616 B( 16-C , 20-H ) :   0.9634
B( 16-C , 21-H ) :   0.9713 B( 19-C , 22-H ) :   0.9988 B( 19-C , 23-H ) :   0.9731

Dispersion correction           -0.001378231
FINAL SINGLE POINT ENERGY      -582.336924523649

DIPOLE MOMENT
-------------
                                X             Y             Z
Electronic contribution:     -5.32870      -1.78536     -10.85801
Nuclear contribution   :      3.65024       2.44123      11.52670
                        -----------------------------------------
Total Dipole Moment    :     -1.67846       0.65587       0.66869
                        -----------------------------------------
Magnitude (a.u.)       :      1.92212
Magnitude (Debye)      :      4.88564

Rotational constants in cm-1:     0.040600     0.026409     0.019262
Rotational constants in MHz :  1217.142957   791.712481   577.449390

                             ****ORCA TERMINATED NORMALLY****
TOTAL RUN TIME: 0 days 0 hours 0 minutes 58 seconds 422 msec
