                         Program Version 5.0.0 -  RELEASE  -
|  1> !M062X D3Zero RIJCOSX def2-SVPD def2/J TightSCF
|  2> *xyz -1 1
|  3> C          4.26524        2.50052       -0.79589
|  4> C          4.98224        1.65026        0.24742
|  5> O          4.36806        1.38927        1.31371
|  6> O          6.12892        1.23351       -0.04562
|  7> H          4.90412        2.63966       -1.64287
|  8> H          4.02079        3.45265       -0.37328
|  9> H          3.36773        2.00584       -1.10356
| 10> *
| 11> %MaxCore 64000
| 12> %pal nprocs 8
| 13> end
| 14> %scf
| 15>   MaxIter 150
| 16> end
| 17>
| 18>
| 19>                          ****END OF INPUT****

CARTESIAN COORDINATES (ANGSTROEM)
---------------------------------
  C      4.265240    2.500520   -0.795890
  C      4.982240    1.650260    0.247420
  O      4.368060    1.389270    1.313710
  O      6.128920    1.233510   -0.045620
  H      4.904120    2.639660   -1.642870
  H      4.020790    3.452650   -0.373280
  H      3.367730    2.005840   -1.103560

 Total Charge           Charge          ....   -1
 Multiplicity           Mult            ....    1
 Number of Electrons    NEL             ....   32
 Basis Dimension        Dim             ....  110

ORBITAL ENERGIES
----------------

  NO   OCC          E(Eh)            E(eV)
   0   2.0000     -19.368244      -527.0367
   1   2.0000     -19.367032      -527.0037
   2   2.0000     -10.436105      -283.9808
   3   2.0000     -10.361720      -281.9567
   4   2.0000      -0.925015       -25.1709
   5   2.0000      -0.824491       -22.4355
   6   2.0000      -0.630020       -17.1437
   7   2.0000      -0.379933       -10.3385
   8   2.0000      -0.329136        -8.9563
   9   2.0000      -0.315805        -8.5935
  10   2.0000      -0.303033        -8.2459
  11   2.0000      -0.255995        -6.9660
  12   2.0000      -0.234906        -6.3921
  13   2.0000      -0.108715        -2.9583
  14   2.0000      -0.107562        -2.9269
  15   2.0000      -0.098437        -2.6786
  16   0.0000       0.191176         5.2022
  17   0.0000       0.222755         6.0615
  18   0.0000       0.250853         6.8261
  19   0.0000       0.259114         7.0509
  20   0.0000       0.283659         7.7188

MULLIKEN ATOMIC CHARGES
-----------------------
   0 C :    0.474284
   1 C :    0.139962
   2 O :   -0.729351
   3 O :   -0.702985
   4 H :   -0.079499
   5 H :   -0.051167
   6 H :   -0.051243
Sum of atomic charges:   -1.0000000

LOEWDIN ATOMIC CHARGES
----------------------
   0 C :    0.143339
   1 C :   -0.325535
   2 O :   -0.355265
   3 O :   -0.350546
   4 H :   -0.041939
   5 H :   -0.035663
   6 H :   -0.034391

  Mayer bond orders larger than 0.100000
B(  0-C ,  1-C ) :   1.1908 B(  0-C ,  4-H ) :   0.8727 B(  0-C ,  5-H ) :   0.8135
B(  0-C ,  6-H ) :   0.8192 B(  1-C ,  2-O ) :   1.4199 B(  1-C ,  3-O ) :   1.4283
B(  1-C ,  4-H ) :   0.2508 B(  1-C ,  5-H ) :   0.1713 B(  1-C ,  6-H ) :   0.1656

Dispersion correction           -0.000017243
FINAL SINGLE POINT ENERGY      -228.267860659514

DIPOLE MOMENT
-------------
                                X             Y             Z
Electronic contribution:      1.68988      -1.99818       2.42650
Nuclear contribution   :     -2.34880       2.82033      -3.41655
                        -----------------------------------------
Total Dipole Moment    :     -0.65892       0.82215      -0.99005
                        -----------------------------------------
Magnitude (a.u.)       :      1.44579
Magnitude (Debye)      :      3.67490

Rotational constants in cm-1:     0.393413     0.334516     0.186969
Rotational constants in MHz : 11794.232386 10028.538646  5605.197050

                             ****ORCA TERMINATED NORMALLY****
TOTAL RUN TIME: 0 days 0 hours 0 minutes 5 seconds 753 msec
