                         Program Version 5.0.0 -  RELEASE  -
|  1> !M062X D3Zero RIJCOSX def2-SVPD def2/J TightSCF
|  2> *xyz 1 1
|  3> C          3.91385       -1.65829        3.01513
|  4> N          5.03927       -0.90115        2.49282
|  5> C          6.21038       -1.41726        2.17824
|  6> N          6.53591       -2.67712        2.55608
|  7> N          7.07675       -0.70082        1.47891
|  8> H          7.95464       -1.12155        1.20755
|  9> H          6.75616        0.10664        0.96028
| 10> H          4.84217        0.01761        2.11519
| 11> H          5.99388       -3.12692        3.28278
| 12> H          7.49844       -2.97548        2.46878
| 13> H          3.08844       -0.99893        3.18495
| 14> H          4.19412       -2.12366        3.93697
| 15> H          3.63051       -2.40965        2.30798
| 16> *
| 17> %MaxCore 64000
| 18> %pal nprocs 8
| 19> end
| 20> %scf
| 21>   MaxIter 150
| 22> end
| 23>
| 24>
| 25>                          ****END OF INPUT****

CARTESIAN COORDINATES (ANGSTROEM)
---------------------------------
  C      3.913850   -1.658290    3.015130
  N      5.039270   -0.901150    2.492820
  C      6.210380   -1.417260    2.178240
  N      6.535910   -2.677120    2.556080
  N      7.076750   -0.700820    1.478910
  H      7.954640   -1.121550    1.207550
  H      6.756160    0.106640    0.960280
  H      4.842170    0.017610    2.115190
  H      5.993880   -3.126920    3.282780
  H      7.498440   -2.975480    2.468780
  H      3.088440   -0.998930    3.184950
  H      4.194120   -2.123660    3.936970
  H      3.630510   -2.409650    2.307980

 Total Charge           Charge          ....    1
 Multiplicity           Mult            ....    1
 Number of Electrons    NEL             ....   40
 Basis Dimension        Dim             ....  164

ORBITAL ENERGIES
----------------

  NO   OCC          E(Eh)            E(eV)
   0   2.0000     -14.995355      -408.0443
   1   2.0000     -14.990714      -407.9181
   2   2.0000     -14.989894      -407.8958
   3   2.0000     -10.897464      -296.5351
   4   2.0000     -10.759153      -292.7714
   5   2.0000      -1.325357       -36.0648
   6   2.0000      -1.206994       -32.8440
   7   2.0000      -1.189304       -32.3626
   8   2.0000      -0.997357       -27.1395
   9   2.0000      -0.911127       -24.7930
  10   2.0000      -0.869460       -23.6592
  11   2.0000      -0.833937       -22.6926
  12   2.0000      -0.767953       -20.8971
  13   2.0000      -0.762794       -20.7567
  14   2.0000      -0.734025       -19.9738
  15   2.0000      -0.714838       -19.4517
  16   2.0000      -0.664550       -18.0833
  17   2.0000      -0.647663       -17.6238
  18   2.0000      -0.548461       -14.9244
  19   2.0000      -0.522276       -14.2119
  20   0.0000      -0.137382        -3.7383
  21   0.0000      -0.135743        -3.6938
  22   0.0000      -0.097184        -2.6445
  23   0.0000      -0.095472        -2.5979
  24   0.0000      -0.066635        -1.8132

MULLIKEN ATOMIC CHARGES
-----------------------
   0 C :    1.028726
   1 N :   -0.596904
   2 C :    1.439693
   3 N :   -0.119239
   4 N :   -0.134860
   5 H :   -0.019424
   6 H :   -0.026595
   7 H :   -0.214852
   8 H :   -0.032264
   9 H :   -0.081260
  10 H :   -0.259985
  11 H :   -0.007457
  12 H :    0.024421
Sum of atomic charges:    1.0000000

LOEWDIN ATOMIC CHARGES
----------------------
   0 C :    0.260026
   1 N :    0.004396
   2 C :   -0.026137
   3 N :    0.274860
   4 N :    0.255066
   5 H :    0.041948
   6 H :    0.044028
   7 H :    0.060890
   8 H :    0.019899
   9 H :    0.037358
  10 H :    0.015251
  11 H :    0.000505
  12 H :    0.011911

  Mayer bond orders larger than 0.100000
B(  0-C ,  1-N ) :   0.9224 B(  0-C ,  7-H ) :  -0.1166 B(  0-C , 10-H ) :   0.8568
B(  0-C , 11-H ) :   0.8209 B(  0-C , 12-H ) :   0.8292 B(  1-N ,  2-C ) :   1.0452
B(  1-N ,  3-N ) :   0.2195 B(  1-N ,  4-N ) :   0.2188 B(  1-N ,  7-H ) :   1.2982
B(  1-N , 10-H ) :   0.1792 B(  1-N , 11-H ) :   0.1529 B(  1-N , 12-H ) :   0.1187
B(  2-C ,  3-N ) :   0.8952 B(  2-C ,  4-N ) :   0.8035 B(  2-C ,  5-H ) :  -0.1105
B(  2-C ,  6-H ) :  -0.1465 B(  2-C ,  7-H ) :  -0.2324 B(  2-C ,  8-H ) :  -0.1349
B(  2-C ,  9-H ) :  -0.1199 B(  3-N ,  4-N ) :   0.1353 B(  3-N ,  8-H ) :   1.0862
B(  3-N ,  9-H ) :   1.2068 B(  4-N ,  5-H ) :   1.1570 B(  4-N ,  6-H ) :   1.1735
B(  5-H ,  6-H ) :  -0.1619 B(  8-H ,  9-H ) :  -0.1731

Dispersion correction           -0.000172891
FINAL SINGLE POINT ENERGY      -244.797845835672

DIPOLE MOMENT
-------------
                                X             Y             Z
Electronic contribution:      2.41595       0.85019      -0.96010
Nuclear contribution   :     -2.01473      -0.74897       0.69347
                        -----------------------------------------
Total Dipole Moment    :      0.40122       0.10122      -0.26663
                        -----------------------------------------
Magnitude (a.u.)       :      0.49226
Magnitude (Debye)      :      1.25122

Rotational constants in cm-1:     0.313249     0.134439     0.096258
Rotational constants in MHz :  9390.961986  4030.377472  2885.728233

                             ****ORCA TERMINATED NORMALLY****
TOTAL RUN TIME: 0 days 0 hours 0 minutes 10 seconds 560 msec
