                         Program Version 5.0.0 -  RELEASE  -
|  1> !M062X D3Zero RIJCOSX def2-SVPD def2/J TightSCF
|  2> *xyz 0 1
|  3> C          4.26524        2.50052       -0.79589
|  4> C          4.98224        1.65026        0.24742
|  5> F          4.36806        1.38927        1.31371
|  6> O          6.12892        1.23351       -0.04562
|  7> H          4.90412        2.63966       -1.64287
|  8> H          4.02079        3.45265       -0.37328
|  9> H          3.36773        2.00584       -1.10356
| 10> *
| 11> %MaxCore 64000
| 12> %pal nprocs 8
| 13> end
| 14> %scf
| 15>   MaxIter 150
| 16> end
| 17>
| 18>
| 19>                          ****END OF INPUT****

CARTESIAN COORDINATES (ANGSTROEM)
---------------------------------
  C      4.265240    2.500520   -0.795890
  C      4.982240    1.650260    0.247420
  F      4.368060    1.389270    1.313710
  O      6.128920    1.233510   -0.045620
  H      4.904120    2.639660   -1.642870
  H      4.020790    3.452650   -0.373280
  H      3.367730    2.005840   -1.103560

 Total Charge           Charge          ....    0
 Multiplicity           Mult            ....    1
 Number of Electrons    NEL             ....   32
 Basis Dimension        Dim             ....  110

ORBITAL ENERGIES
----------------

  NO   OCC          E(Eh)            E(eV)
   0   2.0000     -25.331320      -689.3003
   1   2.0000     -19.651534      -534.7454
   2   2.0000     -10.744268      -292.3664
   3   2.0000     -10.579731      -287.8891
   4   2.0000      -1.447212       -39.3806
   5   2.0000      -1.147320       -31.2202
   6   2.0000      -0.865841       -23.5607
   7   2.0000      -0.756792       -20.5934
   8   2.0000      -0.647026       -17.6065
   9   2.0000      -0.642200       -17.4752
  10   2.0000      -0.589805       -16.0494
  11   2.0000      -0.517309       -14.0767
  12   2.0000      -0.505073       -13.7437
  13   2.0000      -0.483926       -13.1683
  14   2.0000      -0.428341       -11.6558
  15   2.0000      -0.374909       -10.2018
  16   0.0000       0.014682         0.3995
  17   0.0000       0.026750         0.7279
  18   0.0000       0.065448         1.7809
  19   0.0000       0.096321         2.6210
  20   0.0000       0.103725         2.8225

MULLIKEN ATOMIC CHARGES
-----------------------
   0 C :    0.345835
   1 C :    0.474457
   2 F :   -0.399430
   3 O :   -0.504186
   4 H :   -0.023424
   5 H :    0.052320
   6 H :    0.054428
Sum of atomic charges:    0.0000000

LOEWDIN ATOMIC CHARGES
----------------------
   0 C :    0.216251
   1 C :   -0.016076
   2 F :   -0.053338
   3 O :   -0.148430
   4 H :    0.001085
   5 H :   -0.000463
   6 H :    0.000972

  Mayer bond orders larger than 0.100000
B(  0-C ,  1-C ) :   1.2420 B(  0-C ,  4-H ) :   0.9047 B(  0-C ,  5-H ) :   0.8123
B(  0-C ,  6-H ) :   0.8151 B(  1-C ,  2-F ) :   0.7106 B(  1-C ,  3-O ) :   1.7974
B(  1-C ,  4-H ) :   0.2059 B(  1-C ,  5-H ) :   0.1249 B(  1-C ,  6-H ) :   0.1220

Dispersion correction           -0.000020953
FINAL SINGLE POINT ENERGY      -252.801177372692

DIPOLE MOMENT
-------------
                                X             Y             Z
Electronic contribution:      0.76819      -2.50341       4.29597
Nuclear contribution   :     -1.76261       3.13449      -4.58927
                        -----------------------------------------
Total Dipole Moment    :     -0.99442       0.63108      -0.29330
                        -----------------------------------------
Magnitude (a.u.)       :      1.21373
Magnitude (Debye)      :      3.08507

Rotational constants in cm-1:     0.370628     0.320375     0.177409
Rotational constants in MHz : 11111.155899  9604.607061  5318.597912

                             ****ORCA TERMINATED NORMALLY****
TOTAL RUN TIME: 0 days 0 hours 0 minutes 5 seconds 35 msec
