                         Program Version 5.0.0 -  RELEASE  -
|  1> !M062X D3Zero RIJCOSX def2-SVPD def2/J TightSCF
|  2> *xyz 0 1
|  3> C          3.91385       -1.65829        3.01513
|  4> C          5.03927       -0.90115        2.49282
|  5> C          6.21038       -1.41726        2.17824
|  6> N          6.53591       -2.67712        2.55608
|  7> N          7.07675       -0.70082        1.47891
|  8> H          7.95464       -1.12155        1.20755
|  9> H          6.75616        0.10664        0.96028
| 10> H          4.84217        0.01761        2.11519
| 11> H          5.99388       -3.12692        3.28278
| 12> H          7.49844       -2.97548        2.46878
| 13> H          3.08844       -0.99893        3.18495
| 14> H          4.19412       -2.12366        3.93697
| 15> H          3.63051       -2.40965        2.30798
| 16> *
| 17> %MaxCore 64000
| 18> %pal nprocs 8
| 19> end
| 20> %scf
| 21>   MaxIter 150
| 22> end
| 23>
| 24>
| 25>                          ****END OF INPUT****

CARTESIAN COORDINATES (ANGSTROEM)
---------------------------------
  C      3.913850   -1.658290    3.015130
  C      5.039270   -0.901150    2.492820
  C      6.210380   -1.417260    2.178240
  N      6.535910   -2.677120    2.556080
  N      7.076750   -0.700820    1.478910
  H      7.954640   -1.121550    1.207550
  H      6.756160    0.106640    0.960280
  H      4.842170    0.017610    2.115190
  H      5.993880   -3.126920    3.282780
  H      7.498440   -2.975480    2.468780
  H      3.088440   -0.998930    3.184950
  H      4.194120   -2.123660    3.936970
  H      3.630510   -2.409650    2.307980

 Total Charge           Charge          ....    0
 Multiplicity           Mult            ....    1
 Number of Electrons    NEL             ....   40
 Basis Dimension        Dim             ....  164

ORBITAL ENERGIES
----------------

  NO   OCC          E(Eh)            E(eV)
   0   2.0000     -14.762930      -401.7197
   1   2.0000     -14.758720      -401.6052
   2   2.0000     -10.592097      -288.2256
   3   2.0000     -10.514488      -286.1138
   4   2.0000     -10.473106      -284.9877
   5   2.0000      -1.058766       -28.8105
   6   2.0000      -0.960973       -26.1494
   7   2.0000      -0.843338       -22.9484
   8   2.0000      -0.739360       -20.1190
   9   2.0000      -0.659721       -17.9519
  10   2.0000      -0.613197       -16.6859
  11   2.0000      -0.581636       -15.8271
  12   2.0000      -0.540597       -14.7104
  13   2.0000      -0.493091       -13.4177
  14   2.0000      -0.482642       -13.1334
  15   2.0000      -0.442947       -12.0532
  16   2.0000      -0.424217       -11.5435
  17   2.0000      -0.402529       -10.9534
  18   2.0000      -0.331629        -9.0241
  19   2.0000      -0.211522        -5.7558
  20   0.0000       0.035886         0.9765
  21   0.0000       0.062658         1.7050
  22   0.0000       0.072640         1.9766
  23   0.0000       0.100464         2.7338
  24   0.0000       0.102737         2.7956

MULLIKEN ATOMIC CHARGES
-----------------------
   0 C :    0.797208
   1 C :   -0.744376
   2 C :    0.982257
   3 N :   -0.130004
   4 N :   -0.045787
   5 H :   -0.135453
   6 H :   -0.042277
   7 H :   -0.314015
   8 H :   -0.037802
   9 H :   -0.221901
  10 H :   -0.065418
  11 H :    0.000993
  12 H :   -0.043425
Sum of atomic charges:   -0.0000000

LOEWDIN ATOMIC CHARGES
----------------------
   0 C :    0.084303
   1 C :   -0.068891
   2 C :   -0.229447
   3 N :    0.193094
   4 N :    0.164258
   5 H :   -0.008549
   6 H :    0.009053
   7 H :   -0.054059
   8 H :   -0.012009
   9 H :   -0.011976
  10 H :   -0.017863
  11 H :   -0.030009
  12 H :   -0.017905

  Mayer bond orders larger than 0.100000
B(  0-C ,  1-C ) :   1.2015 B(  0-C ,  7-H ) :   0.1816 B(  0-C , 10-H ) :   0.7609
B(  0-C , 11-H ) :   0.6971 B(  0-C , 12-H ) :   0.7481 B(  1-C ,  2-C ) :   1.5620
B(  1-C ,  3-N ) :   0.2487 B(  1-C ,  4-N ) :   0.3033 B(  1-C ,  7-H ) :   1.0056
B(  1-C , 10-H ) :   0.3001 B(  1-C , 11-H ) :   0.2840 B(  1-C , 12-H ) :   0.1512
B(  2-C ,  3-N ) :   0.8196 B(  2-C ,  4-N ) :   0.8040 B(  2-C ,  6-H ) :  -0.1085
B(  2-C ,  7-H ) :   0.1523 B(  2-C ,  9-H ) :  -0.1438 B(  3-N ,  8-H ) :   1.0437
B(  3-N ,  9-H ) :   1.2839 B(  4-N ,  5-H ) :   1.1342 B(  4-N ,  6-H ) :   1.1572
B(  5-H ,  6-H ) :  -0.1570 B(  7-H , 10-H ) :  -0.1097 B(  8-H ,  9-H ) :  -0.1671

Dispersion correction           -0.000171928
FINAL SINGLE POINT ENERGY      -228.336288662893

DIPOLE MOMENT
-------------
                                X             Y             Z
Electronic contribution:      2.95712       0.36737      -1.00785
Nuclear contribution   :     -2.16157      -0.63191       0.72436
                        -----------------------------------------
Total Dipole Moment    :      0.79555      -0.26454      -0.28349
                        -----------------------------------------
Magnitude (a.u.)       :      0.88501
Magnitude (Debye)      :      2.24952

Rotational constants in cm-1:     0.318470     0.135474     0.097247
Rotational constants in MHz :  9547.495553  4061.405016  2915.385882

                             ****ORCA TERMINATED NORMALLY****
TOTAL RUN TIME: 0 days 0 hours 0 minutes 11 seconds 77 msec
