                         Program Version 5.0.0 -  RELEASE  -
|  1> !M062X D3Zero RIJCOSX def2-SVPD def2/J TightSCF
|  2> *xyz 0 1
|  3> C          4.26524        2.50052       -0.79589
|  4> C          4.98224        1.65026        0.24742
|  5> O          4.36806        1.38927        1.31371
|  6> F          6.12892        1.23351       -0.04562
|  7> H          4.90412        2.63966       -1.64287
|  8> H          4.02079        3.45265       -0.37328
|  9> H          3.36773        2.00584       -1.10356
| 10> *
| 11> %MaxCore 64000
| 12> %pal nprocs 8
| 13> end
| 14> %scf
| 15>   MaxIter 150
| 16> end
| 17>
| 18>
| 19>                          ****END OF INPUT****

CARTESIAN COORDINATES (ANGSTROEM)
---------------------------------
  C      4.265240    2.500520   -0.795890
  C      4.982240    1.650260    0.247420
  O      4.368060    1.389270    1.313710
  F      6.128920    1.233510   -0.045620
  H      4.904120    2.639660   -1.642870
  H      4.020790    3.452650   -0.373280
  H      3.367730    2.005840   -1.103560

 Total Charge           Charge          ....    0
 Multiplicity           Mult            ....    1
 Number of Electrons    NEL             ....   32
 Basis Dimension        Dim             ....  110

ORBITAL ENERGIES
----------------

  NO   OCC          E(Eh)            E(eV)
   0   2.0000     -25.332094      -689.3213
   1   2.0000     -19.651088      -534.7333
   2   2.0000     -10.744925      -292.3843
   3   2.0000     -10.580146      -287.9004
   4   2.0000      -1.449645       -39.4469
   5   2.0000      -1.144893       -31.1541
   6   2.0000      -0.866572       -23.5806
   7   2.0000      -0.758083       -20.6285
   8   2.0000      -0.647721       -17.6254
   9   2.0000      -0.644027       -17.5249
  10   2.0000      -0.589651       -16.0452
  11   2.0000      -0.518317       -14.1041
  12   2.0000      -0.504469       -13.7273
  13   2.0000      -0.483707       -13.1623
  14   2.0000      -0.424496       -11.5511
  15   2.0000      -0.376157       -10.2357
  16   0.0000       0.010568         0.2876
  17   0.0000       0.026576         0.7232
  18   0.0000       0.065537         1.7833
  19   0.0000       0.099043         2.6951
  20   0.0000       0.102143         2.7794

MULLIKEN ATOMIC CHARGES
-----------------------
   0 C :    0.327519
   1 C :    0.470514
   2 O :   -0.530204
   3 F :   -0.377323
   4 H :   -0.000936
   5 H :    0.053764
   6 H :    0.056666
Sum of atomic charges:    0.0000000

LOEWDIN ATOMIC CHARGES
----------------------
   0 C :    0.217274
   1 C :   -0.014497
   2 O :   -0.150596
   3 F :   -0.053518
   4 H :   -0.011286
   5 H :    0.005955
   6 H :    0.006669

  Mayer bond orders larger than 0.100000
B(  0-C ,  1-C ) :   1.2612 B(  0-C ,  4-H ) :   0.8914 B(  0-C ,  5-H ) :   0.8137
B(  0-C ,  6-H ) :   0.8187 B(  1-C ,  2-O ) :   1.7672 B(  1-C ,  3-F ) :   0.7448
B(  1-C ,  4-H ) :   0.1545 B(  1-C ,  5-H ) :   0.1417 B(  1-C ,  6-H ) :   0.1348

Dispersion correction           -0.000020982
FINAL SINGLE POINT ENERGY      -252.800206123115

DIPOLE MOMENT
-------------
                                X             Y             Z
Electronic contribution:      3.62257      -2.75517       2.09189
Nuclear contribution   :     -3.58210       3.29544      -3.18468
                        -----------------------------------------
Total Dipole Moment    :      0.04047       0.54027      -1.09279
                        -----------------------------------------
Magnitude (a.u.)       :      1.21972
Magnitude (Debye)      :      3.10028

Rotational constants in cm-1:     0.368075     0.322590     0.177495
Rotational constants in MHz : 11034.605942  9670.991558  5321.154504

                             ****ORCA TERMINATED NORMALLY****
TOTAL RUN TIME: 0 days 0 hours 0 minutes 5 seconds 706 msec
