                         Program Version 5.0.0 -  RELEASE  -
|  1> !M062X D3Zero RIJCOSX def2-SVPD def2/J TightSCF
|  2> *xyz 0 1
|  3> C          3.91385       -1.65829        3.01513
|  4> N          5.03927       -0.90115        2.49282
|  5> C          6.21038       -1.41726        2.17824
|  6> C          6.53591       -2.67712        2.55608
|  7> N          7.07675       -0.70082        1.47891
|  8> H          7.95464       -1.12155        1.20755
|  9> H          6.75616        0.10664        0.96028
| 10> H          4.84217        0.01761        2.11519
| 11> H          5.99388       -3.12692        3.28278
| 12> H          7.49844       -2.97548        2.46878
| 13> H          3.08844       -0.99893        3.18495
| 14> H          4.19412       -2.12366        3.93697
| 15> H          3.63051       -2.40965        2.30798
| 16> *
| 17> %MaxCore 64000
| 18> %pal nprocs 8
| 19> end
| 20> %scf
| 21>   MaxIter 150
| 22> end
| 23>
| 24>
| 25>                          ****END OF INPUT****

CARTESIAN COORDINATES (ANGSTROEM)
---------------------------------
  C      3.913850   -1.658290    3.015130
  N      5.039270   -0.901150    2.492820
  C      6.210380   -1.417260    2.178240
  C      6.535910   -2.677120    2.556080
  N      7.076750   -0.700820    1.478910
  H      7.954640   -1.121550    1.207550
  H      6.756160    0.106640    0.960280
  H      4.842170    0.017610    2.115190
  H      5.993880   -3.126920    3.282780
  H      7.498440   -2.975480    2.468780
  H      3.088440   -0.998930    3.184950
  H      4.194120   -2.123660    3.936970
  H      3.630510   -2.409650    2.307980

 Total Charge           Charge          ....    0
 Multiplicity           Mult            ....    1
 Number of Electrons    NEL             ....   40
 Basis Dimension        Dim             ....  164

ORBITAL ENERGIES
----------------

  NO   OCC          E(Eh)            E(eV)
   0   2.0000     -14.768054      -401.8592
   1   2.0000     -14.763238      -401.7281
   2   2.0000     -10.600632      -288.4579
   3   2.0000     -10.576516      -287.8016
   4   2.0000     -10.464547      -284.7548
   5   2.0000      -1.073866       -29.2214
   6   2.0000      -0.981529       -26.7088
   7   2.0000      -0.805761       -21.9259
   8   2.0000      -0.780874       -21.2487
   9   2.0000      -0.647666       -17.6239
  10   2.0000      -0.626342       -17.0436
  11   2.0000      -0.594514       -16.1776
  12   2.0000      -0.525189       -14.2911
  13   2.0000      -0.514592       -14.0028
  14   2.0000      -0.482077       -13.1180
  15   2.0000      -0.451387       -12.2829
  16   2.0000      -0.439660       -11.9638
  17   2.0000      -0.430585       -11.7168
  18   2.0000      -0.315301        -8.5798
  19   2.0000      -0.217822        -5.9272
  20   0.0000       0.034298         0.9333
  21   0.0000       0.054915         1.4943
  22   0.0000       0.071357         1.9417
  23   0.0000       0.102093         2.7781
  24   0.0000       0.104207         2.8356

MULLIKEN ATOMIC CHARGES
-----------------------
   0 C :    1.025663
   1 N :   -0.561911
   2 C :    0.659429
   3 C :    0.431402
   4 N :   -0.088848
   5 H :   -0.023176
   6 H :   -0.142903
   7 H :   -0.356880
   8 H :   -0.101987
   9 H :   -0.556181
  10 H :   -0.348590
  11 H :    0.074955
  12 H :   -0.010973
Sum of atomic charges:   -0.0000000

LOEWDIN ATOMIC CHARGES
----------------------
   0 C :    0.211811
   1 N :   -0.065980
   2 C :   -0.242386
   3 C :    0.164453
   4 N :    0.170499
   5 H :    0.010242
   6 H :   -0.004678
   7 H :    0.020120
   8 H :   -0.120042
   9 H :   -0.108233
  10 H :   -0.012686
  11 H :   -0.014753
  12 H :   -0.008367

  Mayer bond orders larger than 0.100000
B(  0-C ,  1-N ) :   0.9234 B(  0-C ,  7-H ) :  -0.1361 B(  0-C , 10-H ) :   0.8764
B(  0-C , 11-H ) :   0.8082 B(  0-C , 12-H ) :   0.8233 B(  1-N ,  2-C ) :   0.9979
B(  1-N ,  3-C ) :   0.3188 B(  1-N ,  4-N ) :   0.1414 B(  1-N ,  7-H ) :   1.3730
B(  1-N , 10-H ) :   0.1711 B(  1-N , 11-H ) :   0.1042 B(  1-N , 12-H ) :   0.1392
B(  2-C ,  3-C ) :   1.7748 B(  2-C ,  4-N ) :   0.8180 B(  2-C ,  7-H ) :  -0.2449
B(  2-C ,  8-H ) :   0.2840 B(  2-C ,  9-H ) :   0.1738 B(  3-C ,  4-N ) :   0.2071
B(  3-C ,  8-H ) :   0.6978 B(  3-C ,  9-H ) :   0.8560 B(  4-N ,  5-H ) :   1.1254
B(  4-N ,  6-H ) :   1.2034 B(  5-H ,  6-H ) :  -0.1590

Dispersion correction           -0.000170484
FINAL SINGLE POINT ENERGY      -228.326657726640

DIPOLE MOMENT
-------------
                                X             Y             Z
Electronic contribution:      1.47721       1.98584      -1.15196
Nuclear contribution   :     -1.85843      -0.99162       0.73717
                        -----------------------------------------
Total Dipole Moment    :     -0.38122       0.99422      -0.41479
                        -----------------------------------------
Magnitude (a.u.)       :      1.14273
Magnitude (Debye)      :      2.90460

Rotational constants in cm-1:     0.336495     0.135025     0.098658
Rotational constants in MHz : 10087.870488  4047.943278  2957.678786

                             ****ORCA TERMINATED NORMALLY****
TOTAL RUN TIME: 0 days 0 hours 0 minutes 10 seconds 391 msec
