                         Program Version 5.0.0 -  RELEASE  -
|  1> !M062X D3Zero RIJCOSX def2-SVPD def2/J TightSCF
|  2> *xyz 0 1
|  3> C          3.91385       -1.65829        3.01513
|  4> N          5.03927       -0.90115        2.49282
|  5> C          6.21038       -1.41726        2.17824
|  6> N          6.53591       -2.67712        2.55608
|  7> C          7.07675       -0.70082        1.47891
|  8> H          7.95464       -1.12155        1.20755
|  9> H          6.75616        0.10664        0.96028
| 10> H          4.84217        0.01761        2.11519
| 11> H          5.99388       -3.12692        3.28278
| 12> H          7.49844       -2.97548        2.46878
| 13> H          3.08844       -0.99893        3.18495
| 14> H          4.19412       -2.12366        3.93697
| 15> H          3.63051       -2.40965        2.30798
| 16> *
| 17> %MaxCore 64000
| 18> %pal nprocs 8
| 19> end
| 20> %scf
| 21>   MaxIter 150
| 22> end
| 23>
| 24>
| 25>                          ****END OF INPUT****

CARTESIAN COORDINATES (ANGSTROEM)
---------------------------------
  C      3.913850   -1.658290    3.015130
  N      5.039270   -0.901150    2.492820
  C      6.210380   -1.417260    2.178240
  N      6.535910   -2.677120    2.556080
  C      7.076750   -0.700820    1.478910
  H      7.954640   -1.121550    1.207550
  H      6.756160    0.106640    0.960280
  H      4.842170    0.017610    2.115190
  H      5.993880   -3.126920    3.282780
  H      7.498440   -2.975480    2.468780
  H      3.088440   -0.998930    3.184950
  H      4.194120   -2.123660    3.936970
  H      3.630510   -2.409650    2.307980

 Total Charge           Charge          ....    0
 Multiplicity           Mult            ....    1
 Number of Electrons    NEL             ....   40
 Basis Dimension        Dim             ....  164

ORBITAL ENERGIES
----------------

  NO   OCC          E(Eh)            E(eV)
   0   2.0000     -14.763304      -401.7299
   1   2.0000     -14.762073      -401.6964
   2   2.0000     -10.597827      -288.3815
   3   2.0000     -10.584332      -288.0143
   4   2.0000     -10.460920      -284.6561
   5   2.0000      -1.068423       -29.0733
   6   2.0000      -0.974313       -26.5124
   7   2.0000      -0.833476       -22.6800
   8   2.0000      -0.751135       -20.4394
   9   2.0000      -0.679162       -18.4809
  10   2.0000      -0.607789       -16.5388
  11   2.0000      -0.564423       -15.3587
  12   2.0000      -0.544222       -14.8090
  13   2.0000      -0.530507       -14.4358
  14   2.0000      -0.472235       -12.8502
  15   2.0000      -0.456805       -12.4303
  16   2.0000      -0.447963       -12.1897
  17   2.0000      -0.427841       -11.6422
  18   2.0000      -0.321585        -8.7508
  19   2.0000      -0.214941        -5.8488
  20   0.0000       0.030627         0.8334
  21   0.0000       0.064456         1.7539
  22   0.0000       0.070342         1.9141
  23   0.0000       0.100218         2.7271
  24   0.0000       0.102693         2.7944

MULLIKEN ATOMIC CHARGES
-----------------------
   0 C :    1.046255
   1 N :   -0.554733
   2 C :    0.843189
   3 N :   -0.061605
   4 C :    0.272499
   5 H :   -0.330083
   6 H :   -0.320135
   7 H :   -0.268697
   8 H :   -0.141332
   9 H :   -0.082977
  10 H :   -0.313748
  11 H :   -0.071675
  12 H :   -0.016959
Sum of atomic charges:    0.0000000

LOEWDIN ATOMIC CHARGES
----------------------
   0 C :    0.205255
   1 N :   -0.061126
   2 C :   -0.235768
   3 N :    0.190429
   4 C :    0.138254
   5 H :   -0.102375
   6 H :   -0.100647
   7 H :    0.033983
   8 H :   -0.025028
   9 H :    0.005536
  10 H :   -0.011051
  11 H :   -0.023260
  12 H :   -0.014201

  Mayer bond orders larger than 0.100000
B(  0-C ,  1-N ) :   0.9349 B(  0-C ,  7-H ) :  -0.1288 B(  0-C , 10-H ) :   0.8429
B(  0-C , 11-H ) :   0.8197 B(  0-C , 12-H ) :   0.8263 B(  1-N ,  2-C ) :   1.0295
B(  1-N ,  3-N ) :   0.1540 B(  1-N ,  4-C ) :   0.2295 B(  1-N ,  7-H ) :   1.2614
B(  1-N , 10-H ) :   0.1777 B(  1-N , 11-H ) :   0.1720 B(  1-N , 12-H ) :   0.1340
B(  2-C ,  3-N ) :   0.8369 B(  2-C ,  4-C ) :   1.5127 B(  2-C ,  5-H ) :   0.1768
B(  2-C ,  7-H ) :  -0.1969 B(  3-N ,  4-C ) :   0.1937 B(  3-N ,  8-H ) :   1.0949
B(  3-N ,  9-H ) :   1.1661 B(  4-C ,  5-H ) :   0.7990 B(  4-C ,  6-H ) :   0.8859
B(  8-H ,  9-H ) :  -0.1709

Dispersion correction           -0.000168977
FINAL SINGLE POINT ENERGY      -228.324603015296

DIPOLE MOMENT
-------------
                                X             Y             Z
Electronic contribution:      0.95537       0.11233       0.01470
Nuclear contribution   :     -1.74889      -0.59133       0.51900
                        -----------------------------------------
Total Dipole Moment    :     -0.79352      -0.47900       0.53369
                        -----------------------------------------
Magnitude (a.u.)       :      1.06955
Magnitude (Debye)      :      2.71858

Rotational constants in cm-1:     0.319878     0.140238     0.099847
Rotational constants in MHz :  9589.703832  4204.215525  2993.343846

                             ****ORCA TERMINATED NORMALLY****
TOTAL RUN TIME: 0 days 0 hours 0 minutes 10 seconds 817 msec
