                         Program Version 5.0.0 -  RELEASE  -
|  1> !M062X D3Zero RIJCOSX def2-SVPD def2/J TightSCF xyzfile
|  2>
|  3> *xyzfile 0 1 D3.xyz
|  4>
|  5> %MaxCore 64000
|  6>
|  7> %pal nprocs 4
|  8> end
|  9>
| 10> %scf
| 11>   MaxIter 150
| 12> end
| 13>
| 14>
| 15>                          ****END OF INPUT****

CARTESIAN COORDINATES (ANGSTROEM)
---------------------------------
  C      3.913853   -1.658291    3.015134
  N      5.039266   -0.901154    2.492821
  C      4.084215    1.742081   -2.114724
  C      4.265245    2.500518   -0.795890
  H      4.868534    3.392674   -0.981134
  H      3.307640    2.824571   -0.387809
  C      4.982240    1.650257    0.247422
  C      6.210384   -1.417261    2.178244
  N      6.535913   -2.677122    2.556078
  C      7.076754   -0.700820    1.478906
  H      7.954643   -1.121554    1.207554
  H      6.756161    0.106637    0.960278
  H      4.842168    0.017609    2.115191
  H      5.993876   -3.126918    3.282784
  H      7.498441   -2.975482    2.468776
  F      4.368065    1.389270    1.313706
  O      6.128919    1.233512   -0.045620
  C      3.139159   -2.376572    1.910609
  H      3.267235   -0.939401    3.520693
  H      4.247195   -2.355095    3.790065
  C      1.997274    0.430918   -1.399218
  C      3.412746    0.376886   -1.965497
  H      4.047407   -0.246590   -1.326706
  H      3.390774   -0.118719   -2.942839
  H      5.068475    1.598504   -2.565728
  H      3.503356    2.363939   -2.804565
  C      2.399946   -1.389579    1.009490
  H      2.440750   -3.087118    2.362976
  H      3.844475   -2.970462    1.318677
  C      2.070177   -1.936705   -0.372401
  H      1.481611   -1.061542    1.509912
  H      3.008628   -0.490001    0.897451
  C      1.322238   -0.935775   -1.256413
  H      1.472747   -2.850902   -0.283997
  H      3.003539   -2.234041   -0.862535
  H      1.376444    1.058920   -2.047420
  H      2.015341    0.929780   -0.426535
  H      0.316648   -0.787213   -0.848278
  H      1.185611   -1.379252   -2.248613

 Total Charge           Charge          ....    0
 Multiplicity           Mult            ....    1
 Number of Electrons    NEL             ....  126
 Basis Dimension        Dim             ....  510

ORBITAL ENERGIES
----------------

  NO   OCC          E(Eh)            E(eV)
   0   2.0000     -25.352748      -689.8833
   1   2.0000     -19.657401      -534.9051
   2   2.0000     -14.743512      -401.1913
   3   2.0000     -14.738455      -401.0538
   4   2.0000     -10.751291      -292.5575
   5   2.0000     -10.587144      -288.0908
   6   2.0000     -10.579561      -287.8845
   7   2.0000     -10.574196      -287.7385
   8   2.0000     -10.568567      -287.5853
   9   2.0000     -10.555545      -287.2310
  10   2.0000     -10.553283      -287.1694
  11   2.0000     -10.549429      -287.0645
  12   2.0000     -10.545945      -286.9698
  13   2.0000     -10.545411      -286.9552
  14   2.0000     -10.541554      -286.8503
  15   2.0000     -10.425537      -283.6933
  16   2.0000      -1.470635       -40.0180
  17   2.0000      -1.160047       -31.5665
  18   2.0000      -1.050791       -28.5935
  19   2.0000      -0.959791       -26.1172
  20   2.0000      -0.927461       -25.2375
  21   2.0000      -0.900387       -24.5008
  22   2.0000      -0.869495       -23.6602
  23   2.0000      -0.830563       -22.6008
  24   2.0000      -0.805382       -21.9156
  25   2.0000      -0.781124       -21.2555
  26   2.0000      -0.753240       -20.4967
  27   2.0000      -0.726516       -19.7695
  28   2.0000      -0.694493       -18.8981
  29   2.0000      -0.682841       -18.5811
  30   2.0000      -0.667042       -18.1511
  31   2.0000      -0.660849       -17.9826
  32   2.0000      -0.642976       -17.4963
  33   2.0000      -0.633184       -17.2298
  34   2.0000      -0.609330       -16.5807
  35   2.0000      -0.584089       -15.8939
  36   2.0000      -0.563259       -15.3270
  37   2.0000      -0.556107       -15.1324
  38   2.0000      -0.545569       -14.8457
  39   2.0000      -0.534674       -14.5492
  40   2.0000      -0.528610       -14.3842
  41   2.0000      -0.513224       -13.9655
  42   2.0000      -0.503247       -13.6941
  43   2.0000      -0.497856       -13.5474
  44   2.0000      -0.487765       -13.2728
  45   2.0000      -0.469566       -12.7776
  46   2.0000      -0.466272       -12.6879
  47   2.0000      -0.455895       -12.4055
  48   2.0000      -0.446072       -12.1382
  49   2.0000      -0.436619       -11.8810
  50   2.0000      -0.432734       -11.7753
  51   2.0000      -0.429975       -11.7002
  52   2.0000      -0.420378       -11.4391
  53   2.0000      -0.413213       -11.2441
  54   2.0000      -0.405478       -11.0336
  55   2.0000      -0.398071       -10.8320
  56   2.0000      -0.390505       -10.6262
  57   2.0000      -0.377735       -10.2787
  58   2.0000      -0.375890       -10.2285
  59   2.0000      -0.372145       -10.1266
  60   2.0000      -0.343189        -9.3387
  61   2.0000      -0.302073        -8.2198
  62   2.0000      -0.192212        -5.2303
  63   0.0000      -0.003963        -0.1078
  64   0.0000       0.028220         0.7679
  65   0.0000       0.043028         1.1709
  66   0.0000       0.044072         1.1993
  67   0.0000       0.048339         1.3154

MULLIKEN ATOMIC CHARGES
-----------------------
   0 C :    1.249920
   1 N :    0.273662
   2 C :    0.432922
   3 C :    0.323143
   4 H :   -0.125476
   5 H :    0.193015
   6 C :    0.525142
   7 C :    0.923036
   8 N :    0.060799
   9 C :    0.911085
  10 H :   -0.343282
  11 H :   -0.909873
  12 H :   -1.200245
  13 H :   -0.087811
  14 H :   -0.183420
  15 F :   -0.514799
  16 O :   -0.485963
  17 C :    0.341580
  18 H :   -0.343781
  19 H :   -0.239061
  20 C :   -0.065463
  21 C :   -0.111916
  22 H :   -0.011425
  23 H :   -0.184696
  24 H :    0.010142
  25 H :   -0.108695
  26 C :    0.713252
  27 H :   -0.202483
  28 H :   -0.001722
  29 C :    0.032463
  30 H :    0.003655
  31 H :   -1.042080
  32 C :    0.744519
  33 H :   -0.440257
  34 H :    0.131305
  35 H :   -0.456213
  36 H :    0.191624
  37 H :    0.007573
  38 H :   -0.010175
Sum of atomic charges:    0.0000000

LOEWDIN ATOMIC CHARGES
----------------------
   0 C :    0.059733
   1 N :   -0.001948
   2 C :   -0.009612
   3 C :    0.060893
   4 H :    0.044107
   5 H :    0.022271
   6 C :    0.064862
   7 C :   -0.215148
   8 N :    0.188273
   9 C :    0.179757
  10 H :   -0.094066
  11 H :   -0.197256
  12 H :   -0.050177
  13 H :   -0.033475
  14 H :    0.002601
  15 F :   -0.046250
  16 O :   -0.112300
  17 C :   -0.017349
  18 H :    0.024602
  19 H :    0.006257
  20 C :   -0.036683
  21 C :   -0.025790
  22 H :    0.015529
  23 H :    0.034287
  24 H :    0.031937
  25 H :    0.030299
  26 C :   -0.035681
  27 H :    0.022578
  28 H :    0.022495
  29 C :   -0.036627
  30 H :    0.036316
  31 H :   -0.027263
  32 C :   -0.030484
  33 H :    0.026363
  34 H :    0.021388
  35 H :    0.026265
  36 H :    0.002108
  37 H :    0.023707
  38 H :    0.023482

  Mayer bond orders larger than 0.100000
B(  0-C ,  1-N ) :   0.9490 B(  0-C , 12-H ) :  -0.5781 B(  0-C , 17-C ) :   1.0422
B(  0-C , 18-H ) :   0.5974 B(  0-C , 19-H ) :   0.7624 B(  0-C , 26-C ) :   0.1574
B(  0-C , 27-H ) :  -0.1029 B(  1-N ,  7-C ) :   1.1261 B(  1-N ,  8-N ) :   0.1696
B(  1-N ,  9-C ) :   0.1392 B(  1-N , 12-H ) :   0.8800 B(  1-N , 18-H ) :   0.2124
B(  2-C ,  3-C ) :   1.1340 B(  2-C ,  4-H ) :   0.1533 B(  2-C , 21-C ) :   1.2516
B(  2-C , 24-H ) :   0.6959 B(  2-C , 25-H ) :   0.8302 B(  3-C ,  4-H ) :   0.6790
B(  3-C ,  5-H ) :   0.7293 B(  3-C ,  6-C ) :   1.2441 B(  3-C , 21-C ) :   0.1112
B(  3-C , 25-H ) :   0.1426 B(  4-H ,  6-C ) :   0.3011 B(  5-H ,  6-C ) :   0.2070
B(  6-C , 15-F ) :   0.5526 B(  6-C , 16-O ) :   1.7443 B(  7-C ,  8-N ) :   0.7424
B(  7-C ,  9-C ) :   1.5588 B(  7-C , 10-H ) :   0.2774 B(  7-C , 12-H ) :  -0.7935
B(  7-C , 14-H ) :  -0.1129 B(  7-C , 17-C ) :   0.1151 B(  7-C , 19-H ) :  -0.1028
B(  8-N ,  9-C ) :   0.2662 B(  8-N , 13-H ) :   0.9889 B(  8-N , 14-H ) :   1.2243
B(  8-N , 19-H ) :   0.1090 B(  9-C , 10-H ) :   0.4850 B(  9-C , 11-H ) :   0.4064
B( 10-H , 11-H ) :   0.2244 B( 12-H , 15-F ) :   0.1938 B( 12-H , 18-H ) :   0.1995
B( 13-H , 14-H ) :  -0.1998 B( 17-C , 19-H ) :   0.1780 B( 17-C , 26-C ) :   1.0780
B( 17-C , 27-H ) :   0.9839 B( 17-C , 28-H ) :   0.8664 B( 17-C , 30-H ) :   0.1364
B( 18-H , 19-H ) :  -0.2672 B( 20-C , 21-C ) :   1.2047 B( 20-C , 23-H ) :   0.1512
B( 20-C , 29-C ) :   0.1272 B( 20-C , 32-C ) :   1.1492 B( 20-C , 35-H ) :   1.0802
B( 20-C , 36-H ) :   0.8099 B( 20-C , 37-H ) :   0.2845 B( 20-C , 38-H ) :   0.1191
B( 21-C , 22-H ) :   0.9599 B( 21-C , 23-H ) :   0.8960 B( 21-C , 24-H ) :   0.2233
B( 21-C , 25-H ) :   0.1724 B( 21-C , 35-H ) :   0.1065 B( 21-C , 36-H ) :   0.1026
B( 22-H , 33-H ) :  -0.1013 B( 22-H , 34-H ) :   0.1176 B( 24-H , 25-H ) :  -0.1652
B( 26-C , 27-H ) :   0.1539 B( 26-C , 29-C ) :   1.2298 B( 26-C , 30-H ) :   0.6325
B( 26-C , 31-H ) :   0.2335 B( 26-C , 34-H ) :   0.1525 B( 27-H , 31-H ) :   0.1162
B( 28-H , 33-H ) :  -0.1039 B( 29-C , 31-H ) :   0.1303 B( 29-C , 32-C ) :   1.0896
B( 29-C , 33-H ) :   1.1110 B( 29-C , 34-H ) :   0.8196 B( 29-C , 38-H ) :   0.2272
B( 30-H , 31-H ) :   0.2051 B( 31-H , 36-H ) :   0.1309 B( 32-C , 37-H ) :   0.6623
B( 32-C , 38-H ) :   0.7071 B( 37-H , 38-H ) :  -0.1496

Dispersion correction           -0.002743092
FINAL SINGLE POINT ENERGY      -754.778166986160

DIPOLE MOMENT
-------------
                                X             Y             Z
Electronic contribution:      9.45298       8.67392       6.67972
Nuclear contribution   :    -11.12616      -8.32792      -6.96231
                        -----------------------------------------
Total Dipole Moment    :     -1.67317       0.34600      -0.28259
                        -----------------------------------------
Magnitude (a.u.)       :      1.73179
Magnitude (Debye)      :      4.40185

Rotational constants in cm-1:     0.020226     0.013574     0.009520
Rotational constants in MHz :   606.360011   406.923773   285.390769

                             ****ORCA TERMINATED NORMALLY****
TOTAL RUN TIME: 0 days 0 hours 4 minutes 43 seconds 540 msec
