                         Program Version 5.0.0 -  RELEASE  -
|  1> !M062X D3Zero RIJCOSX def2-SVPD def2/J TightSCF xyzfile
|  2>
|  3> *xyzfile 0 1 D4.xyz
|  4>
|  5> %MaxCore 64000
|  6>
|  7> %pal nprocs 4
|  8> end
|  9>
| 10> %scf
| 11>   MaxIter 150
| 12> end
| 13>
| 14>
| 15>                          ****END OF INPUT****

CARTESIAN COORDINATES (ANGSTROEM)
---------------------------------
  C      3.913853   -1.658291    3.015134
  C      5.039266   -0.901154    2.492821
  C      4.084215    1.742081   -2.114724
  C      4.265245    2.500518   -0.795890
  H      4.868534    3.392674   -0.981134
  H      3.307640    2.824571   -0.387809
  C      4.982240    1.650257    0.247422
  C      6.210384   -1.417261    2.178244
  N      6.535913   -2.677122    2.556078
  N      7.076754   -0.700820    1.478906
  H      7.954643   -1.121554    1.207554
  H      6.756161    0.106637    0.960278
  H      4.842168    0.017609    2.115191
  H      5.993876   -3.126918    3.282784
  H      7.498441   -2.975482    2.468776
  O      4.368065    1.389270    1.313706
  F      6.128919    1.233512   -0.045620
  C      3.139159   -2.376572    1.910609
  H      3.267235   -0.939401    3.520693
  H      4.247195   -2.355095    3.790065
  C      1.997274    0.430918   -1.399218
  C      3.412746    0.376886   -1.965497
  H      4.047407   -0.246590   -1.326706
  H      3.390774   -0.118719   -2.942839
  H      5.068475    1.598504   -2.565728
  H      3.503356    2.363939   -2.804565
  C      2.399946   -1.389579    1.009490
  H      2.440750   -3.087118    2.362976
  H      3.844475   -2.970462    1.318677
  C      2.070177   -1.936705   -0.372401
  H      1.481611   -1.061542    1.509912
  H      3.008628   -0.490001    0.897451
  C      1.322238   -0.935775   -1.256413
  H      1.472747   -2.850902   -0.283997
  H      3.003539   -2.234041   -0.862535
  H      1.376444    1.058920   -2.047420
  H      2.015341    0.929780   -0.426535
  H      0.316648   -0.787213   -0.848278
  H      1.185611   -1.379252   -2.248613

 Total Charge           Charge          ....    0
 Multiplicity           Mult            ....    1
 Number of Electrons    NEL             ....  126
 Basis Dimension        Dim             ....  510

ORBITAL ENERGIES
----------------

  NO   OCC          E(Eh)            E(eV)
   0   2.0000     -25.356913      -689.9967
   1   2.0000     -19.661991      -535.0300
   2   2.0000     -14.746442      -401.2711
   3   2.0000     -14.736694      -401.0058
   4   2.0000     -10.754236      -292.6376
   5   2.0000     -10.588071      -288.1161
   6   2.0000     -10.573681      -287.7245
   7   2.0000     -10.572575      -287.6944
   8   2.0000     -10.555653      -287.2339
   9   2.0000     -10.545088      -286.9464
  10   2.0000     -10.538894      -286.7779
  11   2.0000     -10.530159      -286.5402
  12   2.0000     -10.519257      -286.2435
  13   2.0000     -10.514865      -286.1240
  14   2.0000     -10.508437      -285.9491
  15   2.0000     -10.440112      -284.0899
  16   2.0000      -1.476106       -40.1669
  17   2.0000      -1.161657       -31.6103
  18   2.0000      -1.041723       -28.3467
  19   2.0000      -0.945763       -25.7355
  20   2.0000      -0.927014       -25.2253
  21   2.0000      -0.892601       -24.2889
  22   2.0000      -0.862591       -23.4723
  23   2.0000      -0.832433       -22.6517
  24   2.0000      -0.800681       -21.7876
  25   2.0000      -0.776564       -21.1314
  26   2.0000      -0.752622       -20.4799
  27   2.0000      -0.715908       -19.4808
  28   2.0000      -0.686946       -18.6928
  29   2.0000      -0.677046       -18.4234
  30   2.0000      -0.671854       -18.2821
  31   2.0000      -0.654318       -17.8049
  32   2.0000      -0.629804       -17.1378
  33   2.0000      -0.619860       -16.8672
  34   2.0000      -0.609231       -16.5780
  35   2.0000      -0.587716       -15.9926
  36   2.0000      -0.559265       -15.2184
  37   2.0000      -0.554716       -15.0946
  38   2.0000      -0.549704       -14.9582
  39   2.0000      -0.529619       -14.4117
  40   2.0000      -0.520337       -14.1591
  41   2.0000      -0.507993       -13.8232
  42   2.0000      -0.498815       -13.5734
  43   2.0000      -0.483401       -13.1540
  44   2.0000      -0.476105       -12.9555
  45   2.0000      -0.469447       -12.7743
  46   2.0000      -0.462188       -12.5768
  47   2.0000      -0.453100       -12.3295
  48   2.0000      -0.445838       -12.1319
  49   2.0000      -0.441526       -12.0145
  50   2.0000      -0.429086       -11.6760
  51   2.0000      -0.424526       -11.5519
  52   2.0000      -0.405406       -11.0317
  53   2.0000      -0.395991       -10.7755
  54   2.0000      -0.393665       -10.7122
  55   2.0000      -0.390414       -10.6237
  56   2.0000      -0.368390       -10.0244
  57   2.0000      -0.363138        -9.8815
  58   2.0000      -0.357293        -9.7224
  59   2.0000      -0.352386        -9.5889
  60   2.0000      -0.331186        -9.0120
  61   2.0000      -0.314950        -8.5702
  62   2.0000      -0.192877        -5.2485
  63   0.0000      -0.002615        -0.0712
  64   0.0000       0.024795         0.6747
  65   0.0000       0.043070         1.1720
  66   0.0000       0.049038         1.3344
  67   0.0000       0.052196         1.4203

MULLIKEN ATOMIC CHARGES
-----------------------
   0 C :    0.617445
   1 C :    0.222362
   2 C :    0.441394
   3 C :    0.316407
   4 H :   -0.108162
   5 H :    0.162637
   6 C :    0.617626
   7 C :    0.836310
   8 N :   -0.104497
   9 N :    0.276173
  10 H :   -0.172497
  11 H :   -0.366450
  12 H :   -0.794746
  13 H :   -0.014591
  14 H :   -0.269840
  15 O :   -0.616549
  16 F :   -0.445478
  17 C :    0.470077
  18 H :    0.052757
  19 H :   -0.261467
  20 C :   -0.096739
  21 C :   -0.093491
  22 H :   -0.001401
  23 H :   -0.195633
  24 H :   -0.026626
  25 H :   -0.110464
  26 C :    0.796155
  27 H :   -0.132647
  28 H :   -0.075920
  29 C :    0.006587
  30 H :    0.058958
  31 H :   -1.175348
  32 C :    0.765072
  33 H :   -0.473601
  34 H :    0.148986
  35 H :   -0.473950
  36 H :    0.214518
  37 H :    0.016214
  38 H :   -0.009582
Sum of atomic charges:   -0.0000000

LOEWDIN ATOMIC CHARGES
----------------------
   0 C :   -0.045574
   1 C :   -0.007764
   2 C :   -0.019316
   3 C :    0.065353
   4 H :    0.039223
   5 H :    0.034828
   6 C :    0.064083
   7 C :   -0.198131
   8 N :    0.190972
   9 N :    0.194261
  10 H :   -0.005786
  11 H :   -0.078711
  12 H :   -0.140562
  13 H :   -0.017775
  14 H :   -0.015707
  15 O :   -0.121376
  16 F :   -0.036598
  17 C :   -0.026264
  18 H :    0.022635
  19 H :   -0.001447
  20 C :   -0.031791
  21 C :   -0.028208
  22 H :    0.014063
  23 H :    0.032647
  24 H :    0.024726
  25 H :    0.030283
  26 C :   -0.028329
  27 H :    0.016539
  28 H :    0.018328
  29 C :   -0.040622
  30 H :    0.036991
  31 H :   -0.026995
  32 C :   -0.032226
  33 H :    0.023974
  34 H :    0.016679
  35 H :    0.025223
  36 H :    0.008065
  37 H :    0.023804
  38 H :    0.020504

  Mayer bond orders larger than 0.100000
B(  0-C ,  1-C ) :   0.8766 B(  0-C , 12-H ) :   0.7730 B(  0-C , 17-C ) :   1.0328
B(  0-C , 18-H ) :   0.6826 B(  0-C , 19-H ) :   0.5783 B(  1-C ,  7-C ) :   1.7631
B(  1-C ,  8-N ) :   0.2614 B(  1-C ,  9-N ) :   0.2587 B(  1-C , 12-H ) :  -0.3067
B(  1-C , 13-H ) :  -0.1121 B(  1-C , 18-H ) :   0.3385 B(  1-C , 19-H ) :   0.3307
B(  1-C , 31-H ) :  -0.1303 B(  2-C ,  3-C ) :   1.1380 B(  2-C ,  4-H ) :   0.1479
B(  2-C , 21-C ) :   1.2217 B(  2-C , 24-H ) :   0.6905 B(  2-C , 25-H ) :   0.8396
B(  3-C ,  4-H ) :   0.6805 B(  3-C ,  5-H ) :   0.7604 B(  3-C ,  6-C ) :   1.1981
B(  3-C , 25-H ) :   0.1436 B(  4-H ,  6-C ) :   0.2898 B(  5-H ,  6-C ) :   0.2025
B(  6-C , 15-O ) :   1.7380 B(  6-C , 16-F ) :   0.4255 B(  7-C ,  8-N ) :   0.7159
B(  7-C ,  9-N ) :   0.7320 B(  7-C , 11-H ) :  -0.2918 B(  7-C , 12-H ) :   0.4624
B(  7-C , 14-H ) :  -0.1855 B(  7-C , 19-H ) :  -0.1032 B(  8-N , 13-H ) :   1.0153
B(  8-N , 14-H ) :   1.3134 B(  9-N , 10-H ) :   1.1594 B(  9-N , 11-H ) :   1.2660
B( 10-H , 11-H ) :  -0.1917 B( 10-H , 12-H ) :  -0.1022 B( 12-H , 31-H ) :   0.1382
B( 13-H , 14-H ) :  -0.2004 B( 15-O , 16-F ) :   0.1245 B( 15-O , 31-H ) :   0.1179
B( 17-C , 26-C ) :   1.1047 B( 17-C , 27-H ) :   0.8654 B( 17-C , 28-H ) :   0.8933
B( 17-C , 30-H ) :   0.1682 B( 18-H , 19-H ) :  -0.1623 B( 20-C , 21-C ) :   1.2269
B( 20-C , 22-H ) :   0.1163 B( 20-C , 23-H ) :   0.1467 B( 20-C , 29-C ) :   0.1250
B( 20-C , 32-C ) :   1.1286 B( 20-C , 35-H ) :   1.1123 B( 20-C , 36-H ) :   0.8004
B( 20-C , 37-H ) :   0.2828 B( 20-C , 38-H ) :   0.1124 B( 21-C , 22-H ) :   0.9311
B( 21-C , 23-H ) :   0.9095 B( 21-C , 24-H ) :   0.2358 B( 21-C , 25-H ) :   0.1594
B( 21-C , 36-H ) :   0.1093 B( 22-H , 33-H ) :  -0.1128 B( 22-H , 34-H ) :   0.1151
B( 24-H , 25-H ) :  -0.1624 B( 26-C , 27-H ) :   0.1823 B( 26-C , 29-C ) :   1.2173
B( 26-C , 30-H ) :   0.6188 B( 26-C , 34-H ) :   0.1315 B( 28-H , 33-H ) :  -0.1214
B( 29-C , 31-H ) :   0.1335 B( 29-C , 32-C ) :   1.0920 B( 29-C , 33-H ) :   1.1107
B( 29-C , 34-H ) :   0.8198 B( 29-C , 38-H ) :   0.2430 B( 30-H , 31-H ) :   0.2028
B( 31-H , 36-H ) :   0.1441 B( 32-C , 33-H ) :  -0.1194 B( 32-C , 37-H ) :   0.6673
B( 32-C , 38-H ) :   0.6811 B( 33-H , 34-H ) :  -0.1181 B( 37-H , 38-H ) :  -0.1505

Dispersion correction           -0.002733236
FINAL SINGLE POINT ENERGY      -754.790214916187

DIPOLE MOMENT
-------------
                                X             Y             Z
Electronic contribution:     14.25307       8.76146       3.67759
Nuclear contribution   :    -13.61164      -8.17416      -5.14068
                        -----------------------------------------
Total Dipole Moment    :      0.64143       0.58730      -1.46309
                        -----------------------------------------
Magnitude (a.u.)       :      1.70205
Magnitude (Debye)      :      4.32628

Rotational constants in cm-1:     0.019858     0.013613     0.009401
Rotational constants in MHz :   595.331791   408.100423   281.843625

                             ****ORCA TERMINATED NORMALLY****
TOTAL RUN TIME: 0 days 0 hours 4 minutes 40 seconds 547 msec
