                         Program Version 5.0.0 -  RELEASE  -
|  1> !M062X D3Zero RIJCOSX def2-SVPD def2/J TightSCF xyzfile
|  2>
|  3> *xyzfile 0 1 D6.xyz
|  4>
|  5> %MaxCore 64000
|  6>
|  7> %pal nprocs 4
|  8> end
|  9>
| 10> %scf
| 11>   MaxIter 150
| 12> end
| 13>
| 14>
| 15>                          ****END OF INPUT****

CARTESIAN COORDINATES (ANGSTROEM)
---------------------------------
  C      3.913853   -1.658291    3.015134
  N      5.039266   -0.901154    2.492821
  C      4.084215    1.742081   -2.114724
  C      4.265245    2.500518   -0.795890
  H      4.868534    3.392674   -0.981134
  H      3.307640    2.824571   -0.387809
  C      4.982240    1.650257    0.247422
  C      6.210384   -1.417261    2.178244
  N      6.535913   -2.677122    2.556078
  C      7.076754   -0.700820    1.478906
  H      7.954643   -1.121554    1.207554
  H      6.756161    0.106637    0.960278
  H      4.842168    0.017609    2.115191
  H      5.993876   -3.126918    3.282784
  H      7.498441   -2.975482    2.468776
  O      4.368065    1.389270    1.313706
  F      6.128919    1.233512   -0.045620
  C      3.139159   -2.376572    1.910609
  H      3.267235   -0.939401    3.520693
  H      4.247195   -2.355095    3.790065
  C      1.997274    0.430918   -1.399218
  C      3.412746    0.376886   -1.965497
  H      4.047407   -0.246590   -1.326706
  H      3.390774   -0.118719   -2.942839
  H      5.068475    1.598504   -2.565728
  H      3.503356    2.363939   -2.804565
  C      2.399946   -1.389579    1.009490
  H      2.440750   -3.087118    2.362976
  H      3.844475   -2.970462    1.318677
  C      2.070177   -1.936705   -0.372401
  H      1.481611   -1.061542    1.509912
  H      3.008628   -0.490001    0.897451
  C      1.322238   -0.935775   -1.256413
  H      1.472747   -2.850902   -0.283997
  H      3.003539   -2.234041   -0.862535
  H      1.376444    1.058920   -2.047420
  H      2.015341    0.929780   -0.426535
  H      0.316648   -0.787213   -0.848278
  H      1.185611   -1.379252   -2.248613

 Total Charge           Charge          ....    0
 Multiplicity           Mult            ....    1
 Number of Electrons    NEL             ....  126
 Basis Dimension        Dim             ....  510

ORBITAL ENERGIES
----------------

  NO   OCC          E(Eh)            E(eV)
   0   2.0000     -25.342088      -689.5933
   1   2.0000     -19.671277      -535.2827
   2   2.0000     -14.744771      -401.2256
   3   2.0000     -14.724967      -400.6867
   4   2.0000     -10.759727      -292.7871
   5   2.0000     -10.589819      -288.1636
   6   2.0000     -10.577640      -287.8322
   7   2.0000     -10.574221      -287.7392
   8   2.0000     -10.570999      -287.6515
   9   2.0000     -10.558468      -287.3105
  10   2.0000     -10.550305      -287.0884
  11   2.0000     -10.546019      -286.9718
  12   2.0000     -10.540484      -286.8211
  13   2.0000     -10.535501      -286.6856
  14   2.0000     -10.534819      -286.6670
  15   2.0000     -10.436327      -283.9869
  16   2.0000      -1.462947       -39.8088
  17   2.0000      -1.169832       -31.8328
  18   2.0000      -1.045917       -28.4609
  19   2.0000      -0.955974       -26.0134
  20   2.0000      -0.930200       -25.3120
  21   2.0000      -0.897968       -24.4349
  22   2.0000      -0.865828       -23.5604
  23   2.0000      -0.827591       -22.5199
  24   2.0000      -0.802921       -21.8486
  25   2.0000      -0.769860       -20.9490
  26   2.0000      -0.758332       -20.6353
  27   2.0000      -0.722408       -19.6577
  28   2.0000      -0.691369       -18.8131
  29   2.0000      -0.675821       -18.3900
  30   2.0000      -0.663749       -18.0615
  31   2.0000      -0.658182       -17.9101
  32   2.0000      -0.649593       -17.6763
  33   2.0000      -0.630367       -17.1532
  34   2.0000      -0.601697       -16.3730
  35   2.0000      -0.585038       -15.9197
  36   2.0000      -0.560273       -15.2458
  37   2.0000      -0.557699       -15.1758
  38   2.0000      -0.546739       -14.8775
  39   2.0000      -0.534524       -14.5451
  40   2.0000      -0.526079       -14.3153
  41   2.0000      -0.509834       -13.8733
  42   2.0000      -0.501295       -13.6409
  43   2.0000      -0.492946       -13.4137
  44   2.0000      -0.486915       -13.2496
  45   2.0000      -0.479156       -13.0385
  46   2.0000      -0.462642       -12.5891
  47   2.0000      -0.451523       -12.2866
  48   2.0000      -0.450128       -12.2486
  49   2.0000      -0.442178       -12.0323
  50   2.0000      -0.434052       -11.8111
  51   2.0000      -0.419632       -11.4188
  52   2.0000      -0.417202       -11.3526
  53   2.0000      -0.408674       -11.1206
  54   2.0000      -0.403956       -10.9922
  55   2.0000      -0.399157       -10.8616
  56   2.0000      -0.386159       -10.5079
  57   2.0000      -0.374278       -10.1846
  58   2.0000      -0.372210       -10.1284
  59   2.0000      -0.369836       -10.0637
  60   2.0000      -0.366502        -9.9730
  61   2.0000      -0.296929        -8.0799
  62   2.0000      -0.195561        -5.3215
  63   0.0000      -0.006151        -0.1674
  64   0.0000       0.028992         0.7889
  65   0.0000       0.044606         1.2138
  66   0.0000       0.046745         1.2720
  67   0.0000       0.047511         1.2928

MULLIKEN ATOMIC CHARGES
-----------------------
   0 C :    1.252815
   1 N :    0.246236
   2 C :    0.435498
   3 C :    0.293264
   4 H :   -0.100425
   5 H :    0.169891
   6 C :    0.672797
   7 C :    0.895153
   8 N :    0.068426
   9 C :    1.061672
  10 H :   -0.279829
  11 H :   -1.072854
  12 H :   -1.178716
  13 H :   -0.087905
  14 H :   -0.185505
  15 O :   -0.629188
  16 F :   -0.511186
  17 C :    0.346201
  18 H :   -0.324196
  19 H :   -0.253425
  20 C :   -0.077032
  21 C :   -0.100345
  22 H :   -0.008960
  23 H :   -0.194075
  24 H :   -0.020740
  25 H :   -0.110010
  26 C :    0.785554
  27 H :   -0.209094
  28 H :   -0.009961
  29 C :    0.041066
  30 H :   -0.013144
  31 H :   -1.080223
  32 C :    0.762112
  33 H :   -0.457460
  34 H :    0.133748
  35 H :   -0.458263
  36 H :    0.201770
  37 H :    0.013720
  38 H :   -0.017387
Sum of atomic charges:    0.0000000

LOEWDIN ATOMIC CHARGES
----------------------
   0 C :    0.062030
   1 N :    0.003858
   2 C :   -0.015990
   3 C :    0.066025
   4 H :    0.041255
   5 H :    0.033845
   6 C :    0.071565
   7 C :   -0.211880
   8 N :    0.191607
   9 C :    0.172637
  10 H :   -0.098876
  11 H :   -0.168681
  12 H :   -0.086908
  13 H :   -0.031076
  14 H :    0.002063
  15 O :   -0.121774
  16 F :   -0.044061
  17 C :   -0.018086
  18 H :    0.027135
  19 H :    0.004014
  20 C :   -0.032034
  21 C :   -0.026970
  22 H :    0.015222
  23 H :    0.033545
  24 H :    0.027349
  25 H :    0.030817
  26 C :   -0.031525
  27 H :    0.021023
  28 H :    0.020381
  29 C :   -0.038388
  30 H :    0.037221
  31 H :   -0.028628
  32 C :   -0.030607
  33 H :    0.025073
  34 H :    0.019370
  35 H :    0.026081
  36 H :    0.007128
  37 H :    0.024111
  38 H :    0.022128

  Mayer bond orders larger than 0.100000
B(  0-C ,  1-N ) :   0.9410 B(  0-C , 12-H ) :  -0.5924 B(  0-C , 17-C ) :   1.0417
B(  0-C , 18-H ) :   0.6021 B(  0-C , 19-H ) :   0.7603 B(  0-C , 26-C ) :   0.1641
B(  0-C , 27-H ) :  -0.1107 B(  1-N ,  7-C ) :   1.1242 B(  1-N ,  8-N ) :   0.1619
B(  1-N ,  9-C ) :   0.1349 B(  1-N , 12-H ) :   0.9458 B(  1-N , 18-H ) :   0.2143
B(  2-C ,  3-C ) :   1.1398 B(  2-C ,  4-H ) :   0.1505 B(  2-C , 21-C ) :   1.2332
B(  2-C , 24-H ) :   0.6965 B(  2-C , 25-H ) :   0.8397 B(  3-C ,  4-H ) :   0.6924
B(  3-C ,  5-H ) :   0.7380 B(  3-C ,  6-C ) :   1.2292 B(  3-C , 25-H ) :   0.1388
B(  4-H ,  6-C ) :   0.2882 B(  5-H ,  6-C ) :   0.2115 B(  6-C , 11-H ) :   0.1095
B(  6-C , 15-O ) :   1.5976 B(  6-C , 16-F ) :   0.4913 B(  7-C ,  8-N ) :   0.7697
B(  7-C ,  9-C ) :   1.5775 B(  7-C , 10-H ) :   0.3002 B(  7-C , 12-H ) :  -0.7854
B(  7-C , 14-H ) :  -0.1076 B(  7-C , 17-C ) :   0.1141 B(  7-C , 19-H ) :  -0.1052
B(  8-N ,  9-C ) :   0.2488 B(  8-N , 13-H ) :   0.9880 B(  8-N , 14-H ) :   1.2242
B(  8-N , 19-H ) :   0.1092 B(  9-C , 10-H ) :   0.4438 B(  9-C , 11-H ) :   0.1919
B( 10-H , 11-H ) :   0.2352 B( 11-H , 16-F ) :   0.2103 B( 12-H , 15-O ) :   0.1539
B( 12-H , 18-H ) :   0.2009 B( 13-H , 14-H ) :  -0.1976 B( 15-O , 16-F ) :   0.1066
B( 17-C , 19-H ) :   0.1791 B( 17-C , 26-C ) :   1.0839 B( 17-C , 27-H ) :   0.9812
B( 17-C , 28-H ) :   0.8665 B( 17-C , 30-H ) :   0.1369 B( 18-H , 19-H ) :  -0.2684
B( 20-C , 21-C ) :   1.2197 B( 20-C , 22-H ) :   0.1100 B( 20-C , 23-H ) :   0.1458
B( 20-C , 29-C ) :   0.1237 B( 20-C , 32-C ) :   1.1421 B( 20-C , 35-H ) :   1.0837
B( 20-C , 36-H ) :   0.8070 B( 20-C , 37-H ) :   0.2816 B( 20-C , 38-H ) :   0.1184
B( 21-C , 22-H ) :   0.9378 B( 21-C , 23-H ) :   0.9091 B( 21-C , 24-H ) :   0.2285
B( 21-C , 25-H ) :   0.1623 B( 21-C , 35-H ) :   0.1081 B( 21-C , 36-H ) :   0.1088
B( 22-H , 33-H ) :  -0.1056 B( 22-H , 34-H ) :   0.1179 B( 24-H , 25-H ) :  -0.1607
B( 26-C , 27-H ) :   0.1552 B( 26-C , 29-C ) :   1.2325 B( 26-C , 30-H ) :   0.6190
B( 26-C , 31-H ) :   0.1227 B( 26-C , 34-H ) :   0.1529 B( 27-H , 31-H ) :   0.1158
B( 28-H , 33-H ) :  -0.1092 B( 29-C , 31-H ) :   0.1271 B( 29-C , 32-C ) :   1.0919
B( 29-C , 33-H ) :   1.1145 B( 29-C , 34-H ) :   0.8141 B( 29-C , 38-H ) :   0.2259
B( 30-H , 31-H ) :   0.2354 B( 31-H , 36-H ) :   0.1377 B( 32-C , 33-H ) :  -0.1001
B( 32-C , 37-H ) :   0.6649 B( 32-C , 38-H ) :   0.7005 B( 33-H , 34-H ) :  -0.1124
B( 37-H , 38-H ) :  -0.1527

Dispersion correction           -0.002738594
FINAL SINGLE POINT ENERGY      -754.791831917806

DIPOLE MOMENT
-------------
                                X             Y             Z
Electronic contribution:     12.38475       8.52655       4.38204
Nuclear contribution   :    -13.25777      -8.13937      -5.31678
                        -----------------------------------------
Total Dipole Moment    :     -0.87302       0.38718      -0.93473
                        -----------------------------------------
Magnitude (a.u.)       :      1.33634
Magnitude (Debye)      :      3.39670

Rotational constants in cm-1:     0.020021     0.013636     0.009443
Rotational constants in MHz :   600.208195   408.782966   283.102361

                             ****ORCA TERMINATED NORMALLY****
TOTAL RUN TIME: 0 days 0 hours 4 minutes 41 seconds 668 msec
