                         Program Version 5.0.0 -  RELEASE  -
|  1> !LC-BLYP RIJCOSX def2-SVPD def2/J TightSCF
|  2> *xyz -1 1
|  3> C         -1.10433        0.25137       -2.86006
|  4> C         -0.71189        0.84252       -4.21834
|  5> H          0.15463        1.49980       -4.13091
|  6> H         -1.53813        1.45922       -4.58267
|  7> C         -0.39762       -0.20587       -5.28802
|  8> O          0.61717       -0.00535       -5.99827
|  9> O         -1.13317       -1.22138       -5.34147
| 10> C         -0.19626       -0.86337       -2.32576
| 11> H         -1.14384        1.06671       -2.12968
| 12> H         -2.11440       -0.15683       -2.93032
| 13> H         -0.15538       -1.66172       -3.03700
| 14> H         -0.58845       -1.22999       -1.40020
| 15> H          0.78852       -0.47602       -2.16737
| 16> *
| 17>
| 18> %MaxCore 64000
| 19>
| 20> %pal nprocs 4
| 21> end
| 22>
| 23> %scf
| 24>   MaxIter 150
| 25> end
| 26>
| 27>
| 28>                          ****END OF INPUT****

CARTESIAN COORDINATES (ANGSTROEM)
---------------------------------
  C     -1.104330    0.251370   -2.860060
  C     -0.711890    0.842520   -4.218340
  H      0.154630    1.499800   -4.130910
  H     -1.538130    1.459220   -4.582670
  C     -0.397620   -0.205870   -5.288020
  O      0.617170   -0.005350   -5.998270
  O     -1.133170   -1.221380   -5.341470
  C     -0.196260   -0.863370   -2.325760
  H     -1.143840    1.066710   -2.129680
  H     -2.114400   -0.156830   -2.930320
  H     -0.155380   -1.661720   -3.037000
  H     -0.588450   -1.229990   -1.400200
  H      0.788520   -0.476020   -2.167370

 Total Charge           Charge          ....   -1
 Multiplicity           Mult            ....    1
 Number of Electrons    NEL             ....   48
 Basis Dimension        Dim             ....  182

ORBITAL ENERGIES
----------------

  NO   OCC          E(Eh)            E(eV)
   0   2.0000     -18.700493      -508.8663
   1   2.0000     -18.699424      -508.8372
   2   2.0000      -9.978364      -271.5251
   3   2.0000      -9.937729      -270.4194
   4   2.0000      -9.927814      -270.1496
   5   2.0000      -9.914580      -269.7894
   6   2.0000      -0.912268       -24.8241
   7   2.0000      -0.816933       -22.2299
   8   2.0000      -0.740541       -20.1512
   9   2.0000      -0.647553       -17.6208
  10   2.0000      -0.549738       -14.9591
  11   2.0000      -0.432813       -11.7774
  12   2.0000      -0.412668       -11.2293
  13   2.0000      -0.394735       -10.7413
  14   2.0000      -0.361069        -9.8252
  15   2.0000      -0.338130        -9.2010
  16   2.0000      -0.318785        -8.6746
  17   2.0000      -0.310390        -8.4462
  18   2.0000      -0.295613        -8.0440
  19   2.0000      -0.277163        -7.5420
  20   2.0000      -0.266722        -7.2579
  21   2.0000      -0.154830        -4.2131
  22   2.0000      -0.147199        -4.0055
  23   2.0000      -0.133976        -3.6457
  24   0.0000       0.197699         5.3797
  25   0.0000       0.220417         5.9978
  26   0.0000       0.237843         6.4720
  27   0.0000       0.247912         6.7460
  28   0.0000       0.273253         7.4356

MULLIKEN ATOMIC CHARGES
-----------------------
   0 C :   -0.279221
   1 C :    0.342588
   2 H :   -0.070595
   3 H :   -0.115331
   4 C :    0.081731
   5 O :   -0.546911
   6 O :   -0.598834
   7 C :    0.905358
   8 H :   -0.256258
   9 H :   -0.062859
  10 H :   -0.155894
  11 H :   -0.142578
  12 H :   -0.101195
Sum of atomic charges:   -1.0000000

LOEWDIN ATOMIC CHARGES
----------------------
   0 C :   -0.101012
   1 C :   -0.011944
   2 H :    0.007569
   3 H :    0.016915
   4 C :   -0.345526
   5 O :   -0.308671
   6 O :   -0.298399
   7 C :    0.104359
   8 H :    0.002585
   9 H :    0.014017
  10 H :   -0.025663
  11 H :   -0.032512
  12 H :   -0.021718

  Mayer bond orders larger than 0.100000
B(  0-C ,  1-C ) :   1.2126 B(  0-C ,  2-H ) :   0.1592 B(  0-C ,  3-H ) :   0.1499
B(  0-C ,  7-C ) :   1.3316 B(  0-C ,  8-H ) :   0.9218 B(  0-C ,  9-H ) :   0.8537
B(  0-C , 10-H ) :   0.2358 B(  0-C , 11-H ) :   0.2685 B(  0-C , 12-H ) :   0.2208
B(  1-C ,  2-H ) :   0.8304 B(  1-C ,  3-H ) :   0.7859 B(  1-C ,  4-C ) :   1.0266
B(  1-C ,  8-H ) :   0.1277 B(  1-C ,  9-H ) :   0.1239 B(  2-H ,  4-C ) :   0.2398
B(  3-H ,  4-C ) :   0.1033 B(  4-C ,  5-O ) :   1.5780 B(  4-C ,  6-O ) :   1.6696
B(  7-C ,  8-H ) :   0.1070 B(  7-C ,  9-H ) :   0.1015 B(  7-C , 10-H ) :   0.7802
B(  7-C , 11-H ) :   0.6682 B(  7-C , 12-H ) :   0.7379

FINAL SINGLE POINT ENERGY      -306.230811805302

DIPOLE MOMENT
-------------
                                X             Y             Z
Electronic contribution:      0.64561      -0.98938      -7.07714
Nuclear contribution   :     -1.15173       1.87787       9.37659
                        -----------------------------------------
Total Dipole Moment    :     -0.50613       0.88849       2.29945
                        -----------------------------------------
Magnitude (a.u.)       :      2.51656
Magnitude (Debye)      :      6.39658

Rotational constants in cm-1:     0.203160     0.081703     0.075834
Rotational constants in MHz :  6090.598467  2449.397428  2273.436534

                             ****ORCA TERMINATED NORMALLY****
TOTAL RUN TIME: 0 days 0 hours 0 minutes 18 seconds 302 msec
