                         Program Version 5.0.0 -  RELEASE  -
|  1> !LC-BLYP RIJCOSX def2-SVPD def2/J TightSCF
|  2> *xyz 1 1
|  3> C          2.23447       -2.98975       -2.39762
|  4> N          2.75680       -2.94555       -3.76503
|  5> C          1.98721       -2.59045       -4.81898
|  6> N          0.74322       -3.01749       -4.91352
|  7> N          2.49964       -1.84860       -5.80324
|  8> H          3.30978       -1.29282       -5.55895
|  9> H          1.80103       -1.30430       -6.28913
| 10> H          3.71612       -2.62880       -3.82953
| 11> H          0.39583       -3.62775       -4.18502
| 12> H          0.03920       -2.45438       -5.37137
| 13> C          2.19120       -1.61950       -1.71549
| 14> H          2.87278       -3.66637       -1.82801
| 15> H          1.24619       -3.44744       -2.40784
| 16> C          1.29873       -0.55431       -2.35977
| 17> H          1.87292       -1.78796       -0.68131
| 18> H          3.21681       -1.23843       -1.65443
| 19> H          1.61097       -0.39090       -3.37007
| 20> H          1.37981        0.35955       -1.80916
| 21> H          0.28197       -0.88750       -2.35015
| 22> *
| 23>
| 24> %MaxCore 64000
| 25>
| 26> %pal nprocs 4
| 27> end
| 28>
| 29> %scf
| 30>   MaxIter 150
| 31> end
| 32>
| 33>
| 34>                          ****END OF INPUT****

CARTESIAN COORDINATES (ANGSTROEM)
---------------------------------
  C      2.234470   -2.989750   -2.397620
  N      2.756800   -2.945550   -3.765030
  C      1.987210   -2.590450   -4.818980
  N      0.743220   -3.017490   -4.913520
  N      2.499640   -1.848600   -5.803240
  H      3.309780   -1.292820   -5.558950
  H      1.801030   -1.304300   -6.289130
  H      3.716120   -2.628800   -3.829530
  H      0.395830   -3.627750   -4.185020
  H      0.039200   -2.454380   -5.371370
  C      2.191200   -1.619500   -1.715490
  H      2.872780   -3.666370   -1.828010
  H      1.246190   -3.447440   -2.407840
  C      1.298730   -0.554310   -2.359770
  H      1.872920   -1.787960   -0.681310
  H      3.216810   -1.238430   -1.654430
  H      1.610970   -0.390900   -3.370070
  H      1.379810    0.359550   -1.809160
  H      0.281970   -0.887500   -2.350150

 Total Charge           Charge          ....    1
 Multiplicity           Mult            ....    1
 Number of Electrons    NEL             ....   56
 Basis Dimension        Dim             ....  236

ORBITAL ENERGIES
----------------

  NO   OCC          E(Eh)            E(eV)
   0   2.0000     -14.417169      -392.3111
   1   2.0000     -14.413703      -392.2168
   2   2.0000     -14.410653      -392.1338
   3   2.0000     -10.427774      -283.7542
   4   2.0000     -10.290820      -280.0275
   5   2.0000     -10.234589      -278.4973
   6   2.0000     -10.215339      -277.9735
   7   2.0000      -1.314754       -35.7763
   8   2.0000      -1.200730       -32.6735
   9   2.0000      -1.195017       -32.5181
  10   2.0000      -1.045737       -28.4559
  11   2.0000      -0.973965       -26.5029
  12   2.0000      -0.930494       -25.3200
  13   2.0000      -0.892726       -24.2923
  14   2.0000      -0.873401       -23.7665
  15   2.0000      -0.836064       -22.7505
  16   2.0000      -0.804842       -21.9009
  17   2.0000      -0.786192       -21.3934
  18   2.0000      -0.758158       -20.6305
  19   2.0000      -0.731655       -19.9093
  20   2.0000      -0.703890       -19.1538
  21   2.0000      -0.692598       -18.8465
  22   2.0000      -0.661390       -17.9973
  23   2.0000      -0.622435       -16.9373
  24   2.0000      -0.596416       -16.2293
  25   2.0000      -0.592761       -16.1298
  26   2.0000      -0.581188       -15.8149
  27   2.0000      -0.544676       -14.8214
  28   0.0000      -0.117868        -3.2074
  29   0.0000      -0.091404        -2.4872
  30   0.0000      -0.066170        -1.8006
  31   0.0000      -0.054306        -1.4777
  32   0.0000      -0.031590        -0.8596

MULLIKEN ATOMIC CHARGES
-----------------------
   0 C :    0.844548
   1 N :   -0.213763
   2 C :    0.538523
   3 N :    0.281316
   4 N :    0.158663
   5 H :   -0.015954
   6 H :    0.007898
   7 H :   -0.154846
   8 H :   -0.028173
   9 H :   -0.059141
  10 C :   -0.156974
  11 H :   -0.357977
  12 H :   -0.171153
  13 C :    1.103210
  14 H :   -0.116380
  15 H :   -0.120644
  16 H :   -0.313149
  17 H :   -0.161119
  18 H :   -0.064884
Sum of atomic charges:    1.0000000

LOEWDIN ATOMIC CHARGES
----------------------
   0 C :    0.054411
   1 N :    0.073957
   2 C :   -0.089217
   3 N :    0.296614
   4 N :    0.283317
   5 H :    0.035514
   6 H :    0.035702
   7 H :    0.053603
   8 H :    0.026135
   9 H :    0.049888
  10 C :   -0.055781
  11 H :    0.045908
  12 H :    0.022363
  13 C :    0.129375
  14 H :    0.044676
  15 H :    0.034294
  16 H :   -0.038135
  17 H :    0.004012
  18 H :   -0.006636

  Mayer bond orders larger than 0.100000
B(  0-C ,  1-N ) :   0.9934 B(  0-C , 10-C ) :   1.1307 B(  0-C , 11-H ) :   0.8020
B(  0-C , 12-H ) :   0.7079 B(  0-C , 14-H ) :   0.1609 B(  0-C , 15-H ) :   0.1472
B(  1-N ,  2-C ) :   1.1841 B(  1-N ,  4-N ) :   0.1554 B(  1-N ,  7-H ) :   1.1445
B(  1-N , 11-H ) :   0.2036 B(  1-N , 12-H ) :   0.1381 B(  2-C ,  3-N ) :   1.1312
B(  2-C ,  4-N ) :   1.0365 B(  2-C ,  7-H ) :  -0.1790 B(  3-N ,  4-N ) :   0.1402
B(  3-N ,  8-H ) :   0.9851 B(  3-N ,  9-H ) :   1.1784 B(  4-N ,  5-H ) :   0.9972
B(  4-N ,  6-H ) :   0.9921 B(  8-H ,  9-H ) :  -0.1674 B( 10-C , 12-H ) :   0.1702
B( 10-C , 13-C ) :   1.2691 B( 10-C , 14-H ) :   0.8759 B( 10-C , 15-H ) :   0.8837
B( 10-C , 16-H ) :   0.2691 B( 10-C , 17-H ) :   0.2460 B( 10-C , 18-H ) :   0.2701
B( 11-H , 12-H ) :  -0.1500 B( 13-C , 14-H ) :   0.1003 B( 13-C , 16-H ) :   0.7033
B( 13-C , 17-H ) :   0.7053 B( 13-C , 18-H ) :   0.6587 B( 16-H , 18-H ) :   0.1433

FINAL SINGLE POINT ENERGY      -322.637024640620

DIPOLE MOMENT
-------------
                                X             Y             Z
Electronic contribution:      1.23334      -3.56151      -5.56884
Nuclear contribution   :     -1.48325       3.81474       4.74728
                        -----------------------------------------
Total Dipole Moment    :     -0.24991       0.25323      -0.82156
                        -----------------------------------------
Magnitude (a.u.)       :      0.89529
Magnitude (Debye)      :      2.27565

Rotational constants in cm-1:     0.127669     0.058023     0.053953
Rotational constants in MHz :  3827.411023  1739.493733  1617.466565

                             ****ORCA TERMINATED NORMALLY****
TOTAL RUN TIME: 0 days 0 hours 0 minutes 35 seconds 937 msec
