                         Program Version 5.0.0 -  RELEASE  -
|  1> !LC-BLYP RIJCOSX def2-SVPD def2/J TightSCF
|  2> *xyz 0 1
|  3> C         -1.10433        0.25137       -2.86006
|  4> C         -0.71189        0.84252       -4.21834
|  5> H          0.15463        1.49980       -4.13091
|  6> H         -1.53813        1.45922       -4.58267
|  7> C         -0.39762       -0.20587       -5.28802
|  8> F          0.61717       -0.00535       -5.99827
|  9> O         -1.13317       -1.22138       -5.34147
| 10> C         -0.19626       -0.86337       -2.32576
| 11> H         -1.14384        1.06671       -2.12968
| 12> H         -2.11440       -0.15683       -2.93032
| 13> H         -0.15538       -1.66172       -3.03700
| 14> H         -0.58845       -1.22999       -1.40020
| 15> H          0.78852       -0.47602       -2.16737
| 16> *
| 17>
| 18> %MaxCore 64000
| 19>
| 20> %pal nprocs 4
| 21> end
| 22>
| 23> %scf
| 24>   MaxIter 150
| 25> end
| 26>
| 27>
| 28>                          ****END OF INPUT****

CARTESIAN COORDINATES (ANGSTROEM)
---------------------------------
  C     -1.104330    0.251370   -2.860060
  C     -0.711890    0.842520   -4.218340
  H      0.154630    1.499800   -4.130910
  H     -1.538130    1.459220   -4.582670
  C     -0.397620   -0.205870   -5.288020
  F      0.617170   -0.005350   -5.998270
  O     -1.133170   -1.221380   -5.341470
  C     -0.196260   -0.863370   -2.325760
  H     -1.143840    1.066710   -2.129680
  H     -2.114400   -0.156830   -2.930320
  H     -0.155380   -1.661720   -3.037000
  H     -0.588450   -1.229990   -1.400200
  H      0.788520   -0.476020   -2.167370

 Total Charge           Charge          ....    0
 Multiplicity           Mult            ....    1
 Number of Electrons    NEL             ....   48
 Basis Dimension        Dim             ....  182

ORBITAL ENERGIES
----------------

  NO   OCC          E(Eh)            E(eV)
   0   2.0000     -24.549309      -668.0207
   1   2.0000     -18.970066      -516.2017
   2   2.0000     -10.272528      -279.5297
   3   2.0000     -10.118525      -275.3391
   4   2.0000     -10.099310      -274.8162
   5   2.0000     -10.074823      -274.1499
   6   2.0000      -1.390073       -37.8258
   7   2.0000      -1.122839       -30.5540
   8   2.0000      -0.917311       -24.9613
   9   2.0000      -0.834841       -22.7172
  10   2.0000      -0.767063       -20.8729
  11   2.0000      -0.716780       -19.5046
  12   2.0000      -0.662047       -18.0152
  13   2.0000      -0.638702       -17.3800
  14   2.0000      -0.614768       -16.7287
  15   2.0000      -0.573912       -15.6169
  16   2.0000      -0.561244       -15.2722
  17   2.0000      -0.521552       -14.1922
  18   2.0000      -0.506420       -13.7804
  19   2.0000      -0.473026       -12.8717
  20   2.0000      -0.457376       -12.4458
  21   2.0000      -0.450141       -12.2490
  22   2.0000      -0.441964       -12.0265
  23   2.0000      -0.398564       -10.8455
  24   0.0000       0.045880         1.2484
  25   0.0000       0.065378         1.7790
  26   0.0000       0.091975         2.5028
  27   0.0000       0.098087         2.6691
  28   0.0000       0.112227         3.0539

MULLIKEN ATOMIC CHARGES
-----------------------
   0 C :   -0.217161
   1 C :    0.266423
   2 H :   -0.041859
   3 H :   -0.051180
   4 C :    0.451309
   5 F :   -0.268105
   6 O :   -0.394127
   7 C :    0.935581
   8 H :   -0.226952
   9 H :   -0.055917
  10 H :   -0.180745
  11 H :   -0.121396
  12 H :   -0.095871
Sum of atomic charges:   -0.0000000

LOEWDIN ATOMIC CHARGES
----------------------
   0 C :   -0.072555
   1 C :    0.030144
   2 H :    0.030613
   3 H :    0.046415
   4 C :   -0.051657
   5 F :   -0.009477
   6 O :   -0.110559
   7 C :    0.122965
   8 H :    0.028680
   9 H :    0.030725
  10 H :   -0.023905
  11 H :   -0.009830
  12 H :   -0.011559

  Mayer bond orders larger than 0.100000
B(  0-C ,  1-C ) :   1.2462 B(  0-C ,  2-H ) :   0.1554 B(  0-C ,  3-H ) :   0.1467
B(  0-C ,  7-C ) :   1.3552 B(  0-C ,  8-H ) :   0.9024 B(  0-C ,  9-H ) :   0.8490
B(  0-C , 10-H ) :   0.2224 B(  0-C , 11-H ) :   0.2559 B(  0-C , 12-H ) :   0.2132
B(  1-C ,  2-H ) :   0.8411 B(  1-C ,  3-H ) :   0.7867 B(  1-C ,  4-C ) :   1.0833
B(  1-C ,  8-H ) :   0.1293 B(  1-C ,  9-H ) :   0.1188 B(  2-H ,  4-C ) :   0.1337
B(  4-C ,  5-F ) :   0.8620 B(  4-C ,  6-O ) :   1.9586 B(  5-F ,  6-O ) :   0.1114
B(  7-C ,  8-H ) :   0.1021 B(  7-C , 10-H ) :   0.7708 B(  7-C , 11-H ) :   0.6779
B(  7-C , 12-H ) :   0.7375

FINAL SINGLE POINT ENERGY      -330.746602561183

DIPOLE MOMENT
-------------
                                X             Y             Z
Electronic contribution:      2.60645      -0.65354     -10.66686
Nuclear contribution   :     -2.39146       1.63977      11.24418
                        -----------------------------------------
Total Dipole Moment    :      0.21500       0.98623       0.57731
                        -----------------------------------------
Magnitude (a.u.)       :      1.16282
Magnitude (Debye)      :      2.95566

Rotational constants in cm-1:     0.198868     0.077542     0.072498
Rotational constants in MHz :  5961.919605  2324.650173  2173.425242

                             ****ORCA TERMINATED NORMALLY****
TOTAL RUN TIME: 0 days 0 hours 0 minutes 19 seconds 954 msec
