                         Program Version 5.0.0 -  RELEASE  -
|  1> !LC-BLYP RIJCOSX def2-SVPD def2/J TightSCF
|  2> *xyz 0 1
|  3> C          2.23447       -2.98975       -2.39762
|  4> C          2.75680       -2.94555       -3.76503
|  5> C          1.98721       -2.59045       -4.81898
|  6> N          0.74322       -3.01749       -4.91352
|  7> N          2.49964       -1.84860       -5.80324
|  8> H          3.30978       -1.29282       -5.55895
|  9> H          1.80103       -1.30430       -6.28913
| 10> H          3.71612       -2.62880       -3.82953
| 11> H          0.39583       -3.62775       -4.18502
| 12> H          0.03920       -2.45438       -5.37137
| 13> C          2.19120       -1.61950       -1.71549
| 14> H          2.87278       -3.66637       -1.82801
| 15> H          1.24619       -3.44744       -2.40784
| 16> C          1.29873       -0.55431       -2.35977
| 17> H          1.87292       -1.78796       -0.68131
| 18> H          3.21681       -1.23843       -1.65443
| 19> H          1.61097       -0.39090       -3.37007
| 20> H          1.37981        0.35955       -1.80916
| 21> H          0.28197       -0.88750       -2.35015
| 22> *
| 23>
| 24> %MaxCore 64000
| 25>
| 26> %pal nprocs 4
| 27> end
| 28>
| 29> %scf
| 30>   MaxIter 150
| 31> end
| 32>
| 33>
| 34>                          ****END OF INPUT****

CARTESIAN COORDINATES (ANGSTROEM)
---------------------------------
  C      2.234470   -2.989750   -2.397620
  C      2.756800   -2.945550   -3.765030
  C      1.987210   -2.590450   -4.818980
  N      0.743220   -3.017490   -4.913520
  N      2.499640   -1.848600   -5.803240
  H      3.309780   -1.292820   -5.558950
  H      1.801030   -1.304300   -6.289130
  H      3.716120   -2.628800   -3.829530
  H      0.395830   -3.627750   -4.185020
  H      0.039200   -2.454380   -5.371370
  C      2.191200   -1.619500   -1.715490
  H      2.872780   -3.666370   -1.828010
  H      1.246190   -3.447440   -2.407840
  C      1.298730   -0.554310   -2.359770
  H      1.872920   -1.787960   -0.681310
  H      3.216810   -1.238430   -1.654430
  H      1.610970   -0.390900   -3.370070
  H      1.379810    0.359550   -1.809160
  H      0.281970   -0.887500   -2.350150

 Total Charge           Charge          ....    0
 Multiplicity           Mult            ....    1
 Number of Electrons    NEL             ....   56
 Basis Dimension        Dim             ....  236

ORBITAL ENERGIES
----------------

  NO   OCC          E(Eh)            E(eV)
   0   2.0000     -14.196401      -386.3037
   1   2.0000     -14.192786      -386.2053
   2   2.0000     -10.138347      -275.8784
   3   2.0000     -10.067530      -273.9514
   4   2.0000     -10.062861      -273.8244
   5   2.0000     -10.062030      -273.8018
   6   2.0000     -10.013142      -272.4715
   7   2.0000      -1.067723       -29.0542
   8   2.0000      -0.974558       -26.5191
   9   2.0000      -0.892583       -24.2884
  10   2.0000      -0.826346       -22.4860
  11   2.0000      -0.765611       -20.8333
  12   2.0000      -0.706667       -19.2294
  13   2.0000      -0.673872       -18.3370
  14   2.0000      -0.650358       -17.6971
  15   2.0000      -0.613875       -16.7044
  16   2.0000      -0.573729       -15.6120
  17   2.0000      -0.559038       -15.2122
  18   2.0000      -0.547222       -14.8907
  19   2.0000      -0.517345       -14.0777
  20   2.0000      -0.494465       -13.4551
  21   2.0000      -0.479940       -13.0598
  22   2.0000      -0.453559       -12.3420
  23   2.0000      -0.439727       -11.9656
  24   2.0000      -0.415618       -11.3095
  25   2.0000      -0.410619       -11.1735
  26   2.0000      -0.377657       -10.2766
  27   2.0000      -0.256648        -6.9837
  28   0.0000       0.061976         1.6865
  29   0.0000       0.093289         2.5385
  30   0.0000       0.094376         2.5681
  31   0.0000       0.104409         2.8411
  32   0.0000       0.119316         3.2468

MULLIKEN ATOMIC CHARGES
-----------------------
   0 C :    0.345316
   1 C :    0.003068
   2 C :   -0.017592
   3 N :    0.244517
   4 N :    0.153064
   5 H :    0.034842
   6 H :   -0.003980
   7 H :   -0.286910
   8 H :   -0.026073
   9 H :   -0.144522
  10 C :   -0.157423
  11 H :   -0.140388
  12 H :   -0.265441
  13 C :    1.132071
  14 H :   -0.181794
  15 H :   -0.144450
  16 H :   -0.275006
  17 H :   -0.203834
  18 H :   -0.065465
Sum of atomic charges:   -0.0000000

LOEWDIN ATOMIC CHARGES
----------------------
   0 C :   -0.081242
   1 C :   -0.021779
   2 C :   -0.272114
   3 N :    0.213681
   4 N :    0.205099
   5 H :    0.002474
   6 H :   -0.011504
   7 H :   -0.051811
   8 H :   -0.004215
   9 H :   -0.000131
  10 C :   -0.081671
  11 H :    0.017160
  12 H :   -0.000514
  13 C :    0.114139
  14 H :    0.019369
  15 H :    0.023990
  16 H :   -0.035585
  17 H :   -0.018140
  18 H :   -0.017207

  Mayer bond orders larger than 0.100000
B(  0-C ,  1-C ) :   1.2235 B(  0-C ,  2-C ) :   0.1832 B(  0-C ,  7-H ) :   0.3654
B(  0-C , 10-C ) :   1.1727 B(  0-C , 11-H ) :   0.7431 B(  0-C , 12-H ) :   0.7105
B(  0-C , 14-H ) :   0.2288 B(  0-C , 15-H ) :   0.1893 B(  1-C ,  2-C ) :   1.7247
B(  1-C ,  3-N ) :   0.1526 B(  1-C ,  4-N ) :   0.2649 B(  1-C ,  7-H ) :   0.5682
B(  1-C , 11-H ) :   0.2259 B(  1-C , 12-H ) :   0.2385 B(  2-C ,  3-N ) :   1.1558
B(  2-C ,  4-N ) :   1.0026 B(  2-C ,  6-H ) :   0.1389 B(  2-C ,  7-H ) :   0.3278
B(  3-N ,  4-N ) :   0.1077 B(  3-N ,  8-H ) :   0.9925 B(  3-N ,  9-H ) :   1.1638
B(  4-N ,  5-H ) :   0.9302 B(  4-N ,  6-H ) :   0.8409 B(  8-H ,  9-H ) :  -0.1528
B( 10-C , 12-H ) :   0.1614 B( 10-C , 13-C ) :   1.2751 B( 10-C , 14-H ) :   0.8325
B( 10-C , 15-H ) :   0.8763 B( 10-C , 16-H ) :   0.2920 B( 10-C , 17-H ) :   0.2738
B( 10-C , 18-H ) :   0.2562 B( 13-C , 15-H ) :   0.1027 B( 13-C , 16-H ) :   0.7075
B( 13-C , 17-H ) :   0.6576 B( 13-C , 18-H ) :   0.6711 B( 16-H , 18-H ) :   0.1460

FINAL SINGLE POINT ENERGY      -306.174744368280

DIPOLE MOMENT
-------------
                                X             Y             Z
Electronic contribution:      0.57408      -2.83950      -4.99668
Nuclear contribution   :     -1.30515       3.65216       4.73330
                        -----------------------------------------
Total Dipole Moment    :     -0.73107       0.81266      -0.26337
                        -----------------------------------------
Magnitude (a.u.)       :      1.12439
Magnitude (Debye)      :      2.85798

Rotational constants in cm-1:     0.129987     0.058163     0.054282
Rotational constants in MHz :  3896.918182  1743.696851  1627.337267

                             ****ORCA TERMINATED NORMALLY****
TOTAL RUN TIME: 0 days 0 hours 0 minutes 39 seconds 835 msec
