                         Program Version 5.0.0 -  RELEASE  -
|  1> !LC-BLYP RIJCOSX def2-SVPD def2/J TightSCF
|  2> *xyz 0 1
|  3> C         -1.10433        0.25137       -2.86006
|  4> C         -0.71189        0.84252       -4.21834
|  5> H          0.15463        1.49980       -4.13091
|  6> H         -1.53813        1.45922       -4.58267
|  7> C         -0.39762       -0.20587       -5.28802
|  8> O          0.61717       -0.00535       -5.99827
|  9> F         -1.13317       -1.22138       -5.34147
| 10> C         -0.19626       -0.86337       -2.32576
| 11> H         -1.14384        1.06671       -2.12968
| 12> H         -2.11440       -0.15683       -2.93032
| 13> H         -0.15538       -1.66172       -3.03700
| 14> H         -0.58845       -1.22999       -1.40020
| 15> H          0.78852       -0.47602       -2.16737
| 16> *
| 17>
| 18> %MaxCore 64000
| 19>
| 20> %pal nprocs 4
| 21> end
| 22>
| 23> %scf
| 24>   MaxIter 150
| 25> end
| 26>
| 27>
| 28>                          ****END OF INPUT****

CARTESIAN COORDINATES (ANGSTROEM)
---------------------------------
  C     -1.104330    0.251370   -2.860060
  C     -0.711890    0.842520   -4.218340
  H      0.154630    1.499800   -4.130910
  H     -1.538130    1.459220   -4.582670
  C     -0.397620   -0.205870   -5.288020
  O      0.617170   -0.005350   -5.998270
  F     -1.133170   -1.221380   -5.341470
  C     -0.196260   -0.863370   -2.325760
  H     -1.143840    1.066710   -2.129680
  H     -2.114400   -0.156830   -2.930320
  H     -0.155380   -1.661720   -3.037000
  H     -0.588450   -1.229990   -1.400200
  H      0.788520   -0.476020   -2.167370

 Total Charge           Charge          ....    0
 Multiplicity           Mult            ....    1
 Number of Electrons    NEL             ....   48
 Basis Dimension        Dim             ....  182

ORBITAL ENERGIES
----------------

  NO   OCC          E(Eh)            E(eV)
   0   2.0000     -24.550233      -668.0458
   1   2.0000     -18.968369      -516.1556
   2   2.0000     -10.271414      -279.4994
   3   2.0000     -10.117253      -275.3044
   4   2.0000     -10.104564      -274.9592
   5   2.0000     -10.083081      -274.3746
   6   2.0000      -1.390607       -37.8403
   7   2.0000      -1.120895       -30.5011
   8   2.0000      -0.923000       -25.1161
   9   2.0000      -0.835383       -22.7319
  10   2.0000      -0.766933       -20.8693
  11   2.0000      -0.723208       -19.6795
  12   2.0000      -0.664216       -18.0742
  13   2.0000      -0.651126       -17.7180
  14   2.0000      -0.596423       -16.2295
  15   2.0000      -0.581313       -15.8183
  16   2.0000      -0.561798       -15.2873
  17   2.0000      -0.525096       -14.2886
  18   2.0000      -0.506451       -13.7812
  19   2.0000      -0.482632       -13.1331
  20   2.0000      -0.467023       -12.7083
  21   2.0000      -0.454586       -12.3699
  22   2.0000      -0.444345       -12.0913
  23   2.0000      -0.392588       -10.6829
  24   0.0000       0.049108         1.3363
  25   0.0000       0.062825         1.7095
  26   0.0000       0.093168         2.5352
  27   0.0000       0.097259         2.6466
  28   0.0000       0.107753         2.9321

MULLIKEN ATOMIC CHARGES
-----------------------
   0 C :   -0.216596
   1 C :    0.290200
   2 H :   -0.054202
   3 H :   -0.070365
   4 C :    0.465298
   5 O :   -0.335427
   6 F :   -0.315676
   7 C :    0.935942
   8 H :   -0.237017
   9 H :   -0.076736
  10 H :   -0.181840
  11 H :   -0.121121
  12 H :   -0.082459
Sum of atomic charges:    0.0000000

LOEWDIN ATOMIC CHARGES
----------------------
   0 C :   -0.080787
   1 C :    0.035141
   2 H :    0.041164
   3 H :    0.044275
   4 C :   -0.058215
   5 O :   -0.112614
   6 F :   -0.008032
   7 C :    0.122677
   8 H :    0.029069
   9 H :    0.025814
  10 H :   -0.022386
  11 H :   -0.009591
  12 H :   -0.006514

  Mayer bond orders larger than 0.100000
B(  0-C ,  1-C ) :   1.2214 B(  0-C ,  2-H ) :   0.1486 B(  0-C ,  3-H ) :   0.1392
B(  0-C ,  7-C ) :   1.3532 B(  0-C ,  8-H ) :   0.9090 B(  0-C ,  9-H ) :   0.8523
B(  0-C , 10-H ) :   0.2249 B(  0-C , 11-H ) :   0.2600 B(  0-C , 12-H ) :   0.2197
B(  1-C ,  2-H ) :   0.8597 B(  1-C ,  3-H ) :   0.7981 B(  1-C ,  4-C ) :   1.0441
B(  1-C ,  8-H ) :   0.1316 B(  1-C ,  9-H ) :   0.1106 B(  2-H ,  4-C ) :   0.1666
B(  4-C ,  5-O ) :   1.9231 B(  4-C ,  6-F ) :   0.8403 B(  5-O ,  6-F ) :   0.1233
B(  7-C , 10-H ) :   0.7707 B(  7-C , 11-H ) :   0.6748 B(  7-C , 12-H ) :   0.7410

FINAL SINGLE POINT ENERGY      -330.745560184030

DIPOLE MOMENT
-------------
                                X             Y             Z
Electronic contribution:     -0.36764      -2.70593      -9.48920
Nuclear contribution   :     -0.41432       3.01336      10.50227
                        -----------------------------------------
Total Dipole Moment    :     -0.78196       0.30743       1.01307
                        -----------------------------------------
Magnitude (a.u.)       :      1.31616
Magnitude (Debye)      :      3.34542

Rotational constants in cm-1:     0.192167     0.080512     0.073747
Rotational constants in MHz :  5761.018137  2413.690728  2210.882638

                             ****ORCA TERMINATED NORMALLY****
TOTAL RUN TIME: 0 days 0 hours 0 minutes 19 seconds 870 msec
