                         Program Version 5.0.0 -  RELEASE  -
|  1> !LC-BLYP RIJCOSX def2-SVPD def2/J TightSCF
|  2> *xyz 0 1
|  3> C          2.23447       -2.98975       -2.39762
|  4> N          2.75680       -2.94555       -3.76503
|  5> C          1.98721       -2.59045       -4.81898
|  6> C          0.74322       -3.01749       -4.91352
|  7> N          2.49964       -1.84860       -5.80324
|  8> H          3.30978       -1.29282       -5.55895
|  9> H          1.80103       -1.30430       -6.28913
| 10> H          3.71612       -2.62880       -3.82953
| 11> H          0.39583       -3.62775       -4.18502
| 12> H          0.03920       -2.45438       -5.37137
| 13> C          2.19120       -1.61950       -1.71549
| 14> H          2.87278       -3.66637       -1.82801
| 15> H          1.24619       -3.44744       -2.40784
| 16> C          1.29873       -0.55431       -2.35977
| 17> H          1.87292       -1.78796       -0.68131
| 18> H          3.21681       -1.23843       -1.65443
| 19> H          1.61097       -0.39090       -3.37007
| 20> H          1.37981        0.35955       -1.80916
| 21> H          0.28197       -0.88750       -2.35015
| 22> *
| 23>
| 24> %MaxCore 64000
| 25>
| 26> %pal nprocs 4
| 27> end
| 28>
| 29> %scf
| 30>   MaxIter 150
| 31> end
| 32>
| 33>
| 34>                          ****END OF INPUT****

CARTESIAN COORDINATES (ANGSTROEM)
---------------------------------
  C      2.234470   -2.989750   -2.397620
  N      2.756800   -2.945550   -3.765030
  C      1.987210   -2.590450   -4.818980
  C      0.743220   -3.017490   -4.913520
  N      2.499640   -1.848600   -5.803240
  H      3.309780   -1.292820   -5.558950
  H      1.801030   -1.304300   -6.289130
  H      3.716120   -2.628800   -3.829530
  H      0.395830   -3.627750   -4.185020
  H      0.039200   -2.454380   -5.371370
  C      2.191200   -1.619500   -1.715490
  H      2.872780   -3.666370   -1.828010
  H      1.246190   -3.447440   -2.407840
  C      1.298730   -0.554310   -2.359770
  H      1.872920   -1.787960   -0.681310
  H      3.216810   -1.238430   -1.654430
  H      1.610970   -0.390900   -3.370070
  H      1.379810    0.359550   -1.809160
  H      0.281970   -0.887500   -2.350150

 Total Charge           Charge          ....    0
 Multiplicity           Mult            ....    1
 Number of Electrons    NEL             ....   56
 Basis Dimension        Dim             ....  236

ORBITAL ENERGIES
----------------

  NO   OCC          E(Eh)            E(eV)
   0   2.0000     -14.191638      -386.1741
   1   2.0000     -14.191066      -386.1585
   2   2.0000     -10.135190      -275.7925
   3   2.0000     -10.116291      -275.2783
   4   2.0000     -10.086342      -274.4633
   5   2.0000     -10.070223      -274.0247
   6   2.0000     -10.005276      -272.2574
   7   2.0000      -1.065022       -28.9807
   8   2.0000      -0.985385       -26.8137
   9   2.0000      -0.882794       -24.0221
  10   2.0000      -0.823802       -22.4168
  11   2.0000      -0.793346       -21.5880
  12   2.0000      -0.710246       -19.3268
  13   2.0000      -0.666024       -18.1234
  14   2.0000      -0.649468       -17.6729
  15   2.0000      -0.615591       -16.7511
  16   2.0000      -0.579662       -15.7734
  17   2.0000      -0.563052       -15.3214
  18   2.0000      -0.531308       -14.4576
  19   2.0000      -0.515411       -14.0250
  20   2.0000      -0.506286       -13.7767
  21   2.0000      -0.482003       -13.1160
  22   2.0000      -0.467977       -12.7343
  23   2.0000      -0.459486       -12.5033
  24   2.0000      -0.443744       -12.0749
  25   2.0000      -0.432673       -11.7736
  26   2.0000      -0.352883        -9.6024
  27   2.0000      -0.272618        -7.4183
  28   0.0000       0.063899         1.7388
  29   0.0000       0.087601         2.3838
  30   0.0000       0.093267         2.5379
  31   0.0000       0.104144         2.8339
  32   0.0000       0.123603         3.3634

MULLIKEN ATOMIC CHARGES
-----------------------
   0 C :    0.814270
   1 N :   -0.141485
   2 C :    0.155068
   3 C :    0.555591
   4 N :    0.152012
   5 H :   -0.064788
   6 H :    0.027840
   7 H :   -0.254366
   8 H :   -0.287643
   9 H :   -0.470462
  10 C :   -0.199902
  11 H :   -0.380280
  12 H :   -0.166859
  13 C :    1.124021
  14 H :   -0.154697
  15 H :   -0.139369
  16 H :   -0.335746
  17 H :   -0.146205
  18 H :   -0.087001
Sum of atomic charges:    0.0000000

LOEWDIN ATOMIC CHARGES
----------------------
   0 C :    0.030459
   1 N :    0.014760
   2 C :   -0.279499
   3 C :    0.152871
   4 N :    0.202356
   5 H :   -0.014442
   6 H :    0.001235
   7 H :    0.014409
   8 H :   -0.099630
   9 H :   -0.085360
  10 C :   -0.075768
  11 H :    0.022946
  12 H :    0.013118
  13 C :    0.118993
  14 H :    0.023816
  15 H :    0.019618
  16 H :   -0.033145
  17 H :   -0.016190
  18 H :   -0.010548

  Mayer bond orders larger than 0.100000
B(  0-C ,  1-N ) :   0.9808 B(  0-C , 10-C ) :   1.0929 B(  0-C , 11-H ) :   0.8164
B(  0-C , 12-H ) :   0.6851 B(  0-C , 14-H ) :   0.1722 B(  0-C , 15-H ) :   0.1506
B(  1-N ,  2-C ) :   1.1312 B(  1-N ,  3-C ) :   0.2796 B(  1-N ,  4-N ) :   0.1248
B(  1-N ,  7-H ) :   1.0666 B(  1-N , 11-H ) :   0.1763 B(  1-N , 12-H ) :   0.1424
B(  2-C ,  3-C ) :   1.8067 B(  2-C ,  4-N ) :   0.9696 B(  2-C ,  7-H ) :  -0.1121
B(  2-C ,  8-H ) :   0.3194 B(  2-C ,  9-H ) :   0.2067 B(  3-C ,  4-N ) :   0.2257
B(  3-C ,  8-H ) :   0.4778 B(  3-C ,  9-H ) :   0.7206 B(  4-N ,  5-H ) :   0.9184
B(  4-N ,  6-H ) :   0.9243 B(  8-H ,  9-H ) :   0.1657 B( 10-C , 12-H ) :   0.1833
B( 10-C , 13-C ) :   1.2595 B( 10-C , 14-H ) :   0.8827 B( 10-C , 15-H ) :   0.8940
B( 10-C , 16-H ) :   0.2854 B( 10-C , 17-H ) :   0.2419 B( 10-C , 18-H ) :   0.2727
B( 11-H , 12-H ) :  -0.1582 B( 13-C , 14-H ) :   0.1012 B( 13-C , 16-H ) :   0.7135
B( 13-C , 17-H ) :   0.6753 B( 13-C , 18-H ) :   0.6556 B( 16-H , 18-H ) :   0.1696

FINAL SINGLE POINT ENERGY      -306.168217507645

DIPOLE MOMENT
-------------
                                X             Y             Z
Electronic contribution:      2.34561      -2.68873      -3.87867
Nuclear contribution   :     -1.74624       3.63640       4.48172
                        -----------------------------------------
Total Dipole Moment    :      0.59938       0.94767       0.60305
                        -----------------------------------------
Magnitude (a.u.)       :      1.27319
Magnitude (Debye)      :      3.23618

Rotational constants in cm-1:     0.131012     0.059513     0.054636
Rotational constants in MHz :  3927.631151  1784.169731  1637.945644

                             ****ORCA TERMINATED NORMALLY****
TOTAL RUN TIME: 0 days 0 hours 0 minutes 37 seconds 448 msec
