                         Program Version 5.0.0 -  RELEASE  -
|  1> !LC-BLYP RIJCOSX def2-SVPD def2/J TightSCF
|  2> *xyz 0 1
|  3> C          2.23447       -2.98975       -2.39762
|  4> N          2.75680       -2.94555       -3.76503
|  5> C          1.98721       -2.59045       -4.81898
|  6> N          0.74322       -3.01749       -4.91352
|  7> C          2.49964       -1.84860       -5.80324
|  8> H          3.30978       -1.29282       -5.55895
|  9> H          1.80103       -1.30430       -6.28913
| 10> H          3.71612       -2.62880       -3.82953
| 11> H          0.39583       -3.62775       -4.18502
| 12> H          0.03920       -2.45438       -5.37137
| 13> C          2.19120       -1.61950       -1.71549
| 14> H          2.87278       -3.66637       -1.82801
| 15> H          1.24619       -3.44744       -2.40784
| 16> C          1.29873       -0.55431       -2.35977
| 17> H          1.87292       -1.78796       -0.68131
| 18> H          3.21681       -1.23843       -1.65443
| 19> H          1.61097       -0.39090       -3.37007
| 20> H          1.37981        0.35955       -1.80916
| 21> H          0.28197       -0.88750       -2.35015
| 22> *
| 23>
| 24> %MaxCore 64000
| 25>
| 26> %pal nprocs 4
| 27> end
| 28>
| 29> %scf
| 30>   MaxIter 150
| 31> end
| 32>
| 33>
| 34>                          ****END OF INPUT****

CARTESIAN COORDINATES (ANGSTROEM)
---------------------------------
  C      2.234470   -2.989750   -2.397620
  N      2.756800   -2.945550   -3.765030
  C      1.987210   -2.590450   -4.818980
  N      0.743220   -3.017490   -4.913520
  C      2.499640   -1.848600   -5.803240
  H      3.309780   -1.292820   -5.558950
  H      1.801030   -1.304300   -6.289130
  H      3.716120   -2.628800   -3.829530
  H      0.395830   -3.627750   -4.185020
  H      0.039200   -2.454380   -5.371370
  C      2.191200   -1.619500   -1.715490
  H      2.872780   -3.666370   -1.828010
  H      1.246190   -3.447440   -2.407840
  C      1.298730   -0.554310   -2.359770
  H      1.872920   -1.787960   -0.681310
  H      3.216810   -1.238430   -1.654430
  H      1.610970   -0.390900   -3.370070
  H      1.379810    0.359550   -1.809160
  H      0.281970   -0.887500   -2.350150

 Total Charge           Charge          ....    0
 Multiplicity           Mult            ....    1
 Number of Electrons    NEL             ....   56
 Basis Dimension        Dim             ....  236

ORBITAL ENERGIES
----------------

  NO   OCC          E(Eh)            E(eV)
   0   2.0000     -14.193742      -386.2313
   1   2.0000     -14.190777      -386.1507
   2   2.0000     -10.139598      -275.9125
   3   2.0000     -10.124825      -275.5105
   4   2.0000     -10.089486      -274.5489
   5   2.0000     -10.072301      -274.0813
   6   2.0000     -10.000886      -272.1379
   7   2.0000      -1.067132       -29.0381
   8   2.0000      -0.984711       -26.7953
   9   2.0000      -0.890261       -24.2252
  10   2.0000      -0.832601       -22.6562
  11   2.0000      -0.778781       -21.1917
  12   2.0000      -0.708683       -19.2843
  13   2.0000      -0.702746       -19.1227
  14   2.0000      -0.647617       -17.6225
  15   2.0000      -0.598118       -16.2756
  16   2.0000      -0.595438       -16.2027
  17   2.0000      -0.557753       -15.1772
  18   2.0000      -0.552634       -15.0379
  19   2.0000      -0.510242       -13.8844
  20   2.0000      -0.494783       -13.4637
  21   2.0000      -0.484394       -13.1810
  22   2.0000      -0.468840       -12.7578
  23   2.0000      -0.462201       -12.5771
  24   2.0000      -0.443416       -12.0660
  25   2.0000      -0.440880       -11.9970
  26   2.0000      -0.354943        -9.6585
  27   2.0000      -0.268075        -7.2947
  28   0.0000       0.064424         1.7531
  29   0.0000       0.086176         2.3450
  30   0.0000       0.088223         2.4007
  31   0.0000       0.101651         2.7661
  32   0.0000       0.121221         3.2986

MULLIKEN ATOMIC CHARGES
-----------------------
   0 C :    0.870415
   1 N :   -0.255908
   2 C :   -0.015480
   3 N :    0.404554
   4 C :    0.670185
   5 H :   -0.273654
   6 H :   -0.483764
   7 H :   -0.155686
   8 H :   -0.126059
   9 H :   -0.106181
  10 C :   -0.227933
  11 H :   -0.391123
  12 H :   -0.192782
  13 C :    1.104185
  14 H :   -0.150327
  15 H :   -0.139152
  16 H :   -0.247595
  17 H :   -0.229126
  18 H :   -0.054568
Sum of atomic charges:    0.0000000

LOEWDIN ATOMIC CHARGES
----------------------
   0 C :    0.023880
   1 N :    0.018557
   2 C :   -0.274060
   3 N :    0.214361
   4 C :    0.132363
   5 H :   -0.101112
   6 H :   -0.101052
   7 H :    0.027507
   8 H :   -0.018160
   9 H :    0.015168
  10 C :   -0.076373
  11 H :    0.021962
  12 H :    0.007609
  13 C :    0.121316
  14 H :    0.022586
  15 H :    0.023635
  16 H :   -0.028350
  17 H :   -0.014922
  18 H :   -0.014916

  Mayer bond orders larger than 0.100000
B(  0-C ,  1-N ) :   0.9864 B(  0-C , 10-C ) :   1.1022 B(  0-C , 11-H ) :   0.7992
B(  0-C , 12-H ) :   0.6998 B(  0-C , 14-H ) :   0.1530 B(  0-C , 15-H ) :   0.1644
B(  1-N ,  2-C ) :   1.1222 B(  1-N ,  4-C ) :   0.2360 B(  1-N ,  7-H ) :   1.0920
B(  1-N , 11-H ) :   0.1993 B(  1-N , 12-H ) :   0.1512 B(  2-C ,  3-N ) :   1.1592
B(  2-C ,  4-C ) :   2.0397 B(  2-C ,  5-H ) :   0.2835 B(  2-C ,  6-H ) :   0.3435
B(  2-C ,  7-H ) :  -0.1160 B(  3-N ,  4-C ) :   0.2068 B(  3-N ,  8-H ) :   0.9626
B(  3-N ,  9-H ) :   1.0746 B(  4-C ,  5-H ) :   0.6037 B(  4-C ,  6-H ) :   0.5527
B(  5-H ,  6-H ) :   0.3119 B(  8-H ,  9-H ) :  -0.1624 B( 10-C , 11-H ) :   0.1006
B( 10-C , 12-H ) :   0.1848 B( 10-C , 13-C ) :   1.2654 B( 10-C , 14-H ) :   0.9001
B( 10-C , 15-H ) :   0.8645 B( 10-C , 16-H ) :   0.2889 B( 10-C , 17-H ) :   0.2537
B( 10-C , 18-H ) :   0.2695 B( 11-H , 12-H ) :  -0.1513 B( 13-C , 16-H ) :   0.7218
B( 13-C , 17-H ) :   0.6795 B( 13-C , 18-H ) :   0.6713 B( 16-H , 18-H ) :   0.1214

FINAL SINGLE POINT ENERGY      -306.164278760215

DIPOLE MOMENT
-------------
                                X             Y             Z
Electronic contribution:      0.75190      -3.81265      -3.00791
Nuclear contribution   :     -1.36148       3.89245       4.28682
                        -----------------------------------------
Total Dipole Moment    :     -0.60958       0.07980       1.27891
                        -----------------------------------------
Magnitude (a.u.)       :      1.41900
Magnitude (Debye)      :      3.60682

Rotational constants in cm-1:     0.130039     0.059901     0.055416
Rotational constants in MHz :  3898.472533  1795.778295  1661.317267

                             ****ORCA TERMINATED NORMALLY****
TOTAL RUN TIME: 0 days 0 hours 0 minutes 39 seconds 658 msec
