                         Program Version 5.0.0 -  RELEASE  -
|  1> !LC-BLYP RIJCOSX def2-SVPD def2/J TightSCF xyzfile
|  2>
|  3> *xyzfile 0 1 D4.xyz
|  4>
|  5> %MaxCore 64000
|  6>
|  7> %pal nprocs 4
|  8> end
|  9>
| 10> %scf
| 11>   MaxIter 150
| 12> end
| 13>
| 14>
| 15>                          ****END OF INPUT****

CARTESIAN COORDINATES (ANGSTROEM)
---------------------------------
  C      2.234473   -2.989754   -2.397622
  C      2.756799   -2.945553   -3.765029
  C     -1.104325    0.251374   -2.860056
  C     -0.711893    0.842517   -4.218344
  H      0.154626    1.499800   -4.130909
  H     -1.538134    1.459222   -4.582671
  C     -0.397624   -0.205875   -5.288018
  C      1.987208   -2.590451   -4.818975
  N      0.743221   -3.017493   -4.913524
  N      2.499636   -1.848598   -5.803241
  H      3.309780   -1.292818   -5.558947
  H      1.801025   -1.304298   -6.289129
  H      3.716116   -2.628797   -3.829533
  H      0.395828   -3.627747   -4.185024
  H      0.039201   -2.454383   -5.371367
  O      0.617165   -0.005348   -5.998273
  F     -1.133173   -1.221380   -5.341465
  C      2.191199   -1.619503   -1.715492
  H      2.872783   -3.666368   -1.828014
  H      1.246188   -3.447444   -2.407842
  C      1.298729   -0.554314   -2.359773
  H      1.872917   -1.787955   -0.681310
  H      3.216809   -1.238432   -1.654428
  C     -0.196255   -0.863365   -2.325763
  H      1.612531   -0.371346   -3.393065
  H      1.480944    0.388638   -1.834444
  H     -0.404105   -1.761825   -2.909448
  H     -0.490439   -1.087880   -1.294131
  H     -1.143842    1.066711   -2.129680
  H     -2.114401   -0.156834   -2.930323

 Total Charge           Charge          ....    0
 Multiplicity           Mult            ....    1
 Number of Electrons    NEL             ....  102
 Basis Dimension        Dim             ....  402

ORBITAL ENERGIES
----------------

  NO   OCC          E(Eh)            E(eV)
   0   2.0000     -24.585843      -669.0148
   1   2.0000     -19.001410      -517.0547
   2   2.0000     -14.180469      -385.8702
   3   2.0000     -14.162029      -385.3684
   4   2.0000     -10.300973      -280.3037
   5   2.0000     -10.131588      -275.6945
   6   2.0000     -10.124434      -275.4999
   7   2.0000     -10.109940      -275.1055
   8   2.0000     -10.090910      -274.5876
   9   2.0000     -10.079962      -274.2897
  10   2.0000     -10.067949      -273.9628
  11   2.0000     -10.058258      -273.6991
  12   2.0000      -9.999308      -272.0950
  13   2.0000      -1.428490       -38.8712
  14   2.0000      -1.157040       -31.4847
  15   2.0000      -1.051283       -28.6069
  16   2.0000      -0.956841       -26.0370
  17   2.0000      -0.942345       -25.6425
  18   2.0000      -0.896710       -24.4007
  19   2.0000      -0.858547       -23.3623
  20   2.0000      -0.810732       -22.0611
  21   2.0000      -0.795608       -21.6496
  22   2.0000      -0.762517       -20.7491
  23   2.0000      -0.723238       -19.6803
  24   2.0000      -0.709302       -19.3011
  25   2.0000      -0.690769       -18.7968
  26   2.0000      -0.679387       -18.4871
  27   2.0000      -0.668581       -18.1930
  28   2.0000      -0.632756       -17.2182
  29   2.0000      -0.623432       -16.9644
  30   2.0000      -0.595763       -16.2115
  31   2.0000      -0.593468       -16.1491
  32   2.0000      -0.583556       -15.8794
  33   2.0000      -0.554754       -15.0956
  34   2.0000      -0.547450       -14.8969
  35   2.0000      -0.544369       -14.8130
  36   2.0000      -0.537535       -14.6271
  37   2.0000      -0.510209       -13.8835
  38   2.0000      -0.504076       -13.7166
  39   2.0000      -0.499721       -13.5981
  40   2.0000      -0.487589       -13.2680
  41   2.0000      -0.468228       -12.7411
  42   2.0000      -0.463522       -12.6131
  43   2.0000      -0.447203       -12.1690
  44   2.0000      -0.438976       -11.9451
  45   2.0000      -0.426528       -11.6064
  46   2.0000      -0.417007       -11.3473
  47   2.0000      -0.407117       -11.0782
  48   2.0000      -0.403272       -10.9736
  49   2.0000      -0.357601        -9.7308
  50   2.0000      -0.242913        -6.6100
  51   0.0000       0.020140         0.5480
  52   0.0000       0.053770         1.4632
  53   0.0000       0.077537         2.1099
  54   0.0000       0.082913         2.2562
  55   0.0000       0.088360         2.4044

MULLIKEN ATOMIC CHARGES
-----------------------
   0 C :    0.524168
   1 C :   -0.027920
   2 C :    0.721385
   3 C :    0.403738
   4 H :    0.135470
   5 H :   -0.351588
   6 C :    0.315052
   7 C :    0.036092
   8 N :    0.505103
   9 N :    0.293146
  10 H :    0.122119
  11 H :   -0.225928
  12 H :   -0.314570
  13 H :    0.052207
  14 H :   -0.562388
  15 O :   -0.307593
  16 F :   -0.353447
  17 C :    0.629342
  18 H :   -0.245693
  19 H :   -0.268349
  20 C :    0.223700
  21 H :   -0.093090
  22 H :   -0.184562
  23 C :    0.239558
  24 H :   -0.311601
  25 H :   -0.203750
  26 H :   -0.347487
  27 H :   -0.188070
  28 H :   -0.175626
  29 H :   -0.039418
Sum of atomic charges:    0.0000000

LOEWDIN ATOMIC CHARGES
----------------------
   0 C :   -0.074041
   1 C :   -0.022965
   2 C :   -0.030581
   3 C :    0.052536
   4 H :    0.043407
   5 H :    0.046784
   6 C :   -0.008866
   7 C :   -0.243063
   8 N :    0.240787
   9 N :    0.224671
  10 H :    0.009268
  11 H :   -0.097314
  12 H :   -0.054420
  13 H :    0.002564
  14 H :   -0.074751
  15 O :   -0.098116
  16 F :   -0.004875
  17 C :   -0.033786
  18 H :    0.016512
  19 H :   -0.005715
  20 C :   -0.033929
  21 H :    0.022372
  22 H :    0.028651
  23 C :   -0.037258
  24 H :    0.008291
  25 H :    0.030967
  26 H :   -0.006359
  27 H :    0.035981
  28 H :    0.034319
  29 H :    0.028929

  Mayer bond orders larger than 0.100000
B(  0-C ,  1-C ) :   1.1516 B(  0-C ,  7-C ) :   0.1677 B(  0-C , 12-H ) :   0.4257
B(  0-C , 17-C ) :   1.1217 B(  0-C , 18-H ) :   0.6229 B(  0-C , 19-H ) :   0.6816
B(  0-C , 21-H ) :   0.2333 B(  0-C , 22-H ) :   0.2066 B(  1-C ,  7-C ) :   1.5721
B(  1-C ,  8-N ) :   0.1857 B(  1-C ,  9-N ) :   0.3222 B(  1-C , 12-H ) :   0.4448
B(  1-C , 18-H ) :   0.2491 B(  1-C , 19-H ) :   0.2548 B(  2-C ,  3-C ) :   1.1280
B(  2-C ,  4-H ) :   0.1114 B(  2-C ,  5-H ) :   0.1829 B(  2-C , 23-C ) :   1.2030
B(  2-C , 26-H ) :   0.1113 B(  2-C , 28-H ) :   0.7200 B(  2-C , 29-H ) :   0.5620
B(  3-C ,  4-H ) :   0.7861 B(  3-C ,  5-H ) :   0.6912 B(  3-C ,  6-C ) :   1.1776
B(  3-C , 23-C ) :   0.1386 B(  3-C , 28-H ) :   0.1726 B(  3-C , 29-H ) :   0.1018
B(  4-H ,  5-H ) :  -0.1282 B(  4-H ,  6-C ) :   0.2346 B(  5-H ,  6-C ) :   0.2239
B(  5-H , 24-H ) :  -0.1075 B(  6-C , 15-O ) :   1.8413 B(  6-C , 16-F ) :   0.7632
B(  7-C ,  8-N ) :   1.1298 B(  7-C ,  9-N ) :   0.9677 B(  7-C , 11-H ) :   0.1789
B(  7-C , 12-H ) :   0.4228 B(  8-N ,  9-N ) :   0.1106 B(  8-N , 13-H ) :   0.8970
B(  8-N , 14-H ) :   1.1316 B(  9-N , 10-H ) :   0.8373 B(  9-N , 11-H ) :   0.7836
B( 11-H , 15-O ) :   0.1124 B( 13-H , 14-H ) :  -0.2583 B( 14-H , 16-F ) :   0.1095
B( 15-O , 16-F ) :   0.1189 B( 17-C , 18-H ) :   0.1194 B( 17-C , 19-H ) :   0.1478
B( 17-C , 20-C ) :   1.2256 B( 17-C , 21-H ) :   0.6947 B( 17-C , 22-H ) :   0.5886
B( 17-C , 24-H ) :   0.1213 B( 20-C , 21-H ) :   0.1719 B( 20-C , 22-H ) :   0.3389
B( 20-C , 23-C ) :   1.2453 B( 20-C , 24-H ) :   0.8195 B( 20-C , 25-H ) :   0.7103
B( 20-C , 26-H ) :   0.1835 B( 20-C , 27-H ) :   0.2407 B( 21-H , 22-H ) :  -0.1723
B( 23-C , 24-H ) :   0.1942 B( 23-C , 25-H ) :   0.2340 B( 23-C , 26-H ) :   0.8008
B( 23-C , 27-H ) :   0.6990 B( 23-C , 28-H ) :   0.1883 B( 23-C , 29-H ) :   0.3188
B( 28-H , 29-H ) :  -0.1629

FINAL SINGLE POINT ENERGY      -635.753429377178

DIPOLE MOMENT
-------------
                                X             Y             Z
Electronic contribution:     -6.04900       0.26103     -13.36826
Nuclear contribution   :      4.38568       1.15960      13.97148
                        -----------------------------------------
Total Dipole Moment    :     -1.66332       1.42063       0.60322
                        -----------------------------------------
Magnitude (a.u.)       :      2.26907
Magnitude (Debye)      :      5.76753

Rotational constants in cm-1:     0.032892     0.023844     0.017123
Rotational constants in MHz :   986.091711   714.821905   513.334630

                             ****ORCA TERMINATED NORMALLY****
TOTAL RUN TIME: 0 days 0 hours 3 minutes 5 seconds 232 msec
