                         Program Version 5.0.0 -  RELEASE  -
|  1> !LC-BLYP RIJCOSX def2-SVPD def2/J TightSCF xyzfile
|  2>
|  3> *xyzfile 0 1 D5.xyz
|  4>
|  5> %MaxCore 64000
|  6>
|  7> %pal nprocs 4
|  8> end
|  9>
| 10> %scf
| 11>   MaxIter 150
| 12> end
| 13>
| 14>
| 15>                          ****END OF INPUT****

CARTESIAN COORDINATES (ANGSTROEM)
---------------------------------
  C      2.234473   -2.989754   -2.397622
  N      2.756799   -2.945553   -3.765029
  C     -1.104325    0.251374   -2.860056
  C     -0.711893    0.842517   -4.218344
  H      0.154626    1.499800   -4.130909
  H     -1.538134    1.459222   -4.582671
  C     -0.397624   -0.205875   -5.288018
  C      1.987208   -2.590451   -4.818975
  C      0.743221   -3.017493   -4.913524
  N      2.499636   -1.848598   -5.803241
  H      3.309780   -1.292818   -5.558947
  H      1.801025   -1.304298   -6.289129
  H      3.716116   -2.628797   -3.829533
  H      0.395828   -3.627747   -4.185024
  H      0.039201   -2.454383   -5.371367
  O      0.617165   -0.005348   -5.998273
  F     -1.133173   -1.221380   -5.341465
  C      2.191199   -1.619503   -1.715492
  H      2.872783   -3.666368   -1.828014
  H      1.246188   -3.447444   -2.407842
  C      1.298729   -0.554314   -2.359773
  H      1.872917   -1.787955   -0.681310
  H      3.216809   -1.238432   -1.654428
  C     -0.196255   -0.863365   -2.325763
  H      1.612531   -0.371346   -3.393065
  H      1.480944    0.388638   -1.834444
  H     -0.404105   -1.761825   -2.909448
  H     -0.490439   -1.087880   -1.294131
  H     -1.143842    1.066711   -2.129680
  H     -2.114401   -0.156834   -2.930323

 Total Charge           Charge          ....    0
 Multiplicity           Mult            ....    1
 Number of Electrons    NEL             ....  102
 Basis Dimension        Dim             ....  402

ORBITAL ENERGIES
----------------

  NO   OCC          E(Eh)            E(eV)
   0   2.0000     -24.557719      -668.2495
   1   2.0000     -18.984143      -516.5848
   2   2.0000     -14.182717      -385.9313
   3   2.0000     -14.162146      -385.3716
   4   2.0000     -10.284787      -279.8633
   5   2.0000     -10.122697      -275.4526
   6   2.0000     -10.122190      -275.4388
   7   2.0000     -10.113535      -275.2033
   8   2.0000     -10.104073      -274.9458
   9   2.0000     -10.087075      -274.4833
  10   2.0000     -10.086814      -274.4762
  11   2.0000     -10.086620      -274.4709
  12   2.0000      -9.990749      -271.8621
  13   2.0000      -1.401758       -38.1438
  14   2.0000      -1.139998       -31.0209
  15   2.0000      -1.051031       -28.6000
  16   2.0000      -0.970793       -26.4166
  17   2.0000      -0.934779       -25.4366
  18   2.0000      -0.891135       -24.2490
  19   2.0000      -0.839782       -22.8516
  20   2.0000      -0.809191       -22.0192
  21   2.0000      -0.793053       -21.5801
  22   2.0000      -0.768443       -20.9104
  23   2.0000      -0.726217       -19.7614
  24   2.0000      -0.696011       -18.9394
  25   2.0000      -0.682512       -18.5721
  26   2.0000      -0.662197       -18.0193
  27   2.0000      -0.648886       -17.6571
  28   2.0000      -0.635995       -17.3063
  29   2.0000      -0.622138       -16.9292
  30   2.0000      -0.595527       -16.2051
  31   2.0000      -0.589263       -16.0347
  32   2.0000      -0.582130       -15.8406
  33   2.0000      -0.557396       -15.1675
  34   2.0000      -0.549363       -14.9489
  35   2.0000      -0.528222       -14.3737
  36   2.0000      -0.519703       -14.1418
  37   2.0000      -0.515952       -14.0398
  38   2.0000      -0.496855       -13.5201
  39   2.0000      -0.495515       -13.4836
  40   2.0000      -0.480298       -13.0696
  41   2.0000      -0.473111       -12.8740
  42   2.0000      -0.460354       -12.5269
  43   2.0000      -0.458376       -12.4730
  44   2.0000      -0.445115       -12.1122
  45   2.0000      -0.429715       -11.6931
  46   2.0000      -0.428809       -11.6685
  47   2.0000      -0.418712       -11.3937
  48   2.0000      -0.404003       -10.9935
  49   2.0000      -0.337607        -9.1868
  50   2.0000      -0.261421        -7.1136
  51   0.0000       0.035960         0.9785
  52   0.0000       0.061313         1.6684
  53   0.0000       0.074617         2.0304
  54   0.0000       0.081747         2.2244
  55   0.0000       0.090970         2.4754

MULLIKEN ATOMIC CHARGES
-----------------------
   0 C :    0.916259
   1 N :   -0.154431
   2 C :    0.747692
   3 C :    0.389310
   4 H :    0.106395
   5 H :   -0.358265
   6 C :    0.259197
   7 C :    0.155068
   8 C :    1.073947
   9 N :    0.334446
  10 H :    0.055662
  11 H :   -0.226052
  12 H :   -0.191281
  13 H :   -0.179412
  14 H :   -1.031949
  15 O :   -0.318923
  16 F :   -0.401067
  17 C :    0.560824
  18 H :   -0.478356
  19 H :   -0.087441
  20 C :    0.225219
  21 H :   -0.059248
  22 H :   -0.171915
  23 C :    0.163896
  24 H :   -0.355845
  25 H :   -0.240039
  26 H :   -0.332281
  27 H :   -0.196339
  28 H :   -0.176062
  29 H :   -0.029009
Sum of atomic charges:    0.0000000

LOEWDIN ATOMIC CHARGES
----------------------
   0 C :    0.039447
   1 N :    0.017745
   2 C :   -0.029068
   3 C :    0.050801
   4 H :    0.040427
   5 H :    0.045549
   6 C :   -0.007730
   7 C :   -0.247412
   8 C :    0.170078
   9 N :    0.221729
  10 H :   -0.006800
  11 H :   -0.086741
  12 H :    0.014750
  13 H :   -0.086442
  14 H :   -0.140929
  15 O :   -0.105442
  16 F :   -0.012810
  17 C :   -0.027536
  18 H :    0.023230
  19 H :    0.008916
  20 C :   -0.033563
  21 H :    0.027225
  22 H :    0.024327
  23 C :   -0.033938
  24 H :    0.008181
  25 H :    0.031555
  26 H :   -0.002141
  27 H :    0.034296
  28 H :    0.032087
  29 H :    0.030209

  Mayer bond orders larger than 0.100000
B(  0-C ,  1-N ) :   0.9890 B(  0-C ,  8-C ) :   0.1130 B(  0-C , 17-C ) :   1.0579
B(  0-C , 18-H ) :   0.7058 B(  0-C , 19-H ) :   0.7087 B(  0-C , 20-C ) :   0.1184
B(  0-C , 21-H ) :   0.1820 B(  0-C , 22-H ) :   0.1384 B(  1-N ,  7-C ) :   1.1088
B(  1-N ,  8-C ) :   0.3129 B(  1-N ,  9-N ) :   0.1441 B(  1-N , 12-H ) :   1.0135
B(  1-N , 18-H ) :   0.2137 B(  1-N , 19-H ) :   0.1360 B(  2-C ,  3-C ) :   1.1169
B(  2-C ,  5-H ) :   0.1812 B(  2-C , 23-C ) :   1.2206 B(  2-C , 28-H ) :   0.7090
B(  2-C , 29-H ) :   0.5662 B(  3-C ,  4-H ) :   0.8034 B(  3-C ,  5-H ) :   0.6718
B(  3-C ,  6-C ) :   1.2005 B(  3-C , 23-C ) :   0.1404 B(  3-C , 28-H ) :   0.1796
B(  3-C , 29-H ) :   0.1003 B(  4-H ,  5-H ) :  -0.1258 B(  4-H ,  6-C ) :   0.2465
B(  5-H ,  6-C ) :   0.2382 B(  6-C , 14-H ) :   0.1524 B(  6-C , 15-O ) :   1.8141
B(  6-C , 16-F ) :   0.8062 B(  7-C ,  8-C ) :   1.8046 B(  7-C ,  9-N ) :   0.9095
B(  7-C , 10-H ) :   0.1052 B(  7-C , 13-H ) :   0.3873 B(  7-C , 14-H ) :   0.1882
B(  8-C ,  9-N ) :   0.2271 B(  8-C , 13-H ) :   0.2305 B(  8-C , 14-H ) :  -0.1037
B(  9-N , 10-H ) :   0.8149 B(  9-N , 11-H ) :   0.9112 B( 11-H , 13-H ) :  -0.1047
B( 11-H , 15-O ) :   0.1172 B( 13-H , 14-H ) :  -0.1314 B( 14-H , 16-F ) :   0.2654
B( 15-O , 16-F ) :   0.1287 B( 17-C , 18-H ) :   0.1238 B( 17-C , 19-H ) :   0.1630
B( 17-C , 20-C ) :   1.2121 B( 17-C , 21-H ) :   0.7326 B( 17-C , 22-H ) :   0.6351
B( 17-C , 24-H ) :   0.1242 B( 18-H , 19-H ) :  -0.1929 B( 20-C , 21-H ) :   0.1882
B( 20-C , 22-H ) :   0.3008 B( 20-C , 23-C ) :   1.2391 B( 20-C , 24-H ) :   0.8248
B( 20-C , 25-H ) :   0.7528 B( 20-C , 26-H ) :   0.1915 B( 20-C , 27-H ) :   0.2661
B( 21-H , 22-H ) :  -0.1429 B( 23-C , 24-H ) :   0.2067 B( 23-C , 25-H ) :   0.2394
B( 23-C , 26-H ) :   0.8480 B( 23-C , 27-H ) :   0.6806 B( 23-C , 28-H ) :   0.1940
B( 23-C , 29-H ) :   0.3125 B( 25-H , 27-H ) :   0.1062 B( 28-H , 29-H ) :  -0.1665

FINAL SINGLE POINT ENERGY      -635.742983300809

DIPOLE MOMENT
-------------
                                X             Y             Z
Electronic contribution:     -4.38982       0.23316     -12.36521
Nuclear contribution   :      4.07548       1.14852      13.79455
                        -----------------------------------------
Total Dipole Moment    :     -0.31434       1.38168       1.42934
                        -----------------------------------------
Magnitude (a.u.)       :      2.01268
Magnitude (Debye)      :      5.11583

Rotational constants in cm-1:     0.033274     0.023559     0.016968
Rotational constants in MHz :   997.539108   706.293545   508.690532

                             ****ORCA TERMINATED NORMALLY****
TOTAL RUN TIME: 0 days 0 hours 3 minutes 0 seconds 63 msec
