                         Program Version 5.0.0 -  RELEASE  -
|  1> !LC-BLYP RIJCOSX def2-SVPD def2/J TightSCF xyzfile
|  2>
|  3> *xyzfile 0 1 D6.xyz
|  4>
|  5> %MaxCore 64000
|  6>
|  7> %pal nprocs 4
|  8> end
|  9>
| 10> %scf
| 11>   MaxIter 150
| 12> end
| 13>
| 14>
| 15>                          ****END OF INPUT****

CARTESIAN COORDINATES (ANGSTROEM)
---------------------------------
  C      2.234473   -2.989754   -2.397622
  N      2.756799   -2.945553   -3.765029
  C     -1.104325    0.251374   -2.860056
  C     -0.711893    0.842517   -4.218344
  H      0.154626    1.499800   -4.130909
  H     -1.538134    1.459222   -4.582671
  C     -0.397624   -0.205875   -5.288018
  C      1.987208   -2.590451   -4.818975
  N      0.743221   -3.017493   -4.913524
  C      2.499636   -1.848598   -5.803241
  H      3.309780   -1.292818   -5.558947
  H      1.801025   -1.304298   -6.289129
  H      3.716116   -2.628797   -3.829533
  H      0.395828   -3.627747   -4.185024
  H      0.039201   -2.454383   -5.371367
  O      0.617165   -0.005348   -5.998273
  F     -1.133173   -1.221380   -5.341465
  C      2.191199   -1.619503   -1.715492
  H      2.872783   -3.666368   -1.828014
  H      1.246188   -3.447444   -2.407842
  C      1.298729   -0.554314   -2.359773
  H      1.872917   -1.787955   -0.681310
  H      3.216809   -1.238432   -1.654428
  C     -0.196255   -0.863365   -2.325763
  H      1.612531   -0.371346   -3.393065
  H      1.480944    0.388638   -1.834444
  H     -0.404105   -1.761825   -2.909448
  H     -0.490439   -1.087880   -1.294131
  H     -1.143842    1.066711   -2.129680
  H     -2.114401   -0.156834   -2.930323

 Total Charge           Charge          ....    0
 Multiplicity           Mult            ....    1
 Number of Electrons    NEL             ....  102
 Basis Dimension        Dim             ....  402

ORBITAL ENERGIES
----------------

  NO   OCC          E(Eh)            E(eV)
   0   2.0000     -24.571894      -668.6352
   1   2.0000     -18.980477      -516.4850
   2   2.0000     -14.179908      -385.8549
   3   2.0000     -14.177231      -385.7821
   4   2.0000     -10.281656      -279.7781
   5   2.0000     -10.123652      -275.4786
   6   2.0000     -10.121939      -275.4320
   7   2.0000     -10.120099      -275.3819
   8   2.0000     -10.108285      -275.0604
   9   2.0000     -10.095326      -274.7078
  10   2.0000     -10.089504      -274.5494
  11   2.0000     -10.088373      -274.5186
  12   2.0000      -9.977223      -271.4940
  13   2.0000      -1.414778       -38.4981
  14   2.0000      -1.136073       -30.9141
  15   2.0000      -1.055647       -28.7256
  16   2.0000      -0.975560       -26.5463
  17   2.0000      -0.939460       -25.5640
  18   2.0000      -0.896126       -24.3848
  19   2.0000      -0.847581       -23.0638
  20   2.0000      -0.814849       -22.1732
  21   2.0000      -0.788325       -21.4514
  22   2.0000      -0.768608       -20.9149
  23   2.0000      -0.724511       -19.7150
  24   2.0000      -0.714917       -19.4539
  25   2.0000      -0.689815       -18.7708
  26   2.0000      -0.675767       -18.3885
  27   2.0000      -0.665793       -18.1172
  28   2.0000      -0.637137       -17.3374
  29   2.0000      -0.614558       -16.7230
  30   2.0000      -0.603290       -16.4163
  31   2.0000      -0.590050       -16.0561
  32   2.0000      -0.576108       -15.6767
  33   2.0000      -0.566669       -15.4198
  34   2.0000      -0.552685       -15.0393
  35   2.0000      -0.543283       -14.7835
  36   2.0000      -0.520781       -14.1712
  37   2.0000      -0.514760       -14.0073
  38   2.0000      -0.496353       -13.5064
  39   2.0000      -0.487518       -13.2660
  40   2.0000      -0.483779       -13.1643
  41   2.0000      -0.473006       -12.8711
  42   2.0000      -0.469732       -12.7821
  43   2.0000      -0.462317       -12.5803
  44   2.0000      -0.439950       -11.9717
  45   2.0000      -0.433578       -11.7983
  46   2.0000      -0.431615       -11.7449
  47   2.0000      -0.423785       -11.5318
  48   2.0000      -0.388411       -10.5692
  49   2.0000      -0.344332        -9.3697
  50   2.0000      -0.250635        -6.8201
  51   0.0000       0.035754         0.9729
  52   0.0000       0.057455         1.5634
  53   0.0000       0.073628         2.0035
  54   0.0000       0.076122         2.0714
  55   0.0000       0.087591         2.3835

MULLIKEN ATOMIC CHARGES
-----------------------
   0 C :    0.987878
   1 N :   -0.303475
   2 C :    0.738579
   3 C :    0.395723
   4 H :    0.119637
   5 H :   -0.346799
   6 C :    0.284055
   7 C :   -0.046357
   8 N :    0.620014
   9 C :    1.002156
  10 H :   -0.171716
  11 H :   -0.806552
  12 H :   -0.121208
  13 H :   -0.056373
  14 H :   -0.430831
  15 O :   -0.307450
  16 F :   -0.354167
  17 C :    0.527904
  18 H :   -0.477211
  19 H :   -0.096484
  20 C :    0.223003
  21 H :   -0.058827
  22 H :   -0.199212
  23 C :    0.206592
  24 H :   -0.250886
  25 H :   -0.318410
  26 H :   -0.334559
  27 H :   -0.211336
  28 H :   -0.176984
  29 H :   -0.036704
Sum of atomic charges:    0.0000000

LOEWDIN ATOMIC CHARGES
----------------------
   0 C :    0.032380
   1 N :    0.018607
   2 C :   -0.031122
   3 C :    0.051792
   4 H :    0.042660
   5 H :    0.045176
   6 C :   -0.011665
   7 C :   -0.249995
   8 N :    0.238743
   9 C :    0.151864
  10 H :   -0.088016
  11 H :   -0.165607
  12 H :    0.026211
  13 H :   -0.010728
  14 H :   -0.064026
  15 O :   -0.092789
  16 F :   -0.010655
  17 C :   -0.027625
  18 H :    0.022016
  19 H :    0.003393
  20 C :   -0.029747
  21 H :    0.025867
  22 H :    0.027890
  23 C :   -0.039170
  24 H :    0.012908
  25 H :    0.032785
  26 H :   -0.007439
  27 H :    0.034053
  28 H :    0.033156
  29 H :    0.029085

  Mayer bond orders larger than 0.100000
B(  0-C ,  1-N ) :   0.9780 B(  0-C , 12-H ) :  -0.1065 B(  0-C , 17-C ) :   1.0669
B(  0-C , 18-H ) :   0.6946 B(  0-C , 19-H ) :   0.7099 B(  0-C , 20-C ) :   0.1185
B(  0-C , 21-H ) :   0.1590 B(  0-C , 22-H ) :   0.1630 B(  1-N ,  7-C ) :   1.1259
B(  1-N ,  9-C ) :   0.2390 B(  1-N , 12-H ) :   1.0939 B(  1-N , 18-H ) :   0.2418
B(  1-N , 19-H ) :   0.1379 B(  2-C ,  3-C ) :   1.1352 B(  2-C ,  4-H ) :   0.1014
B(  2-C ,  5-H ) :   0.1800 B(  2-C , 17-C ) :   0.1021 B(  2-C , 23-C ) :   1.2090
B(  2-C , 28-H ) :   0.7220 B(  2-C , 29-H ) :   0.5575 B(  3-C ,  4-H ) :   0.8033
B(  3-C ,  5-H ) :   0.6887 B(  3-C ,  6-C ) :   1.1666 B(  3-C , 23-C ) :   0.1347
B(  3-C , 28-H ) :   0.1724 B(  4-H ,  5-H ) :  -0.1198 B(  4-H ,  6-C ) :   0.2473
B(  5-H ,  6-C ) :   0.2143 B(  6-C , 15-O ) :   1.9064 B(  6-C , 16-F ) :   0.7468
B(  7-C ,  8-N ) :   1.0698 B(  7-C ,  9-C ) :   2.0038 B(  7-C , 10-H ) :   0.3761
B(  7-C , 11-H ) :   0.4146 B(  7-C , 12-H ) :  -0.1311 B(  8-N ,  9-C ) :   0.2150
B(  8-N , 13-H ) :   0.9192 B(  8-N , 14-H ) :   1.0251 B(  9-C , 10-H ) :   0.3117
B( 10-H , 11-H ) :   0.4036 B( 11-H , 15-O ) :   0.2084 B( 13-H , 14-H ) :  -0.2475
B( 15-O , 16-F ) :   0.1173 B( 17-C , 18-H ) :   0.1314 B( 17-C , 19-H ) :   0.1721
B( 17-C , 20-C ) :   1.2180 B( 17-C , 21-H ) :   0.7700 B( 17-C , 22-H ) :   0.6055
B( 17-C , 24-H ) :   0.1257 B( 18-H , 19-H ) :  -0.1906 B( 20-C , 21-H ) :   0.1659
B( 20-C , 22-H ) :   0.3113 B( 20-C , 23-C ) :   1.2597 B( 20-C , 24-H ) :   0.8334
B( 20-C , 25-H ) :   0.7552 B( 20-C , 26-H ) :   0.2024 B( 20-C , 27-H ) :   0.2403
B( 21-H , 22-H ) :  -0.1459 B( 23-C , 24-H ) :   0.1868 B( 23-C , 25-H ) :   0.1997
B( 23-C , 26-H ) :   0.8166 B( 23-C , 27-H ) :   0.6855 B( 23-C , 28-H ) :   0.1948
B( 23-C , 29-H ) :   0.3155 B( 28-H , 29-H ) :  -0.1665

FINAL SINGLE POINT ENERGY      -635.728353948014

DIPOLE MOMENT
-------------
                                X             Y             Z
Electronic contribution:     -5.72934      -0.66240     -11.65639
Nuclear contribution   :      4.34606       1.32859      13.65749
                        -----------------------------------------
Total Dipole Moment    :     -1.38327       0.66619       2.00110
                        -----------------------------------------
Magnitude (a.u.)       :      2.52223
Magnitude (Debye)      :      6.41100

Rotational constants in cm-1:     0.033551     0.023540     0.017085
Rotational constants in MHz :  1005.818710   705.725032   512.192443

                             ****ORCA TERMINATED NORMALLY****
TOTAL RUN TIME: 0 days 0 hours 3 minutes 5 seconds 276 msec
