                         Program Version 5.0.0 -  RELEASE  -
|  1> !TPSS D3BJ RIJCOSX def2-TZVPD def2/J TightSCF
|  2> *xyz -1 1
|  3> C          0.70466        1.44313       -4.50363
|  4> C          1.72854        1.42432       -5.63944
|  5> H          2.64672        1.95379       -5.38105
|  6> H          1.29992        1.93061       -6.50361
|  7> S          2.25263       -0.18811       -6.27184
|  8> O          3.56261       -0.44446       -5.63155
|  9> O          2.34494       -0.03374       -7.69650
| 10> O          1.26606       -1.15918       -5.80536
| 11> H         -0.17385        0.91270       -4.80656
| 12> H          0.44778        2.45562       -4.27173
| 13> H          1.12367        0.97423       -3.63791
| 14> *
| 15>
| 16> %MaxCore 64000
| 17>
| 18> %pal nprocs 4
| 19> end
| 20>
| 21> %scf
| 22>   MaxIter 150
| 23> end
| 24>
| 25>
| 26>                          ****END OF INPUT****

CARTESIAN COORDINATES (ANGSTROEM)
---------------------------------
  C      0.704660    1.443130   -4.503630
  C      1.728540    1.424320   -5.639440
  H      2.646720    1.953790   -5.381050
  H      1.299920    1.930610   -6.503610
  S      2.252630   -0.188110   -6.271840
  O      3.562610   -0.444460   -5.631550
  O      2.344940   -0.033740   -7.696500
  O      1.266060   -1.159180   -5.805360
  H     -0.173850    0.912700   -4.806560
  H      0.447780    2.455620   -4.271730
  H      1.123670    0.974230   -3.637910

 Total Charge           Charge          ....   -1
 Multiplicity           Mult            ....    1
 Number of Electrons    NEL             ....   58
 Basis Dimension        Dim             ....  285

ORBITAL ENERGIES
----------------

  NO   OCC          E(Eh)            E(eV)
   0   2.0000     -88.325436     -2403.4573
   1   2.0000     -18.664411      -507.8844
   2   2.0000     -18.657847      -507.7058
   3   2.0000     -18.649589      -507.4811
   4   2.0000      -9.843114      -267.8448
   5   2.0000      -9.841767      -267.8081
   6   2.0000      -7.674328      -208.8291
   7   2.0000      -5.653864      -153.8495
   8   2.0000      -5.653007      -153.8261
   9   2.0000      -5.652785      -153.8201
  10   2.0000      -0.845852       -23.0168
  11   2.0000      -0.723098       -19.6765
  12   2.0000      -0.701247       -19.0819
  13   2.0000      -0.573844       -15.6151
  14   2.0000      -0.455027       -12.3819
  15   2.0000      -0.330167        -8.9843
  16   2.0000      -0.275132        -7.4867
  17   2.0000      -0.265001        -7.2110
  18   2.0000      -0.228587        -6.2202
  19   2.0000      -0.211516        -5.7556
  20   2.0000      -0.208981        -5.6866
  21   2.0000      -0.184652        -5.0246
  22   2.0000      -0.179368        -4.8809
  23   2.0000      -0.104105        -2.8328
  24   2.0000      -0.102423        -2.7871
  25   2.0000      -0.072156        -1.9635
  26   2.0000      -0.066936        -1.8214
  27   2.0000      -0.055122        -1.4999
  28   2.0000      -0.019672        -0.5353
  29   0.0000       0.113557         3.0900
  30   0.0000       0.137858         3.7513
  31   0.0000       0.143986         3.9181
  32   0.0000       0.152085         4.1384
  33   0.0000       0.168826         4.5940

MULLIKEN ATOMIC CHARGES
-----------------------
   0 C :   -0.824379
   1 C :   -0.410437
   2 H :    0.234633
   3 H :    0.223947
   4 S :    1.331869
   5 O :   -0.781199
   6 O :   -0.740646
   7 O :   -0.767598
   8 H :    0.263777
   9 H :    0.227398
  10 H :    0.242633
Sum of atomic charges:   -1.0000000

LOEWDIN ATOMIC CHARGES
----------------------
   0 C :   -0.142876
   1 C :   -0.316325
   2 H :    0.074598
   3 H :    0.068927
   4 S :    0.332747
   5 O :   -0.412062
   6 O :   -0.375434
   7 O :   -0.386306
   8 H :    0.053628
   9 H :    0.044442
  10 H :    0.058661

  Mayer bond orders larger than 0.100000
B(  0-C ,  1-C ) :   0.8694 B(  0-C ,  8-H ) :   0.9470 B(  0-C ,  9-H ) :   0.9464
B(  0-C , 10-H ) :   0.9596 B(  1-C ,  2-H ) :   0.9452 B(  1-C ,  3-H ) :   0.9535
B(  1-C ,  4-S ) :   0.8679 B(  1-C ,  5-O ) :   0.1442 B(  1-C ,  6-O ) :   0.1597
B(  1-C ,  7-O ) :   0.1299 B(  4-S ,  5-O ) :   1.4013 B(  4-S ,  6-O ) :   1.4267
B(  4-S ,  7-O ) :   1.3971

Dispersion correction           -0.011976361
FINAL SINGLE POINT ENERGY      -703.375788662619

DIPOLE MOMENT
-------------
                                X             Y             Z
Electronic contribution:      3.68335      -5.70178      -4.33263
Nuclear contribution   :     -4.50297       7.24642       5.01775
                        -----------------------------------------
Total Dipole Moment    :     -0.81962       1.54463       0.68512
                        -----------------------------------------
Magnitude (a.u.)       :      1.87805
Magnitude (Debye)      :      4.77362

Rotational constants in cm-1:     0.162459     0.081286     0.079601
Rotational constants in MHz :  4870.394399  2436.893583  2386.374948

                             ****ORCA TERMINATED NORMALLY****
TOTAL RUN TIME: 0 days 0 hours 0 minutes 25 seconds 695 msec
