                         Program Version 5.0.0 -  RELEASE  -
|  1> !TPSS D3BJ RIJCOSX def2-TZVPD def2/J TightSCF
|  2> *xyz 1 1
|  3> C          2.91632       -1.24259       -1.54313
|  4> C          3.46659       -1.59097       -2.88908
|  5> N          4.65227       -1.14316       -3.25969
|  6> N          2.75226       -2.29204       -3.72803
|  7> H          1.77836       -2.48960       -3.51274
|  8> H          2.94861       -2.20854       -4.71681
|  9> H          5.14672       -0.51251       -2.63385
| 10> H          4.78303       -1.00720       -4.25350
| 11> C          2.80408        0.29070       -1.35924
| 12> H          1.94047       -1.71653       -1.44116
| 13> H          3.55857       -1.66343       -0.76637
| 14> H          2.17393        0.69633       -2.12297
| 15> H          3.77707        0.73043       -1.42880
| 16> H          2.38369        0.50492       -0.39889
| 17> *
| 18>
| 19> %MaxCore 64000
| 20>
| 21> %pal nprocs 4
| 22> end
| 23>
| 24> %scf
| 25>   MaxIter 150
| 26> end
| 27>
| 28>
| 29>                          ****END OF INPUT****

CARTESIAN COORDINATES (ANGSTROEM)
---------------------------------
  C      2.916320   -1.242590   -1.543130
  C      3.466590   -1.590970   -2.889080
  N      4.652270   -1.143160   -3.259690
  N      2.752260   -2.292040   -3.728030
  H      1.778360   -2.489600   -3.512740
  H      2.948610   -2.208540   -4.716810
  H      5.146720   -0.512510   -2.633850
  H      4.783030   -1.007200   -4.253500
  C      2.804080    0.290700   -1.359240
  H      1.940470   -1.716530   -1.441160
  H      3.558570   -1.663430   -0.766370
  H      2.173930    0.696330   -2.122970
  H      3.777070    0.730430   -1.428800
  H      2.383690    0.504920   -0.398890

 Total Charge           Charge          ....    1
 Multiplicity           Mult            ....    1
 Number of Electrons    NEL             ....   40
 Basis Dimension        Dim             ....  266

ORBITAL ENERGIES
----------------

  NO   OCC          E(Eh)            E(eV)
   0   2.0000     -14.349811      -390.4782
   1   2.0000     -14.344720      -390.3397
   2   2.0000     -10.298521      -280.2370
   3   2.0000     -10.187666      -277.2205
   4   2.0000     -10.148628      -276.1582
   5   2.0000      -1.145090       -31.1595
   6   2.0000      -1.052420       -28.6378
   7   2.0000      -0.915127       -24.9019
   8   2.0000      -0.814213       -22.1559
   9   2.0000      -0.768873       -20.9221
  10   2.0000      -0.722047       -19.6479
  11   2.0000      -0.708653       -19.2834
  12   2.0000      -0.656325       -17.8595
  13   2.0000      -0.621106       -16.9012
  14   2.0000      -0.586290       -15.9538
  15   2.0000      -0.559280       -15.2188
  16   2.0000      -0.516199       -14.0465
  17   2.0000      -0.507314       -13.8047
  18   2.0000      -0.496229       -13.5031
  19   2.0000      -0.461768       -12.5653
  20   0.0000      -0.249598        -6.7919
  21   0.0000      -0.181273        -4.9327
  22   0.0000      -0.140614        -3.8263
  23   0.0000      -0.136822        -3.7231
  24   0.0000      -0.106916        -2.9093

MULLIKEN ATOMIC CHARGES
-----------------------
   0 C :   -0.165874
   1 C :    0.657687
   2 N :   -0.348253
   3 N :   -0.299633
   4 H :    0.239303
   5 H :    0.202547
   6 H :    0.235936
   7 H :    0.205326
   8 C :   -0.944493
   9 H :    0.190626
  10 H :    0.192601
  11 H :    0.303981
  12 H :    0.336035
  13 H :    0.194211
Sum of atomic charges:    1.0000000

LOEWDIN ATOMIC CHARGES
----------------------
   0 C :   -0.129804
   1 C :   -0.370395
   2 N :    0.231044
   3 N :    0.235242
   4 H :    0.151364
   5 H :    0.146239
   6 H :    0.144275
   7 H :    0.145592
   8 C :   -0.041133
   9 H :    0.119574
  10 H :    0.135078
  11 H :    0.081723
  12 H :    0.066331
  13 H :    0.084870

  Mayer bond orders larger than 0.100000
B(  0-C ,  1-C ) :   1.0012 B(  0-C ,  8-C ) :   0.8639 B(  0-C ,  9-H ) :   0.9203
B(  0-C , 10-H ) :   0.9248 B(  1-C ,  2-N ) :   1.1935 B(  1-C ,  3-N ) :   1.2736
B(  2-N ,  3-N ) :   0.1055 B(  2-N ,  6-H ) :   0.9239 B(  2-N ,  7-H ) :   0.9827
B(  3-N ,  4-H ) :   0.9377 B(  3-N ,  5-H ) :   0.9724 B(  8-C , 11-H ) :   0.9371
B(  8-C , 12-H ) :   0.8562 B(  8-C , 13-H ) :   1.0202

Dispersion correction           -0.012557388
FINAL SINGLE POINT ENERGY      -229.157610904975

DIPOLE MOMENT
-------------
                                X             Y             Z
Electronic contribution:      1.31703      -2.84806      -2.76549
Nuclear contribution   :     -1.30215       2.77761       1.84194
                        -----------------------------------------
Total Dipole Moment    :      0.01488      -0.07045      -0.92356
                        -----------------------------------------
Magnitude (a.u.)       :      0.92636
Magnitude (Debye)      :      2.35462

Rotational constants in cm-1:     0.267442     0.127541     0.099068
Rotational constants in MHz :  8017.703171  3823.592522  2969.992494

                             ****ORCA TERMINATED NORMALLY****
TOTAL RUN TIME: 0 days 0 hours 0 minutes 21 seconds 107 msec
