                         Program Version 5.0.0 -  RELEASE  -
|  1> !TPSS D3BJ RIJCOSX def2-TZVPD def2/J TightSCF xyzfile
|  2>
|  3> *xyzfile 0 1 B.xyz
|  4>
|  5> %MaxCore 64000
|  6>
|  7> %pal nprocs 4
|  8> end
|  9>
| 10> %scf
| 11>   MaxIter 150
| 12> end
| 13>
| 14>
| 15>                          ****END OF INPUT****

CARTESIAN COORDINATES (ANGSTROEM)
---------------------------------
  C      2.916324   -1.242589   -1.543125
  C      0.704661    1.443129   -4.503630
  C      1.728539    1.424320   -5.639443
  H      2.646718    1.953794   -5.381054
  H      1.299916    1.930613   -6.503614
  S      2.252625   -0.188115   -6.271840
  C      3.466585   -1.590971   -2.889082
  N      4.652275   -1.143164   -3.259692
  N      2.752264   -2.292043   -3.728029
  H      1.778364   -2.489604   -3.512738
  H      2.948612   -2.208544   -4.716813
  H      5.146723   -0.512508   -2.633852
  H      4.783030   -1.007203   -4.253498
  O      3.562607   -0.444464   -5.631552
  O      2.344944   -0.033742   -7.696501
  C      2.804084    0.290698   -1.359243
  C      1.052550    0.695659   -3.214915
  H     -0.232483    1.032925   -4.884449
  H      0.511700    2.495794   -4.267966
  C      2.388380    1.093669   -2.597108
  H      3.763425    0.674718   -0.999889
  H      2.094788    0.461222   -0.545756
  O      1.266058   -1.159177   -5.805365
  H      3.167316    1.013242   -3.359430
  H      2.357690    2.149375   -2.310997
  H      1.039284   -0.368429   -3.449329
  H      0.250787    0.865605   -2.488283
  H      1.940472   -1.716529   -1.441161
  H      3.558569   -1.663433   -0.766371

 Total Charge           Charge          ....    0
 Multiplicity           Mult            ....    1
 Number of Electrons    NEL             ....  112
 Basis Dimension        Dim             ....  643

ORBITAL ENERGIES
----------------

  NO   OCC          E(Eh)            E(eV)
   0   2.0000     -88.481627     -2407.7075
   1   2.0000     -18.823586      -512.2158
   2   2.0000     -18.816807      -512.0314
   3   2.0000     -18.808043      -511.7929
   4   2.0000     -14.173709      -385.6862
   5   2.0000     -14.172838      -385.6625
   6   2.0000     -10.132887      -275.7299
   7   2.0000     -10.048993      -273.4470
   8   2.0000     -10.028173      -272.8804
   9   2.0000     -10.000261      -272.1209
  10   2.0000      -9.987609      -271.7767
  11   2.0000      -9.983273      -271.6587
  12   2.0000      -9.980009      -271.5698
  13   2.0000      -7.830934      -213.0905
  14   2.0000      -5.810675      -158.1165
  15   2.0000      -5.809866      -158.0945
  16   2.0000      -5.808800      -158.0655
  17   2.0000      -1.005264       -27.3546
  18   2.0000      -0.974627       -26.5210
  19   2.0000      -0.882911       -24.0252
  20   2.0000      -0.875111       -23.8130
  21   2.0000      -0.872189       -23.7335
  22   2.0000      -0.788121       -21.4459
  23   2.0000      -0.742866       -20.2144
  24   2.0000      -0.698339       -19.0028
  25   2.0000      -0.648505       -17.6467
  26   2.0000      -0.622291       -16.9334
  27   2.0000      -0.588593       -16.0164
  28   2.0000      -0.555000       -15.1023
  29   2.0000      -0.543986       -14.8026
  30   2.0000      -0.534950       -14.5567
  31   2.0000      -0.491899       -13.3853
  32   2.0000      -0.481092       -13.0912
  33   2.0000      -0.469086       -12.7645
  34   2.0000      -0.455200       -12.3866
  35   2.0000      -0.428855       -11.6697
  36   2.0000      -0.420407       -11.4398
  37   2.0000      -0.402014       -10.9394
  38   2.0000      -0.392254       -10.6738
  39   2.0000      -0.389019       -10.5857
  40   2.0000      -0.382894       -10.4191
  41   2.0000      -0.372548       -10.1376
  42   2.0000      -0.359231        -9.7752
  43   2.0000      -0.347706        -9.4616
  44   2.0000      -0.339883        -9.2487
  45   2.0000      -0.335483        -9.1290
  46   2.0000      -0.310234        -8.4419
  47   2.0000      -0.302351        -8.2274
  48   2.0000      -0.291658        -7.9364
  49   2.0000      -0.289347        -7.8735
  50   2.0000      -0.263828        -7.1791
  51   2.0000      -0.258861        -7.0440
  52   2.0000      -0.226309        -6.1582
  53   2.0000      -0.221845        -6.0367
  54   2.0000      -0.214851        -5.8464
  55   2.0000      -0.183773        -5.0007
  56   0.0000      -0.086213        -2.3460
  57   0.0000      -0.038983        -1.0608
  58   0.0000      -0.016676        -0.4538
  59   0.0000      -0.003150        -0.0857
  60   0.0000       0.002943         0.0801

MULLIKEN ATOMIC CHARGES
-----------------------
   0 C :   -0.203024
   1 C :   -0.281406
   2 C :   -0.703645
   3 H :    0.351566
   4 H :    0.164202
   5 S :    1.475503
   6 C :    0.489453
   7 N :   -0.365025
   8 N :   -0.309197
   9 H :    0.244477
  10 H :    0.263806
  11 H :    0.217572
  12 H :    0.299771
  13 O :   -0.911117
  14 O :   -0.741354
  15 C :   -0.306038
  16 C :   -0.308186
  17 H :    0.208667
  18 H :    0.118249
  19 C :   -0.390328
  20 H :    0.291101
  21 H :    0.094149
  22 O :   -0.844997
  23 H :    0.452033
  24 H :    0.065391
  25 H :    0.268829
  26 H :    0.104268
  27 H :    0.213658
  28 H :    0.041624
Sum of atomic charges:    0.0000000

LOEWDIN ATOMIC CHARGES
----------------------
   0 C :   -0.099172
   1 C :   -0.216727
   2 C :   -0.237919
   3 H :    0.087698
   4 H :    0.090626
   5 S :    0.413248
   6 C :   -0.391235
   7 N :    0.212705
   8 N :    0.224848
   9 H :    0.135840
  10 H :    0.095434
  11 H :    0.136612
  12 H :    0.097263
  13 O :   -0.395032
  14 O :   -0.309963
  15 C :   -0.173671
  16 C :   -0.201270
  17 H :    0.109491
  18 H :    0.108383
  19 C :   -0.198263
  20 H :    0.103807
  21 H :    0.111797
  22 O :   -0.348943
  23 H :    0.092725
  24 H :    0.118442
  25 H :    0.079248
  26 H :    0.114685
  27 H :    0.116606
  28 H :    0.122735

  Mayer bond orders larger than 0.100000
B(  0-C ,  6-C ) :   1.0733 B(  0-C , 15-C ) :   0.8734 B(  0-C , 16-C ) :   0.1003
B(  0-C , 19-C ) :  -0.1172 B(  0-C , 27-H ) :   0.8835 B(  0-C , 28-H ) :   0.9709
B(  1-C ,  2-C ) :   1.0530 B(  1-C , 16-C ) :   1.1750 B(  1-C , 17-H ) :   0.8197
B(  1-C , 18-H ) :   0.8939 B(  1-C , 19-C ) :   0.1638 B(  1-C , 25-H ) :   0.1432
B(  2-C ,  3-H ) :   0.7850 B(  2-C ,  4-H ) :   0.9690 B(  2-C ,  5-S ) :   0.8464
B(  2-C , 13-O ) :   0.2077 B(  2-C , 14-O ) :   0.2247 B(  2-C , 19-C ) :   0.1473
B(  5-S , 13-O ) :   1.3644 B(  5-S , 14-O ) :   1.1925 B(  5-S , 22-O ) :   1.2316
B(  6-C ,  7-N ) :   1.1901 B(  6-C ,  8-N ) :   1.2866 B(  6-C , 15-C ) :   0.1690
B(  6-C , 19-C ) :   0.1838 B(  7-N ,  8-N ) :   0.1127 B(  7-N , 11-H ) :   0.9141
B(  7-N , 12-H ) :   0.8696 B(  8-N ,  9-H ) :   0.8828 B(  8-N , 10-H ) :   0.8415
B( 13-O , 22-O ) :   0.1413 B( 15-C , 16-C ) :   0.2096 B( 15-C , 19-C ) :   1.1236
B( 15-C , 20-H ) :   0.8036 B( 15-C , 21-H ) :   0.8826 B( 16-C , 19-C ) :   0.7751
B( 16-C , 25-H ) :   0.9111 B( 16-C , 26-H ) :   0.8520 B( 19-C , 23-H ) :   0.7999
B( 19-C , 24-H ) :   0.9488

Dispersion correction           -0.046210629
FINAL SINGLE POINT ENERGY     -1010.171239564312

DIPOLE MOMENT
-------------
                                X             Y             Z
Electronic contribution:      2.76343      -6.32715     -13.45340
Nuclear contribution   :     -1.90023       6.18953      17.82209
                        -----------------------------------------
Total Dipole Moment    :      0.86320      -0.13762       4.36869
                        -----------------------------------------
Magnitude (a.u.)       :      4.45527
Magnitude (Debye)      :     11.32441

Rotational constants in cm-1:     0.036337     0.018755     0.015005
Rotational constants in MHz :  1089.341704   562.266628   449.834770

                             ****ORCA TERMINATED NORMALLY****
TOTAL RUN TIME: 0 days 0 hours 2 minutes 7 seconds 108 msec
