                         Program Version 5.0.0 -  RELEASE  -
|  1> !TPSS D3BJ RIJCOSX def2-TZVPD def2/J TightSCF
|  2> *xyz 0 1
|  3> C          0.70466        1.44313       -4.50363
|  4> C          1.72854        1.42432       -5.63944
|  5> H          2.64672        1.95379       -5.38105
|  6> H          1.29992        1.93061       -6.50361
|  7> S          2.25263       -0.18811       -6.27184
|  8> F          3.56261       -0.44446       -5.63155
|  9> O          2.34494       -0.03374       -7.69650
| 10> O          1.26606       -1.15918       -5.80536
| 11> H         -0.17385        0.91270       -4.80656
| 12> H          0.44778        2.45562       -4.27173
| 13> H          1.12367        0.97423       -3.63791
| 14> *
| 15>
| 16> %MaxCore 64000
| 17>
| 18> %pal nprocs 4
| 19> end
| 20>
| 21> %scf
| 22>   MaxIter 150
| 23> end
| 24>
| 25>
| 26>                          ****END OF INPUT****

CARTESIAN COORDINATES (ANGSTROEM)
---------------------------------
  C      0.704660    1.443130   -4.503630
  C      1.728540    1.424320   -5.639440
  H      2.646720    1.953790   -5.381050
  H      1.299920    1.930610   -6.503610
  S      2.252630   -0.188110   -6.271840
  F      3.562610   -0.444460   -5.631550
  O      2.344940   -0.033740   -7.696500
  O      1.266060   -1.159180   -5.805360
  H     -0.173850    0.912700   -4.806560
  H      0.447780    2.455620   -4.271730
  H      1.123670    0.974230   -3.637910

 Total Charge           Charge          ....    0
 Multiplicity           Mult            ....    1
 Number of Electrons    NEL             ....   58
 Basis Dimension        Dim             ....  285

ORBITAL ENERGIES
----------------

  NO   OCC          E(Eh)            E(eV)
   0   2.0000     -88.582349     -2410.4483
   1   2.0000     -24.506502      -666.8558
   2   2.0000     -18.898075      -514.2428
   3   2.0000     -18.891053      -514.0517
   4   2.0000     -10.043973      -273.3104
   5   2.0000     -10.003881      -272.2195
   6   2.0000      -7.932019      -215.8412
   7   2.0000      -5.915311      -160.9638
   8   2.0000      -5.908543      -160.7796
   9   2.0000      -5.908209      -160.7705
  10   2.0000      -1.268906       -34.5287
  11   2.0000      -1.037982       -28.2449
  12   2.0000      -0.950235       -25.8572
  13   2.0000      -0.761985       -20.7347
  14   2.0000      -0.666921       -18.1478
  15   2.0000      -0.615397       -16.7458
  16   2.0000      -0.521237       -14.1836
  17   2.0000      -0.502650       -13.6778
  18   2.0000      -0.497656       -13.5419
  19   2.0000      -0.448639       -12.2081
  20   2.0000      -0.432426       -11.7669
  21   2.0000      -0.406948       -11.0736
  22   2.0000      -0.388354       -10.5676
  23   2.0000      -0.365006        -9.9323
  24   2.0000      -0.359135        -9.7726
  25   2.0000      -0.342304        -9.3146
  26   2.0000      -0.295017        -8.0278
  27   2.0000      -0.290536        -7.9059
  28   2.0000      -0.274665        -7.4740
  29   0.0000      -0.022803        -0.6205
  30   0.0000      -0.004735        -0.1288
  31   0.0000       0.010607         0.2886
  32   0.0000       0.016932         0.4607
  33   0.0000       0.025128         0.6838

MULLIKEN ATOMIC CHARGES
-----------------------
   0 C :   -0.806666
   1 C :   -0.328237
   2 H :    0.292903
   3 H :    0.233762
   4 S :    1.196651
   5 F :   -0.163956
   6 O :   -0.583335
   7 O :   -0.605783
   8 H :    0.282863
   9 H :    0.215029
  10 H :    0.266768
Sum of atomic charges:    0.0000000

LOEWDIN ATOMIC CHARGES
----------------------
   0 C :   -0.103007
   1 C :   -0.268246
   2 H :    0.092207
   3 H :    0.096232
   4 S :    0.577268
   5 F :   -0.077820
   6 O :   -0.257317
   7 O :   -0.269987
   8 H :    0.069788
   9 H :    0.070422
  10 H :    0.070461

  Mayer bond orders larger than 0.100000
B(  0-C ,  1-C ) :   0.9649 B(  0-C ,  8-H ) :   0.9334 B(  0-C ,  9-H ) :   0.9590
B(  0-C , 10-H ) :   0.9248 B(  1-C ,  2-H ) :   0.8647 B(  1-C ,  3-H ) :   0.9414
B(  1-C ,  4-S ) :   0.8665 B(  1-C ,  6-O ) :   0.1285 B(  1-C ,  7-O ) :   0.1017
B(  4-S ,  5-F ) :   0.9840 B(  4-S ,  6-O ) :   1.6545 B(  4-S ,  7-O ) :   1.6238
B(  6-O ,  7-O ) :   0.1268

Dispersion correction           -0.011430531
FINAL SINGLE POINT ENERGY      -727.915320695864

DIPOLE MOMENT
-------------
                                X             Y             Z
Electronic contribution:      6.28615      -6.54403      -3.74101
Nuclear contribution   :     -6.09914       7.80989       4.64238
                        -----------------------------------------
Total Dipole Moment    :      0.18701       1.26586       0.90137
                        -----------------------------------------
Magnitude (a.u.)       :      1.56520
Magnitude (Debye)      :      3.97842

Rotational constants in cm-1:     0.154372     0.078826     0.078033
Rotational constants in MHz :  4627.943144  2363.154585  2339.382767

                             ****ORCA TERMINATED NORMALLY****
TOTAL RUN TIME: 0 days 0 hours 0 minutes 23 seconds 106 msec
