                         Program Version 5.0.0 -  RELEASE  -
|  1> !TPSS D3BJ RIJCOSX def2-TZVPD def2/J TightSCF
|  2> *xyz 0 1
|  3> C          2.91632       -1.24259       -1.54313
|  4> C          3.46659       -1.59097       -2.88908
|  5> C          4.65227       -1.14316       -3.25969
|  6> N          2.75226       -2.29204       -3.72803
|  7> H          1.77836       -2.48960       -3.51274
|  8> H          2.94861       -2.20854       -4.71681
|  9> H          5.14672       -0.51251       -2.63385
| 10> H          4.78303       -1.00720       -4.25350
| 11> C          2.80408        0.29070       -1.35924
| 12> H          1.94047       -1.71653       -1.44116
| 13> H          3.55857       -1.66343       -0.76637
| 14> H          2.17393        0.69633       -2.12297
| 15> H          3.77707        0.73043       -1.42880
| 16> H          2.38369        0.50492       -0.39889
| 17> *
| 18>
| 19> %MaxCore 64000
| 20>
| 21> %pal nprocs 4
| 22> end
| 23>
| 24> %scf
| 25>   MaxIter 150
| 26> end
| 27>
| 28>
| 29>                          ****END OF INPUT****

CARTESIAN COORDINATES (ANGSTROEM)
---------------------------------
  C      2.916320   -1.242590   -1.543130
  C      3.466590   -1.590970   -2.889080
  C      4.652270   -1.143160   -3.259690
  N      2.752260   -2.292040   -3.728030
  H      1.778360   -2.489600   -3.512740
  H      2.948610   -2.208540   -4.716810
  H      5.146720   -0.512510   -2.633850
  H      4.783030   -1.007200   -4.253500
  C      2.804080    0.290700   -1.359240
  H      1.940470   -1.716530   -1.441160
  H      3.558570   -1.663430   -0.766370
  H      2.173930    0.696330   -2.122970
  H      3.777070    0.730430   -1.428800
  H      2.383690    0.504920   -0.398890

 Total Charge           Charge          ....    0
 Multiplicity           Mult            ....    1
 Number of Electrons    NEL             ....   40
 Basis Dimension        Dim             ....  266

ORBITAL ENERGIES
----------------

  NO   OCC          E(Eh)            E(eV)
   0   2.0000     -14.106565      -383.8591
   1   2.0000      -9.999036      -272.0876
   2   2.0000      -9.988306      -271.7956
   3   2.0000      -9.972622      -271.3688
   4   2.0000      -9.913151      -269.7506
   5   2.0000      -0.875076       -23.8120
   6   2.0000      -0.725190       -19.7334
   7   2.0000      -0.658328       -17.9140
   8   2.0000      -0.594568       -16.1790
   9   2.0000      -0.518666       -14.1136
  10   2.0000      -0.479368       -13.0443
  11   2.0000      -0.436597       -11.8804
  12   2.0000      -0.408553       -11.1173
  13   2.0000      -0.369723       -10.0607
  14   2.0000      -0.351152        -9.5553
  15   2.0000      -0.339792        -9.2462
  16   2.0000      -0.319939        -8.7060
  17   2.0000      -0.307398        -8.3647
  18   2.0000      -0.288743        -7.8571
  19   2.0000      -0.160460        -4.3663
  20   0.0000      -0.007711        -0.2098
  21   0.0000       0.002915         0.0793
  22   0.0000       0.022378         0.6089
  23   0.0000       0.028776         0.7830
  24   0.0000       0.040022         1.0891

MULLIKEN ATOMIC CHARGES
-----------------------
   0 C :   -0.128144
   1 C :    0.597429
   2 C :   -1.062398
   3 N :   -0.441931
   4 H :    0.189123
   5 H :    0.150683
   6 H :    0.297518
   7 H :    0.230028
   8 C :   -0.945933
   9 H :    0.183041
  10 H :    0.156457
  11 H :    0.255724
  12 H :    0.313966
  13 H :    0.204437
Sum of atomic charges:    0.0000000

LOEWDIN ATOMIC CHARGES
----------------------
   0 C :   -0.181935
   1 C :   -0.502309
   2 C :    0.011894
   3 N :    0.106099
   4 H :    0.104921
   5 H :    0.110226
   6 H :    0.019197
   7 H :    0.021058
   8 C :   -0.079978
   9 H :    0.095912
  10 H :    0.111577
  11 H :    0.068342
  12 H :    0.057130
  13 H :    0.057865

  Mayer bond orders larger than 0.100000
B(  0-C ,  1-C ) :   0.9115 B(  0-C ,  8-C ) :   0.7912 B(  0-C ,  9-H ) :   0.9933
B(  0-C , 10-H ) :   0.8974 B(  1-C ,  2-C ) :   1.4233 B(  1-C ,  3-N ) :   0.9906
B(  1-C ,  8-C ) :   0.1344 B(  2-C ,  3-N ) :   0.1502 B(  2-C ,  6-H ) :   0.9235
B(  2-C ,  7-H ) :   1.0410 B(  3-N ,  4-H ) :   0.9893 B(  3-N ,  5-H ) :   0.9957
B(  8-C , 11-H ) :   0.9576 B(  8-C , 12-H ) :   0.9182 B(  8-C , 13-H ) :   0.9828

Dispersion correction           -0.013080379
FINAL SINGLE POINT ENERGY      -212.678408544485

DIPOLE MOMENT
-------------
                                X             Y             Z
Electronic contribution:      0.10998      -2.74095      -1.82333
Nuclear contribution   :     -0.99366       2.78648       1.68526
                        -----------------------------------------
Total Dipole Moment    :     -0.88367       0.04553      -0.13807
                        -----------------------------------------
Magnitude (a.u.)       :      0.89555
Magnitude (Debye)      :      2.27631

Rotational constants in cm-1:     0.282898     0.128664     0.101801
Rotational constants in MHz :  8481.061354  3857.240210  3051.924245

                             ****ORCA TERMINATED NORMALLY****
TOTAL RUN TIME: 0 days 0 hours 0 minutes 23 seconds 410 msec
