                         Program Version 5.0.0 -  RELEASE  -
|  1> !TPSS D3BJ RIJCOSX def2-TZVPD def2/J TightSCF
|  2> *xyz 0 1
|  3> C          2.91632       -1.24259       -1.54313
|  4> C          3.46659       -1.59097       -2.88908
|  5> N          4.65227       -1.14316       -3.25969
|  6> C          2.75226       -2.29204       -3.72803
|  7> H          1.77836       -2.48960       -3.51274
|  8> H          2.94861       -2.20854       -4.71681
|  9> H          5.14672       -0.51251       -2.63385
| 10> H          4.78303       -1.00720       -4.25350
| 11> C          2.80408        0.29070       -1.35924
| 12> H          1.94047       -1.71653       -1.44116
| 13> H          3.55857       -1.66343       -0.76637
| 14> H          2.17393        0.69633       -2.12297
| 15> H          3.77707        0.73043       -1.42880
| 16> H          2.38369        0.50492       -0.39889
| 17> *
| 18>
| 19> %MaxCore 64000
| 20>
| 21> %pal nprocs 4
| 22> end
| 23>
| 24> %scf
| 25>   MaxIter 150
| 26> end
| 27>
| 28>
| 29>                          ****END OF INPUT****

CARTESIAN COORDINATES (ANGSTROEM)
---------------------------------
  C      2.916320   -1.242590   -1.543130
  C      3.466590   -1.590970   -2.889080
  N      4.652270   -1.143160   -3.259690
  C      2.752260   -2.292040   -3.728030
  H      1.778360   -2.489600   -3.512740
  H      2.948610   -2.208540   -4.716810
  H      5.146720   -0.512510   -2.633850
  H      4.783030   -1.007200   -4.253500
  C      2.804080    0.290700   -1.359240
  H      1.940470   -1.716530   -1.441160
  H      3.558570   -1.663430   -0.766370
  H      2.173930    0.696330   -2.122970
  H      3.777070    0.730430   -1.428800
  H      2.383690    0.504920   -0.398890

 Total Charge           Charge          ....    0
 Multiplicity           Mult            ....    1
 Number of Electrons    NEL             ....   40
 Basis Dimension        Dim             ....  266

ORBITAL ENERGIES
----------------

  NO   OCC          E(Eh)            E(eV)
   0   2.0000     -14.102697      -383.7539
   1   2.0000      -9.997795      -272.0538
   2   2.0000      -9.986660      -271.7508
   3   2.0000      -9.977478      -271.5010
   4   2.0000      -9.916483      -269.8412
   5   2.0000      -0.870023       -23.6745
   6   2.0000      -0.723044       -19.6750
   7   2.0000      -0.668757       -18.1978
   8   2.0000      -0.587607       -15.9896
   9   2.0000      -0.518181       -14.1004
  10   2.0000      -0.483268       -13.1504
  11   2.0000      -0.433110       -11.7855
  12   2.0000      -0.397831       -10.8255
  13   2.0000      -0.392271       -10.6742
  14   2.0000      -0.348704        -9.4887
  15   2.0000      -0.343063        -9.3352
  16   2.0000      -0.322278        -8.7696
  17   2.0000      -0.304443        -8.2843
  18   2.0000      -0.283884        -7.7249
  19   2.0000      -0.166757        -4.5377
  20   0.0000      -0.009488        -0.2582
  21   0.0000       0.005306         0.1444
  22   0.0000       0.026403         0.7185
  23   0.0000       0.028613         0.7786
  24   0.0000       0.037725         1.0265

MULLIKEN ATOMIC CHARGES
-----------------------
   0 C :   -0.171363
   1 C :    0.665141
   2 N :   -0.499150
   3 C :   -1.011299
   4 H :    0.241828
   5 H :    0.243044
   6 H :    0.187624
   7 H :    0.154783
   8 C :   -0.910799
   9 H :    0.163206
  10 H :    0.168733
  11 H :    0.281573
  12 H :    0.294992
  13 H :    0.191686
Sum of atomic charges:   -0.0000000

LOEWDIN ATOMIC CHARGES
----------------------
   0 C :   -0.184141
   1 C :   -0.503201
   2 N :    0.106171
   3 C :    0.016758
   4 H :    0.022799
   5 H :    0.021768
   6 H :    0.101608
   7 H :    0.109983
   8 C :   -0.081495
   9 H :    0.103902
  10 H :    0.106756
  11 H :    0.069478
  12 H :    0.049913
  13 H :    0.059699

  Mayer bond orders larger than 0.100000
B(  0-C ,  1-C ) :   0.9673 B(  0-C ,  8-C ) :   0.8330 B(  0-C ,  9-H ) :   0.9217
B(  0-C , 10-H ) :   0.9131 B(  1-C ,  2-N ) :   0.8818 B(  1-C ,  3-C ) :   1.4351
B(  2-N ,  3-C ) :   0.1196 B(  2-N ,  6-H ) :   0.9598 B(  2-N ,  7-H ) :   1.0056
B(  3-C ,  4-H ) :   0.9976 B(  3-C ,  5-H ) :   1.0222 B(  8-C , 11-H ) :   0.9741
B(  8-C , 12-H ) :   0.8967 B(  8-C , 13-H ) :   1.0082

Dispersion correction           -0.013049138
FINAL SINGLE POINT ENERGY      -212.681772035116

DIPOLE MOMENT
-------------
                                X             Y             Z
Electronic contribution:      1.73776      -1.74557      -1.41682
Nuclear contribution   :     -1.43372       2.52039       1.57679
                        -----------------------------------------
Total Dipole Moment    :      0.30405       0.77481       0.15997
                        -----------------------------------------
Magnitude (a.u.)       :      0.84756
Magnitude (Debye)      :      2.15434

Rotational constants in cm-1:     0.274962     0.131786     0.102554
Rotational constants in MHz :  8243.150005  3950.846092  3074.493018

                             ****ORCA TERMINATED NORMALLY****
TOTAL RUN TIME: 0 days 0 hours 0 minutes 24 seconds 175 msec
