                         Program Version 5.0.0 -  RELEASE  -
|  1> !TPSS D3BJ RIJCOSX def2-TZVPD def2/J TightSCF
|  2> *xyz 0 1
|  3> C          0.70466        1.44313       -4.50363
|  4> C          1.72854        1.42432       -5.63944
|  5> H          2.64672        1.95379       -5.38105
|  6> H          1.29992        1.93061       -6.50361
|  7> S          2.25263       -0.18811       -6.27184
|  8> O          3.56261       -0.44446       -5.63155
|  9> O          2.34494       -0.03374       -7.69650
| 10> F          1.26606       -1.15918       -5.80536
| 11> H         -0.17385        0.91270       -4.80656
| 12> H          0.44778        2.45562       -4.27173
| 13> H          1.12367        0.97423       -3.63791
| 14> *
| 15>
| 16> %MaxCore 64000
| 17>
| 18> %pal nprocs 4
| 19> end
| 20>
| 21> %scf
| 22>   MaxIter 150
| 23> end
| 24>
| 25>
| 26>                          ****END OF INPUT****

CARTESIAN COORDINATES (ANGSTROEM)
---------------------------------
  C      0.704660    1.443130   -4.503630
  C      1.728540    1.424320   -5.639440
  H      2.646720    1.953790   -5.381050
  H      1.299920    1.930610   -6.503610
  S      2.252630   -0.188110   -6.271840
  O      3.562610   -0.444460   -5.631550
  O      2.344940   -0.033740   -7.696500
  F      1.266060   -1.159180   -5.805360
  H     -0.173850    0.912700   -4.806560
  H      0.447780    2.455620   -4.271730
  H      1.123670    0.974230   -3.637910

 Total Charge           Charge          ....    0
 Multiplicity           Mult            ....    1
 Number of Electrons    NEL             ....   58
 Basis Dimension        Dim             ....  285

ORBITAL ENERGIES
----------------

  NO   OCC          E(Eh)            E(eV)
   0   2.0000     -88.583272     -2410.4734
   1   2.0000     -24.517039      -667.1425
   2   2.0000     -18.898159      -514.2450
   3   2.0000     -18.883137      -513.8363
   4   2.0000     -10.044024      -273.3118
   5   2.0000     -10.011027      -272.4139
   6   2.0000      -7.932915      -215.8656
   7   2.0000      -5.916281      -160.9902
   8   2.0000      -5.909300      -160.8002
   9   2.0000      -5.909124      -160.7954
  10   2.0000      -1.285097       -34.9693
  11   2.0000      -1.033952       -28.1353
  12   2.0000      -0.939012       -25.5518
  13   2.0000      -0.765744       -20.8370
  14   2.0000      -0.669999       -18.2316
  15   2.0000      -0.624630       -16.9970
  16   2.0000      -0.533952       -14.5296
  17   2.0000      -0.514825       -14.0091
  18   2.0000      -0.493031       -13.4161
  19   2.0000      -0.453379       -12.3371
  20   2.0000      -0.427283       -11.6270
  21   2.0000      -0.405822       -11.0430
  22   2.0000      -0.397306       -10.8112
  23   2.0000      -0.373471       -10.1627
  24   2.0000      -0.359049        -9.7702
  25   2.0000      -0.341400        -9.2900
  26   2.0000      -0.294722        -8.0198
  27   2.0000      -0.279845        -7.6150
  28   2.0000      -0.265708        -7.2303
  29   0.0000      -0.030740        -0.8365
  30   0.0000       0.004135         0.1125
  31   0.0000       0.012778         0.3477
  32   0.0000       0.017109         0.4656
  33   0.0000       0.021906         0.5961

MULLIKEN ATOMIC CHARGES
-----------------------
   0 C :   -0.879699
   1 C :   -0.227322
   2 H :    0.241720
   3 H :    0.244993
   4 S :    1.184518
   5 O :   -0.612376
   6 O :   -0.579701
   7 F :   -0.157778
   8 H :    0.297063
   9 H :    0.211074
  10 H :    0.277506
Sum of atomic charges:    0.0000000

LOEWDIN ATOMIC CHARGES
----------------------
   0 C :   -0.106312
   1 C :   -0.264366
   2 H :    0.102600
   3 H :    0.092239
   4 S :    0.575055
   5 O :   -0.290596
   6 O :   -0.256695
   7 F :   -0.059349
   8 H :    0.065365
   9 H :    0.070848
  10 H :    0.071211

  Mayer bond orders larger than 0.100000
B(  0-C ,  1-C ) :   0.9173 B(  0-C ,  8-H ) :   0.9023 B(  0-C ,  9-H ) :   0.9680
B(  0-C , 10-H ) :   0.9430 B(  1-C ,  2-H ) :   0.9260 B(  1-C ,  3-H ) :   0.9313
B(  1-C ,  4-S ) :   0.8386 B(  1-C ,  5-O ) :   0.1015 B(  1-C ,  6-O ) :   0.1242
B(  4-S ,  5-O ) :   1.6228 B(  4-S ,  6-O ) :   1.6591 B(  4-S ,  7-F ) :   1.0077
B(  5-O ,  6-O ) :   0.1207

Dispersion correction           -0.011376714
FINAL SINGLE POINT ENERGY      -727.905874409470

DIPOLE MOMENT
-------------
                                X             Y             Z
Electronic contribution:      2.43792      -7.70021      -4.03290
Nuclear contribution   :     -3.70606       8.55465       4.82350
                        -----------------------------------------
Total Dipole Moment    :     -1.26814       0.85444       0.79060
                        -----------------------------------------
Magnitude (a.u.)       :      1.72142
Magnitude (Debye)      :      4.37551

Rotational constants in cm-1:     0.153201     0.080978     0.077494
Rotational constants in MHz :  4592.852844  2427.650814  2323.207507

                             ****ORCA TERMINATED NORMALLY****
TOTAL RUN TIME: 0 days 0 hours 0 minutes 23 seconds 78 msec
