                         Program Version 5.0.0 -  RELEASE  -
|  1> !TPSS D3BJ RIJCOSX def2-TZVPD def2/J TightSCF xyzfile
|  2>
|  3> *xyzfile 0 1 D1.xyz
|  4>
|  5> %MaxCore 64000
|  6>
|  7> %pal nprocs 4
|  8> end
|  9>
| 10> %scf
| 11>   MaxIter 150
| 12> end
| 13>
| 14>
| 15>                          ****END OF INPUT****

CARTESIAN COORDINATES (ANGSTROEM)
---------------------------------
  C      2.916324   -1.242589   -1.543125
  C      0.704661    1.443129   -4.503630
  C      1.728539    1.424320   -5.639443
  H      2.646718    1.953794   -5.381054
  H      1.299916    1.930613   -6.503614
  S      2.252625   -0.188115   -6.271840
  C      3.466585   -1.590971   -2.889082
  C      4.652275   -1.143164   -3.259692
  N      2.752264   -2.292043   -3.728029
  H      1.778364   -2.489604   -3.512738
  H      2.948612   -2.208544   -4.716813
  H      5.146723   -0.512508   -2.633852
  H      4.783030   -1.007203   -4.253498
  F      3.562607   -0.444464   -5.631552
  O      2.344944   -0.033742   -7.696501
  C      2.804084    0.290698   -1.359243
  C      1.052550    0.695659   -3.214915
  H     -0.232483    1.032925   -4.884449
  H      0.511700    2.495794   -4.267966
  C      2.388380    1.093669   -2.597108
  H      3.763425    0.674718   -0.999889
  H      2.094788    0.461222   -0.545756
  O      1.266058   -1.159177   -5.805365
  H      3.167316    1.013242   -3.359430
  H      2.357690    2.149375   -2.310997
  H      1.039284   -0.368429   -3.449329
  H      0.250787    0.865605   -2.488283
  H      1.940472   -1.716529   -1.441161
  H      3.558569   -1.663433   -0.766371

 Total Charge           Charge          ....    0
 Multiplicity           Mult            ....    1
 Number of Electrons    NEL             ....  112
 Basis Dimension        Dim             ....  643

ORBITAL ENERGIES
----------------

  NO   OCC          E(Eh)            E(eV)
   0   2.0000     -88.589749     -2410.6496
   1   2.0000     -24.514999      -667.0870
   2   2.0000     -18.904863      -514.4275
   3   2.0000     -18.901448      -514.3345
   4   2.0000     -14.098820      -383.6484
   5   2.0000     -10.046187      -273.3706
   6   2.0000     -10.014026      -272.4955
   7   2.0000      -9.997976      -272.0588
   8   2.0000      -9.992515      -271.9102
   9   2.0000      -9.990561      -271.8570
  10   2.0000      -9.989312      -271.8230
  11   2.0000      -9.988124      -271.7907
  12   2.0000      -9.911306      -269.7003
  13   2.0000      -7.939827      -216.0537
  14   2.0000      -5.923204      -161.1786
  15   2.0000      -5.916350      -160.9921
  16   2.0000      -5.915832      -160.9780
  17   2.0000      -1.280469       -34.8433
  18   2.0000      -1.047225       -28.4964
  19   2.0000      -0.960933       -26.1483
  20   2.0000      -0.872028       -23.7291
  21   2.0000      -0.781080       -21.2543
  22   2.0000      -0.746433       -20.3115
  23   2.0000      -0.707290       -19.2463
  24   2.0000      -0.677119       -18.4253
  25   2.0000      -0.644961       -17.5503
  26   2.0000      -0.634786       -17.2734
  27   2.0000      -0.583730       -15.8841
  28   2.0000      -0.548459       -14.9243
  29   2.0000      -0.524261       -14.2659
  30   2.0000      -0.517157       -14.0725
  31   2.0000      -0.512061       -13.9339
  32   2.0000      -0.501990       -13.6598
  33   2.0000      -0.471979       -12.8432
  34   2.0000      -0.455040       -12.3823
  35   2.0000      -0.449165       -12.2224
  36   2.0000      -0.435783       -11.8583
  37   2.0000      -0.428167       -11.6510
  38   2.0000      -0.414081       -11.2677
  39   2.0000      -0.403481       -10.9793
  40   2.0000      -0.391986       -10.6665
  41   2.0000      -0.383329       -10.4309
  42   2.0000      -0.357961        -9.7406
  43   2.0000      -0.355121        -9.6633
  44   2.0000      -0.348223        -9.4756
  45   2.0000      -0.344742        -9.3809
  46   2.0000      -0.337538        -9.1849
  47   2.0000      -0.319773        -8.7015
  48   2.0000      -0.315601        -8.5879
  49   2.0000      -0.302228        -8.2240
  50   2.0000      -0.300534        -8.1780
  51   2.0000      -0.291519        -7.9326
  52   2.0000      -0.290257        -7.8983
  53   2.0000      -0.282232        -7.6799
  54   2.0000      -0.279516        -7.6060
  55   2.0000      -0.158095        -4.3020
  56   0.0000      -0.023031        -0.6267
  57   0.0000      -0.011863        -0.3228
  58   0.0000      -0.005508        -0.1499
  59   0.0000      -0.000181        -0.0049
  60   0.0000       0.002087         0.0568

MULLIKEN ATOMIC CHARGES
-----------------------
   0 C :   -0.333450
   1 C :   -0.226906
   2 C :   -0.621682
   3 H :    0.434780
   4 H :    0.160842
   5 S :    1.291272
   6 C :    0.356983
   7 C :   -1.217282
   8 N :   -0.422177
   9 H :    0.241355
  10 H :    0.172104
  11 H :    0.340331
  12 H :    0.523338
  13 F :   -0.188552
  14 O :   -0.639077
  15 C :   -0.324521
  16 C :   -0.314440
  17 H :    0.202072
  18 H :    0.136177
  19 C :   -0.432835
  20 H :    0.258622
  21 H :    0.118489
  22 O :   -0.692866
  23 H :    0.438580
  24 H :    0.067250
  25 H :    0.305001
  26 H :    0.101397
  27 H :    0.238521
  28 H :    0.026676
Sum of atomic charges:   -0.0000000

LOEWDIN ATOMIC CHARGES
----------------------
   0 C :   -0.127945
   1 C :   -0.208614
   2 C :   -0.209255
   3 H :    0.098605
   4 H :    0.102140
   5 S :    0.602240
   6 C :   -0.493764
   7 C :    0.010108
   8 N :    0.119534
   9 H :    0.110296
  10 H :    0.077490
  11 H :    0.033037
  12 H :    0.009303
  13 F :   -0.101939
  14 O :   -0.242541
  15 C :   -0.177181
  16 C :   -0.198014
  17 H :    0.111831
  18 H :    0.116705
  19 C :   -0.200720
  20 H :    0.105470
  21 H :    0.104038
  22 O :   -0.264746
  23 H :    0.088834
  24 H :    0.114014
  25 H :    0.082551
  26 H :    0.118243
  27 H :    0.104358
  28 H :    0.115922

  Mayer bond orders larger than 0.100000
B(  0-C ,  6-C ) :   1.0497 B(  0-C ,  7-C ) :  -0.2195 B(  0-C , 15-C ) :   0.9464
B(  0-C , 16-C ) :   0.1209 B(  0-C , 27-H ) :   0.8605 B(  0-C , 28-H ) :   0.9595
B(  1-C ,  2-C ) :   1.0385 B(  1-C , 16-C ) :   1.1199 B(  1-C , 17-H ) :   0.8418
B(  1-C , 18-H ) :   0.8885 B(  1-C , 19-C ) :   0.1378 B(  1-C , 25-H ) :   0.1057
B(  2-C ,  3-H ) :   0.7074 B(  2-C ,  4-H ) :   0.9635 B(  2-C ,  5-S ) :   0.8581
B(  2-C , 13-F ) :   0.1077 B(  2-C , 14-O ) :   0.1758 B(  2-C , 19-C ) :   0.1761
B(  5-S , 13-F ) :   1.0690 B(  5-S , 14-O ) :   1.3567 B(  5-S , 22-O ) :   1.4825
B(  6-C ,  7-C ) :   1.6374 B(  6-C ,  8-N ) :   0.7833 B(  6-C , 11-H ) :  -0.1010
B(  6-C , 19-C ) :   0.1510 B(  7-C , 11-H ) :   0.9636 B(  7-C , 12-H ) :   0.7074
B(  7-C , 15-C ) :   0.1871 B(  8-N ,  9-H ) :   0.8459 B(  8-N , 10-H ) :   0.8814
B( 13-F , 22-O ) :   0.1098 B( 15-C , 16-C ) :   0.2005 B( 15-C , 19-C ) :   1.2946
B( 15-C , 20-H ) :   0.7929 B( 15-C , 21-H ) :   0.8803 B( 16-C , 19-C ) :   0.7226
B( 16-C , 25-H ) :   0.9699 B( 16-C , 26-H ) :   0.8274 B( 19-C , 23-H ) :   0.7833
B( 19-C , 24-H ) :   0.9299

Dispersion correction           -0.045950679
FINAL SINGLE POINT ENERGY     -1018.054662003097

DIPOLE MOMENT
-------------
                                X             Y             Z
Electronic contribution:      2.15089      -5.02043     -18.62354
Nuclear contribution   :     -2.89481       6.29550      19.36835
                        -----------------------------------------
Total Dipole Moment    :     -0.74392       1.27507       0.74481
                        -----------------------------------------
Magnitude (a.u.)       :      1.65347
Magnitude (Debye)      :      4.20279

Rotational constants in cm-1:     0.036515     0.018832     0.015081
Rotational constants in MHz :  1094.679513   564.567051   452.109105

                             ****ORCA TERMINATED NORMALLY****
TOTAL RUN TIME: 0 days 0 hours 2 minutes 8 seconds 329 msec
