                         Program Version 5.0.0 -  RELEASE  -
|  1> !TPSS D3BJ RIJCOSX def2-TZVPD def2/J TightSCF xyzfile
|  2>
|  3> *xyzfile 0 1 D2.xyz
|  4>
|  5> %MaxCore 64000
|  6>
|  7> %pal nprocs 4
|  8> end
|  9>
| 10> %scf
| 11>   MaxIter 150
| 12> end
| 13>
| 14>
| 15>                          ****END OF INPUT****

CARTESIAN COORDINATES (ANGSTROEM)
---------------------------------
  C      2.916324   -1.242589   -1.543125
  C      0.704661    1.443129   -4.503630
  C      1.728539    1.424320   -5.639443
  H      2.646718    1.953794   -5.381054
  H      1.299916    1.930613   -6.503614
  S      2.252625   -0.188115   -6.271840
  C      3.466585   -1.590971   -2.889082
  N      4.652275   -1.143164   -3.259692
  C      2.752264   -2.292043   -3.728029
  H      1.778364   -2.489604   -3.512738
  H      2.948612   -2.208544   -4.716813
  H      5.146723   -0.512508   -2.633852
  H      4.783030   -1.007203   -4.253498
  F      3.562607   -0.444464   -5.631552
  O      2.344944   -0.033742   -7.696501
  C      2.804084    0.290698   -1.359243
  C      1.052550    0.695659   -3.214915
  H     -0.232483    1.032925   -4.884449
  H      0.511700    2.495794   -4.267966
  C      2.388380    1.093669   -2.597108
  H      3.763425    0.674718   -0.999889
  H      2.094788    0.461222   -0.545756
  O      1.266058   -1.159177   -5.805365
  H      3.167316    1.013242   -3.359430
  H      2.357690    2.149375   -2.310997
  H      1.039284   -0.368429   -3.449329
  H      0.250787    0.865605   -2.488283
  H      1.940472   -1.716529   -1.441161
  H      3.558569   -1.663433   -0.766371

 Total Charge           Charge          ....    0
 Multiplicity           Mult            ....    1
 Number of Electrons    NEL             ....  112
 Basis Dimension        Dim             ....  643

ORBITAL ENERGIES
----------------

  NO   OCC          E(Eh)            E(eV)
   0   2.0000     -88.583693     -2410.4848
   1   2.0000     -24.512864      -667.0289
   2   2.0000     -18.899912      -514.2927
   3   2.0000     -18.890732      -514.0429
   4   2.0000     -14.101338      -383.7169
   5   2.0000     -10.042749      -273.2771
   6   2.0000     -10.010014      -272.3863
   7   2.0000      -9.994747      -271.9709
   8   2.0000      -9.993464      -271.9360
   9   2.0000      -9.991437      -271.8808
  10   2.0000      -9.987119      -271.7633
  11   2.0000      -9.986613      -271.7496
  12   2.0000      -9.913037      -269.7474
  13   2.0000      -7.933680      -215.8864
  14   2.0000      -5.917224      -161.0158
  15   2.0000      -5.909995      -160.8192
  16   2.0000      -5.909712      -160.8114
  17   2.0000      -1.278010       -34.7764
  18   2.0000      -1.040334       -28.3089
  19   2.0000      -0.952090       -25.9077
  20   2.0000      -0.871176       -23.7059
  21   2.0000      -0.777728       -21.1631
  22   2.0000      -0.744618       -20.2621
  23   2.0000      -0.705124       -19.1874
  24   2.0000      -0.678935       -18.4748
  25   2.0000      -0.652976       -17.7684
  26   2.0000      -0.627970       -17.0879
  27   2.0000      -0.578111       -15.7312
  28   2.0000      -0.547420       -14.8960
  29   2.0000      -0.520159       -14.1543
  30   2.0000      -0.515075       -14.0159
  31   2.0000      -0.508151       -13.8275
  32   2.0000      -0.500581       -13.6215
  33   2.0000      -0.480303       -13.0697
  34   2.0000      -0.449382       -12.2283
  35   2.0000      -0.448060       -12.1923
  36   2.0000      -0.433685       -11.8012
  37   2.0000      -0.420988       -11.4557
  38   2.0000      -0.409520       -11.1436
  39   2.0000      -0.402188       -10.9441
  40   2.0000      -0.392804       -10.6887
  41   2.0000      -0.378089       -10.2883
  42   2.0000      -0.364909        -9.9297
  43   2.0000      -0.348987        -9.4964
  44   2.0000      -0.346690        -9.4339
  45   2.0000      -0.343655        -9.3513
  46   2.0000      -0.331745        -9.0272
  47   2.0000      -0.319172        -8.6851
  48   2.0000      -0.310739        -8.4556
  49   2.0000      -0.298628        -8.1261
  50   2.0000      -0.293225        -7.9791
  51   2.0000      -0.292134        -7.9494
  52   2.0000      -0.283246        -7.7075
  53   2.0000      -0.278690        -7.5835
  54   2.0000      -0.273124        -7.4321
  55   2.0000      -0.164686        -4.4813
  56   0.0000      -0.025082        -0.6825
  57   0.0000      -0.011265        -0.3065
  58   0.0000      -0.007494        -0.2039
  59   0.0000      -0.002614        -0.0711
  60   0.0000       0.013433         0.3655

MULLIKEN ATOMIC CHARGES
-----------------------
   0 C :   -0.335969
   1 C :   -0.237194
   2 C :   -0.635198
   3 H :    0.419185
   4 H :    0.164282
   5 S :    1.311918
   6 C :    0.503819
   7 N :   -0.465336
   8 C :   -1.286485
   9 H :    0.329182
  10 H :    0.534710
  11 H :    0.203565
  12 H :    0.232856
  13 F :   -0.204122
  14 O :   -0.653134
  15 C :   -0.320390
  16 C :   -0.317634
  17 H :    0.225579
  18 H :    0.137657
  19 C :   -0.408001
  20 H :    0.279975
  21 H :    0.063079
  22 O :   -0.650049
  23 H :    0.427437
  24 H :    0.066325
  25 H :    0.295306
  26 H :    0.082093
  27 H :    0.207750
  28 H :    0.028792
Sum of atomic charges:   -0.0000000

LOEWDIN ATOMIC CHARGES
----------------------
   0 C :   -0.130060
   1 C :   -0.208236
   2 C :   -0.211243
   3 H :    0.095536
   4 H :    0.101584
   5 S :    0.602839
   6 C :   -0.491628
   7 N :    0.115594
   8 C :    0.006261
   9 H :    0.039080
  10 H :    0.004653
  11 H :    0.111839
  12 H :    0.088789
  13 F :   -0.106548
  14 O :   -0.244389
  15 C :   -0.181003
  16 C :   -0.195665
  17 H :    0.112705
  18 H :    0.115350
  19 C :   -0.202031
  20 H :    0.099129
  21 H :    0.105231
  22 O :   -0.253962
  23 H :    0.086580
  24 H :    0.113213
  25 H :    0.086080
  26 H :    0.118372
  27 H :    0.111426
  28 H :    0.110502

  Mayer bond orders larger than 0.100000
B(  0-C ,  6-C ) :   1.0425 B(  0-C , 15-C ) :   0.8971 B(  0-C , 16-C ) :   0.1648
B(  0-C , 19-C ) :  -0.1141 B(  0-C , 21-H ) :   0.1036 B(  0-C , 27-H ) :   0.8788
B(  0-C , 28-H ) :   0.9686 B(  1-C ,  2-C ) :   1.0563 B(  1-C , 16-C ) :   1.0820
B(  1-C , 17-H ) :   0.8179 B(  1-C , 18-H ) :   0.8946 B(  1-C , 19-C ) :   0.1409
B(  1-C , 25-H ) :   0.1522 B(  2-C ,  3-H ) :   0.7158 B(  2-C ,  4-H ) :   0.9625
B(  2-C ,  5-S ) :   0.8563 B(  2-C , 14-O ) :   0.1806 B(  2-C , 19-C ) :   0.1991
B(  5-S , 13-F ) :   1.0809 B(  5-S , 14-O ) :   1.3351 B(  5-S , 22-O ) :   1.5374
B(  6-C ,  7-N ) :   0.8154 B(  6-C ,  8-C ) :   1.4790 B(  6-C ,  9-H ) :  -0.1115
B(  6-C , 10-H ) :  -0.1115 B(  6-C , 19-C ) :   0.1820 B(  7-N , 11-H ) :   0.8945
B(  7-N , 12-H ) :   0.8824 B(  8-C ,  9-H ) :   0.9438 B(  8-C , 10-H ) :   0.7594
B( 13-F , 22-O ) :   0.1019 B( 15-C , 16-C ) :   0.1941 B( 15-C , 19-C ) :   1.2087
B( 15-C , 20-H ) :   0.8200 B( 15-C , 21-H ) :   0.8855 B( 16-C , 19-C ) :   0.7479
B( 16-C , 25-H ) :   1.0419 B( 16-C , 26-H ) :   0.8026 B( 19-C , 23-H ) :   0.7841
B( 19-C , 24-H ) :   0.9543

Dispersion correction           -0.046026560
FINAL SINGLE POINT ENERGY     -1018.054664747513

DIPOLE MOMENT
-------------
                                X             Y             Z
Electronic contribution:      3.45607      -4.33054     -18.29340
Nuclear contribution   :     -3.13969       6.14743      19.30799
                        -----------------------------------------
Total Dipole Moment    :      0.31639       1.81690       1.01460
                        -----------------------------------------
Magnitude (a.u.)       :      2.10490
Magnitude (Debye)      :      5.35024

Rotational constants in cm-1:     0.036460     0.018762     0.015014
Rotational constants in MHz :  1093.039020   562.475626   450.105862

                             ****ORCA TERMINATED NORMALLY****
TOTAL RUN TIME: 0 days 0 hours 2 minutes 21 seconds 143 msec
