                         Program Version 5.0.0 -  RELEASE  -
|  1> !TPSS D3BJ RIJCOSX def2-TZVPD def2/J TightSCF xyzfile
|  2>
|  3> *xyzfile 0 1 D3.xyz
|  4>
|  5> %MaxCore 64000
|  6>
|  7> %pal nprocs 4
|  8> end
|  9>
| 10> %scf
| 11>   MaxIter 150
| 12> end
| 13>
| 14>
| 15>                          ****END OF INPUT****

CARTESIAN COORDINATES (ANGSTROEM)
---------------------------------
  C      2.916324   -1.242589   -1.543125
  C      0.704661    1.443129   -4.503630
  C      1.728539    1.424320   -5.639443
  H      2.646718    1.953794   -5.381054
  H      1.299916    1.930613   -6.503614
  S      2.252625   -0.188115   -6.271840
  C      3.466585   -1.590971   -2.889082
  C      4.652275   -1.143164   -3.259692
  N      2.752264   -2.292043   -3.728029
  H      1.778364   -2.489604   -3.512738
  H      2.948612   -2.208544   -4.716813
  H      5.146723   -0.512508   -2.633852
  H      4.783030   -1.007203   -4.253498
  O      3.562607   -0.444464   -5.631552
  F      2.344944   -0.033742   -7.696501
  C      2.804084    0.290698   -1.359243
  C      1.052550    0.695659   -3.214915
  H     -0.232483    1.032925   -4.884449
  H      0.511700    2.495794   -4.267966
  C      2.388380    1.093669   -2.597108
  H      3.763425    0.674718   -0.999889
  H      2.094788    0.461222   -0.545756
  O      1.266058   -1.159177   -5.805365
  H      3.167316    1.013242   -3.359430
  H      2.357690    2.149375   -2.310997
  H      1.039284   -0.368429   -3.449329
  H      0.250787    0.865605   -2.488283
  H      1.940472   -1.716529   -1.441161
  H      3.558569   -1.663433   -0.766371

 Total Charge           Charge          ....    0
 Multiplicity           Mult            ....    1
 Number of Electrons    NEL             ....  112
 Basis Dimension        Dim             ....  643

ORBITAL ENERGIES
----------------

  NO   OCC          E(Eh)            E(eV)
   0   2.0000     -88.596034     -2410.8207
   1   2.0000     -24.538135      -667.7166
   2   2.0000     -18.905246      -514.4379
   3   2.0000     -18.896786      -514.2077
   4   2.0000     -14.076571      -383.0430
   5   2.0000     -10.049664      -273.4653
   6   2.0000     -10.015677      -272.5404
   7   2.0000      -9.986674      -271.7512
   8   2.0000      -9.978774      -271.5362
   9   2.0000      -9.976886      -271.4849
  10   2.0000      -9.976454      -271.4731
  11   2.0000      -9.974738      -271.4264
  12   2.0000      -9.887163      -269.0434
  13   2.0000      -7.946091      -216.2241
  14   2.0000      -5.929252      -161.3431
  15   2.0000      -5.922749      -161.1662
  16   2.0000      -5.922066      -161.1476
  17   2.0000      -1.314942       -35.7814
  18   2.0000      -1.040449       -28.3121
  19   2.0000      -0.948002       -25.7964
  20   2.0000      -0.850092       -23.1322
  21   2.0000      -0.780205       -21.2305
  22   2.0000      -0.738045       -20.0832
  23   2.0000      -0.705634       -19.2013
  24   2.0000      -0.671266       -18.2661
  25   2.0000      -0.644355       -17.5338
  26   2.0000      -0.621050       -16.8996
  27   2.0000      -0.582235       -15.8434
  28   2.0000      -0.546255       -14.8643
  29   2.0000      -0.538949       -14.6655
  30   2.0000      -0.521958       -14.2032
  31   2.0000      -0.515100       -14.0166
  32   2.0000      -0.490622       -13.3505
  33   2.0000      -0.459838       -12.5128
  34   2.0000      -0.451627       -12.2894
  35   2.0000      -0.450173       -12.2498
  36   2.0000      -0.432767       -11.7762
  37   2.0000      -0.423596       -11.5266
  38   2.0000      -0.406169       -11.0524
  39   2.0000      -0.395535       -10.7630
  40   2.0000      -0.386085       -10.5059
  41   2.0000      -0.372532       -10.1371
  42   2.0000      -0.358328        -9.7506
  43   2.0000      -0.346394        -9.4259
  44   2.0000      -0.340573        -9.2675
  45   2.0000      -0.326790        -8.8924
  46   2.0000      -0.321108        -8.7378
  47   2.0000      -0.311954        -8.4887
  48   2.0000      -0.301244        -8.1973
  49   2.0000      -0.299353        -8.1458
  50   2.0000      -0.289564        -7.8794
  51   2.0000      -0.281282        -7.6541
  52   2.0000      -0.278303        -7.5730
  53   2.0000      -0.271504        -7.3880
  54   2.0000      -0.262633        -7.1466
  55   2.0000      -0.136365        -3.7107
  56   0.0000      -0.029936        -0.8146
  57   0.0000      -0.017570        -0.4781
  58   0.0000       0.000471         0.0128
  59   0.0000       0.004593         0.1250
  60   0.0000       0.007078         0.1926

MULLIKEN ATOMIC CHARGES
-----------------------
   0 C :   -0.344683
   1 C :   -0.243113
   2 C :   -0.646839
   3 H :    0.358501
   4 H :    0.245828
   5 S :    1.269550
   6 C :    0.332350
   7 C :   -1.237296
   8 N :   -0.451983
   9 H :    0.240675
  10 H :    0.230697
  11 H :    0.324781
  12 H :    0.588880
  13 O :   -0.675845
  14 F :   -0.113016
  15 C :   -0.315294
  16 C :   -0.283953
  17 H :    0.195912
  18 H :    0.125764
  19 C :   -0.501146
  20 H :    0.258033
  21 H :    0.120068
  22 O :   -0.693841
  23 H :    0.494577
  24 H :    0.070854
  25 H :    0.278187
  26 H :    0.111443
  27 H :    0.235654
  28 H :    0.025254
Sum of atomic charges:   -0.0000000

LOEWDIN ATOMIC CHARGES
----------------------
   0 C :   -0.131338
   1 C :   -0.205807
   2 C :   -0.212380
   3 H :    0.102301
   4 H :    0.092534
   5 S :    0.622421
   6 C :   -0.495565
   7 C :    0.008426
   8 N :    0.116303
   9 H :    0.105313
  10 H :    0.074304
  11 H :    0.030298
  12 H :    0.001300
  13 O :   -0.294577
  14 F :   -0.031319
  15 C :   -0.179015
  16 C :   -0.194743
  17 H :    0.110033
  18 H :    0.117912
  19 C :   -0.198998
  20 H :    0.104686
  21 H :    0.101522
  22 O :   -0.265990
  23 H :    0.092725
  24 H :    0.111986
  25 H :    0.084375
  26 H :    0.117727
  27 H :    0.101991
  28 H :    0.113575

  Mayer bond orders larger than 0.100000
B(  0-C ,  6-C ) :   1.0432 B(  0-C ,  7-C ) :  -0.2272 B(  0-C , 15-C ) :   0.9517
B(  0-C , 16-C ) :   0.1294 B(  0-C , 27-H ) :   0.8657 B(  0-C , 28-H ) :   0.9616
B(  1-C ,  2-C ) :   1.0991 B(  1-C , 16-C ) :   1.1019 B(  1-C , 17-H ) :   0.8341
B(  1-C , 18-H ) :   0.8781 B(  1-C , 19-C ) :   0.1650 B(  1-C , 25-H ) :   0.1047
B(  2-C ,  3-H ) :   0.8192 B(  2-C ,  4-H ) :   0.8526 B(  2-C ,  5-S ) :   0.8551
B(  2-C , 13-O ) :   0.1757 B(  2-C , 14-F ) :   0.1115 B(  2-C , 19-C ) :   0.1690
B(  2-C , 22-O ) :   0.1037 B(  5-S , 13-O ) :   1.6586 B(  5-S , 14-F ) :   0.8902
B(  5-S , 22-O ) :   1.5127 B(  6-C ,  7-C ) :   1.6867 B(  6-C ,  8-N ) :   0.7998
B(  6-C , 11-H ) :  -0.1112 B(  6-C , 19-C ) :   0.1577 B(  7-C ,  8-N ) :   0.1049
B(  7-C , 11-H ) :   0.9865 B(  7-C , 12-H ) :   0.6447 B(  7-C , 15-C ) :   0.1888
B(  8-N ,  9-H ) :   0.8466 B(  8-N , 10-H ) :   0.8302 B( 13-O , 22-O ) :   0.1715
B( 15-C , 16-C ) :   0.2094 B( 15-C , 19-C ) :   1.2833 B( 15-C , 20-H ) :   0.7903
B( 15-C , 21-H ) :   0.8846 B( 16-C , 19-C ) :   0.7475 B( 16-C , 25-H ) :   0.9862
B( 16-C , 26-H ) :   0.8341 B( 19-C , 23-H ) :   0.7429 B( 19-C , 24-H ) :   0.9367

Dispersion correction           -0.046449017
FINAL SINGLE POINT ENERGY     -1018.038777665010

DIPOLE MOMENT
-------------
                                X             Y             Z
Electronic contribution:      0.08752      -4.24032     -22.50421
Nuclear contribution   :     -1.50273       5.82595      21.72909
                        -----------------------------------------
Total Dipole Moment    :     -1.41521       1.58562      -0.77512
                        -----------------------------------------
Magnitude (a.u.)       :      2.26226
Magnitude (Debye)      :      5.75022

Rotational constants in cm-1:     0.036883     0.018294     0.014745
Rotational constants in MHz :  1105.724679   548.429785   442.050481

                             ****ORCA TERMINATED NORMALLY****
TOTAL RUN TIME: 0 days 0 hours 2 minutes 5 seconds 148 msec
