                         Program Version 5.0.0 -  RELEASE  -
|  1> !TPSS D3BJ RIJCOSX def2-TZVPD def2/J TightSCF xyzfile
|  2>
|  3> *xyzfile 0 1 D4.xyz
|  4>
|  5> %MaxCore 64000
|  6>
|  7> %pal nprocs 4
|  8> end
|  9>
| 10> %scf
| 11>   MaxIter 150
| 12> end
| 13>
| 14>
| 15>                          ****END OF INPUT****

CARTESIAN COORDINATES (ANGSTROEM)
---------------------------------
  C      2.916324   -1.242589   -1.543125
  C      0.704661    1.443129   -4.503630
  C      1.728539    1.424320   -5.639443
  H      2.646718    1.953794   -5.381054
  H      1.299916    1.930613   -6.503614
  S      2.252625   -0.188115   -6.271840
  C      3.466585   -1.590971   -2.889082
  N      4.652275   -1.143164   -3.259692
  C      2.752264   -2.292043   -3.728029
  H      1.778364   -2.489604   -3.512738
  H      2.948612   -2.208544   -4.716813
  H      5.146723   -0.512508   -2.633852
  H      4.783030   -1.007203   -4.253498
  O      3.562607   -0.444464   -5.631552
  F      2.344944   -0.033742   -7.696501
  C      2.804084    0.290698   -1.359243
  C      1.052550    0.695659   -3.214915
  H     -0.232483    1.032925   -4.884449
  H      0.511700    2.495794   -4.267966
  C      2.388380    1.093669   -2.597108
  H      3.763425    0.674718   -0.999889
  H      2.094788    0.461222   -0.545756
  O      1.266058   -1.159177   -5.805365
  H      3.167316    1.013242   -3.359430
  H      2.357690    2.149375   -2.310997
  H      1.039284   -0.368429   -3.449329
  H      0.250787    0.865605   -2.488283
  H      1.940472   -1.716529   -1.441161
  H      3.558569   -1.663433   -0.766371

 Total Charge           Charge          ....    0
 Multiplicity           Mult            ....    1
 Number of Electrons    NEL             ....  112
 Basis Dimension        Dim             ....  643

ORBITAL ENERGIES
----------------

  NO   OCC          E(Eh)            E(eV)
   0   2.0000     -88.592134     -2410.7145
   1   2.0000     -24.534461      -667.6166
   2   2.0000     -18.896643      -514.2038
   3   2.0000     -18.893626      -514.1217
   4   2.0000     -14.075597      -383.0165
   5   2.0000     -10.046449      -273.3778
   6   2.0000     -10.011889      -272.4373
   7   2.0000      -9.981762      -271.6176
   8   2.0000      -9.980878      -271.5935
   9   2.0000      -9.979942      -271.5680
  10   2.0000      -9.974476      -271.4193
  11   2.0000      -9.972674      -271.3702
  12   2.0000      -9.890908      -269.1453
  13   2.0000      -7.941846      -216.1086
  14   2.0000      -5.925005      -161.2276
  15   2.0000      -5.918496      -161.0505
  16   2.0000      -5.917898      -161.0342
  17   2.0000      -1.311156       -35.6784
  18   2.0000      -1.033716       -28.1289
  19   2.0000      -0.942438       -25.6450
  20   2.0000      -0.846676       -23.0392
  21   2.0000      -0.776700       -21.1351
  22   2.0000      -0.736805       -20.0495
  23   2.0000      -0.701025       -19.0758
  24   2.0000      -0.672077       -18.2881
  25   2.0000      -0.649703       -17.6793
  26   2.0000      -0.618778       -16.8378
  27   2.0000      -0.575018       -15.6470
  28   2.0000      -0.543227       -14.7820
  29   2.0000      -0.535494       -14.5715
  30   2.0000      -0.519467       -14.1354
  31   2.0000      -0.513592       -13.9755
  32   2.0000      -0.489204       -13.3119
  33   2.0000      -0.463187       -12.6040
  34   2.0000      -0.450708       -12.2644
  35   2.0000      -0.449103       -12.2207
  36   2.0000      -0.423688       -11.5291
  37   2.0000      -0.413876       -11.2621
  38   2.0000      -0.404537       -11.0080
  39   2.0000      -0.399573       -10.8729
  40   2.0000      -0.385320       -10.4851
  41   2.0000      -0.368426       -10.0254
  42   2.0000      -0.358630        -9.7588
  43   2.0000      -0.343370        -9.3436
  44   2.0000      -0.338201        -9.2029
  45   2.0000      -0.330982        -9.0065
  46   2.0000      -0.321225        -8.7410
  47   2.0000      -0.311783        -8.4840
  48   2.0000      -0.298229        -8.1152
  49   2.0000      -0.292374        -7.9559
  50   2.0000      -0.285846        -7.7783
  51   2.0000      -0.282494        -7.6870
  52   2.0000      -0.273271        -7.4361
  53   2.0000      -0.265761        -7.2317
  54   2.0000      -0.259066        -7.0495
  55   2.0000      -0.143348        -3.9007
  56   0.0000      -0.027025        -0.7354
  57   0.0000      -0.015069        -0.4101
  58   0.0000      -0.001943        -0.0529
  59   0.0000       0.006525         0.1776
  60   0.0000       0.009055         0.2464

MULLIKEN ATOMIC CHARGES
-----------------------
   0 C :   -0.348117
   1 C :   -0.245454
   2 C :   -0.666446
   3 H :    0.346201
   4 H :    0.249748
   5 S :    1.250375
   6 C :    0.491041
   7 N :   -0.477100
   8 C :   -1.296094
   9 H :    0.372434
  10 H :    0.529274
  11 H :    0.203907
  12 H :    0.284276
  13 O :   -0.694978
  14 F :   -0.116396
  15 C :   -0.303405
  16 C :   -0.262285
  17 H :    0.219300
  18 H :    0.127955
  19 C :   -0.447871
  20 H :    0.279563
  21 H :    0.059271
  22 O :   -0.654431
  23 H :    0.468524
  24 H :    0.064751
  25 H :    0.251532
  26 H :    0.083625
  27 H :    0.206078
  28 H :    0.024719
Sum of atomic charges:   -0.0000000

LOEWDIN ATOMIC CHARGES
----------------------
   0 C :   -0.133303
   1 C :   -0.205414
   2 C :   -0.214230
   3 H :    0.099417
   4 H :    0.092063
   5 S :    0.623713
   6 C :   -0.492836
   7 N :    0.115824
   8 C :    0.000949
   9 H :    0.034301
  10 H :    0.001612
  11 H :    0.108090
  12 H :    0.078738
  13 O :   -0.302386
  14 F :   -0.031570
  15 C :   -0.182551
  16 C :   -0.192480
  17 H :    0.110861
  18 H :    0.116615
  19 C :   -0.200357
  20 H :    0.098421
  21 H :    0.102822
  22 O :   -0.252997
  23 H :    0.090452
  24 H :    0.111200
  25 H :    0.087694
  26 H :    0.117834
  27 H :    0.109142
  28 H :    0.108376

  Mayer bond orders larger than 0.100000
B(  0-C ,  6-C ) :   1.0544 B(  0-C , 15-C ) :   0.9050 B(  0-C , 16-C ) :   0.1670
B(  0-C , 19-C ) :  -0.1135 B(  0-C , 21-H ) :   0.1050 B(  0-C , 27-H ) :   0.8751
B(  0-C , 28-H ) :   0.9689 B(  1-C ,  2-C ) :   1.1254 B(  1-C , 16-C ) :   1.0614
B(  1-C , 17-H ) :   0.8112 B(  1-C , 18-H ) :   0.8803 B(  1-C , 19-C ) :   0.1685
B(  1-C , 25-H ) :   0.1495 B(  2-C ,  3-H ) :   0.8212 B(  2-C ,  4-H ) :   0.8548
B(  2-C ,  5-S ) :   0.8418 B(  2-C , 13-O ) :   0.1787 B(  2-C , 14-F ) :   0.1177
B(  2-C , 19-C ) :   0.1782 B(  2-C , 22-O ) :   0.1097 B(  5-S , 13-O ) :   1.6856
B(  5-S , 14-F ) :   0.8845 B(  5-S , 22-O ) :   1.5544 B(  6-C ,  7-N ) :   0.8070
B(  6-C ,  8-C ) :   1.5110 B(  6-C ,  9-H ) :  -0.1114 B(  6-C , 19-C ) :   0.1794
B(  7-N , 11-H ) :   0.8849 B(  7-N , 12-H ) :   0.8529 B(  8-C ,  9-H ) :   0.9048
B(  8-C , 10-H ) :   0.7845 B( 13-O , 22-O ) :   0.1806 B( 15-C , 16-C ) :   0.1970
B( 15-C , 19-C ) :   1.1926 B( 15-C , 20-H ) :   0.8148 B( 15-C , 21-H ) :   0.8909
B( 16-C , 19-C ) :   0.7764 B( 16-C , 25-H ) :   1.0722 B( 16-C , 26-H ) :   0.8145
B( 19-C , 23-H ) :   0.7563 B( 19-C , 24-H ) :   0.9667

Dispersion correction           -0.046522494
FINAL SINGLE POINT ENERGY     -1018.041432600391

DIPOLE MOMENT
-------------
                                X             Y             Z
Electronic contribution:      1.36769      -3.54590     -22.18374
Nuclear contribution   :     -1.74760       5.67788      21.66873
                        -----------------------------------------
Total Dipole Moment    :     -0.37991       2.13198      -0.51501
                        -----------------------------------------
Magnitude (a.u.)       :      2.22596
Magnitude (Debye)      :      5.65794

Rotational constants in cm-1:     0.036818     0.018222     0.014682
Rotational constants in MHz :  1103.783048   546.296792   440.157914

                             ****ORCA TERMINATED NORMALLY****
TOTAL RUN TIME: 0 days 0 hours 2 minutes 4 seconds 188 msec
