                         Program Version 5.0.0 -  RELEASE  -
|  1> !TPSS D3BJ RIJCOSX def2-TZVPD def2/J TightSCF xyzfile
|  2>
|  3> *xyzfile 0 1 D5.xyz
|  4>
|  5> %MaxCore 64000
|  6>
|  7> %pal nprocs 4
|  8> end
|  9>
| 10> %scf
| 11>   MaxIter 150
| 12> end
| 13>
| 14>
| 15>                          ****END OF INPUT****

CARTESIAN COORDINATES (ANGSTROEM)
---------------------------------
  C      2.916324   -1.242589   -1.543125
  C      0.704661    1.443129   -4.503630
  C      1.728539    1.424320   -5.639443
  H      2.646718    1.953794   -5.381054
  H      1.299916    1.930613   -6.503614
  S      2.252625   -0.188115   -6.271840
  C      3.466585   -1.590971   -2.889082
  C      4.652275   -1.143164   -3.259692
  N      2.752264   -2.292043   -3.728029
  H      1.778364   -2.489604   -3.512738
  H      2.948612   -2.208544   -4.716813
  H      5.146723   -0.512508   -2.633852
  H      4.783030   -1.007203   -4.253498
  O      3.562607   -0.444464   -5.631552
  O      2.344944   -0.033742   -7.696501
  C      2.804084    0.290698   -1.359243
  C      1.052550    0.695659   -3.214915
  H     -0.232483    1.032925   -4.884449
  H      0.511700    2.495794   -4.267966
  C      2.388380    1.093669   -2.597108
  H      3.763425    0.674718   -0.999889
  H      2.094788    0.461222   -0.545756
  F      1.266058   -1.159177   -5.805365
  H      3.167316    1.013242   -3.359430
  H      2.357690    2.149375   -2.310997
  H      1.039284   -0.368429   -3.449329
  H      0.250787    0.865605   -2.488283
  H      1.940472   -1.716529   -1.441161
  H      3.558569   -1.663433   -0.766371

 Total Charge           Charge          ....    0
 Multiplicity           Mult            ....    1
 Number of Electrons    NEL             ....  112
 Basis Dimension        Dim             ....  643

ORBITAL ENERGIES
----------------

  NO   OCC          E(Eh)            E(eV)
   0   2.0000     -88.592082     -2410.7131
   1   2.0000     -24.528431      -667.4525
   2   2.0000     -18.906344      -514.4678
   3   2.0000     -18.893756      -514.1252
   4   2.0000     -14.093236      -383.4965
   5   2.0000     -10.047351      -273.4023
   6   2.0000     -10.019834      -272.6535
   7   2.0000      -9.998164      -272.0639
   8   2.0000      -9.986029      -271.7337
   9   2.0000      -9.986006      -271.7330
  10   2.0000      -9.984520      -271.6926
  11   2.0000      -9.983408      -271.6623
  12   2.0000      -9.896219      -269.2898
  13   2.0000      -7.942196      -216.1181
  14   2.0000      -5.925614      -161.2441
  15   2.0000      -5.918705      -161.0561
  16   2.0000      -5.918077      -161.0391
  17   2.0000      -1.297929       -35.3185
  18   2.0000      -1.044282       -28.4164
  19   2.0000      -0.952558       -25.9204
  20   2.0000      -0.864897       -23.5350
  21   2.0000      -0.784954       -21.3597
  22   2.0000      -0.743643       -20.2355
  23   2.0000      -0.706642       -19.2287
  24   2.0000      -0.670940       -18.2572
  25   2.0000      -0.650770       -17.7084
  26   2.0000      -0.627456       -17.0739
  27   2.0000      -0.588172       -16.0050
  28   2.0000      -0.550126       -14.9697
  29   2.0000      -0.535166       -14.5626
  30   2.0000      -0.525916       -14.3109
  31   2.0000      -0.508227       -13.8296
  32   2.0000      -0.498437       -13.5632
  33   2.0000      -0.469313       -12.7706
  34   2.0000      -0.455105       -12.3840
  35   2.0000      -0.450915       -12.2700
  36   2.0000      -0.430966       -11.7272
  37   2.0000      -0.427060       -11.6209
  38   2.0000      -0.411424       -11.1954
  39   2.0000      -0.407366       -11.0850
  40   2.0000      -0.391909       -10.6644
  41   2.0000      -0.379038       -10.3142
  42   2.0000      -0.360069        -9.7980
  43   2.0000      -0.350326        -9.5329
  44   2.0000      -0.348551        -9.4846
  45   2.0000      -0.339200        -9.2301
  46   2.0000      -0.332574        -9.0498
  47   2.0000      -0.314658        -8.5623
  48   2.0000      -0.312926        -8.5151
  49   2.0000      -0.300012        -8.1637
  50   2.0000      -0.296002        -8.0546
  51   2.0000      -0.290574        -7.9069
  52   2.0000      -0.286402        -7.7934
  53   2.0000      -0.273695        -7.4476
  54   2.0000      -0.267001        -7.2655
  55   2.0000      -0.147713        -4.0195
  56   0.0000      -0.035579        -0.9682
  57   0.0000      -0.009568        -0.2603
  58   0.0000      -0.007717        -0.2100
  59   0.0000       0.002018         0.0549
  60   0.0000       0.011376         0.3095

MULLIKEN ATOMIC CHARGES
-----------------------
   0 C :   -0.345408
   1 C :   -0.339752
   2 C :   -0.521600
   3 H :    0.389180
   4 H :    0.182715
   5 S :    1.264174
   6 C :    0.342878
   7 C :   -1.187826
   8 N :   -0.478998
   9 H :    0.253344
  10 H :    0.214328
  11 H :    0.322517
  12 H :    0.564600
  13 O :   -0.673650
  14 O :   -0.637427
  15 C :   -0.316528
  16 C :   -0.234644
  17 H :    0.200794
  18 H :    0.136686
  19 C :   -0.467778
  20 H :    0.260706
  21 H :    0.123661
  22 F :   -0.200689
  23 H :    0.478555
  24 H :    0.072600
  25 H :    0.240030
  26 H :    0.096880
  27 H :    0.240695
  28 H :    0.019957
Sum of atomic charges:   -0.0000000

LOEWDIN ATOMIC CHARGES
----------------------
   0 C :   -0.131278
   1 C :   -0.214469
   2 C :   -0.204196
   3 H :    0.108391
   4 H :    0.098335
   5 S :    0.611158
   6 C :   -0.497112
   7 C :    0.016302
   8 N :    0.106991
   9 H :    0.103231
  10 H :    0.075203
  11 H :    0.033340
  12 H :    0.004080
  13 O :   -0.290822
  14 O :   -0.240500
  15 C :   -0.178071
  16 C :   -0.199214
  17 H :    0.107630
  18 H :    0.116864
  19 C :   -0.197343
  20 H :    0.105811
  21 H :    0.102207
  22 F :   -0.059549
  23 H :    0.093678
  24 H :    0.114034
  25 H :    0.081200
  26 H :    0.117948
  27 H :    0.101513
  28 H :    0.114638

  Mayer bond orders larger than 0.100000
B(  0-C ,  6-C ) :   1.0482 B(  0-C ,  7-C ) :  -0.2257 B(  0-C , 15-C ) :   0.9540
B(  0-C , 16-C ) :   0.1243 B(  0-C , 27-H ) :   0.8622 B(  0-C , 28-H ) :   0.9603
B(  1-C ,  2-C ) :   1.0843 B(  1-C ,  5-S ) :   0.1030 B(  1-C , 16-C ) :   1.0455
B(  1-C , 17-H ) :   0.8755 B(  1-C , 18-H ) :   0.8750 B(  1-C , 19-C ) :   0.1658
B(  2-C ,  3-H ) :   0.7738 B(  2-C ,  4-H ) :   0.9753 B(  2-C ,  5-S ) :   0.8232
B(  2-C , 13-O ) :   0.1648 B(  2-C , 14-O ) :   0.1741 B(  2-C , 19-C ) :   0.1610
B(  5-S , 13-O ) :   1.6609 B(  5-S , 14-O ) :   1.3951 B(  5-S , 22-F ) :   0.9794
B(  6-C ,  7-C ) :   1.7142 B(  6-C ,  8-N ) :   0.7799 B(  6-C , 11-H ) :  -0.1025
B(  6-C , 19-C ) :   0.1569 B(  7-C ,  8-N ) :   0.1022 B(  7-C , 11-H ) :   0.9834
B(  7-C , 12-H ) :   0.6741 B(  7-C , 15-C ) :   0.1834 B(  8-N ,  9-H ) :   0.8504
B(  8-N , 10-H ) :   0.8223 B( 15-C , 16-C ) :   0.2253 B( 15-C , 19-C ) :   1.2761
B( 15-C , 20-H ) :   0.7889 B( 15-C , 21-H ) :   0.8845 B( 16-C , 19-C ) :   0.7529
B( 16-C , 25-H ) :   0.9784 B( 16-C , 26-H ) :   0.8537 B( 19-C , 23-H ) :   0.7663
B( 19-C , 24-H ) :   0.9279

Dispersion correction           -0.046061673
FINAL SINGLE POINT ENERGY     -1018.043422936594

DIPOLE MOMENT
-------------
                                X             Y             Z
Electronic contribution:     -1.64839      -6.11902     -19.06069
Nuclear contribution   :     -0.26930       7.11259      19.56706
                        -----------------------------------------
Total Dipole Moment    :     -1.91770       0.99357       0.50637
                        -----------------------------------------
Magnitude (a.u.)       :      2.21837
Magnitude (Debye)      :      5.63864

Rotational constants in cm-1:     0.036519     0.018683     0.015073
Rotational constants in MHz :  1094.801738   560.111127   451.890222

                             ****ORCA TERMINATED NORMALLY****
TOTAL RUN TIME: 0 days 0 hours 2 minutes 22 seconds 767 msec
