                         Program Version 5.0.0 -  RELEASE  -
|  1> !TPSS D3BJ RIJCOSX def2-TZVPD def2/J TightSCF xyzfile
|  2>
|  3> *xyzfile 0 1 D6.xyz
|  4>
|  5> %MaxCore 64000
|  6>
|  7> %pal nprocs 4
|  8> end
|  9>
| 10> %scf
| 11>   MaxIter 150
| 12> end
| 13>
| 14>
| 15>                          ****END OF INPUT****

CARTESIAN COORDINATES (ANGSTROEM)
---------------------------------
  C      2.916324   -1.242589   -1.543125
  C      0.704661    1.443129   -4.503630
  C      1.728539    1.424320   -5.639443
  H      2.646718    1.953794   -5.381054
  H      1.299916    1.930613   -6.503614
  S      2.252625   -0.188115   -6.271840
  C      3.466585   -1.590971   -2.889082
  N      4.652275   -1.143164   -3.259692
  C      2.752264   -2.292043   -3.728029
  H      1.778364   -2.489604   -3.512738
  H      2.948612   -2.208544   -4.716813
  H      5.146723   -0.512508   -2.633852
  H      4.783030   -1.007203   -4.253498
  O      3.562607   -0.444464   -5.631552
  O      2.344944   -0.033742   -7.696501
  C      2.804084    0.290698   -1.359243
  C      1.052550    0.695659   -3.214915
  H     -0.232483    1.032925   -4.884449
  H      0.511700    2.495794   -4.267966
  C      2.388380    1.093669   -2.597108
  H      3.763425    0.674718   -0.999889
  H      2.094788    0.461222   -0.545756
  F      1.266058   -1.159177   -5.805365
  H      3.167316    1.013242   -3.359430
  H      2.357690    2.149375   -2.310997
  H      1.039284   -0.368429   -3.449329
  H      0.250787    0.865605   -2.488283
  H      1.940472   -1.716529   -1.441161
  H      3.558569   -1.663433   -0.766371

 Total Charge           Charge          ....    0
 Multiplicity           Mult            ....    1
 Number of Electrons    NEL             ....  112
 Basis Dimension        Dim             ....  643

ORBITAL ENERGIES
----------------

  NO   OCC          E(Eh)            E(eV)
   0   2.0000     -88.589300     -2410.6374
   1   2.0000     -24.518066      -667.1705
   2   2.0000     -18.902800      -514.3713
   3   2.0000     -18.890118      -514.0262
   4   2.0000     -14.084435      -383.2570
   5   2.0000     -10.044517      -273.3252
   6   2.0000     -10.016172      -272.5539
   7   2.0000      -9.992241      -271.9027
   8   2.0000      -9.989962      -271.8407
   9   2.0000      -9.988091      -271.7898
  10   2.0000      -9.987835      -271.7828
  11   2.0000      -9.982448      -271.6362
  12   2.0000      -9.905852      -269.5519
  13   2.0000      -7.938936      -216.0294
  14   2.0000      -5.922206      -161.1514
  15   2.0000      -5.915636      -160.9726
  16   2.0000      -5.914932      -160.9535
  17   2.0000      -1.287314       -35.0296
  18   2.0000      -1.040277       -28.3074
  19   2.0000      -0.949015       -25.8240
  20   2.0000      -0.856190       -23.2981
  21   2.0000      -0.781742       -21.2723
  22   2.0000      -0.742322       -20.1996
  23   2.0000      -0.701856       -19.0985
  24   2.0000      -0.675167       -18.3722
  25   2.0000      -0.651045       -17.7158
  26   2.0000      -0.625513       -17.0211
  27   2.0000      -0.580827       -15.8051
  28   2.0000      -0.546452       -14.8697
  29   2.0000      -0.526317       -14.3218
  30   2.0000      -0.519288       -14.1305
  31   2.0000      -0.510471       -13.8906
  32   2.0000      -0.494399       -13.4533
  33   2.0000      -0.465596       -12.6695
  34   2.0000      -0.451636       -12.2896
  35   2.0000      -0.448048       -12.1920
  36   2.0000      -0.429545       -11.6885
  37   2.0000      -0.419308       -11.4099
  38   2.0000      -0.413357       -11.2480
  39   2.0000      -0.401142       -10.9156
  40   2.0000      -0.395266       -10.7557
  41   2.0000      -0.376786       -10.2529
  42   2.0000      -0.364414        -9.9162
  43   2.0000      -0.351937        -9.5767
  44   2.0000      -0.345482        -9.4010
  45   2.0000      -0.343565        -9.3489
  46   2.0000      -0.328665        -8.9434
  47   2.0000      -0.321073        -8.7368
  48   2.0000      -0.310855        -8.4588
  49   2.0000      -0.296688        -8.0733
  50   2.0000      -0.293878        -7.9968
  51   2.0000      -0.289577        -7.8798
  52   2.0000      -0.284078        -7.7302
  53   2.0000      -0.269576        -7.3355
  54   2.0000      -0.264778        -7.2050
  55   2.0000      -0.156362        -4.2548
  56   0.0000      -0.030240        -0.8229
  57   0.0000      -0.008747        -0.2380
  58   0.0000      -0.003604        -0.0981
  59   0.0000       0.002287         0.0622
  60   0.0000       0.013607         0.3703

MULLIKEN ATOMIC CHARGES
-----------------------
   0 C :   -0.328332
   1 C :   -0.332066
   2 C :   -0.547739
   3 H :    0.373579
   4 H :    0.191716
   5 S :    1.288081
   6 C :    0.523466
   7 N :   -0.465264
   8 C :   -1.430430
   9 H :    0.406581
  10 H :    0.565435
  11 H :    0.203792
  12 H :    0.275431
  13 O :   -0.699035
  14 O :   -0.642027
  15 C :   -0.309744
  16 C :   -0.227815
  17 H :    0.221123
  18 H :    0.139704
  19 C :   -0.419831
  20 H :    0.281982
  21 H :    0.060877
  22 F :   -0.181976
  23 H :    0.457814
  24 H :    0.066527
  25 H :    0.228849
  26 H :    0.070942
  27 H :    0.209088
  28 H :    0.019272
Sum of atomic charges:   -0.0000000

LOEWDIN ATOMIC CHARGES
----------------------
   0 C :   -0.131405
   1 C :   -0.213866
   2 C :   -0.205458
   3 H :    0.105779
   4 H :    0.097974
   5 S :    0.614418
   6 C :   -0.492146
   7 N :    0.122048
   8 C :   -0.007232
   9 H :    0.030931
  10 H :    0.000722
  11 H :    0.110654
  12 H :    0.081587
  13 O :   -0.299434
  14 O :   -0.240738
  15 C :   -0.180966
  16 C :   -0.197282
  17 H :    0.108547
  18 H :    0.115592
  19 C :   -0.198829
  20 H :    0.099800
  21 H :    0.103776
  22 F :   -0.050834
  23 H :    0.091350
  24 H :    0.113267
  25 H :    0.084504
  26 H :    0.117986
  27 H :    0.109033
  28 H :    0.110221

  Mayer bond orders larger than 0.100000
B(  0-C ,  6-C ) :   1.0582 B(  0-C , 15-C ) :   0.9017 B(  0-C , 16-C ) :   0.1684
B(  0-C , 19-C ) :  -0.1173 B(  0-C , 21-H ) :   0.1053 B(  0-C , 27-H ) :   0.8746
B(  0-C , 28-H ) :   0.9588 B(  1-C ,  2-C ) :   1.1024 B(  1-C ,  5-S ) :   0.1038
B(  1-C , 16-C ) :   1.0090 B(  1-C , 17-H ) :   0.8509 B(  1-C , 18-H ) :   0.8764
B(  1-C , 19-C ) :   0.1672 B(  1-C , 25-H ) :   0.1151 B(  2-C ,  3-H ) :   0.7825
B(  2-C ,  4-H ) :   0.9763 B(  2-C ,  5-S ) :   0.8214 B(  2-C , 13-O ) :   0.1764
B(  2-C , 14-O ) :   0.1828 B(  2-C , 19-C ) :   0.1727 B(  5-S , 13-O ) :   1.6735
B(  5-S , 14-O ) :   1.3680 B(  5-S , 22-F ) :   1.0019 B(  6-C ,  7-N ) :   0.8448
B(  6-C ,  8-C ) :   1.4665 B(  6-C ,  9-H ) :  -0.1104 B(  6-C , 13-O ) :  -0.1267
B(  6-C , 19-C ) :   0.1800 B(  7-N , 11-H ) :   0.8872 B(  7-N , 12-H ) :   0.8481
B(  8-C ,  9-H ) :   0.8831 B(  8-C , 10-H ) :   0.7050 B( 15-C , 16-C ) :   0.2091
B( 15-C , 19-C ) :   1.1971 B( 15-C , 20-H ) :   0.8146 B( 15-C , 21-H ) :   0.8891
B( 16-C , 19-C ) :   0.7719 B( 16-C , 25-H ) :   1.0628 B( 16-C , 26-H ) :   0.8333
B( 19-C , 23-H ) :   0.7773 B( 19-C , 24-H ) :   0.9539

Dispersion correction           -0.046127334
FINAL SINGLE POINT ENERGY     -1018.052487419412

DIPOLE MOMENT
-------------
                                X             Y             Z
Electronic contribution:     -0.37010      -5.40297     -18.71242
Nuclear contribution   :     -0.51418       6.96452      19.50670
                        -----------------------------------------
Total Dipole Moment    :     -0.88428       1.56155       0.79428
                        -----------------------------------------
Magnitude (a.u.)       :      1.96246
Magnitude (Debye)      :      4.98819

Rotational constants in cm-1:     0.036455     0.018603     0.015008
Rotational constants in MHz :  1092.895336   557.693628   449.926016

                             ****ORCA TERMINATED NORMALLY****
TOTAL RUN TIME: 0 days 0 hours 2 minutes 9 seconds 114 msec
