                         Program Version 5.0.0 -  RELEASE  -
|  1> !B3LYP D3BJ RIJCOSX def2-TZVPD def2/J TightSCF
|  2> *xyz -1 1
|  3> C         -0.10608        1.76991       -4.08984
|  4> C         -0.25875        1.00432       -5.40983
|  5> C          0.39596       -0.37070       -5.33994
|  6> H          0.23915        1.56939       -6.20125
|  7> H         -1.30936        0.88869       -5.68245
|  8> O         -0.32633       -1.39040       -5.49128
|  9> O          1.61941       -0.40073       -5.03683
| 10> H         -0.57627        2.72718       -4.17630
| 11> H          0.93321        1.90140       -3.87192
| 12> H         -0.56868        1.21534       -3.30031
| 13> *
| 14> %MaxCore 64000
| 15>
| 16> %pal nprocs 4
| 17> end
| 18>
| 19> %scf
| 20>   MaxIter 150
| 21> end
| 22>
| 23>
| 24>                          ****END OF INPUT****

CARTESIAN COORDINATES (ANGSTROEM)
---------------------------------
  C     -0.106080    1.769910   -4.089840
  C     -0.258750    1.004320   -5.409830
  C      0.395960   -0.370700   -5.339940
  H      0.239150    1.569390   -6.201250
  H     -1.309360    0.888690   -5.682450
  O     -0.326330   -1.390400   -5.491280
  O      1.619410   -0.400730   -5.036830
  H     -0.576270    2.727180   -4.176300
  H      0.933210    1.901400   -3.871920
  H     -0.568680    1.215340   -3.300310

 Total Charge           Charge          ....   -1
 Multiplicity           Mult            ....    1
 Number of Electrons    NEL             ....   40
 Basis Dimension        Dim             ....  236

ORBITAL ENERGIES
----------------

  NO   OCC          E(Eh)            E(eV)
   0   2.0000     -18.861423      -513.2454
   1   2.0000     -18.859833      -513.2021
   2   2.0000     -10.050829      -273.4970
   3   2.0000     -10.004437      -272.2346
   4   2.0000      -9.994982      -271.9773
   5   2.0000      -0.818297       -22.2670
   6   2.0000      -0.725859       -19.7516
   7   2.0000      -0.604820       -16.4580
   8   2.0000      -0.474479       -12.9112
   9   2.0000      -0.320597        -8.7239
  10   2.0000      -0.292341        -7.9550
  11   2.0000      -0.260126        -7.0784
  12   2.0000      -0.229096        -6.2340
  13   2.0000      -0.214109        -5.8262
  14   2.0000      -0.208128        -5.6634
  15   2.0000      -0.177897        -4.8408
  16   2.0000      -0.160825        -4.3763
  17   2.0000      -0.048421        -1.3176
  18   2.0000      -0.042687        -1.1616
  19   2.0000      -0.027245        -0.7414
  20   0.0000       0.133378         3.6294
  21   0.0000       0.158865         4.3229
  22   0.0000       0.173872         4.7313
  23   0.0000       0.183157         4.9840
  24   0.0000       0.208392         5.6706

MULLIKEN ATOMIC CHARGES
-----------------------
   0 C :   -1.040136
   1 C :    0.017556
   2 C :    0.388819
   3 H :    0.163391
   4 H :    0.160808
   5 O :   -0.735347
   6 O :   -0.746492
   7 H :    0.258158
   8 H :    0.244168
   9 H :    0.289074
Sum of atomic charges:   -1.0000000

LOEWDIN ATOMIC CHARGES
----------------------
   0 C :   -0.125746
   1 C :   -0.208129
   2 C :   -0.770832
   3 H :    0.090234
   4 H :    0.084792
   5 O :   -0.111535
   6 O :   -0.110321
   7 H :    0.039336
   8 H :    0.052752
   9 H :    0.059449

  Mayer bond orders larger than 0.100000
B(  0-C ,  1-C ) :   0.5680 B(  0-C ,  2-C ) :   0.1199 B(  0-C ,  7-H ) :   0.9502
B(  0-C ,  8-H ) :   1.0364 B(  0-C ,  9-H ) :   0.9572 B(  1-C ,  2-C ) :   0.9072
B(  1-C ,  3-H ) :   0.9611 B(  1-C ,  4-H ) :   1.0295 B(  2-C ,  5-O ) :   1.4308
B(  2-C ,  6-O ) :   1.4273

Dispersion correction           -0.010997393
FINAL SINGLE POINT ENERGY      -267.816688937160

DIPOLE MOMENT
-------------
                                X             Y             Z
Electronic contribution:      1.74709      -5.31544      -1.70254
Nuclear contribution   :     -2.46071       7.20791       1.95694
                        -----------------------------------------
Total Dipole Moment    :     -0.71363       1.89247       0.25439
                        -----------------------------------------
Magnitude (a.u.)       :      2.03849
Magnitude (Debye)      :      5.18143

Rotational constants in cm-1:     0.309435     0.135317     0.107436
Rotational constants in MHz :  9276.637721  4056.700783  3220.846587

                             ****ORCA TERMINATED NORMALLY****
TOTAL RUN TIME: 0 days 0 hours 0 minutes 32 seconds 82 msec
