                         Program Version 5.0.0 -  RELEASE  -
|  1> !B3LYP D3BJ RIJCOSX def2-TZVPD def2/J TightSCF
|  2> *xyz 1 1
|  3> C          0.81607       -2.10149       -2.18655
|  4> H          1.69623       -2.36869       -1.60046
|  5> N          1.10055       -2.46749       -3.59927
|  6> C          0.51624       -0.61363       -2.03937
|  7> H         -0.02007       -2.71285       -1.84084
|  8> H          1.70061       -1.75723       -4.07838
|  9> H          0.29386       -2.35977       -4.25632
| 10> H          1.50132       -3.42848       -3.69491
| 11> H         -0.34841       -0.36504       -2.61858
| 12> H          1.35358       -0.04503       -2.38643
| 13> H          0.33317       -0.38682       -1.00984
| 14> *
| 15> %MaxCore 64000
| 16>
| 17> %pal nprocs 4
| 18> end
| 19>
| 20> %scf
| 21>   MaxIter 150
| 22> end
| 23>
| 24>
| 25>                          ****END OF INPUT****

CARTESIAN COORDINATES (ANGSTROEM)
---------------------------------
  C      0.816070   -2.101490   -2.186550
  H      1.696230   -2.368690   -1.600460
  N      1.100550   -2.467490   -3.599270
  C      0.516240   -0.613630   -2.039370
  H     -0.020070   -2.712850   -1.840840
  H      1.700610   -1.757230   -4.078380
  H      0.293860   -2.359770   -4.256320
  H      1.501320   -3.428480   -3.694910
  H     -0.348410   -0.365040   -2.618580
  H      1.353580   -0.045030   -2.386430
  H      0.333170   -0.386820   -1.009840

 Total Charge           Charge          ....    1
 Multiplicity           Mult            ....    1
 Number of Electrons    NEL             ....   26
 Basis Dimension        Dim             ....  183

ORBITAL ENERGIES
----------------

  NO   OCC          E(Eh)            E(eV)
   0   2.0000     -14.652649      -398.7188
   1   2.0000     -10.423128      -283.6277
   2   2.0000     -10.343508      -281.4612
   3   2.0000      -1.209796       -32.9202
   4   2.0000      -0.965625       -26.2760
   5   2.0000      -0.850637       -23.1470
   6   2.0000      -0.789624       -21.4868
   7   2.0000      -0.771806       -21.0019
   8   2.0000      -0.702296       -19.1104
   9   2.0000      -0.638527       -17.3752
  10   2.0000      -0.584223       -15.8975
  11   2.0000      -0.570103       -15.5133
  12   2.0000      -0.552806       -15.0426
  13   0.0000      -0.205960        -5.6045
  14   0.0000      -0.146413        -3.9841
  15   0.0000      -0.144372        -3.9286
  16   0.0000      -0.135552        -3.6886
  17   0.0000      -0.099065        -2.6957

MULLIKEN ATOMIC CHARGES
-----------------------
   0 C :   -0.211605
   1 H :    0.284847
   2 N :   -0.309926
   3 C :   -1.092689
   4 H :    0.290088
   5 H :    0.327200
   6 H :    0.342163
   7 H :    0.341227
   8 H :    0.353750
   9 H :    0.369029
  10 H :    0.305918
Sum of atomic charges:    1.0000000

LOEWDIN ATOMIC CHARGES
----------------------
   0 C :   -0.198724
   1 H :    0.133735
   2 N :    0.162266
   3 C :   -0.050107
   4 H :    0.135291
   5 H :    0.184592
   6 H :    0.188529
   7 H :    0.191977
   8 H :    0.080706
   9 H :    0.080409
  10 H :    0.091325

  Mayer bond orders larger than 0.100000
B(  0-C ,  1-H ) :   0.9325 B(  0-C ,  2-N ) :   0.9084 B(  0-C ,  3-C ) :   0.6117
B(  0-C ,  4-H ) :   0.9423 B(  2-N ,  5-H ) :   0.8757 B(  2-N ,  6-H ) :   0.8695
B(  2-N ,  7-H ) :   0.8672 B(  3-C ,  8-H ) :   0.9292 B(  3-C ,  9-H ) :   0.9115
B(  3-C , 10-H ) :   0.9856

Dispersion correction           -0.010009798
FINAL SINGLE POINT ENERGY      -135.502023082713

DIPOLE MOMENT
-------------
                                X             Y             Z
Electronic contribution:      0.41450      -1.42253      -1.05425
Nuclear contribution   :     -0.07506       0.54337      -0.16191
                        -----------------------------------------
Total Dipole Moment    :      0.33945      -0.87916      -1.21616
                        -----------------------------------------
Magnitude (a.u.)       :      1.53857
Magnitude (Debye)      :      3.91073

Rotational constants in cm-1:     0.999557     0.280801     0.246932
Rotational constants in MHz : 29965.963633  8418.199581  7402.841054

                             ****ORCA TERMINATED NORMALLY****
TOTAL RUN TIME: 0 days 0 hours 0 minutes 17 seconds 886 msec
