                         Program Version 5.0.0 -  RELEASE  -
|  1> !B3LYP D3BJ RIJCOSX def2-TZVPD def2/J TightSCF xyzfile
|  2>
|  3> *xyzfile 0 1 B.xyz
|  4>
|  5> %MaxCore 64000
|  6>
|  7> %pal nprocs 4
|  8> end
|  9>
| 10> %scf
| 11>   MaxIter 150
| 12> end
| 13>
| 14>
| 15>                          ****END OF INPUT****

CARTESIAN COORDINATES (ANGSTROEM)
---------------------------------
  C      0.816067   -2.101491   -2.186546
  H      1.696232   -2.368691   -1.600457
  N      1.100552   -2.467492   -3.599269
  C      0.516243   -0.613634   -2.039373
  H     -0.020066   -2.712849   -1.840844
  C     -0.868621   -0.193925   -2.546303
  C     -0.984801    1.284739   -2.928686
  H     -0.764939    1.904116   -2.051568
  H     -2.032613    1.478953   -3.178952
  C     -0.106085    1.769914   -4.089836
  H     -0.347744    2.822196   -4.262942
  H      0.949683    1.745875   -3.808781
  C     -0.258747    1.004323   -5.409829
  C      0.395958   -0.370696   -5.339939
  H      0.239150    1.569393   -6.201253
  H     -1.309360    0.888694   -5.682455
  H      1.700606   -1.757225   -4.078378
  H      0.293855   -2.359766   -4.256324
  H      1.501324   -3.428479   -3.694915
  O     -0.326329   -1.390398   -5.491279
  O      1.619412   -0.400726   -5.036827
  H     -1.607271   -0.412651   -1.768955
  H     -1.157234   -0.796164   -3.409254
  H      1.299044   -0.056805   -2.558982
  H      0.612393   -0.365579   -0.979171

 Total Charge           Charge          ....    0
 Multiplicity           Mult            ....    1
 Number of Electrons    NEL             ....   80
 Basis Dimension        Dim             ....  511

ORBITAL ENERGIES
----------------

  NO   OCC          E(Eh)            E(eV)
   0   2.0000     -19.060394      -518.6597
   1   2.0000     -19.059122      -518.6251
   2   2.0000     -14.400479      -391.8569
   3   2.0000     -10.242876      -278.7228
   4   2.0000     -10.241242      -278.6784
   5   2.0000     -10.182476      -277.0793
   6   2.0000     -10.164394      -276.5872
   7   2.0000     -10.160283      -276.4754
   8   2.0000     -10.153456      -276.2896
   9   2.0000     -10.144882      -276.0563
  10   2.0000      -1.029905       -28.0251
  11   2.0000      -0.977498       -26.5991
  12   2.0000      -0.931337       -25.3430
  13   2.0000      -0.813997       -22.1500
  14   2.0000      -0.771573       -20.9956
  15   2.0000      -0.724648       -19.7187
  16   2.0000      -0.661407       -17.9978
  17   2.0000      -0.627081       -17.0637
  18   2.0000      -0.575924       -15.6717
  19   2.0000      -0.564811       -15.3693
  20   2.0000      -0.541264       -14.7285
  21   2.0000      -0.514855       -14.0099
  22   2.0000      -0.481968       -13.1150
  23   2.0000      -0.468264       -12.7421
  24   2.0000      -0.455154       -12.3854
  25   2.0000      -0.444820       -12.1042
  26   2.0000      -0.424238       -11.5441
  27   2.0000      -0.418307       -11.3827
  28   2.0000      -0.400402       -10.8955
  29   2.0000      -0.390333       -10.6215
  30   2.0000      -0.383953       -10.4479
  31   2.0000      -0.373278       -10.1574
  32   2.0000      -0.353339        -9.6148
  33   2.0000      -0.349230        -9.5030
  34   2.0000      -0.325553        -8.8588
  35   2.0000      -0.312708        -8.5092
  36   2.0000      -0.308277        -8.3886
  37   2.0000      -0.251660        -6.8480
  38   2.0000      -0.238419        -6.4877
  39   2.0000      -0.230212        -6.2644
  40   0.0000      -0.021837        -0.5942
  41   0.0000       0.008349         0.2272
  42   0.0000       0.018279         0.4974
  43   0.0000       0.020634         0.5615
  44   0.0000       0.033519         0.9121

MULLIKEN ATOMIC CHARGES
-----------------------
   0 C :   -0.717384
   1 H :    0.280704
   2 N :   -0.212207
   3 C :   -0.225199
   4 H :    0.276249
   5 C :   -0.569800
   6 C :   -0.535930
   7 H :    0.201292
   8 H :    0.253556
   9 C :   -0.503238
  10 H :    0.207605
  11 H :    0.206336
  12 C :   -0.295726
  13 C :    0.697100
  14 H :    0.265471
  15 H :    0.175421
  16 H :    0.302326
  17 H :    0.285938
  18 H :    0.301036
  19 O :   -0.822699
  20 O :   -0.833355
  21 H :    0.274284
  22 H :    0.414260
  23 H :    0.224620
  24 H :    0.349342
Sum of atomic charges:   -0.0000000

LOEWDIN ATOMIC CHARGES
----------------------
   0 C :   -0.161981
   1 H :    0.117689
   2 N :    0.131090
   3 C :   -0.180118
   4 H :    0.123797
   5 C :   -0.196438
   6 C :   -0.194717
   7 H :    0.107454
   8 H :    0.108960
   9 C :   -0.199903
  10 H :    0.104706
  11 H :    0.100765
  12 C :   -0.108247
  13 C :   -0.663029
  14 H :    0.115072
  15 H :    0.113148
  16 H :    0.094572
  17 H :    0.094258
  18 H :    0.173314
  19 O :   -0.059640
  20 O :   -0.051059
  21 H :    0.111242
  22 H :    0.096856
  23 H :    0.105583
  24 H :    0.116627

  Mayer bond orders larger than 0.100000
B(  0-C ,  1-H ) :   0.9329 B(  0-C ,  2-N ) :   0.9782 B(  0-C ,  3-C ) :   0.7867
B(  0-C ,  4-H ) :   0.9346 B(  0-C ,  5-C ) :   0.2362 B(  2-N , 16-H ) :   0.7722
B(  2-N , 17-H ) :   0.7858 B(  2-N , 18-H ) :   0.8630 B(  3-C ,  5-C ) :   0.4387
B(  3-C ,  6-C ) :   0.1906 B(  3-C , 23-H ) :   1.0086 B(  3-C , 24-H ) :   0.8943
B(  5-C ,  6-C ) :   0.9212 B(  5-C , 21-H ) :   0.9711 B(  5-C , 22-H ) :   0.9104
B(  6-C ,  7-H ) :   0.9962 B(  6-C ,  8-H ) :   0.9522 B(  6-C ,  9-C ) :   0.8571
B(  9-C , 10-H ) :   0.9830 B(  9-C , 11-H ) :   0.9470 B(  9-C , 12-C ) :   0.8577
B(  9-C , 13-C ) :   0.1222 B( 12-C , 13-C ) :   0.9544 B( 12-C , 14-H ) :   0.8719
B( 12-C , 15-H ) :   1.0675 B( 13-C , 19-O ) :   1.1896 B( 13-C , 20-O ) :   1.1809
B( 16-H , 20-O ) :   0.2093 B( 17-H , 19-O ) :   0.2078 B( 19-O , 20-O ) :   0.1201

Dispersion correction           -0.043787278
FINAL SINGLE POINT ENERGY      -480.934458605057

DIPOLE MOMENT
-------------
                                X             Y             Z
Electronic contribution:      2.29019      -3.07935      -6.26850
Nuclear contribution   :     -2.02598       1.95876       8.24116
                        -----------------------------------------
Total Dipole Moment    :      0.26421      -1.12059       1.97266
                        -----------------------------------------
Magnitude (a.u.)       :      2.28405
Magnitude (Debye)      :      5.80560

Rotational constants in cm-1:     0.052900     0.041948     0.028766
Rotational constants in MHz :  1585.892512  1257.572595   862.390225

                             ****ORCA TERMINATED NORMALLY****
TOTAL RUN TIME: 0 days 0 hours 3 minutes 22 seconds 529 msec
