                         Program Version 5.0.0 -  RELEASE  -
|  1> !B3LYP D3BJ RIJCOSX def2-TZVPD def2/J TightSCF
|  2> *xyz 0 1
|  3> C         -0.10608        1.76991       -4.08984
|  4> C         -0.25875        1.00432       -5.40983
|  5> C          0.39596       -0.37070       -5.33994
|  6> H          0.23915        1.56939       -6.20125
|  7> H         -1.30936        0.88869       -5.68245
|  8> F         -0.32633       -1.39040       -5.49128
|  9> O          1.61941       -0.40073       -5.03683
| 10> H         -0.57627        2.72718       -4.17630
| 11> H          0.93321        1.90140       -3.87192
| 12> H         -0.56868        1.21534       -3.30031
| 13> *
| 14> %MaxCore 64000
| 15>
| 16> %pal nprocs 4
| 17> end
| 18>
| 19> %scf
| 20>   MaxIter 150
| 21> end
| 22>
| 23>
| 24>                          ****END OF INPUT****

CARTESIAN COORDINATES (ANGSTROEM)
---------------------------------
  C     -0.106080    1.769910   -4.089840
  C     -0.258750    1.004320   -5.409830
  C      0.395960   -0.370700   -5.339940
  H      0.239150    1.569390   -6.201250
  H     -1.309360    0.888690   -5.682450
  F     -0.326330   -1.390400   -5.491280
  O      1.619410   -0.400730   -5.036830
  H     -0.576270    2.727180   -4.176300
  H      0.933210    1.901400   -3.871920
  H     -0.568680    1.215340   -3.300310

 Total Charge           Charge          ....    0
 Multiplicity           Mult            ....    1
 Number of Electrons    NEL             ....   40
 Basis Dimension        Dim             ....  236

ORBITAL ENERGIES
----------------

  NO   OCC          E(Eh)            E(eV)
   0   2.0000     -24.752293      -673.5441
   1   2.0000     -19.131223      -520.5870
   2   2.0000     -10.348542      -281.5981
   3   2.0000     -10.202594      -277.6267
   4   2.0000     -10.173760      -276.8421
   5   2.0000      -1.318477       -35.8776
   6   2.0000      -1.031693       -28.0738
   7   2.0000      -0.801579       -21.8121
   8   2.0000      -0.691048       -18.8044
   9   2.0000      -0.640226       -17.4214
  10   2.0000      -0.548705       -14.9310
  11   2.0000      -0.535135       -14.5618
  12   2.0000      -0.509832       -13.8732
  13   2.0000      -0.467150       -12.7118
  14   2.0000      -0.435830       -11.8595
  15   2.0000      -0.401194       -10.9170
  16   2.0000      -0.380674       -10.3587
  17   2.0000      -0.377280       -10.2663
  18   2.0000      -0.347026        -9.4431
  19   2.0000      -0.294527        -8.0145
  20   0.0000      -0.036845        -1.0026
  21   0.0000       0.001024         0.0279
  22   0.0000       0.027356         0.7444
  23   0.0000       0.038183         1.0390
  24   0.0000       0.047232         1.2852

MULLIKEN ATOMIC CHARGES
-----------------------
   0 C :   -1.062720
   1 C :   -0.054400
   2 C :    0.518400
   3 H :    0.209204
   4 H :    0.222110
   5 F :   -0.214835
   6 O :   -0.505189
   7 H :    0.278192
   8 H :    0.285895
   9 H :    0.323342
Sum of atomic charges:    0.0000000

LOEWDIN ATOMIC CHARGES
----------------------
   0 C :   -0.081224
   1 C :   -0.152944
   2 C :   -0.481529
   3 H :    0.119029
   4 H :    0.106771
   5 F :    0.204251
   6 O :    0.074516
   7 H :    0.067318
   8 H :    0.070911
   9 H :    0.072902

  Mayer bond orders larger than 0.100000
B(  0-C ,  1-C ) :   0.6354 B(  0-C ,  2-C ) :   0.1071 B(  0-C ,  7-H ) :   0.9587
B(  0-C ,  8-H ) :   1.0129 B(  0-C ,  9-H ) :   0.9204 B(  1-C ,  2-C ) :   0.9060
B(  1-C ,  3-H ) :   0.9541 B(  1-C ,  4-H ) :   0.9742 B(  2-C ,  5-F ) :   1.0121
B(  2-C ,  6-O ) :   1.7345

Dispersion correction           -0.010427987
FINAL SINGLE POINT ENERGY      -292.381809058928

DIPOLE MOMENT
-------------
                                X             Y             Z
Electronic contribution:      0.84655      -8.16925      -2.56621
Nuclear contribution   :     -1.80992       8.85192       2.42184
                        -----------------------------------------
Total Dipole Moment    :     -0.96337       0.68267      -0.14436
                        -----------------------------------------
Magnitude (a.u.)       :      1.18952
Magnitude (Debye)      :      3.02352

Rotational constants in cm-1:     0.298360     0.128849     0.102271
Rotational constants in MHz :  8944.606599  3862.796179  3066.020510

                             ****ORCA TERMINATED NORMALLY****
TOTAL RUN TIME: 0 days 0 hours 0 minutes 30 seconds 280 msec
