                         Program Version 5.0.0 -  RELEASE  -
|  1> !B3LYP D3BJ RIJCOSX def2-TZVPD def2/J TightSCF
|  2> *xyz 0 1
|  3> C          0.81607       -2.10149       -2.18655
|  4> H          1.69623       -2.36869       -1.60046
|  5> C          1.10055       -2.46749       -3.59927
|  6> C          0.51624       -0.61363       -2.03937
|  7> H         -0.02007       -2.71285       -1.84084
|  8> H          1.70061       -1.75723       -4.07838
|  9> H          0.29386       -2.35977       -4.25632
| 10> H          1.50132       -3.42848       -3.69491
| 11> H         -0.34841       -0.36504       -2.61858
| 12> H          1.35358       -0.04503       -2.38643
| 13> H          0.33317       -0.38682       -1.00984
| 14> *
| 15> %MaxCore 64000
| 16>
| 17> %pal nprocs 4
| 18> end
| 19>
| 20> %scf
| 21>   MaxIter 150
| 22> end
| 23>
| 24>
| 25>                          ****END OF INPUT****

CARTESIAN COORDINATES (ANGSTROEM)
---------------------------------
  C      0.816070   -2.101490   -2.186550
  H      1.696230   -2.368690   -1.600460
  C      1.100550   -2.467490   -3.599270
  C      0.516240   -0.613630   -2.039370
  H     -0.020070   -2.712850   -1.840840
  H      1.700610   -1.757230   -4.078380
  H      0.293860   -2.359770   -4.256320
  H      1.501320   -3.428480   -3.694910
  H     -0.348410   -0.365040   -2.618580
  H      1.353580   -0.045030   -2.386430
  H      0.333170   -0.386820   -1.009840

 Total Charge           Charge          ....    0
 Multiplicity           Mult            ....    1
 Number of Electrons    NEL             ....   26
 Basis Dimension        Dim             ....  183

ORBITAL ENERGIES
----------------

  NO   OCC          E(Eh)            E(eV)
   0   2.0000     -10.155907      -276.3563
   1   2.0000     -10.145668      -276.0777
   2   2.0000     -10.132713      -275.7251
   3   2.0000      -0.788519       -21.4567
   4   2.0000      -0.687650       -18.7119
   5   2.0000      -0.589121       -16.0308
   6   2.0000      -0.459378       -12.5003
   7   2.0000      -0.445274       -12.1165
   8   2.0000      -0.412127       -11.2146
   9   2.0000      -0.376184       -10.2365
  10   2.0000      -0.342079        -9.3084
  11   2.0000      -0.336890        -9.1672
  12   2.0000      -0.321574        -8.7505
  13   0.0000       0.012454         0.3389
  14   0.0000       0.036263         0.9868
  15   0.0000       0.037944         1.0325
  16   0.0000       0.060557         1.6479
  17   0.0000       0.081598         2.2204

MULLIKEN ATOMIC CHARGES
-----------------------
   0 C :    0.129600
   1 H :    0.208413
   2 C :   -1.282543
   3 C :   -1.087180
   4 H :    0.199930
   5 H :    0.340683
   6 H :    0.357322
   7 H :    0.279907
   8 H :    0.293803
   9 H :    0.295776
  10 H :    0.264291
Sum of atomic charges:   -0.0000000

LOEWDIN ATOMIC CHARGES
----------------------
   0 C :   -0.313152
   1 H :    0.100465
   2 C :   -0.136003
   3 C :   -0.111835
   4 H :    0.101588
   5 H :    0.055864
   6 H :    0.057784
   7 H :    0.057764
   8 H :    0.064863
   9 H :    0.063927
  10 H :    0.058734

  Mayer bond orders larger than 0.100000
B(  0-C ,  1-H ) :   0.9857 B(  0-C ,  2-C ) :   0.5867 B(  0-C ,  3-C ) :   0.6026
B(  0-C ,  4-H ) :   0.9802 B(  2-C ,  3-C ) :   0.1431 B(  2-C ,  5-H ) :   0.9509
B(  2-C ,  6-H ) :   0.9475 B(  2-C ,  7-H ) :   0.9849 B(  3-C ,  8-H ) :   0.9791
B(  3-C ,  9-H ) :   0.9824 B(  3-C , 10-H ) :   0.9975

Dispersion correction           -0.010087108
FINAL SINGLE POINT ENERGY      -119.096267951877

DIPOLE MOMENT
-------------
                                X             Y             Z
Electronic contribution:     -0.01852      -0.30890       0.46641
Nuclear contribution   :      0.01737       0.30387      -0.47422
                        -----------------------------------------
Total Dipole Moment    :     -0.00115      -0.00503      -0.00781
                        -----------------------------------------
Magnitude (a.u.)       :      0.00936
Magnitude (Debye)      :      0.02379

Rotational constants in cm-1:     1.006891     0.295208     0.258491
Rotational constants in MHz : 30185.831813  8850.104914  7749.351732

                             ****ORCA TERMINATED NORMALLY****
TOTAL RUN TIME: 0 days 0 hours 0 minutes 19 seconds 432 msec
