                         Program Version 5.0.0 -  RELEASE  -
|  1> !B3LYP D3BJ RIJCOSX def2-TZVPD def2/J TightSCF
|  2> *xyz 0 1
|  3> C         -0.10608        1.76991       -4.08984
|  4> C         -0.25875        1.00432       -5.40983
|  5> C          0.39596       -0.37070       -5.33994
|  6> H          0.23915        1.56939       -6.20125
|  7> H         -1.30936        0.88869       -5.68245
|  8> O         -0.32633       -1.39040       -5.49128
|  9> F          1.61941       -0.40073       -5.03683
| 10> H         -0.57627        2.72718       -4.17630
| 11> H          0.93321        1.90140       -3.87192
| 12> H         -0.56868        1.21534       -3.30031
| 13> *
| 14> %MaxCore 64000
| 15>
| 16> %pal nprocs 4
| 17> end
| 18>
| 19> %scf
| 20>   MaxIter 150
| 21> end
| 22>
| 23>
| 24>                          ****END OF INPUT****

CARTESIAN COORDINATES (ANGSTROEM)
---------------------------------
  C     -0.106080    1.769910   -4.089840
  C     -0.258750    1.004320   -5.409830
  C      0.395960   -0.370700   -5.339940
  H      0.239150    1.569390   -6.201250
  H     -1.309360    0.888690   -5.682450
  O     -0.326330   -1.390400   -5.491280
  F      1.619410   -0.400730   -5.036830
  H     -0.576270    2.727180   -4.176300
  H      0.933210    1.901400   -3.871920
  H     -0.568680    1.215340   -3.300310

 Total Charge           Charge          ....    0
 Multiplicity           Mult            ....    1
 Number of Electrons    NEL             ....   40
 Basis Dimension        Dim             ....  236

ORBITAL ENERGIES
----------------

  NO   OCC          E(Eh)            E(eV)
   0   2.0000     -24.750809      -673.5037
   1   2.0000     -19.132152      -520.6123
   2   2.0000     -10.347771      -281.5772
   3   2.0000     -10.202413      -277.6218
   4   2.0000     -10.178746      -276.9778
   5   2.0000      -1.317042       -35.8385
   6   2.0000      -1.031787       -28.0764
   7   2.0000      -0.806107       -21.9353
   8   2.0000      -0.688383       -18.7318
   9   2.0000      -0.643734       -17.5169
  10   2.0000      -0.549979       -14.9657
  11   2.0000      -0.538621       -14.6566
  12   2.0000      -0.503056       -13.6889
  13   2.0000      -0.467759       -12.7284
  14   2.0000      -0.437156       -11.8956
  15   2.0000      -0.404169       -10.9980
  16   2.0000      -0.386160       -10.5079
  17   2.0000      -0.381064       -10.3693
  18   2.0000      -0.352048        -9.5797
  19   2.0000      -0.291494        -7.9320
  20   0.0000      -0.033398        -0.9088
  21   0.0000      -0.000674        -0.0183
  22   0.0000       0.026990         0.7344
  23   0.0000       0.037415         1.0181
  24   0.0000       0.047664         1.2970

MULLIKEN ATOMIC CHARGES
-----------------------
   0 C :   -1.088707
   1 C :   -0.022166
   2 C :    0.516776
   3 H :    0.231954
   4 H :    0.187606
   5 O :   -0.498650
   6 F :   -0.228108
   7 H :    0.272894
   8 H :    0.294857
   9 H :    0.333544
Sum of atomic charges:   -0.0000000

LOEWDIN ATOMIC CHARGES
----------------------
   0 C :   -0.083574
   1 C :   -0.148453
   2 C :   -0.488045
   3 H :    0.115391
   4 H :    0.116344
   5 O :    0.077328
   6 F :    0.201267
   7 H :    0.067867
   8 H :    0.067351
   9 H :    0.074523

  Mayer bond orders larger than 0.100000
B(  0-C ,  1-C ) :   0.5803 B(  0-C ,  2-C ) :   0.1055 B(  0-C ,  7-H ) :   0.9734
B(  0-C ,  8-H ) :   0.9785 B(  0-C ,  9-H ) :   0.9424 B(  1-C ,  2-C ) :   0.9078
B(  1-C ,  3-H ) :   0.9397 B(  1-C ,  4-H ) :   1.0120 B(  2-C ,  5-O ) :   1.7337
B(  2-C ,  6-F ) :   0.9955

Dispersion correction           -0.010355853
FINAL SINGLE POINT ENERGY      -292.383250410210

DIPOLE MOMENT
-------------
                                X             Y             Z
Electronic contribution:      4.06928      -6.49657      -1.80666
Nuclear contribution   :     -3.93139       7.77287       1.92635
                        -----------------------------------------
Total Dipole Moment    :      0.13789       1.27630       0.11969
                        -----------------------------------------
Magnitude (a.u.)       :      1.28929
Magnitude (Debye)      :      3.27713

Rotational constants in cm-1:     0.286068     0.133630     0.103472
Rotational constants in MHz :  8576.109806  4006.118234  3102.010802

                             ****ORCA TERMINATED NORMALLY****
TOTAL RUN TIME: 0 days 0 hours 0 minutes 30 seconds 608 msec
