                         Program Version 5.0.0 -  RELEASE  -
|  1> !B3LYP D3BJ RIJCOSX def2-TZVPD def2/J TightSCF xyzfile
|  2>
|  3> *xyzfile 0 1 D1.xyz
|  4>
|  5> %MaxCore 64000
|  6>
|  7> %pal nprocs 4
|  8> end
|  9>
| 10> %scf
| 11>   MaxIter 150
| 12> end
| 13>
| 14>
| 15>                          ****END OF INPUT****

CARTESIAN COORDINATES (ANGSTROEM)
---------------------------------
  C      0.816067   -2.101491   -2.186546
  H      1.696232   -2.368691   -1.600457
  C      1.100552   -2.467492   -3.599269
  C      0.516243   -0.613634   -2.039373
  H     -0.020066   -2.712849   -1.840844
  C     -0.868621   -0.193925   -2.546303
  C     -0.984801    1.284739   -2.928686
  H     -0.764939    1.904116   -2.051568
  H     -2.032613    1.478953   -3.178952
  C     -0.106085    1.769914   -4.089836
  H     -0.347744    2.822196   -4.262942
  H      0.949683    1.745875   -3.808781
  C     -0.258747    1.004323   -5.409829
  C      0.395958   -0.370696   -5.339939
  H      0.239150    1.569393   -6.201253
  H     -1.309360    0.888694   -5.682455
  H      1.700606   -1.757225   -4.078378
  H      0.293855   -2.359766   -4.256324
  H      1.501324   -3.428479   -3.694915
  F     -0.326329   -1.390398   -5.491279
  O      1.619412   -0.400726   -5.036827
  H     -1.607271   -0.412651   -1.768955
  H     -1.157234   -0.796164   -3.409254
  H      1.299044   -0.056805   -2.558982
  H      0.612393   -0.365579   -0.979171

 Total Charge           Charge          ....    0
 Multiplicity           Mult            ....    1
 Number of Electrons    NEL             ....   80
 Basis Dimension        Dim             ....  511

ORBITAL ENERGIES
----------------

  NO   OCC          E(Eh)            E(eV)
   0   2.0000     -24.759106      -673.7295
   1   2.0000     -19.136836      -520.7398
   2   2.0000     -10.355737      -281.7939
   3   2.0000     -10.203259      -277.6448
   4   2.0000     -10.182726      -277.0860
   5   2.0000     -10.171065      -276.7687
   6   2.0000     -10.163389      -276.5599
   7   2.0000     -10.149731      -276.1882
   8   2.0000     -10.140295      -275.9315
   9   2.0000     -10.090920      -274.5879
  10   2.0000      -1.331539       -36.2330
  11   2.0000      -1.046170       -28.4677
  12   2.0000      -0.824847       -22.4452
  13   2.0000      -0.792378       -21.5617
  14   2.0000      -0.744875       -20.2691
  15   2.0000      -0.707132       -19.2420
  16   2.0000      -0.666658       -18.1407
  17   2.0000      -0.638142       -17.3647
  18   2.0000      -0.599441       -16.3116
  19   2.0000      -0.559673       -15.2295
  20   2.0000      -0.555761       -15.1230
  21   2.0000      -0.541603       -14.7378
  22   2.0000      -0.525853       -14.3092
  23   2.0000      -0.477752       -13.0003
  24   2.0000      -0.458094       -12.4654
  25   2.0000      -0.443179       -12.0595
  26   2.0000      -0.438138       -11.9223
  27   2.0000      -0.425220       -11.5708
  28   2.0000      -0.412020       -11.2116
  29   2.0000      -0.400449       -10.8968
  30   2.0000      -0.382289       -10.4026
  31   2.0000      -0.368403       -10.0248
  32   2.0000      -0.363110        -9.8807
  33   2.0000      -0.351584        -9.5671
  34   2.0000      -0.338638        -9.2148
  35   2.0000      -0.326615        -8.8876
  36   2.0000      -0.317686        -8.6447
  37   2.0000      -0.307191        -8.3591
  38   2.0000      -0.298382        -8.1194
  39   2.0000      -0.265400        -7.2219
  40   0.0000      -0.046205        -1.2573
  41   0.0000       0.000644         0.0175
  42   0.0000       0.019350         0.5265
  43   0.0000       0.022755         0.6192
  44   0.0000       0.025170         0.6849

MULLIKEN ATOMIC CHARGES
-----------------------
   0 C :   -0.156506
   1 H :    0.204037
   2 C :   -1.694462
   3 C :   -0.311035
   4 H :    0.184402
   5 C :   -0.536629
   6 C :   -0.510652
   7 H :    0.208597
   8 H :    0.242685
   9 C :   -0.489913
  10 H :    0.217805
  11 H :    0.245718
  12 C :   -0.326888
  13 C :    0.597235
  14 H :    0.271050
  15 H :    0.216757
  16 H :    0.573553
  17 H :    0.505816
  18 H :    0.353279
  19 F :   -0.290029
  20 O :   -0.573083
  21 H :    0.293757
  22 H :    0.283401
  23 H :    0.182254
  24 H :    0.308853
Sum of atomic charges:    0.0000000

LOEWDIN ATOMIC CHARGES
----------------------
   0 C :   -0.236726
   1 H :    0.105010
   2 C :   -0.121909
   3 C :   -0.202547
   4 H :    0.107222
   5 C :   -0.195515
   6 C :   -0.196102
   7 H :    0.112191
   8 H :    0.107056
   9 C :   -0.189919
  10 H :    0.110596
  11 H :    0.106960
  12 C :   -0.083999
  13 C :   -0.456174
  14 H :    0.125171
  15 H :    0.118370
  16 H :    0.022399
  17 H :    0.035886
  18 H :    0.070890
  19 F :    0.174800
  20 O :    0.064609
  21 H :    0.114624
  22 H :    0.097516
  23 H :    0.100602
  24 H :    0.108991

  Mayer bond orders larger than 0.100000
B(  0-C ,  1-H ) :   0.9585 B(  0-C ,  2-C ) :   0.4250 B(  0-C ,  3-C ) :   0.9034
B(  0-C ,  4-H ) :   0.9670 B(  0-C ,  5-C ) :   0.2960 B(  2-C , 16-H ) :   0.8191
B(  2-C , 17-H ) :   0.8413 B(  2-C , 18-H ) :   0.8832 B(  3-C ,  5-C ) :   0.4716
B(  3-C ,  6-C ) :   0.1780 B(  3-C , 23-H ) :   1.0440 B(  3-C , 24-H ) :   0.8841
B(  5-C ,  6-C ) :   0.8925 B(  5-C , 21-H ) :   0.9495 B(  5-C , 22-H ) :   0.9480
B(  6-C ,  7-H ) :   0.9946 B(  6-C ,  8-H ) :   0.9669 B(  6-C ,  9-C ) :   0.8800
B(  9-C , 10-H ) :   0.9801 B(  9-C , 11-H ) :   0.9282 B(  9-C , 12-C ) :   0.8379
B(  9-C , 13-C ) :   0.1032 B( 12-C , 13-C ) :   0.9269 B( 12-C , 14-H ) :   0.8871
B( 12-C , 15-H ) :   1.0274 B( 13-C , 19-F ) :   0.8413 B( 13-C , 20-O ) :   1.6597
B( 16-H , 20-O ) :  -0.1551

Dispersion correction           -0.042805814
FINAL SINGLE POINT ENERGY      -488.844135256889

DIPOLE MOMENT
-------------
                                X             Y             Z
Electronic contribution:      0.35121      -1.98300     -10.57131
Nuclear contribution   :     -1.21560       2.80077      10.24180
                        -----------------------------------------
Total Dipole Moment    :     -0.86439       0.81777      -0.32950
                        -----------------------------------------
Magnitude (a.u.)       :      1.23470
Magnitude (Debye)      :      3.13837

Rotational constants in cm-1:     0.051255     0.042531     0.028894
Rotational constants in MHz :  1536.587743  1275.050721   866.218876

                             ****ORCA TERMINATED NORMALLY****
TOTAL RUN TIME: 0 days 0 hours 3 minutes 13 seconds 730 msec
