                         Program Version 5.0.0 -  RELEASE  -
|  1> !B3LYP D3BJ RIJCOSX def2-TZVPD def2/J TightSCF xyzfile
|  2>
|  3> *xyzfile 0 1 D2.xyz
|  4>
|  5> %MaxCore 64000
|  6>
|  7> %pal nprocs 4
|  8> end
|  9>
| 10> %scf
| 11>   MaxIter 150
| 12> end
| 13>
| 14>
| 15>                          ****END OF INPUT****

CARTESIAN COORDINATES (ANGSTROEM)
---------------------------------
  C      0.816067   -2.101491   -2.186546
  H      1.696232   -2.368691   -1.600457
  C      1.100552   -2.467492   -3.599269
  C      0.516243   -0.613634   -2.039373
  H     -0.020066   -2.712849   -1.840844
  C     -0.868621   -0.193925   -2.546303
  C     -0.984801    1.284739   -2.928686
  H     -0.764939    1.904116   -2.051568
  H     -2.032613    1.478953   -3.178952
  C     -0.106085    1.769914   -4.089836
  H     -0.347744    2.822196   -4.262942
  H      0.949683    1.745875   -3.808781
  C     -0.258747    1.004323   -5.409829
  C      0.395958   -0.370696   -5.339939
  H      0.239150    1.569393   -6.201253
  H     -1.309360    0.888694   -5.682455
  H      1.700606   -1.757225   -4.078378
  H      0.293855   -2.359766   -4.256324
  H      1.501324   -3.428479   -3.694915
  O     -0.326329   -1.390398   -5.491279
  F      1.619412   -0.400726   -5.036827
  H     -1.607271   -0.412651   -1.768955
  H     -1.157234   -0.796164   -3.409254
  H      1.299044   -0.056805   -2.558982
  H      0.612393   -0.365579   -0.979171

 Total Charge           Charge          ....    0
 Multiplicity           Mult            ....    1
 Number of Electrons    NEL             ....   80
 Basis Dimension        Dim             ....  511

ORBITAL ENERGIES
----------------

  NO   OCC          E(Eh)            E(eV)
   0   2.0000     -24.759097      -673.7293
   1   2.0000     -19.136933      -520.7424
   2   2.0000     -10.355344      -281.7832
   3   2.0000     -10.203149      -277.6418
   4   2.0000     -10.186654      -277.1929
   5   2.0000     -10.171083      -276.7692
   6   2.0000     -10.158096      -276.4158
   7   2.0000     -10.153575      -276.2928
   8   2.0000     -10.141353      -275.9603
   9   2.0000     -10.092115      -274.6204
  10   2.0000      -1.331388       -36.2289
  11   2.0000      -1.045988       -28.4628
  12   2.0000      -0.827342       -22.5131
  13   2.0000      -0.794049       -21.6072
  14   2.0000      -0.745553       -20.2875
  15   2.0000      -0.706318       -19.2199
  16   2.0000      -0.666338       -18.1320
  17   2.0000      -0.638787       -17.3823
  18   2.0000      -0.600350       -16.3364
  19   2.0000      -0.563237       -15.3265
  20   2.0000      -0.560003       -15.2384
  21   2.0000      -0.545229       -14.8364
  22   2.0000      -0.512764       -13.9530
  23   2.0000      -0.478920       -13.0321
  24   2.0000      -0.457353       -12.4452
  25   2.0000      -0.444005       -12.0820
  26   2.0000      -0.439554       -11.9609
  27   2.0000      -0.430138       -11.7047
  28   2.0000      -0.415373       -11.3029
  29   2.0000      -0.392857       -10.6902
  30   2.0000      -0.385358       -10.4861
  31   2.0000      -0.376878       -10.2554
  32   2.0000      -0.369040       -10.0421
  33   2.0000      -0.350890        -9.5482
  34   2.0000      -0.332586        -9.0501
  35   2.0000      -0.329520        -8.9667
  36   2.0000      -0.317847        -8.6491
  37   2.0000      -0.303414        -8.2563
  38   2.0000      -0.301659        -8.2085
  39   2.0000      -0.266234        -7.2446
  40   0.0000      -0.044571        -1.2128
  41   0.0000      -0.000484        -0.0132
  42   0.0000       0.019631         0.5342
  43   0.0000       0.020422         0.5557
  44   0.0000       0.025132         0.6839

MULLIKEN ATOMIC CHARGES
-----------------------
   0 C :   -0.137320
   1 H :    0.198241
   2 C :   -1.676745
   3 C :   -0.317026
   4 H :    0.190046
   5 C :   -0.578388
   6 C :   -0.451255
   7 H :    0.214112
   8 H :    0.247876
   9 C :   -0.540537
  10 H :    0.206827
  11 H :    0.255563
  12 C :   -0.290827
  13 C :    0.604915
  14 H :    0.283971
  15 H :    0.184007
  16 H :    0.467207
  17 H :    0.587986
  18 H :    0.351526
  19 O :   -0.577495
  20 F :   -0.297566
  21 H :    0.294872
  22 H :    0.328029
  23 H :    0.149545
  24 H :    0.302435
Sum of atomic charges:    0.0000000

LOEWDIN ATOMIC CHARGES
----------------------
   0 C :   -0.237027
   1 H :    0.102959
   2 C :   -0.118944
   3 C :   -0.203210
   4 H :    0.110011
   5 C :   -0.195243
   6 C :   -0.195249
   7 H :    0.110955
   8 H :    0.108919
   9 C :   -0.194437
  10 H :    0.109842
  11 H :    0.103545
  12 C :   -0.078454
  13 C :   -0.461616
  14 H :    0.122212
  15 H :    0.126954
  16 H :    0.039623
  17 H :    0.020294
  18 H :    0.071876
  19 O :    0.057885
  20 F :    0.179229
  21 H :    0.114563
  22 H :    0.098797
  23 H :    0.097708
  24 H :    0.108807

  Mayer bond orders larger than 0.100000
B(  0-C ,  1-H ) :   0.9700 B(  0-C ,  2-C ) :   0.4200 B(  0-C ,  3-C ) :   0.9094
B(  0-C ,  4-H ) :   0.9625 B(  0-C ,  5-C ) :   0.2619 B(  2-C , 16-H ) :   0.8749
B(  2-C , 17-H ) :   0.8050 B(  2-C , 18-H ) :   0.8744 B(  3-C ,  5-C ) :   0.4779
B(  3-C ,  6-C ) :   0.1611 B(  3-C ,  9-C ) :   0.1008 B(  3-C , 23-H ) :   1.0501
B(  3-C , 24-H ) :   0.8897 B(  5-C ,  6-C ) :   0.8933 B(  5-C , 21-H ) :   0.9435
B(  5-C , 22-H ) :   0.9694 B(  6-C ,  7-H ) :   1.0026 B(  6-C ,  8-H ) :   0.9636
B(  6-C ,  9-C ) :   0.8826 B(  9-C , 10-H ) :   1.0030 B(  9-C , 11-H ) :   0.9221
B(  9-C , 12-C ) :   0.8016 B( 12-C , 13-C ) :   0.9336 B( 12-C , 14-H ) :   0.8939
B( 12-C , 15-H ) :   1.0423 B( 13-C , 19-O ) :   1.6328 B( 13-C , 20-F ) :   0.8356
B( 17-H , 19-O ) :  -0.1239

Dispersion correction           -0.042715430
FINAL SINGLE POINT ENERGY      -488.844264884681

DIPOLE MOMENT
-------------
                                X             Y             Z
Electronic contribution:      3.59219      -0.32659      -9.80865
Nuclear contribution   :     -3.57245       1.60200       9.69133
                        -----------------------------------------
Total Dipole Moment    :      0.01975       1.27541      -0.11732
                        -----------------------------------------
Magnitude (a.u.)       :      1.28094
Magnitude (Debye)      :      3.25590

Rotational constants in cm-1:     0.051520     0.042563     0.028962
Rotational constants in MHz :  1544.537298  1275.996546   868.258224

                             ****ORCA TERMINATED NORMALLY****
TOTAL RUN TIME: 0 days 0 hours 3 minutes 23 seconds 921 msec
