                         Program Version 5.0.0 -  RELEASE  -
|  1> !wB97X-D3 RIJCOSX def2-SVP def2/J TightSCF
|  2> *xyz -1 1
|  3> C          3.84189       -6.95161       -3.63283
|  4> S          4.31812       -6.91593       -5.36869
|  5> O          5.40615       -5.89948       -5.51297
|  6> O          3.11191       -6.44508       -6.04379
|  7> O          4.76340       -8.23942       -5.69863
|  8> H          3.06224       -7.67071       -3.49159
|  9> H          3.49217       -5.98401       -3.33897
| 10> H          4.68822       -7.22131       -3.03626
| 11> *
| 12>
| 13> %MaxCore 64000
| 14>
| 15> %pal nprocs 8
| 16> end
| 17>
| 18> %scf
| 19>   MaxIter 150
| 20> end
| 21>
| 22>
| 23>                          ****END OF INPUT****

CARTESIAN COORDINATES (ANGSTROEM)
---------------------------------
  C      3.841890   -6.951610   -3.632830
  S      4.318120   -6.915930   -5.368690
  O      5.406150   -5.899480   -5.512970
  O      3.111910   -6.445080   -6.043790
  O      4.763400   -8.239420   -5.698630
  H      3.062240   -7.670710   -3.491590
  H      3.492170   -5.984010   -3.338970
  H      4.688220   -7.221310   -3.036260

 Total Charge           Charge          ....   -1
 Multiplicity           Mult            ....    1
 Number of Electrons    NEL             ....   50
 Basis Dimension        Dim             ....   89

ORBITAL ENERGIES
----------------

  NO   OCC          E(Eh)            E(eV)
   0   2.0000     -88.937106     -2420.1017
   1   2.0000     -18.990821      -516.7665
   2   2.0000     -18.978773      -516.4387
   3   2.0000     -18.970513      -516.2139
   4   2.0000     -10.128406      -275.6079
   5   2.0000      -8.017261      -218.1608
   6   2.0000      -5.976418      -162.6266
   7   2.0000      -5.976098      -162.6179
   8   2.0000      -5.975949      -162.6138
   9   2.0000      -1.013721       -27.5848
  10   2.0000      -0.872585       -23.7443
  11   2.0000      -0.840535       -22.8721
  12   2.0000      -0.681987       -18.5578
  13   2.0000      -0.471892       -12.8408
  14   2.0000      -0.378593       -10.3020
  15   2.0000      -0.377252       -10.2656
  16   2.0000      -0.375068       -10.2061
  17   2.0000      -0.321450        -8.7471
  18   2.0000      -0.319068        -8.6823
  19   2.0000      -0.215869        -5.8741
  20   2.0000      -0.213212        -5.8018
  21   2.0000      -0.181337        -4.9344
  22   2.0000      -0.172557        -4.6955
  23   2.0000      -0.160768        -4.3747
  24   2.0000      -0.123332        -3.3560
  25   0.0000       0.310408         8.4466
  26   0.0000       0.359152         9.7730
  27   0.0000       0.362448         9.8627
  28   0.0000       0.395779        10.7697
  29   0.0000       0.469973        12.7886

MULLIKEN ATOMIC CHARGES
-----------------------
   0 C :   -0.076830
   1 S :    0.868770
   2 O :   -0.640606
   3 O :   -0.612894
   4 O :   -0.579854
   5 H :    0.012941
   6 H :    0.017853
   7 H :    0.010620
Sum of atomic charges:   -1.0000000

LOEWDIN ATOMIC CHARGES
----------------------
   0 C :   -0.211689
   1 S :    1.109185
   2 O :   -0.672791
   3 O :   -0.640664
   4 O :   -0.609789
   5 H :    0.008284
   6 H :    0.010912
   7 H :    0.006552

  Mayer bond orders larger than 0.100000
B(  0-C ,  1-S ) :   0.9039 B(  0-C ,  5-H ) :   0.9640 B(  0-C ,  6-H ) :   0.9671
B(  0-C ,  7-H ) :   0.9648 B(  1-S ,  2-O ) :   1.5795 B(  1-S ,  3-O ) :   1.6122
B(  1-S ,  4-O ) :   1.6447

Dispersion correction           -0.001521422
FINAL SINGLE POINT ENERGY      -663.356145756597

DIPOLE MOMENT
-------------
                                X             Y             Z
Electronic contribution:      1.11290      -0.06110      -4.20111
Nuclear contribution   :     -1.53523      -0.17928       5.57610
                        -----------------------------------------
Total Dipole Moment    :     -0.42233      -0.24038       1.37499
                        -----------------------------------------
Magnitude (a.u.)       :      1.45834
Magnitude (Debye)      :      3.70681

Rotational constants in cm-1:     0.172657     0.156250     0.152500
Rotational constants in MHz :  5176.120042  4684.252187  4571.835124

                             ****ORCA TERMINATED NORMALLY****
TOTAL RUN TIME: 0 days 0 hours 0 minutes 5 seconds 945 msec
