                         Program Version 5.0.0 -  RELEASE  -
|  1> !wB97X-D3 RIJCOSX def2-SVP def2/J TightSCF
|  2> *xyz 1 1
|  3> C          5.55821       -1.99291       -6.21505
|  4> C          4.18188       -2.58967       -6.29891
|  5> N          3.14587       -1.76843       -6.48675
|  6> N          4.01910       -3.86431       -6.22743
|  7> H          4.76849       -4.59115       -5.99077
|  8> H          3.12241       -4.33339       -6.31462
|  9> H          3.28164       -0.77779       -6.56655
| 10> H          2.21255       -2.13419       -6.56225
| 11> H          5.49055       -0.92791       -6.29315
| 12> H          6.16046       -2.37160       -7.01429
| 13> H          6.00378       -2.25423       -5.27799
| 14> *
| 15>
| 16> %MaxCore 64000
| 17>
| 18> %pal nprocs 8
| 19> end
| 20>
| 21> %scf
| 22>   MaxIter 150
| 23> end
| 24>
| 25>
| 26>                          ****END OF INPUT****

CARTESIAN COORDINATES (ANGSTROEM)
---------------------------------
  C      5.558210   -1.992910   -6.215050
  C      4.181880   -2.589670   -6.298910
  N      3.145870   -1.768430   -6.486750
  N      4.019100   -3.864310   -6.227430
  H      4.768490   -4.591150   -5.990770
  H      3.122410   -4.333390   -6.314620
  H      3.281640   -0.777790   -6.566550
  H      2.212550   -2.134190   -6.562250
  H      5.490550   -0.927910   -6.293150
  H      6.160460   -2.371600   -7.014290
  H      6.003780   -2.254230   -5.277990

 Total Charge           Charge          ....    1
 Multiplicity           Mult            ....    1
 Number of Electrons    NEL             ....   32
 Basis Dimension        Dim             ....   91

ORBITAL ENERGIES
----------------

  NO   OCC          E(Eh)            E(eV)
   0   2.0000     -14.694041      -399.8452
   1   2.0000     -14.682370      -399.5276
   2   2.0000     -10.624331      -289.1027
   3   2.0000     -10.486498      -285.3521
   4   2.0000      -1.319624       -35.9088
   5   2.0000      -1.217923       -33.1414
   6   2.0000      -1.063279       -28.9333
   7   2.0000      -0.953193       -25.9377
   8   2.0000      -0.884941       -24.0805
   9   2.0000      -0.866906       -23.5897
  10   2.0000      -0.800814       -21.7913
  11   2.0000      -0.764473       -20.8024
  12   2.0000      -0.711370       -19.3574
  13   2.0000      -0.697815       -18.9885
  14   2.0000      -0.673970       -18.3397
  15   2.0000      -0.590441       -16.0667
  16   0.0000      -0.122305        -3.3281
  17   0.0000      -0.059031        -1.6063
  18   0.0000      -0.018896        -0.5142
  19   0.0000      -0.008512        -0.2316
  20   0.0000       0.016610         0.4520

MULLIKEN ATOMIC CHARGES
-----------------------
   0 C :    0.040469
   1 C :   -0.048772
   2 N :   -0.041895
   3 N :   -0.051040
   4 H :    0.231363
   5 H :    0.188492
   6 H :    0.193517
   7 H :    0.180594
   8 H :    0.074556
   9 H :    0.118915
  10 H :    0.113802
Sum of atomic charges:    1.0000000

LOEWDIN ATOMIC CHARGES
----------------------
   0 C :   -0.025275
   1 C :    0.158193
   2 N :    0.085446
   3 N :    0.079667
   4 H :    0.157715
   5 H :    0.117137
   6 H :    0.117213
   7 H :    0.109751
   8 H :    0.056743
   9 H :    0.072553
  10 H :    0.070857

  Mayer bond orders larger than 0.100000
B(  0-C ,  1-C ) :   1.0422 B(  0-C ,  8-H ) :   0.9488 B(  0-C ,  9-H ) :   0.9444
B(  0-C , 10-H ) :   0.9428 B(  1-C ,  2-N ) :   1.4858 B(  1-C ,  3-N ) :   1.5129
B(  2-N ,  6-H ) :   0.9229 B(  2-N ,  7-H ) :   0.9340 B(  3-N ,  4-H ) :   0.9124
B(  3-N ,  5-H ) :   0.9311

Dispersion correction           -0.001690608
FINAL SINGLE POINT ENERGY      -189.524882573201

DIPOLE MOMENT
-------------
                                X             Y             Z
Electronic contribution:     -1.91554      -0.90795      -0.11436
Nuclear contribution   :      1.48163       0.51565       0.12876
                        -----------------------------------------
Total Dipole Moment    :     -0.43391      -0.39229       0.01440
                        -----------------------------------------
Magnitude (a.u.)       :      0.58513
Magnitude (Debye)      :      1.48729

Rotational constants in cm-1:     0.329497     0.300036     0.161709
Rotational constants in MHz :  9878.065920  8994.849253  4847.907140

                             ****ORCA TERMINATED NORMALLY****
TOTAL RUN TIME: 0 days 0 hours 0 minutes 6 seconds 295 msec
