                         Program Version 5.0.0 -  RELEASE  -
|  1> !wB97X-D3 RIJCOSX def2-SVP def2/J TightSCF
|  2> *xyz 0 1
|  3> C          3.84189       -6.95161       -3.63283
|  4> S          4.31812       -6.91593       -5.36869
|  5> F          5.40615       -5.89948       -5.51297
|  6> O          3.11191       -6.44508       -6.04379
|  7> O          4.76340       -8.23942       -5.69863
|  8> H          3.06224       -7.67071       -3.49159
|  9> H          3.49217       -5.98401       -3.33897
| 10> H          4.68822       -7.22131       -3.03626
| 11> *
| 12>
| 13> %MaxCore 64000
| 14>
| 15> %pal nprocs 8
| 16> end
| 17>
| 18> %scf
| 19>   MaxIter 150
| 20> end
| 21>
| 22>
| 23>                          ****END OF INPUT****

CARTESIAN COORDINATES (ANGSTROEM)
---------------------------------
  C      3.841890   -6.951610   -3.632830
  S      4.318120   -6.915930   -5.368690
  F      5.406150   -5.899480   -5.512970
  O      3.111910   -6.445080   -6.043790
  O      4.763400   -8.239420   -5.698630
  H      3.062240   -7.670710   -3.491590
  H      3.492170   -5.984010   -3.338970
  H      4.688220   -7.221310   -3.036260

 Total Charge           Charge          ....    0
 Multiplicity           Mult            ....    1
 Number of Electrons    NEL             ....   50
 Basis Dimension        Dim             ....   89

ORBITAL ENERGIES
----------------

  NO   OCC          E(Eh)            E(eV)
   0   2.0000     -89.217610     -2427.7346
   1   2.0000     -24.886510      -677.1964
   2   2.0000     -19.250070      -523.8210
   3   2.0000     -19.238298      -523.5007
   4   2.0000     -10.347569      -281.5717
   5   2.0000      -8.299828      -225.8498
   6   2.0000      -6.262697      -170.4166
   7   2.0000      -6.256395      -170.2452
   8   2.0000      -6.255815      -170.2294
   9   2.0000      -1.447433       -39.3866
  10   2.0000      -1.226484       -33.3743
  11   2.0000      -1.126508       -30.6538
  12   2.0000      -0.911371       -24.7997
  13   2.0000      -0.802251       -21.8304
  14   2.0000      -0.691136       -18.8068
  15   2.0000      -0.661375       -17.9969
  16   2.0000      -0.648563       -17.6483
  17   2.0000      -0.578533       -15.7427
  18   2.0000      -0.573933       -15.6175
  19   2.0000      -0.565595       -15.3906
  20   2.0000      -0.533611       -14.5203
  21   2.0000      -0.482633       -13.1331
  22   2.0000      -0.432996       -11.7824
  23   2.0000      -0.421087       -11.4584
  24   2.0000      -0.406420       -11.0593
  25   0.0000       0.106148         2.8884
  26   0.0000       0.146366         3.9828
  27   0.0000       0.163343         4.4448
  28   0.0000       0.177735         4.8364
  29   0.0000       0.185711         5.0534

MULLIKEN ATOMIC CHARGES
-----------------------
   0 C :   -0.097144
   1 S :    0.946146
   2 F :   -0.223093
   3 O :   -0.471506
   4 O :   -0.438725
   5 H :    0.114017
   6 H :    0.087788
   7 H :    0.082517
Sum of atomic charges:    0.0000000

LOEWDIN ATOMIC CHARGES
----------------------
   0 C :   -0.152960
   1 S :    1.174651
   2 F :   -0.169914
   3 O :   -0.509778
   4 O :   -0.478967
   5 H :    0.057560
   6 H :    0.041555
   7 H :    0.037853

  Mayer bond orders larger than 0.100000
B(  0-C ,  1-S ) :   0.9361 B(  0-C ,  5-H ) :   0.9574 B(  0-C ,  6-H ) :   0.9555
B(  0-C ,  7-H ) :   0.9551 B(  1-S ,  2-F ) :   0.9663 B(  1-S ,  3-O ) :   1.7679
B(  1-S ,  4-O ) :   1.7999

Dispersion correction           -0.001526478
FINAL SINGLE POINT ENERGY      -687.875684672548

DIPOLE MOMENT
-------------
                                X             Y             Z
Electronic contribution:      2.91405       1.61157      -4.31652
Nuclear contribution   :     -2.64549      -1.17311       5.81218
                        -----------------------------------------
Total Dipole Moment    :      0.26857       0.43846       1.49566
                        -----------------------------------------
Magnitude (a.u.)       :      1.58158
Magnitude (Debye)      :      4.02005

Rotational constants in cm-1:     0.165958     0.149400     0.146699
Rotational constants in MHz :  4975.281722  4478.884828  4397.931002

                             ****ORCA TERMINATED NORMALLY****
TOTAL RUN TIME: 0 days 0 hours 0 minutes 6 seconds 94 msec
