                         Program Version 5.0.0 -  RELEASE  -
|  1> !wB97X-D3 RIJCOSX def2-SVP def2/J TightSCF
|  2> *xyz 0 1
|  3> C          5.55821       -1.99291       -6.21505
|  4> C          4.18188       -2.58967       -6.29891
|  5> C          3.14587       -1.76843       -6.48675
|  6> N          4.01910       -3.86431       -6.22743
|  7> H          4.76849       -4.59115       -5.99077
|  8> H          3.12241       -4.33339       -6.31462
|  9> H          3.28164       -0.77779       -6.56655
| 10> H          2.21255       -2.13419       -6.56225
| 11> H          5.49055       -0.92791       -6.29315
| 12> H          6.16046       -2.37160       -7.01429
| 13> H          6.00378       -2.25423       -5.27799
| 14> *
| 15>
| 16> %MaxCore 64000
| 17>
| 18> %pal nprocs 8
| 19> end
| 20>
| 21> %scf
| 22>   MaxIter 150
| 23> end
| 24>
| 25>
| 26>                          ****END OF INPUT****

CARTESIAN COORDINATES (ANGSTROEM)
---------------------------------
  C      5.558210   -1.992910   -6.215050
  C      4.181880   -2.589670   -6.298910
  C      3.145870   -1.768430   -6.486750
  N      4.019100   -3.864310   -6.227430
  H      4.768490   -4.591150   -5.990770
  H      3.122410   -4.333390   -6.314620
  H      3.281640   -0.777790   -6.566550
  H      2.212550   -2.134190   -6.562250
  H      5.490550   -0.927910   -6.293150
  H      6.160460   -2.371600   -7.014290
  H      6.003780   -2.254230   -5.277990

 Total Charge           Charge          ....    0
 Multiplicity           Mult            ....    1
 Number of Electrons    NEL             ....   32
 Basis Dimension        Dim             ....   91

ORBITAL ENERGIES
----------------

  NO   OCC          E(Eh)            E(eV)
   0   2.0000     -14.437782      -392.8720
   1   2.0000     -10.308801      -280.5167
   2   2.0000     -10.276850      -279.6473
   3   2.0000     -10.211567      -277.8709
   4   2.0000      -1.035535       -28.1784
   5   2.0000      -0.858912       -23.3722
   6   2.0000      -0.786503       -21.4018
   7   2.0000      -0.684153       -18.6167
   8   2.0000      -0.608676       -16.5629
   9   2.0000      -0.568889       -15.4803
  10   2.0000      -0.529940       -14.4204
  11   2.0000      -0.491182       -13.3657
  12   2.0000      -0.481346       -13.0981
  13   2.0000      -0.439327       -11.9547
  14   2.0000      -0.431525       -11.7424
  15   2.0000      -0.265693        -7.2299
  16   0.0000       0.136584         3.7166
  17   0.0000       0.152085         4.1385
  18   0.0000       0.185360         5.0439
  19   0.0000       0.188901         5.1403
  20   0.0000       0.215704         5.8696

MULLIKEN ATOMIC CHARGES
-----------------------
   0 C :    0.080275
   1 C :   -0.164638
   2 C :   -0.074436
   3 N :   -0.124511
   4 H :    0.137953
   5 H :    0.126598
   6 H :   -0.028864
   7 H :   -0.039377
   8 H :    0.027479
   9 H :    0.032349
  10 H :    0.027173
Sum of atomic charges:   -0.0000000

LOEWDIN ATOMIC CHARGES
----------------------
   0 C :   -0.040229
   1 C :    0.000244
   2 C :   -0.189746
   3 N :   -0.020145
   4 H :    0.094186
   5 H :    0.078698
   6 H :   -0.004348
   7 H :   -0.010014
   8 H :    0.036367
   9 H :    0.028426
  10 H :    0.026560

  Mayer bond orders larger than 0.100000
B(  0-C ,  1-C ) :   1.0333 B(  0-C ,  8-H ) :   0.9607 B(  0-C ,  9-H ) :   0.9590
B(  0-C , 10-H ) :   0.9571 B(  1-C ,  2-C ) :   1.8434 B(  1-C ,  3-N ) :   1.2549
B(  2-C ,  6-H ) :   0.9510 B(  2-C ,  7-H ) :   0.9651 B(  3-N ,  4-H ) :   0.9510
B(  3-N ,  5-H ) :   0.9540

Dispersion correction           -0.001701739
FINAL SINGLE POINT ENERGY      -173.063659995673

DIPOLE MOMENT
-------------
                                X             Y             Z
Electronic contribution:     -0.83664      -1.54755       0.05430
Nuclear contribution   :      1.24351       0.69391       0.08872
                        -----------------------------------------
Total Dipole Moment    :      0.40687      -0.85364       0.14301
                        -----------------------------------------
Magnitude (a.u.)       :      0.95640
Magnitude (Debye)      :      2.43098

Rotational constants in cm-1:     0.350694     0.303314     0.167659
Rotational constants in MHz : 10513.535482  9093.138449  5026.287342

                             ****ORCA TERMINATED NORMALLY****
TOTAL RUN TIME: 0 days 0 hours 0 minutes 6 seconds 219 msec
