                         Program Version 5.0.0 -  RELEASE  -
|  1> !wB97X-D3 RIJCOSX def2-SVP def2/J TightSCF
|  2> *xyz 0 1
|  3> C          3.84189       -6.95161       -3.63283
|  4> S          4.31812       -6.91593       -5.36869
|  5> O          5.40615       -5.89948       -5.51297
|  6> F          3.11191       -6.44508       -6.04379
|  7> O          4.76340       -8.23942       -5.69863
|  8> H          3.06224       -7.67071       -3.49159
|  9> H          3.49217       -5.98401       -3.33897
| 10> H          4.68822       -7.22131       -3.03626
| 11> *
| 12>
| 13> %MaxCore 64000
| 14>
| 15> %pal nprocs 8
| 16> end
| 17>
| 18> %scf
| 19>   MaxIter 150
| 20> end
| 21>
| 22>
| 23>                          ****END OF INPUT****

CARTESIAN COORDINATES (ANGSTROEM)
---------------------------------
  C      3.841890   -6.951610   -3.632830
  S      4.318120   -6.915930   -5.368690
  O      5.406150   -5.899480   -5.512970
  F      3.111910   -6.445080   -6.043790
  O      4.763400   -8.239420   -5.698630
  H      3.062240   -7.670710   -3.491590
  H      3.492170   -5.984010   -3.338970
  H      4.688220   -7.221310   -3.036260

 Total Charge           Charge          ....    0
 Multiplicity           Mult            ....    1
 Number of Electrons    NEL             ....   50
 Basis Dimension        Dim             ....   89

ORBITAL ENERGIES
----------------

  NO   OCC          E(Eh)            E(eV)
   0   2.0000     -89.218807     -2427.7672
   1   2.0000     -24.901114      -677.5938
   2   2.0000     -19.249399      -523.8028
   3   2.0000     -19.230152      -523.2790
   4   2.0000     -10.348199      -281.5888
   5   2.0000      -8.301133      -225.8853
   6   2.0000      -6.264228      -170.4583
   7   2.0000      -6.257650      -170.2793
   8   2.0000      -6.256793      -170.2560
   9   2.0000      -1.475264       -40.1440
  10   2.0000      -1.219972       -33.1971
  11   2.0000      -1.106948       -30.1216
  12   2.0000      -0.915629       -24.9155
  13   2.0000      -0.814860       -22.1735
  14   2.0000      -0.702117       -19.1056
  15   2.0000      -0.680926       -18.5289
  16   2.0000      -0.653153       -17.7732
  17   2.0000      -0.579574       -15.7710
  18   2.0000      -0.574964       -15.6456
  19   2.0000      -0.563493       -15.3334
  20   2.0000      -0.528505       -14.3814
  21   2.0000      -0.479521       -13.0484
  22   2.0000      -0.430577       -11.7166
  23   2.0000      -0.411673       -11.2022
  24   2.0000      -0.393129       -10.6976
  25   0.0000       0.118022         3.2115
  26   0.0000       0.147746         4.0204
  27   0.0000       0.158260         4.3065
  28   0.0000       0.170102         4.6287
  29   0.0000       0.183172         4.9844

MULLIKEN ATOMIC CHARGES
-----------------------
   0 C :   -0.099825
   1 S :    0.938775
   2 O :   -0.494703
   3 F :   -0.194116
   4 O :   -0.434978
   5 H :    0.085824
   6 H :    0.086861
   7 H :    0.112163
Sum of atomic charges:   -0.0000000

LOEWDIN ATOMIC CHARGES
----------------------
   0 C :   -0.156112
   1 S :    1.171497
   2 O :   -0.538816
   3 F :   -0.137556
   4 O :   -0.476579
   5 H :    0.040167
   6 H :    0.041021
   7 H :    0.056378

  Mayer bond orders larger than 0.100000
B(  0-C ,  1-S ) :   0.9322 B(  0-C ,  5-H ) :   0.9529 B(  0-C ,  6-H ) :   0.9549
B(  0-C ,  7-H ) :   0.9588 B(  1-S ,  2-O ) :   1.7332 B(  1-S ,  3-F ) :   1.0010
B(  1-S ,  4-O ) :   1.7973

Dispersion correction           -0.001533927
FINAL SINGLE POINT ENERGY      -687.864049905429

DIPOLE MOMENT
-------------
                                X             Y             Z
Electronic contribution:     -0.95111       0.69055      -5.22081
Nuclear contribution   :     -0.35339      -0.62802       6.34251
                        -----------------------------------------
Total Dipole Moment    :     -1.30450       0.06253       1.12169
                        -----------------------------------------
Magnitude (a.u.)       :      1.72158
Magnitude (Debye)      :      4.37590

Rotational constants in cm-1:     0.162638     0.154373     0.145390
Rotational constants in MHz :  4875.774584  4627.990015  4358.691210

                             ****ORCA TERMINATED NORMALLY****
TOTAL RUN TIME: 0 days 0 hours 0 minutes 6 seconds 361 msec
