                         Program Version 5.0.0 -  RELEASE  -
|  1> !wB97X-D3 RIJCOSX def2-SVP def2/J TightSCF
|  2> *xyz 0 1
|  3> C          5.55821       -1.99291       -6.21505
|  4> C          4.18188       -2.58967       -6.29891
|  5> N          3.14587       -1.76843       -6.48675
|  6> C          4.01910       -3.86431       -6.22743
|  7> H          4.76849       -4.59115       -5.99077
|  8> H          3.12241       -4.33339       -6.31462
|  9> H          3.28164       -0.77779       -6.56655
| 10> H          2.21255       -2.13419       -6.56225
| 11> H          5.49055       -0.92791       -6.29315
| 12> H          6.16046       -2.37160       -7.01429
| 13> H          6.00378       -2.25423       -5.27799
| 14> *
| 15>
| 16> %MaxCore 64000
| 17>
| 18> %pal nprocs 8
| 19> end
| 20>
| 21> %scf
| 22>   MaxIter 150
| 23> end
| 24>
| 25>
| 26>                          ****END OF INPUT****

CARTESIAN COORDINATES (ANGSTROEM)
---------------------------------
  C      5.558210   -1.992910   -6.215050
  C      4.181880   -2.589670   -6.298910
  N      3.145870   -1.768430   -6.486750
  C      4.019100   -3.864310   -6.227430
  H      4.768490   -4.591150   -5.990770
  H      3.122410   -4.333390   -6.314620
  H      3.281640   -0.777790   -6.566550
  H      2.212550   -2.134190   -6.562250
  H      5.490550   -0.927910   -6.293150
  H      6.160460   -2.371600   -7.014290
  H      6.003780   -2.254230   -5.277990

 Total Charge           Charge          ....    0
 Multiplicity           Mult            ....    1
 Number of Electrons    NEL             ....   32
 Basis Dimension        Dim             ....   91

ORBITAL ENERGIES
----------------

  NO   OCC          E(Eh)            E(eV)
   0   2.0000     -14.425938      -392.5497
   1   2.0000     -10.305808      -280.4353
   2   2.0000     -10.277645      -279.6689
   3   2.0000     -10.217794      -278.0403
   4   2.0000      -1.025236       -27.8981
   5   2.0000      -0.861910       -23.4538
   6   2.0000      -0.793143       -21.5825
   7   2.0000      -0.665881       -18.1195
   8   2.0000      -0.620979       -16.8977
   9   2.0000      -0.574082       -15.6216
  10   2.0000      -0.527492       -14.3538
  11   2.0000      -0.489702       -13.3255
  12   2.0000      -0.485680       -13.2160
  13   2.0000      -0.434840       -11.8326
  14   2.0000      -0.425443       -11.5769
  15   2.0000      -0.272864        -7.4250
  16   0.0000       0.144529         3.9328
  17   0.0000       0.148604         4.0437
  18   0.0000       0.190462         5.1827
  19   0.0000       0.196745         5.3537
  20   0.0000       0.225043         6.1237

MULLIKEN ATOMIC CHARGES
-----------------------
   0 C :    0.073297
   1 C :   -0.114935
   2 N :   -0.126466
   3 C :   -0.137701
   4 H :    0.000534
   5 H :   -0.031006
   6 H :    0.114656
   7 H :    0.120626
   8 H :    0.000904
   9 H :    0.051866
  10 H :    0.048226
Sum of atomic charges:   -0.0000000

LOEWDIN ATOMIC CHARGES
----------------------
   0 C :   -0.041039
   1 C :    0.006119
   2 N :   -0.021398
   3 C :   -0.189582
   4 H :    0.014434
   5 H :   -0.005151
   6 H :    0.065256
   7 H :    0.074553
   8 H :    0.018566
   9 H :    0.039303
  10 H :    0.038938

  Mayer bond orders larger than 0.100000
B(  0-C ,  1-C ) :   1.0077 B(  0-C ,  8-H ) :   0.9618 B(  0-C ,  9-H ) :   0.9666
B(  0-C , 10-H ) :   0.9637 B(  1-C ,  2-N ) :   1.2367 B(  1-C ,  3-C ) :   1.8876
B(  2-N ,  6-H ) :   0.9558 B(  2-N ,  7-H ) :   0.9558 B(  3-C ,  4-H ) :   0.9679
B(  3-C ,  5-H ) :   0.9638

Dispersion correction           -0.001688502
FINAL SINGLE POINT ENERGY      -173.072830648689

DIPOLE MOMENT
-------------
                                X             Y             Z
Electronic contribution:     -1.62952       0.49536      -0.21820
Nuclear contribution   :      1.43935       0.22387       0.14687
                        -----------------------------------------
Total Dipole Moment    :     -0.19016       0.71923      -0.07133
                        -----------------------------------------
Magnitude (a.u.)       :      0.74735
Magnitude (Debye)      :      1.89962

Rotational constants in cm-1:     0.350137     0.303099     0.167465
Rotational constants in MHz : 10496.847516  9086.685989  5020.487860

                             ****ORCA TERMINATED NORMALLY****
TOTAL RUN TIME: 0 days 0 hours 0 minutes 6 seconds 377 msec
