                         Program Version 5.0.0 -  RELEASE  -
|  1> !wB97X-D3 RIJCOSX def2-SVP def2/J TightSCF
|  2> *xyz 0 1
|  3> C          3.84189       -6.95161       -3.63283
|  4> S          4.31812       -6.91593       -5.36869
|  5> O          5.40615       -5.89948       -5.51297
|  6> O          3.11191       -6.44508       -6.04379
|  7> F          4.76340       -8.23942       -5.69863
|  8> H          3.06224       -7.67071       -3.49159
|  9> H          3.49217       -5.98401       -3.33897
| 10> H          4.68822       -7.22131       -3.03626
| 11> *
| 12>
| 13> %MaxCore 64000
| 14>
| 15> %pal nprocs 8
| 16> end
| 17>
| 18> %scf
| 19>   MaxIter 150
| 20> end
| 21>
| 22>
| 23>                          ****END OF INPUT****

CARTESIAN COORDINATES (ANGSTROEM)
---------------------------------
  C      3.841890   -6.951610   -3.632830
  S      4.318120   -6.915930   -5.368690
  O      5.406150   -5.899480   -5.512970
  O      3.111910   -6.445080   -6.043790
  F      4.763400   -8.239420   -5.698630
  H      3.062240   -7.670710   -3.491590
  H      3.492170   -5.984010   -3.338970
  H      4.688220   -7.221310   -3.036260

 Total Charge           Charge          ....    0
 Multiplicity           Mult            ....    1
 Number of Electrons    NEL             ....   50
 Basis Dimension        Dim             ....   89

ORBITAL ENERGIES
----------------

  NO   OCC          E(Eh)            E(eV)
   0   2.0000     -89.219532     -2427.7869
   1   2.0000     -24.915822      -677.9940
   2   2.0000     -19.237870      -523.4891
   3   2.0000     -19.230433      -523.2867
   4   2.0000     -10.348476      -281.5963
   5   2.0000      -8.301982      -225.9084
   6   2.0000      -6.265218      -170.4853
   7   2.0000      -6.258265      -170.2960
   8   2.0000      -6.257547      -170.2765
   9   2.0000      -1.498690       -40.7814
  10   2.0000      -1.207578       -32.8599
  11   2.0000      -1.098333       -29.8871
  12   2.0000      -0.915348       -24.9079
  13   2.0000      -0.827120       -22.5071
  14   2.0000      -0.713880       -19.4257
  15   2.0000      -0.697296       -18.9744
  16   2.0000      -0.655125       -17.8269
  17   2.0000      -0.579263       -15.7626
  18   2.0000      -0.572061       -15.5666
  19   2.0000      -0.563906       -15.3447
  20   2.0000      -0.522564       -14.2197
  21   2.0000      -0.471846       -12.8396
  22   2.0000      -0.419034       -11.4025
  23   2.0000      -0.409937       -11.1550
  24   2.0000      -0.385707       -10.4956
  25   0.0000       0.113867         3.0985
  26   0.0000       0.148503         4.0410
  27   0.0000       0.155473         4.2306
  28   0.0000       0.168219         4.5775
  29   0.0000       0.186361         5.0711

MULLIKEN ATOMIC CHARGES
-----------------------
   0 C :   -0.095720
   1 S :    0.932214
   2 O :   -0.491108
   3 O :   -0.464437
   4 F :   -0.165307
   5 H :    0.085231
   6 H :    0.115840
   7 H :    0.083287
Sum of atomic charges:    0.0000000

LOEWDIN ATOMIC CHARGES
----------------------
   0 C :   -0.153343
   1 S :    1.166905
   2 O :   -0.535748
   3 O :   -0.504501
   4 F :   -0.110333
   5 H :    0.039934
   6 H :    0.058917
   7 H :    0.038170

  Mayer bond orders larger than 0.100000
B(  0-C ,  1-S ) :   0.9326 B(  0-C ,  5-H ) :   0.9530 B(  0-C ,  6-H ) :   0.9581
B(  0-C ,  7-H ) :   0.9549 B(  1-S ,  2-O ) :   1.7306 B(  1-S ,  3-O ) :   1.7626
B(  1-S ,  4-F ) :   1.0327

Dispersion correction           -0.001530844
FINAL SINGLE POINT ENERGY      -687.850448674517

DIPOLE MOMENT
-------------
                                X             Y             Z
Electronic contribution:      1.82593      -2.31595      -4.63870
Nuclear contribution   :     -2.00334       1.16464       5.99767
                        -----------------------------------------
Total Dipole Moment    :     -0.17741      -1.15131       1.35897
                        -----------------------------------------
Magnitude (a.u.)       :      1.78991
Magnitude (Debye)      :      4.54959

Rotational constants in cm-1:     0.163678     0.154408     0.144413
Rotational constants in MHz :  4906.945035  4629.020676  4329.393152

                             ****ORCA TERMINATED NORMALLY****
TOTAL RUN TIME: 0 days 0 hours 0 minutes 6 seconds 39 msec
