                         Program Version 5.0.0 -  RELEASE  -
|  1> !wB97X-D3 RIJCOSX def2-SVP def2/J TightSCF xyzfile
|  2>
|  3> *xyzfile 0 1 D4.xyz
|  4>
|  5> %MaxCore 64000
|  6>
|  7> %pal nprocs 18
|  8> end
|  9>
| 10> %scf
| 11>   MaxIter 150
| 12> end
| 13>
| 14>
| 15>                          ****END OF INPUT****

CARTESIAN COORDINATES (ANGSTROEM)
---------------------------------
  C      5.558206   -1.992914   -6.215054
  C      4.930199   -7.375319   -2.649623
  C      3.841892   -6.951611   -3.632829
  H      3.458144   -5.954425   -3.407121
  H      2.988484   -7.643606   -3.567078
  S      4.318115   -6.915930   -5.368692
  C      4.181880   -2.589671   -6.298911
  N      3.145873   -1.768431   -6.486753
  C      4.019102   -3.864307   -6.227427
  H      4.768490   -4.591153   -5.990773
  H      3.122405   -4.333392   -6.314620
  H      3.281635   -0.777786   -6.566549
  H      2.212549   -2.134193   -6.562246
  O      5.406154   -5.899480   -5.512972
  F      3.111910   -6.445079   -6.043792
  C      6.419260   -2.542944   -5.077630
  C      5.872267   -5.002756   -2.427819
  C      6.173994   -6.485522   -2.606315
  H      6.734852   -6.613767   -3.534015
  H      6.821463   -6.831018   -1.793617
  H      4.469612   -7.406168   -1.655876
  H      5.230134   -8.398678   -2.885906
  C      5.896512   -2.169314   -3.694552
  H      7.428880   -2.143665   -5.208078
  H      6.505894   -3.627541   -5.175502
  C      6.807804   -2.623428   -2.551019
  H      4.894708   -2.589732   -3.557501
  H      5.778823   -1.081255   -3.635790
  C      7.111544   -4.122463   -2.520363
  H      7.751615   -2.071393   -2.614406
  H      6.345837   -2.326401   -1.604086
  H      5.362882   -4.828697   -1.471335
  H      5.174429   -4.702577   -3.211298
  H      7.778329   -4.329347   -1.677651
  H      7.673189   -4.402845   -3.417586
  O      4.763396   -8.239424   -5.698629
  H      6.036826   -2.198189   -7.176852
  H      5.467610   -0.907371   -6.127968

 Total Charge           Charge          ....    0
 Multiplicity           Mult            ....    1
 Number of Electrons    NEL             ....  136
 Basis Dimension        Dim             ....  338

ORBITAL ENERGIES
----------------

  NO   OCC          E(Eh)            E(eV)
   0   2.0000     -89.221489     -2427.8402
   1   2.0000     -24.902976      -677.6444
   2   2.0000     -19.253073      -523.9027
   3   2.0000     -19.236130      -523.4417
   4   2.0000     -14.414154      -392.2291
   5   2.0000     -10.350472      -281.6507
   6   2.0000     -10.316448      -280.7248
   7   2.0000     -10.287438      -279.9354
   8   2.0000     -10.286560      -279.9115
   9   2.0000     -10.278325      -279.6875
  10   2.0000     -10.274925      -279.5949
  11   2.0000     -10.274058      -279.5713
  12   2.0000     -10.272942      -279.5410
  13   2.0000     -10.268849      -279.4296
  14   2.0000     -10.268000      -279.4065
  15   2.0000     -10.184791      -277.1423
  16   2.0000      -8.303421      -225.9476
  17   2.0000      -6.266375      -170.5167
  18   2.0000      -6.260306      -170.3516
  19   2.0000      -6.258826      -170.3113
  20   2.0000      -1.477612       -40.2079
  21   2.0000      -1.225643       -33.3514
  22   2.0000      -1.120333       -30.4858
  23   2.0000      -1.012874       -27.5617
  24   2.0000      -0.950423       -25.8623
  25   2.0000      -0.917542       -24.9676
  26   2.0000      -0.889197       -24.1963
  27   2.0000      -0.863785       -23.5048
  28   2.0000      -0.829378       -22.5685
  29   2.0000      -0.809325       -22.0228
  30   2.0000      -0.784995       -21.3608
  31   2.0000      -0.756777       -20.5929
  32   2.0000      -0.722323       -19.6554
  33   2.0000      -0.703798       -19.1513
  34   2.0000      -0.688589       -18.7375
  35   2.0000      -0.669504       -18.2181
  36   2.0000      -0.667573       -18.1656
  37   2.0000      -0.652774       -17.7629
  38   2.0000      -0.636059       -17.3081
  39   2.0000      -0.610943       -16.6246
  40   2.0000      -0.596886       -16.2421
  41   2.0000      -0.593458       -16.1488
  42   2.0000      -0.576615       -15.6905
  43   2.0000      -0.566300       -15.4098
  44   2.0000      -0.553834       -15.0706
  45   2.0000      -0.545368       -14.8402
  46   2.0000      -0.542135       -14.7522
  47   2.0000      -0.523201       -14.2370
  48   2.0000      -0.510714       -13.8972
  49   2.0000      -0.505531       -13.7562
  50   2.0000      -0.500503       -13.6194
  51   2.0000      -0.488960       -13.3053
  52   2.0000      -0.481021       -13.0893
  53   2.0000      -0.461855       -12.5677
  54   2.0000      -0.457654       -12.4534
  55   2.0000      -0.450252       -12.2520
  56   2.0000      -0.442704       -12.0466
  57   2.0000      -0.433848       -11.8056
  58   2.0000      -0.428470       -11.6593
  59   2.0000      -0.425608       -11.5814
  60   2.0000      -0.413660       -11.2563
  61   2.0000      -0.411185       -11.1889
  62   2.0000      -0.410038       -11.1577
  63   2.0000      -0.397105       -10.8058
  64   2.0000      -0.392089       -10.6693
  65   2.0000      -0.388109       -10.5610
  66   2.0000      -0.354899        -9.6573
  67   2.0000      -0.257712        -7.0127
  68   0.0000       0.116041         3.1576
  69   0.0000       0.124058         3.3758
  70   0.0000       0.141246         3.8435
  71   0.0000       0.148799         4.0490
  72   0.0000       0.154320         4.1993

MULLIKEN ATOMIC CHARGES
-----------------------
   0 C :    0.102423
   1 C :   -0.013611
   2 C :   -0.132999
   3 H :    0.086491
   4 H :    0.087195
   5 S :    0.972246
   6 C :   -0.078822
   7 N :   -0.109574
   8 C :   -0.248614
   9 H :    0.073249
  10 H :   -0.059678
  11 H :    0.107223
  12 H :    0.112345
  13 O :   -0.451476
  14 F :   -0.175753
  15 C :   -0.061706
  16 C :   -0.067833
  17 C :   -0.039664
  18 H :    0.049767
  19 H :    0.025926
  20 H :    0.048507
  21 H :    0.057594
  22 C :   -0.044672
  23 H :    0.007777
  24 H :    0.047836
  25 C :    0.012007
  26 H :    0.029864
  27 H :    0.006226
  28 C :   -0.037024
  29 H :    0.014950
  30 H :    0.010761
  31 H :    0.008632
  32 H :    0.010634
  33 H :    0.014182
  34 H :    0.027394
  35 O :   -0.417577
  36 H :    0.042964
  37 H :   -0.017188
Sum of atomic charges:   -0.0000000

LOEWDIN ATOMIC CHARGES
----------------------
   0 C :   -0.026422
   1 C :   -0.039053
   2 C :   -0.149479
   3 H :    0.038194
   4 H :    0.042584
   5 S :    1.197560
   6 C :    0.002306
   7 N :   -0.024255
   8 C :   -0.235596
   9 H :   -0.024488
  10 H :   -0.027445
  11 H :    0.061290
  12 H :    0.069724
  13 O :   -0.451728
  14 F :   -0.110033
  15 C :   -0.031881
  16 C :   -0.044652
  17 C :   -0.041944
  18 H :    0.026169
  19 H :    0.025824
  20 H :    0.038669
  21 H :    0.036370
  22 C :   -0.041227
  23 H :    0.019551
  24 H :    0.028120
  25 C :   -0.037358
  26 H :    0.019294
  27 H :    0.019007
  28 C :   -0.037191
  29 H :    0.021077
  30 H :    0.019378
  31 H :    0.017060
  32 H :    0.013875
  33 H :    0.020697
  34 H :    0.023634
  35 O :   -0.469364
  36 H :    0.039168
  37 H :    0.012566

  Mayer bond orders larger than 0.100000
B(  0-C ,  6-C ) :   0.9872 B(  0-C , 15-C ) :   1.1029 B(  0-C , 36-H ) :   0.9288
B(  0-C , 37-H ) :   0.9335 B(  1-C ,  2-C ) :   1.0426 B(  1-C , 17-C ) :   1.0790
B(  1-C , 20-H ) :   0.9416 B(  1-C , 21-H ) :   0.9480 B(  2-C ,  3-H ) :   0.9221
B(  2-C ,  4-H ) :   0.9304 B(  2-C ,  5-S ) :   0.9180 B(  5-S , 13-O ) :   1.6227
B(  5-S , 14-F ) :   1.0009 B(  5-S , 35-O ) :   1.8067 B(  6-C ,  7-N ) :   1.2314
B(  6-C ,  8-C ) :   1.8994 B(  7-N , 11-H ) :   0.9521 B(  7-N , 12-H ) :   0.9540
B(  8-C ,  9-H ) :   0.8967 B(  8-C , 10-H ) :   0.9479 B(  9-H , 13-O ) :   0.1145
B( 15-C , 22-C ) :   1.0507 B( 15-C , 23-H ) :   0.9449 B( 15-C , 24-H ) :   0.9402
B( 16-C , 17-C ) :   1.0603 B( 16-C , 28-C ) :   1.0692 B( 16-C , 31-H ) :   0.9485
B( 16-C , 32-H ) :   0.9302 B( 17-C , 18-H ) :   0.9428 B( 17-C , 19-H ) :   0.9470
B( 22-C , 25-C ) :   1.0823 B( 22-C , 26-H ) :   0.9410 B( 22-C , 27-H ) :   0.9446
B( 25-C , 28-C ) :   1.0761 B( 25-C , 29-H ) :   0.9468 B( 25-C , 30-H ) :   0.9472
B( 28-C , 33-H ) :   0.9466 B( 28-C , 34-H ) :   0.9469

Dispersion correction           -0.020877469
FINAL SINGLE POINT ENERGY     -1134.663155631476

DIPOLE MOMENT
-------------
                                X             Y             Z
Electronic contribution:    -11.81145     -18.19912     -14.71015
Nuclear contribution   :     10.61624      18.49702      15.75668
                        -----------------------------------------
Total Dipole Moment    :     -1.19521       0.29791       1.04653
                        -----------------------------------------
Magnitude (a.u.)       :      1.61632
Magnitude (Debye)      :      4.10836

Rotational constants in cm-1:     0.017796     0.012372     0.008231
Rotational constants in MHz :   533.524905   370.895973   246.762347

                             ****ORCA TERMINATED NORMALLY****
TOTAL RUN TIME: 0 days 0 hours 0 minutes 52 seconds 402 msec
