                         Program Version 5.0.0 -  RELEASE  -
|  1> !wB97X-D3 RIJCOSX def2-SVP def2/J TightSCF xyzfile
|  2>
|  3> *xyzfile 0 1 D5.xyz
|  4>
|  5> %MaxCore 64000
|  6>
|  7> %pal nprocs 18
|  8> end
|  9>
| 10> %scf
| 11>   MaxIter 150
| 12> end
| 13>
| 14>
| 15>                          ****END OF INPUT****

CARTESIAN COORDINATES (ANGSTROEM)
---------------------------------
  C      5.558206   -1.992914   -6.215054
  C      4.930199   -7.375319   -2.649623
  C      3.841892   -6.951611   -3.632829
  H      3.458144   -5.954425   -3.407121
  H      2.988484   -7.643606   -3.567078
  S      4.318115   -6.915930   -5.368692
  C      4.181880   -2.589671   -6.298911
  C      3.145873   -1.768431   -6.486753
  N      4.019102   -3.864307   -6.227427
  H      4.768490   -4.591153   -5.990773
  H      3.122405   -4.333392   -6.314620
  H      3.281635   -0.777786   -6.566549
  H      2.212549   -2.134193   -6.562246
  O      5.406154   -5.899480   -5.512972
  O      3.111910   -6.445079   -6.043792
  C      6.419260   -2.542944   -5.077630
  C      5.872267   -5.002756   -2.427819
  C      6.173994   -6.485522   -2.606315
  H      6.734852   -6.613767   -3.534015
  H      6.821463   -6.831018   -1.793617
  H      4.469612   -7.406168   -1.655876
  H      5.230134   -8.398678   -2.885906
  C      5.896512   -2.169314   -3.694552
  H      7.428880   -2.143665   -5.208078
  H      6.505894   -3.627541   -5.175502
  C      6.807804   -2.623428   -2.551019
  H      4.894708   -2.589732   -3.557501
  H      5.778823   -1.081255   -3.635790
  C      7.111544   -4.122463   -2.520363
  H      7.751615   -2.071393   -2.614406
  H      6.345837   -2.326401   -1.604086
  H      5.362882   -4.828697   -1.471335
  H      5.174429   -4.702577   -3.211298
  H      7.778329   -4.329347   -1.677651
  H      7.673189   -4.402845   -3.417586
  F      4.763396   -8.239424   -5.698629
  H      6.036826   -2.198189   -7.176852
  H      5.467610   -0.907371   -6.127968

 Total Charge           Charge          ....    0
 Multiplicity           Mult            ....    1
 Number of Electrons    NEL             ....  136
 Basis Dimension        Dim             ....  338

ORBITAL ENERGIES
----------------

  NO   OCC          E(Eh)            E(eV)
   0   2.0000     -89.249878     -2428.6126
   1   2.0000     -24.941867      -678.7027
   2   2.0000     -19.270949      -524.3892
   3   2.0000     -19.270890      -524.3876
   4   2.0000     -14.381891      -391.3512
   5   2.0000     -10.369970      -282.1812
   6   2.0000     -10.332523      -281.1623
   7   2.0000     -10.302270      -280.3390
   8   2.0000     -10.289437      -279.9898
   9   2.0000     -10.281821      -279.7826
  10   2.0000     -10.276366      -279.6341
  11   2.0000     -10.275901      -279.6215
  12   2.0000     -10.268204      -279.4120
  13   2.0000     -10.267134      -279.3829
  14   2.0000     -10.261836      -279.2387
  15   2.0000     -10.182835      -277.0890
  16   2.0000      -8.332326      -226.7341
  17   2.0000      -6.295551      -171.3106
  18   2.0000      -6.289183      -171.1374
  19   2.0000      -6.287272      -171.0854
  20   2.0000      -1.524252       -41.4770
  21   2.0000      -1.246408       -33.9165
  22   2.0000      -1.140847       -31.0440
  23   2.0000      -0.997351       -27.1393
  24   2.0000      -0.970443       -26.4071
  25   2.0000      -0.923311       -25.1246
  26   2.0000      -0.896319       -24.3901
  27   2.0000      -0.866128       -23.5685
  28   2.0000      -0.847469       -23.0608
  29   2.0000      -0.815139       -22.1811
  30   2.0000      -0.790943       -21.5227
  31   2.0000      -0.758584       -20.6421
  32   2.0000      -0.735940       -20.0259
  33   2.0000      -0.725845       -19.7512
  34   2.0000      -0.710179       -19.3250
  35   2.0000      -0.696418       -18.9505
  36   2.0000      -0.674254       -18.3474
  37   2.0000      -0.656503       -17.8643
  38   2.0000      -0.645593       -17.5675
  39   2.0000      -0.615818       -16.7573
  40   2.0000      -0.608382       -16.5549
  41   2.0000      -0.605488       -16.4762
  42   2.0000      -0.583987       -15.8911
  43   2.0000      -0.562830       -15.3154
  44   2.0000      -0.560978       -15.2650
  45   2.0000      -0.550487       -14.9795
  46   2.0000      -0.536628       -14.6024
  47   2.0000      -0.529589       -14.4109
  48   2.0000      -0.519106       -14.1256
  49   2.0000      -0.517036       -14.0693
  50   2.0000      -0.499916       -13.6034
  51   2.0000      -0.494489       -13.4557
  52   2.0000      -0.487109       -13.2549
  53   2.0000      -0.471407       -12.8276
  54   2.0000      -0.461855       -12.5677
  55   2.0000      -0.452312       -12.3080
  56   2.0000      -0.450045       -12.2463
  57   2.0000      -0.441846       -12.0232
  58   2.0000      -0.439421       -11.9573
  59   2.0000      -0.430415       -11.7122
  60   2.0000      -0.421287       -11.4638
  61   2.0000      -0.416393       -11.3306
  62   2.0000      -0.413579       -11.2540
  63   2.0000      -0.403885       -10.9903
  64   2.0000      -0.396903       -10.8003
  65   2.0000      -0.385066       -10.4782
  66   2.0000      -0.381228       -10.3737
  67   2.0000      -0.233399        -6.3511
  68   0.0000       0.085564         2.3283
  69   0.0000       0.113135         3.0786
  70   0.0000       0.125671         3.4197
  71   0.0000       0.137290         3.7358
  72   0.0000       0.146847         3.9959

MULLIKEN ATOMIC CHARGES
-----------------------
   0 C :    0.097073
   1 C :   -0.033406
   2 C :   -0.145436
   3 H :    0.121548
   4 H :    0.099935
   5 S :    0.989112
   6 C :   -0.127513
   7 C :   -0.091484
   8 N :   -0.145775
   9 H :    0.156299
  10 H :    0.123185
  11 H :   -0.046808
  12 H :   -0.051997
  13 O :   -0.474009
  14 O :   -0.444076
  15 C :   -0.076870
  16 C :   -0.066040
  17 C :   -0.033332
  18 H :    0.032953
  19 H :    0.032429
  20 H :    0.056040
  21 H :    0.041737
  22 C :   -0.043251
  23 H :    0.009173
  24 H :    0.023781
  25 C :    0.011104
  26 H :    0.033251
  27 H :    0.017716
  28 C :   -0.037841
  29 H :    0.016996
  30 H :    0.013159
  31 H :    0.016015
  32 H :    0.001211
  33 H :    0.015870
  34 H :    0.025804
  35 F :   -0.150719
  36 H :    0.029005
  37 H :    0.005165
Sum of atomic charges:    0.0000000

LOEWDIN ATOMIC CHARGES
----------------------
   0 C :   -0.025343
   1 C :   -0.052798
   2 C :   -0.141397
   3 H :    0.057739
   4 H :    0.048033
   5 S :    1.200425
   6 C :    0.002776
   7 C :   -0.213997
   8 N :   -0.041932
   9 H :    0.029618
  10 H :    0.060951
  11 H :   -0.011342
  12 H :   -0.014644
  13 O :   -0.456175
  14 O :   -0.474397
  15 C :   -0.043806
  16 C :   -0.043932
  17 C :   -0.043951
  18 H :    0.018828
  19 H :    0.028281
  20 H :    0.041308
  21 H :    0.027602
  22 C :   -0.039620
  23 H :    0.020129
  24 H :    0.016239
  25 C :   -0.037708
  26 H :    0.020998
  27 H :    0.025083
  28 C :   -0.037435
  29 H :    0.022181
  30 H :    0.020236
  31 H :    0.020319
  32 H :    0.010929
  33 H :    0.021143
  34 H :    0.022498
  35 F :   -0.096856
  36 H :    0.030873
  37 H :    0.029142

  Mayer bond orders larger than 0.100000
B(  0-C ,  6-C ) :   1.0120 B(  0-C , 15-C ) :   1.0790 B(  0-C , 36-H ) :   0.9311
B(  0-C , 37-H ) :   0.9337 B(  1-C ,  2-C ) :   1.0190 B(  1-C , 17-C ) :   1.0699
B(  1-C , 20-H ) :   0.9384 B(  1-C , 21-H ) :   0.9532 B(  2-C ,  3-H ) :   0.9220
B(  2-C ,  4-H ) :   0.9329 B(  2-C ,  5-S ) :   0.9160 B(  5-S , 13-O ) :   1.5960
B(  5-S , 14-O ) :   1.7479 B(  5-S , 35-F ) :   1.0543 B(  6-C ,  7-C ) :   1.8100
B(  6-C ,  8-N ) :   1.3113 B(  7-C , 11-H ) :   0.9472 B(  7-C , 12-H ) :   0.9570
B(  8-N ,  9-H ) :   0.8781 B(  8-N , 10-H ) :   0.9330 B(  9-H , 13-O ) :   0.1098
B( 15-C , 22-C ) :   1.0439 B( 15-C , 23-H ) :   0.9457 B( 15-C , 24-H ) :   0.9413
B( 16-C , 17-C ) :   1.0595 B( 16-C , 28-C ) :   1.0675 B( 16-C , 31-H ) :   0.9495
B( 16-C , 32-H ) :   0.9295 B( 17-C , 18-H ) :   0.9422 B( 17-C , 19-H ) :   0.9466
B( 22-C , 25-C ) :   1.0801 B( 22-C , 26-H ) :   0.9436 B( 22-C , 27-H ) :   0.9436
B( 25-C , 28-C ) :   1.0750 B( 25-C , 29-H ) :   0.9464 B( 25-C , 30-H ) :   0.9479
B( 28-C , 33-H ) :   0.9471 B( 28-C , 34-H ) :   0.9474

Dispersion correction           -0.020833071
FINAL SINGLE POINT ENERGY     -1134.667231457463

DIPOLE MOMENT
-------------
                                X             Y             Z
Electronic contribution:     -8.12345     -23.51893     -13.64593
Nuclear contribution   :      8.54118      20.92489      15.31138
                        -----------------------------------------
Total Dipole Moment    :      0.41772      -2.59404       1.66545
                        -----------------------------------------
Magnitude (a.u.)       :      3.11083
Magnitude (Debye)      :      7.90710

Rotational constants in cm-1:     0.018156     0.012306     0.008278
Rotational constants in MHz :   544.309022   368.914527   248.178402

                             ****ORCA TERMINATED NORMALLY****
TOTAL RUN TIME: 0 days 0 hours 0 minutes 49 seconds 146 msec
