                         Program Version 5.0.0 -  RELEASE  -
|  1> !LC-PBE RIJCOSX def2-TZVPD def2/J TightSCF
|  2> *xyz -1 1
|  3> C         -0.72184       -0.99951       -3.43931
|  4> C          0.28725       -1.71177       -2.52740
|  5> H          1.13178       -2.06738       -3.15940
|  6> H         -0.20414       -2.63733       -2.17048
|  7> O          0.71050       -0.92751       -1.48177
|  8> H         -1.01315       -1.65739       -4.23129
|  9> H         -0.27123       -0.12142       -3.85259
| 10> H         -1.58442       -0.72333       -2.86958
| 11> *
| 12> %MaxCore 64000
| 13>
| 14> %pal nprocs 4
| 15> end
| 16>
| 17> %scf
| 18>   MaxIter 150
| 19> end
| 20>
| 21>
| 22>                          ****END OF INPUT****

CARTESIAN COORDINATES (ANGSTROEM)
---------------------------------
  C     -0.721840   -0.999510   -3.439310
  C      0.287250   -1.711770   -2.527400
  H      1.131780   -2.067380   -3.159400
  H     -0.204140   -2.637330   -2.170480
  O      0.710500   -0.927510   -1.481770
  H     -1.013150   -1.657390   -4.231290
  H     -0.271230   -0.121420   -3.852590
  H     -1.584420   -0.723330   -2.869580

 Total Charge           Charge          ....   -1
 Multiplicity           Mult            ....    1
 Number of Electrons    NEL             ....   26
 Basis Dimension        Dim             ....  159

ORBITAL ENERGIES
----------------

  NO   OCC          E(Eh)            E(eV)
   0   2.0000     -18.631622      -506.9922
   1   2.0000      -9.925661      -270.0910
   2   2.0000      -9.902553      -269.4622
   3   2.0000      -0.840419       -22.8690
   4   2.0000      -0.695268       -18.9192
   5   2.0000      -0.528505       -14.3814
   6   2.0000      -0.394754       -10.7418
   7   2.0000      -0.367720       -10.0062
   8   2.0000      -0.308687        -8.3998
   9   2.0000      -0.287359        -7.8194
  10   2.0000      -0.240289        -6.5386
  11   2.0000      -0.092129        -2.5069
  12   2.0000      -0.089343        -2.4311
  13   0.0000       0.209590         5.7032
  14   0.0000       0.230279         6.2662
  15   0.0000       0.261757         7.1228
  16   0.0000       0.262542         7.1441
  17   0.0000       0.285713         7.7747

MULLIKEN ATOMIC CHARGES
-----------------------
   0 C :   -0.994294
   1 C :   -0.397383
   2 H :    0.216905
   3 H :    0.212366
   4 O :   -0.923364
   5 H :    0.346457
   6 H :    0.269884
   7 H :    0.269430
Sum of atomic charges:   -1.0000000

LOEWDIN ATOMIC CHARGES
----------------------
   0 C :   -0.191113
   1 C :   -0.640673
   2 H :    0.068959
   3 H :    0.065817
   4 O :   -0.440810
   5 H :    0.039047
   6 H :    0.049154
   7 H :    0.049618

  Mayer bond orders larger than 0.100000
B(  0-C ,  1-C ) :   0.7478 B(  0-C ,  4-O ) :   0.1956 B(  0-C ,  5-H ) :   0.9294
B(  0-C ,  6-H ) :   0.9719 B(  0-C ,  7-H ) :   0.9741 B(  1-C ,  2-H ) :   1.0340
B(  1-C ,  3-H ) :   1.0423 B(  1-C ,  4-O ) :   0.9918

FINAL SINGLE POINT ENERGY      -154.010363965936

DIPOLE MOMENT
-------------
                                X             Y             Z
Electronic contribution:      1.37685       0.63467       2.20639
Nuclear contribution   :     -2.24828      -1.06600      -3.62481
                        -----------------------------------------
Total Dipole Moment    :     -0.87142      -0.43133      -1.41841
                        -----------------------------------------
Magnitude (a.u.)       :      1.71969
Magnitude (Debye)      :      4.37110

Rotational constants in cm-1:     1.278116     0.325414     0.286672
Rotational constants in MHz : 38316.964654  9755.653004  8594.216906

                             ****ORCA TERMINATED NORMALLY****
TOTAL RUN TIME: 0 days 0 hours 0 minutes 15 seconds 692 msec
