                         Program Version 5.0.0 -  RELEASE  -
|  1> !LC-PBE RIJCOSX def2-TZVPD def2/J TightSCF
|  2> *xyz 1 1
|  3> C          3.48828        1.60092       -1.52204
|  4> C          4.34297        1.31342       -2.75683
|  5> N          2.81029        0.42878       -1.01420
|  6> H          2.71455        2.33145       -1.76030
|  7> H          4.09099        2.06315       -0.73338
|  8> C          3.29098       -0.41802       -0.12908
|  9> N          2.51754       -1.43202        0.23936
| 10> N          4.53549       -0.28441        0.39580
| 11> H          5.04363        0.57189        0.22290
| 12> H          4.72335       -0.73327        1.28180
| 13> H          1.93479        0.10230       -1.40379
| 14> H          1.67464       -1.50562       -0.31610
| 15> H          2.92850       -2.21850        0.72549
| 16> H          3.73575        0.86277       -3.51385
| 17> H          5.13754        0.64699       -2.49333
| 18> H          4.75374        2.22930       -3.12740
| 19> *
| 20> %MaxCore 64000
| 21>
| 22> %pal nprocs 4
| 23> end
| 24>
| 25> %scf
| 26>   MaxIter 150
| 27> end
| 28>
| 29>
| 30>                          ****END OF INPUT****

CARTESIAN COORDINATES (ANGSTROEM)
---------------------------------
  C      3.488280    1.600920   -1.522040
  C      4.342970    1.313420   -2.756830
  N      2.810290    0.428780   -1.014200
  H      2.714550    2.331450   -1.760300
  H      4.090990    2.063150   -0.733380
  C      3.290980   -0.418020   -0.129080
  N      2.517540   -1.432020    0.239360
  N      4.535490   -0.284410    0.395800
  H      5.043630    0.571890    0.222900
  H      4.723350   -0.733270    1.281800
  H      1.934790    0.102300   -1.403790
  H      1.674640   -1.505620   -0.316100
  H      2.928500   -2.218500    0.725490
  H      3.735750    0.862770   -3.513850
  H      5.137540    0.646990   -2.493330
  H      4.753740    2.229300   -3.127400

 Total Charge           Charge          ....    1
 Multiplicity           Mult            ....    1
 Number of Electrons    NEL             ....   48
 Basis Dimension        Dim             ....  312

ORBITAL ENERGIES
----------------

  NO   OCC          E(Eh)            E(eV)
   0   2.0000     -14.446361      -393.1055
   1   2.0000     -14.439021      -392.9057
   2   2.0000     -14.436671      -392.8418
   3   2.0000     -10.459717      -284.6234
   4   2.0000     -10.326208      -280.9904
   5   2.0000     -10.248339      -278.8715
   6   2.0000      -1.401845       -38.1461
   7   2.0000      -1.280792       -34.8521
   8   2.0000      -1.264904       -34.4198
   9   2.0000      -1.108269       -30.1575
  10   2.0000      -0.999544       -27.1990
  11   2.0000      -0.967576       -26.3291
  12   2.0000      -0.933926       -25.4134
  13   2.0000      -0.898610       -24.4524
  14   2.0000      -0.834344       -22.7037
  15   2.0000      -0.823062       -22.3967
  16   2.0000      -0.801233       -21.8026
  17   2.0000      -0.790246       -21.5037
  18   2.0000      -0.745002       -20.2725
  19   2.0000      -0.701965       -19.1014
  20   2.0000      -0.666961       -18.1489
  21   2.0000      -0.643864       -17.5204
  22   2.0000      -0.613608       -16.6971
  23   2.0000      -0.580509       -15.7965
  24   0.0000      -0.091431        -2.4880
  25   0.0000      -0.081254        -2.2110
  26   0.0000      -0.060024        -1.6333
  27   0.0000      -0.050736        -1.3806
  28   0.0000      -0.026145        -0.7114

MULLIKEN ATOMIC CHARGES
-----------------------
   0 C :   -0.765801
   1 C :   -1.085745
   2 N :   -0.163927
   3 H :    0.359665
   4 H :    0.435185
   5 C :    0.766775
   6 N :   -0.412841
   7 N :   -0.437264
   8 H :    0.250187
   9 H :    0.258840
  10 H :    0.170507
  11 H :    0.240449
  12 H :    0.259222
  13 H :    0.373074
  14 H :    0.348642
  15 H :    0.403032
Sum of atomic charges:    1.0000000

LOEWDIN ATOMIC CHARGES
----------------------
   0 C :   -0.223845
   1 C :   -0.079600
   2 N :    0.079288
   3 H :    0.139701
   4 H :    0.129920
   5 C :   -0.433471
   6 N :    0.196055
   7 N :    0.204828
   8 H :    0.122734
   9 H :    0.141598
  10 H :    0.174620
  11 H :    0.142324
  12 H :    0.149878
  13 H :    0.086317
  14 H :    0.079327
  15 H :    0.090325

  Mayer bond orders larger than 0.100000
B(  0-C ,  1-C ) :   0.6382 B(  0-C ,  2-N ) :   0.7886 B(  0-C ,  3-H ) :   0.9282
B(  0-C ,  4-H ) :   0.8258 B(  0-C ,  5-C ) :  -0.1435 B(  1-C , 13-H ) :   0.9293
B(  1-C , 14-H ) :   0.9137 B(  1-C , 15-H ) :   0.9217 B(  2-N ,  5-C ) :   1.1771
B(  2-N , 10-H ) :   1.0797 B(  5-C ,  6-N ) :   1.0697 B(  5-C ,  7-N ) :   1.0854
B(  5-C , 10-H ) :  -0.1006 B(  6-N , 11-H ) :   0.9519 B(  6-N , 12-H ) :   0.9609
B(  7-N ,  8-H ) :   0.9179 B(  7-N ,  9-H ) :   0.9720

FINAL SINGLE POINT ENERGY      -283.599372375869

DIPOLE MOMENT
-------------
                                X             Y             Z
Electronic contribution:     -1.93194      -3.00671       3.74065
Nuclear contribution   :      1.59382       2.33278      -3.02574
                        -----------------------------------------
Total Dipole Moment    :     -0.33812      -0.67393       0.71492
                        -----------------------------------------
Magnitude (a.u.)       :      1.03904
Magnitude (Debye)      :      2.64104

Rotational constants in cm-1:     0.232230     0.073139     0.063030
Rotational constants in MHz :  6962.079716  2192.649203  1889.578947

                             ****ORCA TERMINATED NORMALLY****
TOTAL RUN TIME: 0 days 0 hours 1 minutes 6 seconds 598 msec
