                         Program Version 5.0.0 -  RELEASE  -
|  1> !LC-PBE RIJCOSX def2-TZVPD def2/J TightSCF xyzfile
|  2>
|  3> *xyzfile 0 1 B.xyz
|  4>
|  5> %MaxCore 64000
|  6>
|  7> %pal nprocs 4
|  8> end
|  9>
| 10> %scf
| 11>   MaxIter 150
| 12> end
| 13>
| 14>
| 15>                          ****END OF INPUT****

CARTESIAN COORDINATES (ANGSTROEM)
---------------------------------
  C      3.488276    1.600919   -1.522040
  C      4.342970    1.313419   -2.756826
  N      2.810285    0.428783   -1.014196
  H      5.132033    0.604994   -2.484466
  C      3.535896    0.749253   -3.924604
  H      4.841247    2.242136   -3.054083
  H      2.991617   -0.132199   -3.574137
  H      4.225505    0.392784   -4.695962
  C      2.564776    1.750890   -4.544523
  H      1.918749    2.171679   -3.769419
  C      1.686235    1.161657   -5.650111
  H      3.132494    2.594775   -4.951604
  C      0.839616   -0.037582   -5.220473
  H      2.323886    0.866395   -6.490796
  H      1.029518    1.951850   -6.029329
  C     -0.151019    0.254955   -4.094256
  H      1.499442   -0.857141   -4.922958
  H      0.290097   -0.410143   -6.091131
  H      0.328265    0.833022   -3.299125
  C     -0.721843   -0.999513   -3.439309
  H     -0.957367    0.884951   -4.485450
  H     -1.083403   -1.697555   -4.205656
  H     -1.581056   -0.723848   -2.820490
  C      0.287250   -1.711771   -2.527405
  H      1.131780   -2.067380   -3.159396
  H     -0.204137   -2.637326   -2.170480
  O      0.710505   -0.927506   -1.481767
  H      2.714548    2.331455   -1.760302
  H      4.090991    2.063151   -0.733382
  C      3.290978   -0.418021   -0.129083
  N      2.517536   -1.432017    0.239360
  N      4.535490   -0.284410    0.395800
  H      5.043627    0.571888    0.222899
  H      4.723346   -0.733273    1.281800
  H      1.934787    0.102305   -1.403788
  H      1.674638   -1.505616   -0.316095
  H      2.928503   -2.218502    0.725494

 Total Charge           Charge          ....    0
 Multiplicity           Mult            ....    1
 Number of Electrons    NEL             ....  112
 Basis Dimension        Dim             ....  728

ORBITAL ENERGIES
----------------

  NO   OCC          E(Eh)            E(eV)
   0   2.0000     -18.840491      -512.6758
   1   2.0000     -14.274406      -388.4263
   2   2.0000     -14.237095      -387.4111
   3   2.0000     -14.227294      -387.1443
   4   2.0000     -10.272391      -279.5260
   5   2.0000     -10.169274      -276.7200
   6   2.0000     -10.124399      -275.4989
   7   2.0000     -10.106687      -275.0169
   8   2.0000     -10.101268      -274.8695
   9   2.0000     -10.094651      -274.6894
  10   2.0000     -10.091352      -274.5996
  11   2.0000     -10.082530      -274.3596
  12   2.0000     -10.071565      -274.0612
  13   2.0000     -10.059590      -273.7354
  14   2.0000      -1.214154       -33.0388
  15   2.0000      -1.101090       -29.9622
  16   2.0000      -1.081223       -29.4216
  17   2.0000      -1.047578       -28.5060
  18   2.0000      -0.993193       -27.0262
  19   2.0000      -0.956037       -26.0151
  20   2.0000      -0.914457       -24.8836
  21   2.0000      -0.872229       -23.7346
  22   2.0000      -0.828281       -22.5387
  23   2.0000      -0.809006       -22.0142
  24   2.0000      -0.771266       -20.9872
  25   2.0000      -0.759572       -20.6690
  26   2.0000      -0.750211       -20.4143
  27   2.0000      -0.717858       -19.5339
  28   2.0000      -0.699392       -19.0314
  29   2.0000      -0.671452       -18.2711
  30   2.0000      -0.658254       -17.9120
  31   2.0000      -0.639320       -17.3968
  32   2.0000      -0.630535       -17.1577
  33   2.0000      -0.615592       -16.7511
  34   2.0000      -0.608352       -16.5541
  35   2.0000      -0.603361       -16.4183
  36   2.0000      -0.577660       -15.7189
  37   2.0000      -0.564270       -15.3546
  38   2.0000      -0.555741       -15.1225
  39   2.0000      -0.532563       -14.4918
  40   2.0000      -0.525602       -14.3024
  41   2.0000      -0.515260       -14.0209
  42   2.0000      -0.493031       -13.4161
  43   2.0000      -0.484768       -13.1912
  44   2.0000      -0.478823       -13.0294
  45   2.0000      -0.463629       -12.6160
  46   2.0000      -0.449383       -12.2283
  47   2.0000      -0.442508       -12.0413
  48   2.0000      -0.439576       -11.9615
  49   2.0000      -0.434950       -11.8356
  50   2.0000      -0.413906       -11.2630
  51   2.0000      -0.411414       -11.1951
  52   2.0000      -0.404120       -10.9967
  53   2.0000      -0.391320       -10.6484
  54   2.0000      -0.305188        -8.3046
  55   2.0000      -0.298521        -8.1232
  56   0.0000       0.040831         1.1111
  57   0.0000       0.064412         1.7527
  58   0.0000       0.071953         1.9579
  59   0.0000       0.079338         2.1589
  60   0.0000       0.088483         2.4078

MULLIKEN ATOMIC CHARGES
-----------------------
   0 C :   -1.281916
   1 C :   -0.558122
   2 N :   -0.072822
   3 H :    0.353992
   4 C :   -0.483870
   5 H :    0.413338
   6 H :    0.232729
   7 H :    0.335229
   8 C :   -0.743717
   9 H :    0.392165
  10 C :   -0.919188
  11 H :    0.347302
  12 C :   -0.685231
  13 H :    0.376069
  14 H :    0.377999
  15 C :   -0.445278
  16 H :    0.310813
  17 H :    0.389602
  18 H :    0.217169
  19 C :   -0.933491
  20 H :    0.362234
  21 H :    0.337462
  22 H :    0.402463
  23 C :   -0.541045
  24 H :    0.260792
  25 H :    0.400238
  26 O :   -1.189854
  27 H :    0.379227
  28 H :    0.523753
  29 C :    0.681128
  30 N :   -0.373182
  31 N :   -0.449390
  32 H :    0.251939
  33 H :    0.235121
  34 H :    0.557329
  35 H :    0.339284
  36 H :    0.199728
Sum of atomic charges:   -0.0000000

LOEWDIN ATOMIC CHARGES
----------------------
   0 C :   -0.189407
   1 C :   -0.204414
   2 N :    0.091103
   3 H :    0.116787
   4 C :   -0.222995
   5 H :    0.123390
   6 H :    0.110447
   7 H :    0.128317
   8 C :   -0.235462
   9 H :    0.104109
  10 C :   -0.230646
  11 H :    0.122377
  12 C :   -0.238367
  13 H :    0.117164
  14 H :    0.118830
  15 C :   -0.236606
  16 H :    0.101567
  17 H :    0.121069
  18 H :    0.101208
  19 C :   -0.225299
  20 H :    0.120365
  21 H :    0.116496
  22 H :    0.114936
  23 C :   -0.423536
  24 H :    0.103556
  25 H :    0.107213
  26 O :   -0.330754
  27 H :    0.128992
  28 H :    0.119962
  29 C :   -0.444367
  30 N :    0.177471
  31 N :    0.164124
  32 H :    0.103794
  33 H :    0.121449
  34 H :    0.070550
  35 H :    0.047524
  36 H :    0.129053

  Mayer bond orders larger than 0.100000
B(  0-C ,  1-C ) :   0.6990 B(  0-C ,  2-N ) :   0.9323 B(  0-C , 27-H ) :   0.9183
B(  0-C , 28-H ) :   0.7257 B(  0-C , 29-C ) :  -0.2038 B(  0-C , 31-N ) :   0.1109
B(  0-C , 34-H ) :  -0.2783 B(  1-C ,  3-H ) :   0.8701 B(  1-C ,  4-C ) :   0.8529
B(  1-C ,  5-H ) :   0.9043 B(  2-N , 29-C ) :   1.2233 B(  2-N , 34-H ) :   0.8432
B(  4-C ,  6-H ) :   1.0545 B(  4-C ,  7-H ) :   0.9146 B(  4-C ,  8-C ) :   0.4650
B(  8-C ,  9-H ) :   0.9492 B(  8-C , 10-C ) :   0.8396 B(  8-C , 11-H ) :   0.9398
B( 10-C , 12-C ) :   0.7952 B( 10-C , 13-H ) :   0.9449 B( 10-C , 14-H ) :   0.9294
B( 12-C , 15-C ) :   0.4693 B( 12-C , 16-H ) :   1.0047 B( 12-C , 17-H ) :   0.8942
B( 15-C , 18-H ) :   1.0357 B( 15-C , 19-C ) :   0.8952 B( 15-C , 20-H ) :   0.8939
B( 19-C , 21-H ) :   0.9659 B( 19-C , 22-H ) :   0.8595 B( 19-C , 23-C ) :   0.8617
B( 19-C , 26-O ) :   0.1696 B( 23-C , 24-H ) :   1.0254 B( 23-C , 25-H ) :   0.8892
B( 23-C , 26-O ) :   0.8171 B( 26-O , 29-C ) :  -0.1280 B( 26-O , 30-N ) :  -0.1065
B( 26-O , 34-H ) :  -0.1569 B( 26-O , 35-H ) :   0.2616 B( 29-C , 30-N ) :   1.1946
B( 29-C , 31-N ) :   1.0127 B( 30-N , 35-H ) :   0.6712 B( 30-N , 36-H ) :   1.0215
B( 31-N , 32-H ) :   0.9233 B( 31-N , 33-H ) :   0.9907

FINAL SINGLE POINT ENERGY      -632.576898819761

DIPOLE MOMENT
-------------
                                X             Y             Z
Electronic contribution:      3.64870      -2.05712      11.33013
Nuclear contribution   :     -0.74583       2.62534      -9.91488
                        -----------------------------------------
Total Dipole Moment    :      2.90288       0.56822       1.41525
                        -----------------------------------------
Magnitude (a.u.)       :      3.27910
Magnitude (Debye)      :      8.33481

Rotational constants in cm-1:     0.027028     0.016098     0.010898
Rotational constants in MHz :   810.278072   482.590922   326.703462

                             ****ORCA TERMINATED NORMALLY****
TOTAL RUN TIME: 0 days 0 hours 8 minutes 57 seconds 462 msec
