                         Program Version 5.0.0 -  RELEASE  -
|  1> !LC-PBE RIJCOSX def2-TZVPD def2/J TightSCF
|  2> *xyz 0 1
|  3> C         -0.72184       -0.99951       -3.43931
|  4> C          0.28725       -1.71177       -2.52740
|  5> H          1.13178       -2.06738       -3.15940
|  6> H         -0.20414       -2.63733       -2.17048
|  7> F          0.71050       -0.92751       -1.48177
|  8> H         -1.01315       -1.65739       -4.23129
|  9> H         -0.27123       -0.12142       -3.85259
| 10> H         -1.58442       -0.72333       -2.86958
| 11> *
| 12> %MaxCore 64000
| 13>
| 14> %pal nprocs 4
| 15> end
| 16>
| 17> %scf
| 18>   MaxIter 150
| 19> end
| 20>
| 21>
| 22>                          ****END OF INPUT****

CARTESIAN COORDINATES (ANGSTROEM)
---------------------------------
  C     -0.721840   -0.999510   -3.439310
  C      0.287250   -1.711770   -2.527400
  H      1.131780   -2.067380   -3.159400
  H     -0.204140   -2.637330   -2.170480
  F      0.710500   -0.927510   -1.481770
  H     -1.013150   -1.657390   -4.231290
  H     -0.271230   -0.121420   -3.852590
  H     -1.584420   -0.723330   -2.869580

 Total Charge           Charge          ....    0
 Multiplicity           Mult            ....    1
 Number of Electrons    NEL             ....   26
 Basis Dimension        Dim             ....  159

ORBITAL ENERGIES
----------------

  NO   OCC          E(Eh)            E(eV)
   0   2.0000     -24.475324      -666.0074
   1   2.0000     -10.195494      -277.4335
   2   2.0000     -10.108809      -275.0747
   3   2.0000      -1.352706       -36.8090
   4   2.0000      -0.941942       -25.6315
   5   2.0000      -0.794716       -21.6253
   6   2.0000      -0.656403       -17.8616
   7   2.0000      -0.648099       -17.6357
   8   2.0000      -0.605759       -16.4836
   9   2.0000      -0.546294       -14.8654
  10   2.0000      -0.537375       -14.6227
  11   2.0000      -0.471460       -12.8291
  12   2.0000      -0.462091       -12.5741
  13   0.0000       0.068962         1.8766
  14   0.0000       0.091072         2.4782
  15   0.0000       0.114691         3.1209
  16   0.0000       0.116835         3.1793
  17   0.0000       0.145427         3.9573

MULLIKEN ATOMIC CHARGES
-----------------------
   0 C :   -1.086432
   1 C :   -0.208110
   2 H :    0.276706
   3 H :    0.270252
   4 F :   -0.271137
   5 H :    0.367447
   6 H :    0.325266
   7 H :    0.326008
Sum of atomic charges:    0.0000000

LOEWDIN ATOMIC CHARGES
----------------------
   0 C :   -0.109786
   1 C :   -0.310260
   2 H :    0.122354
   3 H :    0.118575
   4 F :   -0.043765
   5 H :    0.075681
   6 H :    0.073416
   7 H :    0.073785

  Mayer bond orders larger than 0.100000
B(  0-C ,  1-C ) :   0.7615 B(  0-C ,  5-H ) :   0.9061 B(  0-C ,  6-H ) :   0.9266
B(  0-C ,  7-H ) :   0.9286 B(  1-C ,  2-H ) :   0.9585 B(  1-C ,  3-H ) :   0.9679
B(  1-C ,  4-F ) :   0.7931

FINAL SINGLE POINT ENERGY      -178.633347592274

DIPOLE MOMENT
-------------
                                X             Y             Z
Electronic contribution:      2.68567       1.01934       4.18516
Nuclear contribution   :     -2.97459      -1.40206      -4.79987
                        -----------------------------------------
Total Dipole Moment    :     -0.28893      -0.38271      -0.61471
                        -----------------------------------------
Magnitude (a.u.)       :      0.77962
Magnitude (Debye)      :      1.98164

Rotational constants in cm-1:     1.257024     0.302702     0.267953
Rotational constants in MHz : 37684.643733  9074.792567  8033.038070

                             ****ORCA TERMINATED NORMALLY****
TOTAL RUN TIME: 0 days 0 hours 0 minutes 15 seconds 699 msec
