                         Program Version 5.0.0 -  RELEASE  -
|  1> !LC-PBE RIJCOSX def2-TZVPD def2/J TightSCF
|  2> *xyz 0 1
|  3> C          3.48828        1.60092       -1.52204
|  4> C          4.34297        1.31342       -2.75683
|  5> C          2.81029        0.42878       -1.01420
|  6> H          2.71455        2.33145       -1.76030
|  7> H          4.09099        2.06315       -0.73338
|  8> C          3.29098       -0.41802       -0.12908
|  9> N          2.51754       -1.43202        0.23936
| 10> N          4.53549       -0.28441        0.39580
| 11> H          5.04363        0.57189        0.22290
| 12> H          4.72335       -0.73327        1.28180
| 13> H          1.93479        0.10230       -1.40379
| 14> H          1.67464       -1.50562       -0.31610
| 15> H          2.92850       -2.21850        0.72549
| 16> H          3.73575        0.86277       -3.51385
| 17> H          5.13754        0.64699       -2.49333
| 18> H          4.75374        2.22930       -3.12740
| 19> *
| 20> %MaxCore 64000
| 21>
| 22> %pal nprocs 4
| 23> end
| 24>
| 25> %scf
| 26>   MaxIter 150
| 27> end
| 28>
| 29>
| 30>                          ****END OF INPUT****

CARTESIAN COORDINATES (ANGSTROEM)
---------------------------------
  C      3.488280    1.600920   -1.522040
  C      4.342970    1.313420   -2.756830
  C      2.810290    0.428780   -1.014200
  H      2.714550    2.331450   -1.760300
  H      4.090990    2.063150   -0.733380
  C      3.290980   -0.418020   -0.129080
  N      2.517540   -1.432020    0.239360
  N      4.535490   -0.284410    0.395800
  H      5.043630    0.571890    0.222900
  H      4.723350   -0.733270    1.281800
  H      1.934790    0.102300   -1.403790
  H      1.674640   -1.505620   -0.316100
  H      2.928500   -2.218500    0.725490
  H      3.735750    0.862770   -3.513850
  H      5.137540    0.646990   -2.493330
  H      4.753740    2.229300   -3.127400

 Total Charge           Charge          ....    0
 Multiplicity           Mult            ....    1
 Number of Electrons    NEL             ....   48
 Basis Dimension        Dim             ....  312

ORBITAL ENERGIES
----------------

  NO   OCC          E(Eh)            E(eV)
   0   2.0000     -14.213896      -386.7798
   1   2.0000     -14.209173      -386.6513
   2   2.0000     -10.159696      -276.4594
   3   2.0000     -10.091853      -274.6133
   4   2.0000     -10.077672      -274.2274
   5   2.0000     -10.038054      -273.1493
   6   2.0000      -1.136865       -30.9357
   7   2.0000      -1.039305       -28.2809
   8   2.0000      -0.954507       -25.9735
   9   2.0000      -0.864986       -23.5375
  10   2.0000      -0.775744       -21.1091
  11   2.0000      -0.733568       -19.9614
  12   2.0000      -0.686298       -18.6751
  13   2.0000      -0.658128       -17.9086
  14   2.0000      -0.603405       -16.4195
  15   2.0000      -0.581510       -15.8237
  16   2.0000      -0.562381       -15.3032
  17   2.0000      -0.545106       -14.8331
  18   2.0000      -0.518579       -14.1112
  19   2.0000      -0.489303       -13.3146
  20   2.0000      -0.462701       -12.5907
  21   2.0000      -0.447901       -12.1880
  22   2.0000      -0.400913       -10.9094
  23   2.0000      -0.279970        -7.6184
  24   0.0000       0.063801         1.7361
  25   0.0000       0.086679         2.3586
  26   0.0000       0.089571         2.4374
  27   0.0000       0.098810         2.6888
  28   0.0000       0.114957         3.1281

MULLIKEN ATOMIC CHARGES
-----------------------
   0 C :   -0.884973
   1 C :   -1.050201
   2 C :   -0.595531
   3 H :    0.311694
   4 H :    0.408077
   5 C :    0.671208
   6 N :   -0.517582
   7 N :   -0.508021
   8 H :    0.219607
   9 H :    0.214018
  10 H :    0.271912
  11 H :    0.218317
  12 H :    0.212644
  13 H :    0.357167
  14 H :    0.330445
  15 H :    0.341219
Sum of atomic charges:   -0.0000000

LOEWDIN ATOMIC CHARGES
----------------------
   0 C :   -0.300063
   1 C :   -0.124580
   2 C :   -0.166805
   3 H :    0.112843
   4 H :    0.107738
   5 C :   -0.549753
   6 N :    0.090065
   7 N :    0.116436
   8 H :    0.096708
   9 H :    0.103270
  10 H :    0.078502
  11 H :    0.113259
  12 H :    0.109495
  13 H :    0.075216
  14 H :    0.071382
  15 H :    0.066289

  Mayer bond orders larger than 0.100000
B(  0-C ,  1-C ) :   0.5704 B(  0-C ,  2-C ) :   0.6378 B(  0-C ,  3-H ) :   1.0746
B(  0-C ,  4-H ) :   0.8506 B(  0-C ,  5-C ) :   0.1761 B(  1-C , 13-H ) :   0.9567
B(  1-C , 14-H ) :   0.9513 B(  1-C , 15-H ) :   0.9461 B(  2-C ,  3-H ) :  -0.1011
B(  2-C ,  5-C ) :   1.1632 B(  2-C , 10-H ) :   1.1496 B(  3-H ,  4-H ) :   0.1028
B(  5-C ,  6-N ) :   0.9557 B(  5-C ,  7-N ) :   0.8603 B(  5-C , 10-H ) :  -0.3048
B(  6-N , 11-H ) :   0.9601 B(  6-N , 12-H ) :   1.0194 B(  7-N ,  8-H ) :   0.9315
B(  7-N ,  9-H ) :   1.0110

FINAL SINGLE POINT ENERGY      -267.138113889219

DIPOLE MOMENT
-------------
                                X             Y             Z
Electronic contribution:     -1.26439      -2.89739       3.62952
Nuclear contribution   :      1.44676       2.38443      -3.07370
                        -----------------------------------------
Total Dipole Moment    :      0.18237      -0.51296       0.55582
                        -----------------------------------------
Magnitude (a.u.)       :      0.77803
Magnitude (Debye)      :      1.97759

Rotational constants in cm-1:     0.235977     0.073199     0.063283
Rotational constants in MHz :  7074.404583  2194.453291  1897.179599

                             ****ORCA TERMINATED NORMALLY****
TOTAL RUN TIME: 0 days 0 hours 1 minutes 8 seconds 330 msec
