                         Program Version 5.0.0 -  RELEASE  -
|  1> !LC-PBE RIJCOSX def2-TZVPD def2/J TightSCF
|  2> *xyz 0 1
|  3> C          3.48828        1.60092       -1.52204
|  4> C          4.34297        1.31342       -2.75683
|  5> N          2.81029        0.42878       -1.01420
|  6> H          2.71455        2.33145       -1.76030
|  7> H          4.09099        2.06315       -0.73338
|  8> C          3.29098       -0.41802       -0.12908
|  9> C          2.51754       -1.43202        0.23936
| 10> N          4.53549       -0.28441        0.39580
| 11> H          5.04363        0.57189        0.22290
| 12> H          4.72335       -0.73327        1.28180
| 13> H          1.93479        0.10230       -1.40379
| 14> H          1.67464       -1.50562       -0.31610
| 15> H          2.92850       -2.21850        0.72549
| 16> H          3.73575        0.86277       -3.51385
| 17> H          5.13754        0.64699       -2.49333
| 18> H          4.75374        2.22930       -3.12740
| 19> *
| 20> %MaxCore 64000
| 21>
| 22> %pal nprocs 4
| 23> end
| 24>
| 25> %scf
| 26>   MaxIter 150
| 27> end
| 28>
| 29>
| 30>                          ****END OF INPUT****

CARTESIAN COORDINATES (ANGSTROEM)
---------------------------------
  C      3.488280    1.600920   -1.522040
  C      4.342970    1.313420   -2.756830
  N      2.810290    0.428780   -1.014200
  H      2.714550    2.331450   -1.760300
  H      4.090990    2.063150   -0.733380
  C      3.290980   -0.418020   -0.129080
  C      2.517540   -1.432020    0.239360
  N      4.535490   -0.284410    0.395800
  H      5.043630    0.571890    0.222900
  H      4.723350   -0.733270    1.281800
  H      1.934790    0.102300   -1.403790
  H      1.674640   -1.505620   -0.316100
  H      2.928500   -2.218500    0.725490
  H      3.735750    0.862770   -3.513850
  H      5.137540    0.646990   -2.493330
  H      4.753740    2.229300   -3.127400

 Total Charge           Charge          ....    0
 Multiplicity           Mult            ....    1
 Number of Electrons    NEL             ....   48
 Basis Dimension        Dim             ....  312

ORBITAL ENERGIES
----------------

  NO   OCC          E(Eh)            E(eV)
   0   2.0000     -14.216610      -386.8536
   1   2.0000     -14.214200      -386.7880
   2   2.0000     -10.165560      -276.6189
   3   2.0000     -10.158734      -276.4332
   4   2.0000     -10.103390      -274.9272
   5   2.0000     -10.020977      -272.6846
   6   2.0000      -1.149302       -31.2741
   7   2.0000      -1.055082       -28.7102
   8   2.0000      -0.952307       -25.9136
   9   2.0000      -0.872276       -23.7358
  10   2.0000      -0.792423       -21.5629
  11   2.0000      -0.753024       -20.4908
  12   2.0000      -0.686008       -18.6672
  13   2.0000      -0.648028       -17.6337
  14   2.0000      -0.619312       -16.8523
  15   2.0000      -0.581821       -15.8321
  16   2.0000      -0.577033       -15.7019
  17   2.0000      -0.544179       -14.8079
  18   2.0000      -0.513116       -13.9626
  19   2.0000      -0.505779       -13.7629
  20   2.0000      -0.502053       -13.6616
  21   2.0000      -0.487418       -13.2633
  22   2.0000      -0.390510       -10.6263
  23   2.0000      -0.280597        -7.6354
  24   0.0000       0.061073         1.6619
  25   0.0000       0.084344         2.2951
  26   0.0000       0.088975         2.4211
  27   0.0000       0.090425         2.4606
  28   0.0000       0.117987         3.2106

MULLIKEN ATOMIC CHARGES
-----------------------
   0 C :   -0.726847
   1 C :   -1.067668
   2 N :   -0.236601
   3 H :    0.347923
   4 H :    0.407941
   5 C :    0.773404
   6 C :   -1.289053
   7 N :   -0.505355
   8 H :    0.216992
   9 H :    0.233277
  10 H :    0.122529
  11 H :    0.331172
  12 H :    0.340789
  13 H :    0.329716
  14 H :    0.330875
  15 H :    0.390908
Sum of atomic charges:    0.0000000

LOEWDIN ATOMIC CHARGES
----------------------
   0 C :   -0.261027
   1 C :   -0.106819
   2 N :    0.004338
   3 H :    0.120885
   4 H :    0.115757
   5 C :   -0.566756
   6 C :   -0.030894
   7 N :    0.112995
   8 H :    0.088663
   9 H :    0.114101
  10 H :    0.151564
  11 H :    0.017228
  12 H :    0.020161
  13 H :    0.075531
  14 H :    0.072643
  15 H :    0.071630

  Mayer bond orders larger than 0.100000
B(  0-C ,  1-C ) :   0.6149 B(  0-C ,  2-N ) :   0.7648 B(  0-C ,  3-H ) :   0.9519
B(  0-C ,  4-H ) :   0.8691 B(  0-C ,  5-C ) :  -0.1478 B(  1-C , 13-H ) :   0.9617
B(  1-C , 14-H ) :   0.9521 B(  1-C , 15-H ) :   0.9277 B(  2-N ,  5-C ) :   0.9772
B(  2-N ,  6-C ) :   0.1307 B(  2-N , 10-H ) :   1.0712 B(  5-C ,  6-C ) :   0.9856
B(  5-C ,  7-N ) :   0.9146 B(  5-C , 11-H ) :  -0.1159 B(  5-C , 12-H ) :  -0.1097
B(  6-C , 11-H ) :   0.9776 B(  6-C , 12-H ) :   1.0224 B(  7-N ,  8-H ) :   0.9661
B(  7-N ,  9-H ) :   0.9684

FINAL SINGLE POINT ENERGY      -267.123541619470

DIPOLE MOMENT
-------------
                                X             Y             Z
Electronic contribution:     -0.86238      -1.03028       2.40459
Nuclear contribution   :      1.38466       1.98967      -2.80776
                        -----------------------------------------
Total Dipole Moment    :      0.52227       0.95939      -0.40317
                        -----------------------------------------
Magnitude (a.u.)       :      1.16437
Magnitude (Debye)      :      2.95958

Rotational constants in cm-1:     0.235618     0.075969     0.065309
Rotational constants in MHz :  7063.646698  2277.495424  1957.925383

                             ****ORCA TERMINATED NORMALLY****
TOTAL RUN TIME: 0 days 0 hours 1 minutes 8 seconds 107 msec
