                         Program Version 5.0.0 -  RELEASE  -
|  1> !LC-PBE RIJCOSX def2-TZVPD def2/J TightSCF
|  2> *xyz 0 1
|  3> C          3.48828        1.60092       -1.52204
|  4> C          4.34297        1.31342       -2.75683
|  5> N          2.81029        0.42878       -1.01420
|  6> H          2.71455        2.33145       -1.76030
|  7> H          4.09099        2.06315       -0.73338
|  8> C          3.29098       -0.41802       -0.12908
|  9> N          2.51754       -1.43202        0.23936
| 10> C          4.53549       -0.28441        0.39580
| 11> H          5.04363        0.57189        0.22290
| 12> H          4.72335       -0.73327        1.28180
| 13> H          1.93479        0.10230       -1.40379
| 14> H          1.67464       -1.50562       -0.31610
| 15> H          2.92850       -2.21850        0.72549
| 16> H          3.73575        0.86277       -3.51385
| 17> H          5.13754        0.64699       -2.49333
| 18> H          4.75374        2.22930       -3.12740
| 19> *
| 20> %MaxCore 64000
| 21>
| 22> %pal nprocs 4
| 23> end
| 24>
| 25> %scf
| 26>   MaxIter 150
| 27> end
| 28>
| 29>
| 30>                          ****END OF INPUT****

CARTESIAN COORDINATES (ANGSTROEM)
---------------------------------
  C      3.488280    1.600920   -1.522040
  C      4.342970    1.313420   -2.756830
  N      2.810290    0.428780   -1.014200
  H      2.714550    2.331450   -1.760300
  H      4.090990    2.063150   -0.733380
  C      3.290980   -0.418020   -0.129080
  N      2.517540   -1.432020    0.239360
  C      4.535490   -0.284410    0.395800
  H      5.043630    0.571890    0.222900
  H      4.723350   -0.733270    1.281800
  H      1.934790    0.102300   -1.403790
  H      1.674640   -1.505620   -0.316100
  H      2.928500   -2.218500    0.725490
  H      3.735750    0.862770   -3.513850
  H      5.137540    0.646990   -2.493330
  H      4.753740    2.229300   -3.127400

 Total Charge           Charge          ....    0
 Multiplicity           Mult            ....    1
 Number of Electrons    NEL             ....   48
 Basis Dimension        Dim             ....  312

ORBITAL ENERGIES
----------------

  NO   OCC          E(Eh)            E(eV)
   0   2.0000     -14.223347      -387.0369
   1   2.0000     -14.216702      -386.8561
   2   2.0000     -10.168903      -276.7099
   3   2.0000     -10.150909      -276.2203
   4   2.0000     -10.095412      -274.7101
   5   2.0000     -10.022642      -272.7299
   6   2.0000      -1.158435       -31.5226
   7   2.0000      -1.061680       -28.8898
   8   2.0000      -0.930323       -25.3154
   9   2.0000      -0.877434       -23.8762
  10   2.0000      -0.808012       -21.9871
  11   2.0000      -0.716333       -19.4924
  12   2.0000      -0.693552       -18.8725
  13   2.0000      -0.677466       -18.4348
  14   2.0000      -0.610036       -16.5999
  15   2.0000      -0.583445       -15.8764
  16   2.0000      -0.576156       -15.6780
  17   2.0000      -0.531804       -14.4711
  18   2.0000      -0.513736       -13.9795
  19   2.0000      -0.506398       -13.7798
  20   2.0000      -0.495823       -13.4920
  21   2.0000      -0.476257       -12.9596
  22   2.0000      -0.383604       -10.4384
  23   2.0000      -0.283938        -7.7263
  24   0.0000       0.060919         1.6577
  25   0.0000       0.081878         2.2280
  26   0.0000       0.089800         2.4436
  27   0.0000       0.092610         2.5200
  28   0.0000       0.119173         3.2429

MULLIKEN ATOMIC CHARGES
-----------------------
   0 C :   -0.669643
   1 C :   -1.096260
   2 N :   -0.257360
   3 H :    0.349808
   4 H :    0.396723
   5 C :    0.829324
   6 N :   -0.488155
   7 C :   -1.382702
   8 H :    0.328587
   9 H :    0.348637
  10 H :    0.149310
  11 H :    0.195759
  12 H :    0.232798
  13 H :    0.344120
  14 H :    0.335658
  15 H :    0.383398
Sum of atomic charges:    0.0000000

LOEWDIN ATOMIC CHARGES
----------------------
   0 C :   -0.256435
   1 C :   -0.103943
   2 N :    0.003612
   3 H :    0.120056
   4 H :    0.120768
   5 C :   -0.573967
   6 N :    0.104323
   7 C :   -0.020052
   8 H :   -0.000654
   9 H :    0.012758
  10 H :    0.145751
  11 H :    0.105988
  12 H :    0.122354
  13 H :    0.072803
  14 H :    0.074155
  15 H :    0.072484

  Mayer bond orders larger than 0.100000
B(  0-C ,  1-C ) :   0.6072 B(  0-C ,  2-N ) :   0.7486 B(  0-C ,  3-H ) :   0.9018
B(  0-C ,  4-H ) :   0.8910 B(  0-C ,  7-C ) :   0.1653 B(  1-C , 13-H ) :   0.9409
B(  1-C , 14-H ) :   0.9652 B(  1-C , 15-H ) :   0.9212 B(  2-N ,  5-C ) :   0.9667
B(  2-N , 10-H ) :   1.1058 B(  5-C ,  6-N ) :   0.8892 B(  5-C ,  7-C ) :   1.0759
B(  5-C ,  9-H ) :  -0.1265 B(  6-N , 11-H ) :   1.0127 B(  6-N , 12-H ) :   0.9754
B(  7-C ,  8-H ) :   0.9839 B(  7-C ,  9-H ) :   1.0270

FINAL SINGLE POINT ENERGY      -267.123729726377

DIPOLE MOMENT
-------------
                                X             Y             Z
Electronic contribution:     -2.82058      -2.27977       2.17488
Nuclear contribution   :      1.81275       2.23313      -2.77458
                        -----------------------------------------
Total Dipole Moment    :     -1.00783      -0.04664      -0.59969
                        -----------------------------------------
Magnitude (a.u.)       :      1.17368
Magnitude (Debye)      :      2.98326

Rotational constants in cm-1:     0.245202     0.073668     0.064348
Rotational constants in MHz :  7350.977980  2208.513334  1929.108541

                             ****ORCA TERMINATED NORMALLY****
TOTAL RUN TIME: 0 days 0 hours 1 minutes 8 seconds 307 msec
