                         Program Version 5.0.0 -  RELEASE  -
|  1> !LC-PBE RIJCOSX def2-TZVPD def2/J TightSCF xyzfile
|  2>
|  3> *xyzfile 0 1 D1.xyz
|  4>
|  5> %MaxCore 64000
|  6>
|  7> %pal nprocs 4
|  8> end
|  9>
| 10> %scf
| 11>   MaxIter 150
| 12> end
| 13>
| 14>
| 15>                          ****END OF INPUT****

CARTESIAN COORDINATES (ANGSTROEM)
---------------------------------
  C      3.488276    1.600919   -1.522040
  C      4.342970    1.313419   -2.756826
  C      2.810285    0.428783   -1.014196
  H      5.132033    0.604994   -2.484466
  C      3.535896    0.749253   -3.924604
  H      4.841247    2.242136   -3.054083
  H      2.991617   -0.132199   -3.574137
  H      4.225505    0.392784   -4.695962
  C      2.564776    1.750890   -4.544523
  H      1.918749    2.171679   -3.769419
  C      1.686235    1.161657   -5.650111
  H      3.132494    2.594775   -4.951604
  C      0.839616   -0.037582   -5.220473
  H      2.323886    0.866395   -6.490796
  H      1.029518    1.951850   -6.029329
  C     -0.151019    0.254955   -4.094256
  H      1.499442   -0.857141   -4.922958
  H      0.290097   -0.410143   -6.091131
  H      0.328265    0.833022   -3.299125
  C     -0.721843   -0.999513   -3.439309
  H     -0.957367    0.884951   -4.485450
  H     -1.083403   -1.697555   -4.205656
  H     -1.581056   -0.723848   -2.820490
  C      0.287250   -1.711771   -2.527405
  H      1.131780   -2.067380   -3.159396
  H     -0.204137   -2.637326   -2.170480
  F      0.710505   -0.927506   -1.481767
  H      2.714548    2.331455   -1.760302
  H      4.090991    2.063151   -0.733382
  C      3.290978   -0.418021   -0.129083
  N      2.517536   -1.432017    0.239360
  N      4.535490   -0.284410    0.395800
  H      5.043627    0.571888    0.222899
  H      4.723346   -0.733273    1.281800
  H      1.934787    0.102305   -1.403788
  H      1.674638   -1.505616   -0.316095
  H      2.928503   -2.218502    0.725494

 Total Charge           Charge          ....    0
 Multiplicity           Mult            ....    1
 Number of Electrons    NEL             ....  112
 Basis Dimension        Dim             ....  728

ORBITAL ENERGIES
----------------

  NO   OCC          E(Eh)            E(eV)
   0   2.0000     -24.505204      -666.8205
   1   2.0000     -14.198981      -386.3739
   2   2.0000     -14.181999      -385.9118
   3   2.0000     -10.206662      -277.7374
   4   2.0000     -10.141430      -275.9624
   5   2.0000     -10.127607      -275.5862
   6   2.0000     -10.111855      -275.1576
   7   2.0000     -10.107944      -275.0512
   8   2.0000     -10.103379      -274.9269
   9   2.0000     -10.095441      -274.7109
  10   2.0000     -10.089858      -274.5590
  11   2.0000     -10.085039      -274.4279
  12   2.0000     -10.078009      -274.2366
  13   2.0000     -10.010117      -272.3891
  14   2.0000      -1.392025       -37.8789
  15   2.0000      -1.118285       -30.4301
  16   2.0000      -1.022169       -27.8146
  17   2.0000      -1.002757       -27.2864
  18   2.0000      -0.976323       -26.5671
  19   2.0000      -0.943733       -25.6803
  20   2.0000      -0.905289       -24.6342
  21   2.0000      -0.862860       -23.4796
  22   2.0000      -0.834900       -22.7188
  23   2.0000      -0.798288       -21.7225
  24   2.0000      -0.764746       -20.8098
  25   2.0000      -0.747474       -20.3398
  26   2.0000      -0.722236       -19.6530
  27   2.0000      -0.703983       -19.1564
  28   2.0000      -0.689009       -18.7489
  29   2.0000      -0.671384       -18.2693
  30   2.0000      -0.660758       -17.9801
  31   2.0000      -0.645796       -17.5730
  32   2.0000      -0.634531       -17.2665
  33   2.0000      -0.612290       -16.6613
  34   2.0000      -0.601111       -16.3571
  35   2.0000      -0.586296       -15.9539
  36   2.0000      -0.578661       -15.7462
  37   2.0000      -0.565872       -15.3982
  38   2.0000      -0.554757       -15.0957
  39   2.0000      -0.541853       -14.7446
  40   2.0000      -0.535165       -14.5626
  41   2.0000      -0.520188       -14.1550
  42   2.0000      -0.507944       -13.8218
  43   2.0000      -0.501668       -13.6511
  44   2.0000      -0.493604       -13.4317
  45   2.0000      -0.489954       -13.3323
  46   2.0000      -0.467949       -12.7335
  47   2.0000      -0.459538       -12.5047
  48   2.0000      -0.448794       -12.2123
  49   2.0000      -0.445142       -12.1129
  50   2.0000      -0.441317       -12.0088
  51   2.0000      -0.424634       -11.5549
  52   2.0000      -0.418168       -11.3789
  53   2.0000      -0.412381       -11.2215
  54   2.0000      -0.382838       -10.4175
  55   2.0000      -0.261679        -7.1206
  56   0.0000       0.062134         1.6908
  57   0.0000       0.071346         1.9414
  58   0.0000       0.073646         2.0040
  59   0.0000       0.078303         2.1307
  60   0.0000       0.090842         2.4719

MULLIKEN ATOMIC CHARGES
-----------------------
   0 C :   -1.090672
   1 C :   -0.648380
   2 C :   -1.426619
   3 H :    0.359152
   4 C :   -0.412780
   5 H :    0.359569
   6 H :    0.183821
   7 H :    0.332472
   8 C :   -0.685630
   9 H :    0.340057
  10 C :   -0.935407
  11 H :    0.348221
  12 C :   -0.683640
  13 H :    0.381608
  14 H :    0.377444
  15 C :   -0.453844
  16 H :    0.347171
  17 H :    0.383680
  18 H :    0.240666
  19 C :   -0.955117
  20 H :    0.367424
  21 H :    0.369495
  22 H :    0.416654
  23 C :   -0.394114
  24 H :    0.367559
  25 H :    0.383780
  26 F :   -0.556525
  27 H :    0.310098
  28 H :    0.478806
  29 C :    0.270071
  30 N :   -0.503737
  31 N :   -0.521001
  32 H :    0.239470
  33 H :    0.193402
  34 H :    1.694050
  35 H :    0.349377
  36 H :    0.173422
Sum of atomic charges:    0.0000000

LOEWDIN ATOMIC CHARGES
----------------------
   0 C :   -0.240735
   1 C :   -0.220653
   2 C :   -0.147179
   3 H :    0.118649
   4 C :   -0.228469
   5 H :    0.115829
   6 H :    0.102889
   7 H :    0.124820
   8 C :   -0.233114
   9 H :    0.104899
  10 C :   -0.228924
  11 H :    0.124210
  12 C :   -0.236559
  13 H :    0.119166
  14 H :    0.119062
  15 C :   -0.226229
  16 H :    0.102458
  17 H :    0.122282
  18 H :    0.111505
  19 C :   -0.196780
  20 H :    0.127589
  21 H :    0.130572
  22 H :    0.122224
  23 C :   -0.212914
  24 H :    0.134475
  25 H :    0.133100
  26 F :   -0.071996
  27 H :    0.110999
  28 H :    0.111713
  29 C :   -0.528449
  30 N :    0.102615
  31 N :    0.115295
  32 H :    0.094172
  33 H :    0.100641
  34 H :    0.044551
  35 H :    0.068778
  36 H :    0.109504

  Mayer bond orders larger than 0.100000
B(  0-C ,  1-C ) :   0.6726 B(  0-C ,  2-C ) :   0.4156 B(  0-C , 27-H ) :   1.0522
B(  0-C , 28-H ) :   0.8716 B(  0-C , 29-C ) :   0.1762 B(  1-C ,  2-C ) :  -0.1914
B(  1-C ,  3-H ) :   0.8992 B(  1-C ,  4-C ) :   0.8971 B(  1-C ,  5-H ) :   0.8928
B(  2-C ,  4-C ) :   0.1012 B(  2-C , 26-F ) :   0.6629 B(  2-C , 28-H ) :  -0.1331
B(  2-C , 29-C ) :   1.7386 B(  2-C , 34-H ) :  -0.7921 B(  4-C ,  6-H ) :   1.1504
B(  4-C ,  7-H ) :   0.8912 B(  4-C ,  8-C ) :   0.4513 B(  6-H ,  7-H ) :   0.1128
B(  8-C ,  9-H ) :   0.9914 B(  8-C , 10-C ) :   0.8069 B(  8-C , 11-H ) :   0.9305
B( 10-C , 12-C ) :   0.8659 B( 10-C , 13-H ) :   0.9424 B( 10-C , 14-H ) :   0.9240
B( 12-C , 15-C ) :   0.4414 B( 12-C , 16-H ) :   0.9623 B( 12-C , 17-H ) :   0.9089
B( 15-C , 18-H ) :   1.0244 B( 15-C , 19-C ) :   0.8403 B( 15-C , 20-H ) :   0.8987
B( 19-C , 21-H ) :   0.9212 B( 19-C , 22-H ) :   0.8688 B( 19-C , 23-C ) :   0.8321
B( 19-C , 26-F ) :   0.1621 B( 23-C , 24-H ) :   0.9285 B( 23-C , 25-H ) :   0.8844
B( 23-C , 26-F ) :   0.6274 B( 26-F , 29-C ) :   0.1083 B( 26-F , 34-H ) :  -1.0144
B( 26-F , 35-H ) :   0.1125 B( 29-C , 30-N ) :   0.9704 B( 29-C , 31-N ) :   0.8966
B( 29-C , 34-H ) :  -0.1321 B( 30-N , 35-H ) :   0.7592 B( 30-N , 36-H ) :   1.0738
B( 31-N , 32-H ) :   0.9299 B( 31-N , 33-H ) :   1.0424

FINAL SINGLE POINT ENERGY      -640.498100432861

DIPOLE MOMENT
-------------
                                X             Y             Z
Electronic contribution:     -1.59234      -4.84744      10.64911
Nuclear contribution   :      1.15699       3.94991     -10.89335
                        -----------------------------------------
Total Dipole Moment    :     -0.43535      -0.89752      -0.24425
                        -----------------------------------------
Magnitude (a.u.)       :      1.02700
Magnitude (Debye)      :      2.61044

Rotational constants in cm-1:     0.026548     0.016177     0.010851
Rotational constants in MHz :   795.884848   484.988695   325.313537

                             ****ORCA TERMINATED NORMALLY****
TOTAL RUN TIME: 0 days 0 hours 8 minutes 49 seconds 681 msec
