                         Program Version 5.0.0 -  RELEASE  -
|  1> !LC-PBE RIJCOSX def2-TZVPD def2/J TightSCF xyzfile
|  2>
|  3> *xyzfile 0 1 D2.xyz
|  4>
|  5> %MaxCore 64000
|  6>
|  7> %pal nprocs 4
|  8> end
|  9>
| 10> %scf
| 11>   MaxIter 150
| 12> end
| 13>
| 14>
| 15>                          ****END OF INPUT****

CARTESIAN COORDINATES (ANGSTROEM)
---------------------------------
  C      3.488276    1.600919   -1.522040
  C      4.342970    1.313419   -2.756826
  N      2.810285    0.428783   -1.014196
  H      5.132033    0.604994   -2.484466
  C      3.535896    0.749253   -3.924604
  H      4.841247    2.242136   -3.054083
  H      2.991617   -0.132199   -3.574137
  H      4.225505    0.392784   -4.695962
  C      2.564776    1.750890   -4.544523
  H      1.918749    2.171679   -3.769419
  C      1.686235    1.161657   -5.650111
  H      3.132494    2.594775   -4.951604
  C      0.839616   -0.037582   -5.220473
  H      2.323886    0.866395   -6.490796
  H      1.029518    1.951850   -6.029329
  C     -0.151019    0.254955   -4.094256
  H      1.499442   -0.857141   -4.922958
  H      0.290097   -0.410143   -6.091131
  H      0.328265    0.833022   -3.299125
  C     -0.721843   -0.999513   -3.439309
  H     -0.957367    0.884951   -4.485450
  H     -1.083403   -1.697555   -4.205656
  H     -1.581056   -0.723848   -2.820490
  C      0.287250   -1.711771   -2.527405
  H      1.131780   -2.067380   -3.159396
  H     -0.204137   -2.637326   -2.170480
  F      0.710505   -0.927506   -1.481767
  H      2.714548    2.331455   -1.760302
  H      4.090991    2.063151   -0.733382
  C      3.290978   -0.418021   -0.129083
  C      2.517536   -1.432017    0.239360
  N      4.535490   -0.284410    0.395800
  H      5.043627    0.571888    0.222899
  H      4.723346   -0.733273    1.281800
  H      1.934787    0.102305   -1.403788
  H      1.674638   -1.505616   -0.316095
  H      2.928503   -2.218502    0.725494

 Total Charge           Charge          ....    0
 Multiplicity           Mult            ....    1
 Number of Electrons    NEL             ....  112
 Basis Dimension        Dim             ....  728

ORBITAL ENERGIES
----------------

  NO   OCC          E(Eh)            E(eV)
   0   2.0000     -24.502961      -666.7595
   1   2.0000     -14.197704      -386.3392
   2   2.0000     -14.188715      -386.0946
   3   2.0000     -10.205469      -277.7049
   4   2.0000     -10.145389      -276.0701
   5   2.0000     -10.142146      -275.9818
   6   2.0000     -10.129446      -275.6362
   7   2.0000     -10.118826      -275.3473
   8   2.0000     -10.115347      -275.2526
   9   2.0000     -10.113301      -275.1969
  10   2.0000     -10.109982      -275.1066
  11   2.0000     -10.107717      -275.0450
  12   2.0000     -10.107123      -275.0288
  13   2.0000      -9.992706      -271.9154
  14   2.0000      -1.389750       -37.8170
  15   2.0000      -1.129774       -30.7427
  16   2.0000      -1.039290       -28.2805
  17   2.0000      -1.010683       -27.5021
  18   2.0000      -0.979497       -26.6535
  19   2.0000      -0.950488       -25.8641
  20   2.0000      -0.900080       -24.4924
  21   2.0000      -0.875107       -23.8129
  22   2.0000      -0.837275       -22.7834
  23   2.0000      -0.809048       -22.0153
  24   2.0000      -0.772588       -21.0232
  25   2.0000      -0.756342       -20.5811
  26   2.0000      -0.733312       -19.9544
  27   2.0000      -0.715676       -19.4745
  28   2.0000      -0.689563       -18.7640
  29   2.0000      -0.673632       -18.3305
  30   2.0000      -0.659417       -17.9436
  31   2.0000      -0.646534       -17.5931
  32   2.0000      -0.633292       -17.2327
  33   2.0000      -0.620841       -16.8939
  34   2.0000      -0.612587       -16.6694
  35   2.0000      -0.596472       -16.2308
  36   2.0000      -0.580957       -15.8086
  37   2.0000      -0.574184       -15.6243
  38   2.0000      -0.568735       -15.4761
  39   2.0000      -0.552629       -15.0378
  40   2.0000      -0.536230       -14.5916
  41   2.0000      -0.516965       -14.0673
  42   2.0000      -0.510002       -13.8779
  43   2.0000      -0.504464       -13.7272
  44   2.0000      -0.501837       -13.6557
  45   2.0000      -0.492508       -13.4018
  46   2.0000      -0.477185       -12.9849
  47   2.0000      -0.471410       -12.8277
  48   2.0000      -0.467462       -12.7203
  49   2.0000      -0.455762       -12.4019
  50   2.0000      -0.448719       -12.2103
  51   2.0000      -0.441761       -12.0209
  52   2.0000      -0.437636       -11.9087
  53   2.0000      -0.434118       -11.8129
  54   2.0000      -0.371784       -10.1167
  55   2.0000      -0.260007        -7.0751
  56   0.0000       0.062910         1.7119
  57   0.0000       0.066888         1.8201
  58   0.0000       0.071942         1.9576
  59   0.0000       0.075080         2.0430
  60   0.0000       0.087988         2.3943

MULLIKEN ATOMIC CHARGES
-----------------------
   0 C :   -1.286554
   1 C :   -0.614880
   2 N :   -0.167628
   3 H :    0.379396
   4 C :   -0.471348
   5 H :    0.426949
   6 H :    0.213526
   7 H :    0.326229
   8 C :   -0.701130
   9 H :    0.359941
  10 C :   -0.948269
  11 H :    0.352092
  12 C :   -0.691152
  13 H :    0.383051
  14 H :    0.380158
  15 C :   -0.490265
  16 H :    0.354946
  17 H :    0.383376
  18 H :    0.259144
  19 C :   -0.937459
  20 H :    0.376483
  21 H :    0.365687
  22 H :    0.415269
  23 C :   -0.406110
  24 H :    0.357978
  25 H :    0.406343
  26 F :   -0.612582
  27 H :    0.369722
  28 H :    0.523117
  29 C :    0.812457
  30 C :   -1.399679
  31 N :   -0.496390
  32 H :    0.224790
  33 H :    0.239350
  34 H :    0.439739
  35 H :    0.534469
  36 H :    0.339234
Sum of atomic charges:   -0.0000000

LOEWDIN ATOMIC CHARGES
----------------------
   0 C :   -0.207335
   1 C :   -0.207092
   2 N :    0.028447
   3 H :    0.119295
   4 C :   -0.226760
   5 H :    0.120346
   6 H :    0.104701
   7 H :    0.127374
   8 C :   -0.235308
   9 H :    0.102891
  10 C :   -0.227476
  11 H :    0.124960
  12 C :   -0.235964
  13 H :    0.120350
  14 H :    0.120243
  15 C :   -0.228021
  16 H :    0.102850
  17 H :    0.123735
  18 H :    0.108456
  19 C :   -0.196983
  20 H :    0.127938
  21 H :    0.130937
  22 H :    0.122754
  23 C :   -0.210822
  24 H :    0.134465
  25 H :    0.137088
  26 F :   -0.073522
  27 H :    0.119198
  28 H :    0.119615
  29 C :   -0.547128
  30 C :   -0.015810
  31 N :    0.110343
  32 H :    0.085869
  33 H :    0.111273
  34 H :    0.097916
  35 H :   -0.011223
  36 H :    0.022403

  Mayer bond orders larger than 0.100000
B(  0-C ,  1-C ) :   0.6970 B(  0-C ,  2-N ) :   0.9609 B(  0-C , 27-H ) :   0.9186
B(  0-C , 28-H ) :   0.7621 B(  0-C , 29-C ) :  -0.2338 B(  0-C , 31-N ) :   0.1525
B(  0-C , 34-H ) :  -0.2534 B(  1-C ,  3-H ) :   0.8630 B(  1-C ,  4-C ) :   0.8991
B(  1-C ,  5-H ) :   0.9139 B(  2-N , 29-C ) :   0.8082 B(  2-N , 34-H ) :   0.9493
B(  4-C ,  6-H ) :   1.1056 B(  4-C ,  7-H ) :   0.9180 B(  4-C ,  8-C ) :   0.4421
B(  6-H ,  7-H ) :   0.1049 B(  8-C ,  9-H ) :   0.9803 B(  8-C , 10-C ) :   0.8314
B(  8-C , 11-H ) :   0.9265 B( 10-C , 12-C ) :   0.8586 B( 10-C , 13-H ) :   0.9421
B( 10-C , 14-H ) :   0.9266 B( 12-C , 15-C ) :   0.4522 B( 12-C , 16-H ) :   0.9629
B( 12-C , 17-H ) :   0.9083 B( 15-C , 18-H ) :   1.0152 B( 15-C , 19-C ) :   0.8762
B( 15-C , 20-H ) :   0.8923 B( 19-C , 21-H ) :   0.9303 B( 19-C , 22-H ) :   0.8653
B( 19-C , 23-C ) :   0.8300 B( 19-C , 26-F ) :   0.1412 B( 23-C , 24-H ) :   0.9397
B( 23-C , 25-H ) :   0.8655 B( 23-C , 26-F ) :   0.6486 B( 26-F , 30-C ) :   0.2687
B( 26-F , 35-H ) :  -0.1524 B( 29-C , 30-C ) :   1.0058 B( 29-C , 31-N ) :   0.8349
B( 29-C , 34-H ) :  -0.1938 B( 29-C , 36-H ) :  -0.1615 B( 30-C , 35-H ) :   0.8250
B( 30-C , 36-H ) :   1.1245 B( 31-N , 32-H ) :   0.9778 B( 31-N , 33-H ) :   0.9763

FINAL SINGLE POINT ENERGY      -640.483546003081

DIPOLE MOMENT
-------------
                                X             Y             Z
Electronic contribution:     -1.28030      -3.13840       9.38936
Nuclear contribution   :      1.09892       3.58083     -10.64472
                        -----------------------------------------
Total Dipole Moment    :     -0.18137       0.44244      -1.25535
                        -----------------------------------------
Magnitude (a.u.)       :      1.34334
Magnitude (Debye)      :      3.41450

Rotational constants in cm-1:     0.026768     0.016312     0.010954
Rotational constants in MHz :   802.489946   489.033275   328.388904

                             ****ORCA TERMINATED NORMALLY****
TOTAL RUN TIME: 0 days 0 hours 9 minutes 7 seconds 452 msec
