                         Program Version 5.0.0 -  RELEASE  -
|  1> !LC-PBE RIJCOSX def2-TZVPD def2/J TightSCF xyzfile
|  2>
|  3> *xyzfile 0 1 D3.xyz
|  4>
|  5> %MaxCore 64000
|  6>
|  7> %pal nprocs 4
|  8> end
|  9>
| 10> %scf
| 11>   MaxIter 150
| 12> end
| 13>
| 14>
| 15>                          ****END OF INPUT****

CARTESIAN COORDINATES (ANGSTROEM)
---------------------------------
  C      3.488276    1.600919   -1.522040
  C      4.342970    1.313419   -2.756826
  N      2.810285    0.428783   -1.014196
  H      5.132033    0.604994   -2.484466
  C      3.535896    0.749253   -3.924604
  H      4.841247    2.242136   -3.054083
  H      2.991617   -0.132199   -3.574137
  H      4.225505    0.392784   -4.695962
  C      2.564776    1.750890   -4.544523
  H      1.918749    2.171679   -3.769419
  C      1.686235    1.161657   -5.650111
  H      3.132494    2.594775   -4.951604
  C      0.839616   -0.037582   -5.220473
  H      2.323886    0.866395   -6.490796
  H      1.029518    1.951850   -6.029329
  C     -0.151019    0.254955   -4.094256
  H      1.499442   -0.857141   -4.922958
  H      0.290097   -0.410143   -6.091131
  H      0.328265    0.833022   -3.299125
  C     -0.721843   -0.999513   -3.439309
  H     -0.957367    0.884951   -4.485450
  H     -1.083403   -1.697555   -4.205656
  H     -1.581056   -0.723848   -2.820490
  C      0.287250   -1.711771   -2.527405
  H      1.131780   -2.067380   -3.159396
  H     -0.204137   -2.637326   -2.170480
  F      0.710505   -0.927506   -1.481767
  H      2.714548    2.331455   -1.760302
  H      4.090991    2.063151   -0.733382
  C      3.290978   -0.418021   -0.129083
  N      2.517536   -1.432017    0.239360
  C      4.535490   -0.284410    0.395800
  H      5.043627    0.571888    0.222899
  H      4.723346   -0.733273    1.281800
  H      1.934787    0.102305   -1.403788
  H      1.674638   -1.505616   -0.316095
  H      2.928503   -2.218502    0.725494

 Total Charge           Charge          ....    0
 Multiplicity           Mult            ....    1
 Number of Electrons    NEL             ....  112
 Basis Dimension        Dim             ....  728

ORBITAL ENERGIES
----------------

  NO   OCC          E(Eh)            E(eV)
   0   2.0000     -24.533355      -667.5865
   1   2.0000     -14.193600      -386.2275
   2   2.0000     -14.185988      -386.0204
   3   2.0000     -10.223981      -278.2087
   4   2.0000     -10.149014      -276.1687
   5   2.0000     -10.141739      -275.9707
   6   2.0000     -10.134071      -275.7621
   7   2.0000     -10.126497      -275.5560
   8   2.0000     -10.120494      -275.3926
   9   2.0000     -10.115374      -275.2533
  10   2.0000     -10.109571      -275.0954
  11   2.0000     -10.105569      -274.9865
  12   2.0000     -10.099860      -274.8312
  13   2.0000     -10.003877      -272.2193
  14   2.0000      -1.418673       -38.6041
  15   2.0000      -1.135704       -30.9041
  16   2.0000      -1.041573       -28.3426
  17   2.0000      -1.016445       -27.6589
  18   2.0000      -0.983530       -26.7632
  19   2.0000      -0.945918       -25.7397
  20   2.0000      -0.899461       -24.4756
  21   2.0000      -0.864841       -23.5335
  22   2.0000      -0.857556       -23.3353
  23   2.0000      -0.820851       -22.3365
  24   2.0000      -0.783048       -21.3078
  25   2.0000      -0.755044       -20.5458
  26   2.0000      -0.730265       -19.8715
  27   2.0000      -0.717087       -19.5129
  28   2.0000      -0.711799       -19.3690
  29   2.0000      -0.678502       -18.4630
  30   2.0000      -0.671452       -18.2711
  31   2.0000      -0.659057       -17.9339
  32   2.0000      -0.640474       -17.4282
  33   2.0000      -0.627378       -17.0718
  34   2.0000      -0.609807       -16.5937
  35   2.0000      -0.598141       -16.2762
  36   2.0000      -0.584294       -15.8994
  37   2.0000      -0.579180       -15.7603
  38   2.0000      -0.571642       -15.5552
  39   2.0000      -0.548048       -14.9131
  40   2.0000      -0.543617       -14.7926
  41   2.0000      -0.520695       -14.1688
  42   2.0000      -0.515169       -14.0185
  43   2.0000      -0.507923       -13.8213
  44   2.0000      -0.505314       -13.7503
  45   2.0000      -0.492909       -13.4127
  46   2.0000      -0.482708       -13.1352
  47   2.0000      -0.480614       -13.0782
  48   2.0000      -0.469858       -12.7855
  49   2.0000      -0.465483       -12.6664
  50   2.0000      -0.457501       -12.4492
  51   2.0000      -0.441917       -12.0252
  52   2.0000      -0.439490       -11.9591
  53   2.0000      -0.432684       -11.7739
  54   2.0000      -0.360063        -9.7978
  55   2.0000      -0.264814        -7.2060
  56   0.0000       0.055254         1.5035
  57   0.0000       0.064029         1.7423
  58   0.0000       0.070532         1.9193
  59   0.0000       0.074667         2.0318
  60   0.0000       0.088198         2.4000

MULLIKEN ATOMIC CHARGES
-----------------------
   0 C :   -1.246175
   1 C :   -0.652436
   2 N :   -0.246332
   3 H :    0.399559
   4 C :   -0.450691
   5 H :    0.410596
   6 H :    0.198892
   7 H :    0.325137
   8 C :   -0.687177
   9 H :    0.338291
  10 C :   -0.965935
  11 H :    0.355077
  12 C :   -0.679227
  13 H :    0.386351
  14 H :    0.380839
  15 C :   -0.483061
  16 H :    0.354685
  17 H :    0.385781
  18 H :    0.251351
  19 C :   -0.963790
  20 H :    0.373968
  21 H :    0.366635
  22 H :    0.416461
  23 C :   -0.371754
  24 H :    0.358131
  25 H :    0.399128
  26 F :   -0.602055
  27 H :    0.377034
  28 H :    0.525741
  29 C :    0.849887
  30 N :   -0.497456
  31 C :   -1.486586
  32 H :    0.360983
  33 H :    0.358090
  34 H :    0.532935
  35 H :    0.432300
  36 H :    0.194821
Sum of atomic charges:    0.0000000

LOEWDIN ATOMIC CHARGES
----------------------
   0 C :   -0.202479
   1 C :   -0.200932
   2 N :    0.027805
   3 H :    0.121353
   4 C :   -0.228194
   5 H :    0.121972
   6 H :    0.101962
   7 H :    0.127234
   8 C :   -0.235408
   9 H :    0.102479
  10 C :   -0.227221
  11 H :    0.125619
  12 C :   -0.235842
  13 H :    0.120809
  14 H :    0.120334
  15 C :   -0.226852
  16 H :    0.102531
  17 H :    0.123939
  18 H :    0.108922
  19 C :   -0.195075
  20 H :    0.129186
  21 H :    0.132818
  22 H :    0.123528
  23 C :   -0.207994
  24 H :    0.136005
  25 H :    0.136739
  26 F :   -0.061477
  27 H :    0.118642
  28 H :    0.124276
  29 C :   -0.557315
  30 N :    0.113726
  31 C :   -0.025248
  32 H :   -0.004830
  33 H :    0.008467
  34 H :    0.094421
  35 H :    0.063956
  36 H :    0.122144

  Mayer bond orders larger than 0.100000
B(  0-C ,  1-C ) :   0.7526 B(  0-C ,  2-N ) :   0.9338 B(  0-C , 27-H ) :   0.8830
B(  0-C , 28-H ) :   0.7476 B(  0-C , 29-C ) :  -0.1952 B(  0-C , 31-C ) :   0.2180
B(  0-C , 34-H ) :  -0.3355 B(  1-C ,  3-H ) :   0.8694 B(  1-C ,  4-C ) :   0.8713
B(  1-C ,  5-H ) :   0.8940 B(  2-N , 29-C ) :   0.8519 B(  2-N , 34-H ) :   0.8777
B(  4-C ,  6-H ) :   1.1132 B(  4-C ,  7-H ) :   0.9214 B(  4-C ,  8-C ) :   0.4496
B(  6-H ,  7-H ) :   0.1074 B(  8-C ,  9-H ) :   0.9956 B(  8-C , 10-C ) :   0.8211
B(  8-C , 11-H ) :   0.9269 B( 10-C , 12-C ) :   0.8634 B( 10-C , 13-H ) :   0.9423
B( 10-C , 14-H ) :   0.9272 B( 12-C , 15-C ) :   0.4447 B( 12-C , 16-H ) :   0.9609
B( 12-C , 17-H ) :   0.9073 B( 15-C , 18-H ) :   1.0202 B( 15-C , 19-C ) :   0.8538
B( 15-C , 20-H ) :   0.8996 B( 19-C , 21-H ) :   0.9198 B( 19-C , 22-H ) :   0.8760
B( 19-C , 23-C ) :   0.8449 B( 19-C , 26-F ) :   0.1669 B( 23-C , 24-H ) :   0.9426
B( 23-C , 25-H ) :   0.8640 B( 23-C , 26-F ) :   0.6150 B( 26-F , 34-H ) :  -0.1333
B( 29-C , 30-N ) :   0.9689 B( 29-C , 31-C ) :   0.8930 B( 29-C , 32-H ) :  -0.1024
B( 29-C , 33-H ) :  -0.1340 B( 29-C , 34-H ) :  -0.1020 B( 30-N , 35-H ) :   0.7249
B( 30-N , 36-H ) :   1.0204 B( 31-C , 32-H ) :   1.0023 B( 31-C , 33-H ) :   1.0587

FINAL SINGLE POINT ENERGY      -640.495857060378

DIPOLE MOMENT
-------------
                                X             Y             Z
Electronic contribution:     -3.25869      -4.31166       9.02493
Nuclear contribution   :      1.49917       3.80845     -10.61369
                        -----------------------------------------
Total Dipole Moment    :     -1.75952      -0.50320      -1.58876
                        -----------------------------------------
Magnitude (a.u.)       :      2.42349
Magnitude (Debye)      :      6.16002

Rotational constants in cm-1:     0.026547     0.016542     0.011018
Rotational constants in MHz :   795.873737   495.912559   330.323979

                             ****ORCA TERMINATED NORMALLY****
TOTAL RUN TIME: 0 days 0 hours 9 minutes 4 seconds 834 msec
