                         Program Version 5.0.0 -  RELEASE  -
|  1> !LC-BLYP RIJCOSX def2-SVPD def2/J TightSCF
|  2> *xyz -1 1
|  3> C         -2.12050        0.88520        1.78951
|  4> C         -0.77894        0.17197        1.80496
|  5> H          0.01569        0.91077        1.93915
|  6> H         -0.74355       -0.50683        2.66542
|  7> C         -0.60249       -0.63071        0.49224
|  8> H          0.31389       -1.24035        0.60350
|  9> H         -0.36383        0.11332       -0.30117
| 10> O         -1.71206       -1.37684        0.20253
| 11> H         -2.16160        1.54956        0.95175
| 12> H         -2.23761        1.44436        2.69423
| 13> H         -2.90702        0.16393        1.71165
| 14> *
| 15> %MaxCore 64000
| 16>
| 17> %pal nprocs 4
| 18> end
| 19> %scf
| 20>   MaxIter 150
| 21> end
| 22>
| 23>                          ****END OF INPUT****

CARTESIAN COORDINATES (ANGSTROEM)
---------------------------------
  C     -2.120500    0.885200    1.789510
  C     -0.778940    0.171970    1.804960
  H      0.015690    0.910770    1.939150
  H     -0.743550   -0.506830    2.665420
  C     -0.602490   -0.630710    0.492240
  H      0.313890   -1.240350    0.603500
  H     -0.363830    0.113320   -0.301170
  O     -1.712060   -1.376840    0.202530
  H     -2.161600    1.549560    0.951750
  H     -2.237610    1.444360    2.694230
  H     -2.907020    0.163930    1.711650

 Total Charge           Charge          ....   -1
 Multiplicity           Mult            ....    1
 Number of Electrons    NEL             ....   34
 Basis Dimension        Dim             ....  139

ORBITAL ENERGIES
----------------

  NO   OCC          E(Eh)            E(eV)
   0   2.0000     -18.627019      -506.8670
   1   2.0000      -9.902779      -269.4683
   2   2.0000      -9.894701      -269.2485
   3   2.0000      -9.892461      -269.1875
   4   2.0000      -0.775796       -21.1105
   5   2.0000      -0.681949       -18.5568
   6   2.0000      -0.565720       -15.3940
   7   2.0000      -0.467301       -12.7159
   8   2.0000      -0.381353       -10.3772
   9   2.0000      -0.371196       -10.1008
  10   2.0000      -0.315891        -8.5958
  11   2.0000      -0.286067        -7.7843
  12   2.0000      -0.256822        -6.9885
  13   2.0000      -0.251335        -6.8392
  14   2.0000      -0.212741        -5.7890
  15   2.0000      -0.071522        -1.9462
  16   2.0000      -0.068621        -1.8673
  17   0.0000       0.218093         5.9346
  18   0.0000       0.241270         6.5653
  19   0.0000       0.258451         7.0328
  20   0.0000       0.288096         7.8395
  21   0.0000       0.309714         8.4277

MULLIKEN ATOMIC CHARGES
-----------------------
   0 C :    0.786643
   1 C :   -0.259181
   2 H :   -0.183491
   3 H :   -0.141704
   4 C :    0.427183
   5 H :   -0.249508
   6 H :   -0.143250
   7 O :   -0.791782
   8 H :   -0.145306
   9 H :   -0.214029
  10 H :   -0.085574
Sum of atomic charges:   -1.0000000

LOEWDIN ATOMIC CHARGES
----------------------
   0 C :    0.063543
   1 C :   -0.125237
   2 H :   -0.008213
   3 H :    0.005588
   4 C :   -0.235874
   5 H :   -0.027781
   6 H :   -0.020763
   7 O :   -0.544470
   8 H :   -0.025400
   9 H :   -0.046415
  10 H :   -0.034980

  Mayer bond orders larger than 0.100000
B(  0-C ,  1-C ) :   1.3029 B(  0-C ,  2-H ) :   0.1083 B(  0-C ,  3-H ) :   0.1033
B(  0-C ,  8-H ) :   0.7623 B(  0-C ,  9-H ) :   0.7481 B(  0-C , 10-H ) :   0.7860
B(  1-C ,  2-H ) :   0.9530 B(  1-C ,  3-H ) :   0.9171 B(  1-C ,  4-C ) :   1.0347
B(  1-C ,  5-H ) :   0.1503 B(  1-C ,  6-H ) :   0.1508 B(  1-C ,  8-H ) :   0.2095
B(  1-C ,  9-H ) :   0.2336 B(  1-C , 10-H ) :   0.2120 B(  3-H ,  4-C ) :   0.1081
B(  4-C ,  5-H ) :   0.9565 B(  4-C ,  6-H ) :   0.9061 B(  4-C ,  7-O ) :   1.2919

FINAL SINGLE POINT ENERGY      -193.110357642282

DIPOLE MOMENT
-------------
                                X             Y             Z
Electronic contribution:     -0.51643      -2.31236      -1.45380
Nuclear contribution   :      1.03476       3.87369       2.65163
                        -----------------------------------------
Total Dipole Moment    :      0.51833       1.56133       1.19783
                        -----------------------------------------
Magnitude (a.u.)       :      2.03500
Magnitude (Debye)      :      5.17256

Rotational constants in cm-1:     0.475803     0.193433     0.155403
Rotational constants in MHz : 14264.216647  5798.988361  4658.874800

                             ****ORCA TERMINATED NORMALLY****
TOTAL RUN TIME: 0 days 0 hours 0 minutes 16 seconds 331 msec
