                         Program Version 5.0.0 -  RELEASE  -
|  1> !LC-BLYP RIJCOSX def2-SVPD def2/J TightSCF
|  2> *xyz 1 1
|  3> C         -2.12050        0.88520        1.78951
|  4> C         -0.77894        0.17197        1.80496
|  5> H         -2.32419        1.47265        2.68608
|  6> H         -2.18770        1.54127        0.91948
|  7> N         -3.17690       -0.15948        1.61070
|  8> H          0.01569        0.91077        1.93915
|  9> H         -0.74355       -0.50683        2.66542
| 10> C         -0.60249       -0.63071        0.49224
| 11> H         -4.06474        0.23127        1.28675
| 12> H         -3.34407       -0.67151        2.48493
| 13> H         -2.71686       -0.78189        0.93588
| 14> H         -0.63812        0.03805       -0.34226
| 15> H         -1.38918       -1.35085        0.40604
| 16> H          0.34172       -1.13388        0.50602
| 17> *
| 18> %MaxCore 64000
| 19>
| 20> %pal nprocs 4
| 21> end
| 22>
| 23> %scf
| 24>   MaxIter 150
| 25> end
| 26>
| 27>
| 28>                          ****END OF INPUT****

CARTESIAN COORDINATES (ANGSTROEM)
---------------------------------
  C     -2.120500    0.885200    1.789510
  C     -0.778940    0.171970    1.804960
  H     -2.324190    1.472650    2.686080
  H     -2.187700    1.541270    0.919480
  N     -3.176900   -0.159480    1.610700
  H      0.015690    0.910770    1.939150
  H     -0.743550   -0.506830    2.665420
  C     -0.602490   -0.630710    0.492240
  H     -4.064740    0.231270    1.286750
  H     -3.344070   -0.671510    2.484930
  H     -2.716860   -0.781890    0.935880
  H     -0.638120    0.038050   -0.342260
  H     -1.389180   -1.350850    0.406040
  H      0.341720   -1.133880    0.506020

 Total Charge           Charge          ....    1
 Multiplicity           Mult            ....    1
 Number of Electrons    NEL             ....   34
 Basis Dimension        Dim             ....  160

ORBITAL ENERGIES
----------------

  NO   OCC          E(Eh)            E(eV)
   0   2.0000     -14.506142      -394.7322
   1   2.0000     -10.331727      -281.1406
   2   2.0000     -10.271282      -279.4958
   3   2.0000     -10.249932      -278.9148
   4   2.0000      -1.301004       -35.4021
   5   2.0000      -1.081812       -29.4376
   6   2.0000      -0.993299       -27.0290
   7   2.0000      -0.909467       -24.7478
   8   2.0000      -0.903268       -24.5792
   9   2.0000      -0.871929       -23.7264
  10   2.0000      -0.788827       -21.4651
  11   2.0000      -0.745299       -20.2806
  12   2.0000      -0.715477       -19.4691
  13   2.0000      -0.689929       -18.7739
  14   2.0000      -0.639871       -17.4118
  15   2.0000      -0.631346       -17.1798
  16   2.0000      -0.623099       -16.9554
  17   0.0000      -0.120080        -3.2675
  18   0.0000      -0.067438        -1.8351
  19   0.0000      -0.065180        -1.7736
  20   0.0000      -0.054854        -1.4926
  21   0.0000      -0.027284        -0.7424

MULLIKEN ATOMIC CHARGES
-----------------------
   0 C :    0.710404
   1 C :    0.025808
   2 H :   -0.259255
   3 H :   -0.044591
   4 N :   -0.437985
   5 H :   -0.175297
   6 H :   -0.048706
   7 C :    0.919529
   8 H :    0.294371
   9 H :    0.384172
  10 H :    0.059159
  11 H :   -0.052549
  12 H :   -0.241461
  13 H :   -0.133599
Sum of atomic charges:    1.0000000

LOEWDIN ATOMIC CHARGES
----------------------
   0 C :    0.072386
   1 C :   -0.033745
   2 H :    0.057149
   3 H :    0.060045
   4 N :    0.341617
   5 H :    0.053587
   6 H :    0.044024
   7 C :    0.154398
   8 H :    0.112203
   9 H :    0.115885
  10 H :    0.019841
  11 H :    0.013859
  12 H :   -0.029568
  13 H :    0.018319

  Mayer bond orders larger than 0.100000
B(  0-C ,  1-C ) :   1.1541 B(  0-C ,  2-H ) :   0.9010 B(  0-C ,  3-H ) :   0.8497
B(  0-C ,  4-N ) :   0.8587 B(  0-C ,  5-H ) :   0.1078 B(  1-C ,  5-H ) :   0.9335
B(  1-C ,  6-H ) :   0.8874 B(  1-C ,  7-C ) :   1.2449 B(  1-C , 11-H ) :   0.1817
B(  1-C , 12-H ) :   0.1411 B(  1-C , 13-H ) :   0.2005 B(  2-H ,  4-N ) :   0.1583
B(  4-N ,  8-H ) :   0.8013 B(  4-N ,  9-H ) :   0.7959 B(  4-N , 10-H ) :   0.9583
B(  7-C , 11-H ) :   0.7305 B(  7-C , 12-H ) :   0.7660 B(  7-C , 13-H ) :   0.7703
B( 10-H , 12-H ) :   0.3219 B( 12-H , 13-H ) :   0.1084

FINAL SINGLE POINT ENERGY      -174.210754701590

DIPOLE MOMENT
-------------
                                X             Y             Z
Electronic contribution:     -1.85306       0.50656       0.93598
Nuclear contribution   :      0.18509      -0.64781      -0.64735
                        -----------------------------------------
Total Dipole Moment    :     -1.66797      -0.14125       0.28862
                        -----------------------------------------
Magnitude (a.u.)       :      1.69864
Magnitude (Debye)      :      4.31759

Rotational constants in cm-1:     0.411855     0.178330     0.145265
Rotational constants in MHz : 12347.103052  5346.196801  4354.936890

                             ****ORCA TERMINATED NORMALLY****
TOTAL RUN TIME: 0 days 0 hours 0 minutes 13 seconds 720 msec
