                         Program Version 5.0.0 -  RELEASE  -
|  1> !LC-BLYP RIJCOSX def2-SVPD def2/J TightSCF
|  2> *xyz 0 1
|  3> C         -2.12050        0.88520        1.78951
|  4> C         -0.77894        0.17197        1.80496
|  5> H          0.01569        0.91077        1.93915
|  6> H         -0.74355       -0.50683        2.66542
|  7> C         -0.60249       -0.63071        0.49224
|  8> H          0.31389       -1.24035        0.60350
|  9> H         -0.36383        0.11332       -0.30117
| 10> F         -1.71206       -1.37684        0.20253
| 11> H         -2.16160        1.54956        0.95175
| 12> H         -2.23761        1.44436        2.69423
| 13> H         -2.90702        0.16393        1.71165
| 14> *
| 15> %MaxCore 64000
| 16>
| 17> %pal nprocs 4
| 18> end
| 19> %scf
| 20>   MaxIter 150
| 21> end
| 22>
| 23>                          ****END OF INPUT****

CARTESIAN COORDINATES (ANGSTROEM)
---------------------------------
  C     -2.120500    0.885200    1.789510
  C     -0.778940    0.171970    1.804960
  H      0.015690    0.910770    1.939150
  H     -0.743550   -0.506830    2.665420
  C     -0.602490   -0.630710    0.492240
  H      0.313890   -1.240350    0.603500
  H     -0.363830    0.113320   -0.301170
  F     -1.712060   -1.376840    0.202530
  H     -2.161600    1.549560    0.951750
  H     -2.237610    1.444360    2.694230
  H     -2.907020    0.163930    1.711650

 Total Charge           Charge          ....    0
 Multiplicity           Mult            ....    1
 Number of Electrons    NEL             ....   34
 Basis Dimension        Dim             ....  139

ORBITAL ENERGIES
----------------

  NO   OCC          E(Eh)            E(eV)
   0   2.0000     -24.466666      -665.7718
   1   2.0000     -10.164486      -276.5897
   2   2.0000     -10.091173      -274.5948
   3   2.0000     -10.069258      -273.9984
   4   2.0000      -1.268399       -34.5149
   5   2.0000      -0.894104       -24.3298
   6   2.0000      -0.792060       -21.5531
   7   2.0000      -0.699143       -19.0246
   8   2.0000      -0.617943       -16.8151
   9   2.0000      -0.604202       -16.4412
  10   2.0000      -0.582207       -15.8427
  11   2.0000      -0.540815       -14.7163
  12   2.0000      -0.496617       -13.5136
  13   2.0000      -0.476229       -12.9589
  14   2.0000      -0.452394       -12.3103
  15   2.0000      -0.425885       -11.5889
  16   2.0000      -0.423672       -11.5287
  17   0.0000       0.073836         2.0092
  18   0.0000       0.098398         2.6776
  19   0.0000       0.107692         2.9305
  20   0.0000       0.127085         3.4581
  21   0.0000       0.151263         4.1161

MULLIKEN ATOMIC CHARGES
-----------------------
   0 C :    0.808954
   1 C :   -0.208195
   2 H :   -0.164402
   3 H :   -0.146264
   4 C :    0.750074
   5 H :   -0.186258
   6 H :   -0.078126
   7 F :   -0.360809
   8 H :   -0.132527
   9 H :   -0.189573
  10 H :   -0.092874
Sum of atomic charges:    0.0000000

LOEWDIN ATOMIC CHARGES
----------------------
   0 C :    0.100581
   1 C :   -0.075722
   2 H :    0.029398
   3 H :    0.028117
   4 C :    0.071036
   5 H :    0.033456
   6 H :    0.041070
   7 F :   -0.189103
   8 H :   -0.009367
   9 H :   -0.014390
  10 H :   -0.015075

  Mayer bond orders larger than 0.100000
B(  0-C ,  1-C ) :   1.3269 B(  0-C ,  8-H ) :   0.7608 B(  0-C ,  9-H ) :   0.7756
B(  0-C , 10-H ) :   0.7830 B(  1-C ,  2-H ) :   0.9234 B(  1-C ,  3-H ) :   0.9059
B(  1-C ,  4-C ) :   1.1660 B(  1-C ,  5-H ) :   0.1185 B(  1-C ,  6-H ) :   0.1211
B(  1-C ,  8-H ) :   0.1927 B(  1-C ,  9-H ) :   0.2187 B(  1-C , 10-H ) :   0.1845
B(  4-C ,  5-H ) :   0.9099 B(  4-C ,  6-H ) :   0.8669 B(  4-C ,  7-F ) :   0.8542

FINAL SINGLE POINT ENERGY      -217.705532287297

DIPOLE MOMENT
-------------
                                X             Y             Z
Electronic contribution:     -0.98581      -4.81563      -3.45290
Nuclear contribution   :      1.51874       5.24801       3.69322
                        -----------------------------------------
Total Dipole Moment    :      0.53292       0.43239       0.24033
                        -----------------------------------------
Magnitude (a.u.)       :      0.72713
Magnitude (Debye)      :      1.84823

Rotational constants in cm-1:     0.461913     0.182549     0.147043
Rotational constants in MHz : 13847.794369  5472.673442  4408.246847

                             ****ORCA TERMINATED NORMALLY****
TOTAL RUN TIME: 0 days 0 hours 0 minutes 9 seconds 342 msec
