                         Program Version 5.0.0 -  RELEASE  -
|  1> !LC-BLYP RIJCOSX def2-SVPD def2/J TightSCF
|  2> *xyz 0 1
|  3> C         -2.12050        0.88520        1.78951
|  4> C         -0.77894        0.17197        1.80496
|  5> H         -2.32419        1.47265        2.68608
|  6> H         -2.18770        1.54127        0.91948
|  7> C         -3.17690       -0.15948        1.61070
|  8> H          0.01569        0.91077        1.93915
|  9> H         -0.74355       -0.50683        2.66542
| 10> C         -0.60249       -0.63071        0.49224
| 11> H         -4.06474        0.23127        1.28675
| 12> H         -3.34407       -0.67151        2.48493
| 13> H         -2.71686       -0.78189        0.93588
| 14> H         -0.63812        0.03805       -0.34226
| 15> H         -1.38918       -1.35085        0.40604
| 16> H          0.34172       -1.13388        0.50602
| 17> *
| 18> %MaxCore 64000
| 19>
| 20> %pal nprocs 4
| 21> end
| 22>
| 23> %scf
| 24>   MaxIter 150
| 25> end
| 26>
| 27>
| 28>                          ****END OF INPUT****

CARTESIAN COORDINATES (ANGSTROEM)
---------------------------------
  C     -2.120500    0.885200    1.789510
  C     -0.778940    0.171970    1.804960
  H     -2.324190    1.472650    2.686080
  H     -2.187700    1.541270    0.919480
  C     -3.176900   -0.159480    1.610700
  H      0.015690    0.910770    1.939150
  H     -0.743550   -0.506830    2.665420
  C     -0.602490   -0.630710    0.492240
  H     -4.064740    0.231270    1.286750
  H     -3.344070   -0.671510    2.484930
  H     -2.716860   -0.781890    0.935880
  H     -0.638120    0.038050   -0.342260
  H     -1.389180   -1.350850    0.406040
  H      0.341720   -1.133880    0.506020

 Total Charge           Charge          ....    0
 Multiplicity           Mult            ....    1
 Number of Electrons    NEL             ....   34
 Basis Dimension        Dim             ....  160

ORBITAL ENERGIES
----------------

  NO   OCC          E(Eh)            E(eV)
   0   2.0000     -10.077242      -274.2157
   1   2.0000     -10.069652      -274.0092
   2   2.0000     -10.067157      -273.9413
   3   2.0000     -10.041470      -273.2423
   4   2.0000      -0.915128       -24.9019
   5   2.0000      -0.823539       -22.4096
   6   2.0000      -0.751402       -20.4467
   7   2.0000      -0.669139       -18.2082
   8   2.0000      -0.589954       -16.0535
   9   2.0000      -0.569067       -15.4851
  10   2.0000      -0.526105       -14.3160
  11   2.0000      -0.494674       -13.4608
  12   2.0000      -0.475395       -12.9362
  13   2.0000      -0.459936       -12.5155
  14   2.0000      -0.426381       -11.6024
  15   2.0000      -0.420838       -11.4516
  16   2.0000      -0.409644       -11.1470
  17   0.0000       0.080483         2.1900
  18   0.0000       0.100609         2.7377
  19   0.0000       0.103744         2.8230
  20   0.0000       0.112624         3.0647
  21   0.0000       0.153986         4.1902

MULLIKEN ATOMIC CHARGES
-----------------------
   0 C :   -0.071008
   1 C :   -0.005426
   2 H :   -0.339434
   3 H :   -0.048095
   4 C :    1.908692
   5 H :   -0.252831
   6 H :   -0.076678
   7 C :    0.886485
   8 H :   -0.238219
   9 H :   -0.141479
  10 H :   -1.224102
  11 H :   -0.059622
  12 H :   -0.179277
  13 H :   -0.159008
Sum of atomic charges:   -0.0000000

LOEWDIN ATOMIC CHARGES
----------------------
   0 C :   -0.087027
   1 C :   -0.073817
   2 H :    0.024327
   3 H :    0.029177
   4 C :    0.125304
   5 H :    0.020170
   6 H :    0.030544
   7 C :    0.119763
   8 H :   -0.023787
   9 H :   -0.016581
  10 H :   -0.091688
  11 H :   -0.003519
  12 H :   -0.039615
  13 H :   -0.013251

  Mayer bond orders larger than 0.100000
B(  0-C ,  1-C ) :   1.1536 B(  0-C ,  2-H ) :   0.9890 B(  0-C ,  3-H ) :   0.8441
B(  0-C ,  4-C ) :   1.0715 B(  0-C ,  6-H ) :   0.1185 B(  0-C ,  8-H ) :   0.1799
B(  0-C ,  9-H ) :   0.2643 B(  0-C , 10-H ) :   0.4212 B(  1-C ,  5-H ) :   0.9548
B(  1-C ,  6-H ) :   0.8697 B(  1-C ,  7-C ) :   1.2381 B(  1-C , 11-H ) :   0.2121
B(  1-C , 12-H ) :   0.1433 B(  1-C , 13-H ) :   0.2019 B(  3-H ,  4-C ) :   0.1145
B(  4-C ,  8-H ) :   0.3777 B(  4-C ,  9-H ) :   0.3561 B(  4-C , 10-H ) :  -0.2204
B(  7-C , 11-H ) :   0.7245 B(  7-C , 12-H ) :   0.7399 B(  7-C , 13-H ) :   0.7263
B(  8-H ,  9-H ) :  -0.1470 B(  8-H , 10-H ) :   0.3194 B(  9-H , 10-H ) :   0.3188
B( 10-H , 12-H ) :   0.4779 B( 12-H , 13-H ) :   0.1044

FINAL SINGLE POINT ENERGY      -157.807678226938

DIPOLE MOMENT
-------------
                                X             Y             Z
Electronic contribution:      0.31268       0.71653       0.59000
Nuclear contribution   :     -0.27446      -0.71220      -0.58629
                        -----------------------------------------
Total Dipole Moment    :      0.03822       0.00433       0.00371
                        -----------------------------------------
Magnitude (a.u.)       :      0.03864
Magnitude (Debye)      :      0.09821

Rotational constants in cm-1:     0.419751     0.185753     0.151088
Rotational constants in MHz : 12583.819928  5568.732483  4529.512437

                             ****ORCA TERMINATED NORMALLY****
TOTAL RUN TIME: 0 days 0 hours 0 minutes 13 seconds 499 msec
