                         Program Version 5.0.0 -  RELEASE  -
|  1> !wB97X-D3 RIJCOSX def2-SVP def2/J TightSCF
|  2> *xyz -1 1
|  3> C          3.34350        3.35457       -3.59200
|  4> C          2.95263        1.86308       -3.57485
|  5> C          4.12921        0.89839       -3.41895
|  6> H          3.73369       -0.10060       -3.23763
|  7> H          4.71910        0.86256       -4.33901
|  8> C          5.01734        1.31521       -2.22130
|  9> H          2.27894        1.73525       -2.72550
| 10> H          2.37747        1.62579       -4.47587
| 11> O          4.73706        0.85411       -1.12283
| 12> O          5.92815        2.16811       -2.49136
| 13> H          4.00801        3.53975       -4.40994
| 14> H          3.83025        3.60631       -2.67298
| 15> H          2.46347        3.95263       -3.70497
| 16> *
| 17> %MaxCore 64000
| 18>
| 19> %pal nprocs 18
| 20> end
| 21>
| 22> %scf
| 23>   MaxIter 150
| 24> end
| 25>
| 26>
| 27>                          ****END OF INPUT****

CARTESIAN COORDINATES (ANGSTROEM)
---------------------------------
  C      3.343500    3.354570   -3.592000
  C      2.952630    1.863080   -3.574850
  C      4.129210    0.898390   -3.418950
  H      3.733690   -0.100600   -3.237630
  H      4.719100    0.862560   -4.339010
  C      5.017340    1.315210   -2.221300
  H      2.278940    1.735250   -2.725500
  H      2.377470    1.625790   -4.475870
  O      4.737060    0.854110   -1.122830
  O      5.928150    2.168110   -2.491360
  H      4.008010    3.539750   -4.409940
  H      3.830250    3.606310   -2.672980
  H      2.463470    3.952630   -3.704970

 Total Charge           Charge          ....   -1
 Multiplicity           Mult            ....    1
 Number of Electrons    NEL             ....   48
 Basis Dimension        Dim             ....  119

ORBITAL ENERGIES
----------------

  NO   OCC          E(Eh)            E(eV)
   0   2.0000     -18.951092      -515.6854
   1   2.0000     -18.939226      -515.3625
   2   2.0000     -10.149000      -276.1683
   3   2.0000     -10.134221      -275.7662
   4   2.0000     -10.121579      -275.4222
   5   2.0000     -10.097946      -274.7791
   6   2.0000      -0.903941       -24.5975
   7   2.0000      -0.803316       -21.8593
   8   2.0000      -0.734507       -19.9870
   9   2.0000      -0.634316       -17.2606
  10   2.0000      -0.535473       -14.5710
  11   2.0000      -0.418820       -11.3967
  12   2.0000      -0.388829       -10.5806
  13   2.0000      -0.372615       -10.1394
  14   2.0000      -0.337068        -9.1721
  15   2.0000      -0.310409        -8.4467
  16   2.0000      -0.294567        -8.0156
  17   2.0000      -0.283822        -7.7232
  18   2.0000      -0.276913        -7.5352
  19   2.0000      -0.252403        -6.8682
  20   2.0000      -0.243952        -6.6383
  21   2.0000      -0.112767        -3.0685
  22   2.0000      -0.107652        -2.9294
  23   2.0000      -0.095608        -2.6016
  24   0.0000       0.286690         7.8012
  25   0.0000       0.329426         8.9641
  26   0.0000       0.342097         9.3089
  27   0.0000       0.359265         9.7761
  28   0.0000       0.370390        10.0788

MULLIKEN ATOMIC CHARGES
-----------------------
   0 C :    0.002777
   1 C :   -0.100827
   2 C :    0.028323
   3 H :   -0.038296
   4 H :   -0.032482
   5 C :    0.051739
   6 H :   -0.001211
   7 H :   -0.029411
   8 O :   -0.403740
   9 O :   -0.488379
  10 H :   -0.002155
  11 H :    0.049769
  12 H :   -0.036108
Sum of atomic charges:   -1.0000000

LOEWDIN ATOMIC CHARGES
----------------------
   0 C :   -0.062006
   1 C :   -0.043083
   2 C :   -0.093828
   3 H :   -0.001303
   4 H :   -0.000522
   5 C :   -0.044029
   6 H :    0.010875
   7 H :   -0.005117
   8 O :   -0.363306
   9 O :   -0.433073
  10 H :    0.012511
  11 H :    0.028300
  12 H :   -0.005419

  Mayer bond orders larger than 0.100000
B(  0-C ,  1-C ) :   1.0905 B(  0-C , 10-H ) :   0.9714 B(  0-C , 11-H ) :   0.9638
B(  0-C , 12-H ) :   0.9653 B(  1-C ,  2-C ) :   1.0867 B(  1-C ,  6-H ) :   0.9529
B(  1-C ,  7-H ) :   0.9573 B(  2-C ,  3-H ) :   0.9368 B(  2-C ,  4-H ) :   0.9379
B(  2-C ,  5-C ) :   0.9112 B(  5-C ,  8-O ) :   1.9071 B(  5-C ,  9-O ) :   1.7536
B(  8-O ,  9-O ) :   0.1111

Dispersion correction           -0.003467761
FINAL SINGLE POINT ENERGY      -306.820836832616

DIPOLE MOMENT
-------------
                                X             Y             Z
Electronic contribution:      5.05824      -2.50472       4.62612
Nuclear contribution   :     -6.63819       2.74067      -6.05656
                        -----------------------------------------
Total Dipole Moment    :     -1.57995       0.23595      -1.43044
                        -----------------------------------------
Magnitude (a.u.)       :      2.14431
Magnitude (Debye)      :      5.45041

Rotational constants in cm-1:     0.190880     0.089683     0.076466
Rotational constants in MHz :  5722.446013  2688.617255  2292.390699

                             ****ORCA TERMINATED NORMALLY****
TOTAL RUN TIME: 0 days 0 hours 0 minutes 7 seconds 163 msec
