                         Program Version 5.0.0 -  RELEASE  -
|  1> !wB97X-D3 RIJCOSX def2-SVP def2/J TightSCF
|  2> *xyz 1 1
|  3> C          3.34350        3.35457       -3.59200
|  4> C          2.95263        1.86308       -3.57485
|  5> C          4.12921        0.89839       -3.41895
|  6> C          4.25587        3.70385       -4.72605
|  7> N          3.73403        4.29378       -5.80077
|  8> N          5.51504        3.40725       -4.63718
|  9> H          6.14919        3.60120       -5.39905
| 10> H          5.81358        2.89950       -3.80879
| 11> H          2.74138        4.51311       -5.82470
| 12> H          4.28755        4.52126       -6.61434
| 13> H          2.27894        1.73525       -2.72550
| 14> H          2.37747        1.62579       -4.47587
| 15> H          3.86125        3.59725       -2.66298
| 16> H          2.44649        3.97346       -3.65656
| 17> H          4.79753        1.01430       -4.24649
| 18> H          3.76482       -0.10731       -3.39293
| 19> H          4.64840        1.11330       -2.50837
| 20> *
| 21> %MaxCore 64000
| 22>
| 23> %pal nprocs 18
| 24> end
| 25>
| 26> %scf
| 27>   MaxIter 150
| 28> end
| 29>
| 30>
| 31>                          ****END OF INPUT****

CARTESIAN COORDINATES (ANGSTROEM)
---------------------------------
  C      3.343500    3.354570   -3.592000
  C      2.952630    1.863080   -3.574850
  C      4.129210    0.898390   -3.418950
  C      4.255870    3.703850   -4.726050
  N      3.734030    4.293780   -5.800770
  N      5.515040    3.407250   -4.637180
  H      6.149190    3.601200   -5.399050
  H      5.813580    2.899500   -3.808790
  H      2.741380    4.513110   -5.824700
  H      4.287550    4.521260   -6.614340
  H      2.278940    1.735250   -2.725500
  H      2.377470    1.625790   -4.475870
  H      3.861250    3.597250   -2.662980
  H      2.446490    3.973460   -3.656560
  H      4.797530    1.014300   -4.246490
  H      3.764820   -0.107310   -3.392930
  H      4.648400    1.113300   -2.508370

 Total Charge           Charge          ....    1
 Multiplicity           Mult            ....    1
 Number of Electrons    NEL             ....   48
 Basis Dimension        Dim             ....  139

ORBITAL ENERGIES
----------------

  NO   OCC          E(Eh)            E(eV)
   0   2.0000     -14.682283      -399.5252
   1   2.0000     -14.677661      -399.3994
   2   2.0000     -10.610225      -288.7189
   3   2.0000     -10.482525      -285.2440
   4   2.0000     -10.450803      -284.3808
   5   2.0000     -10.421266      -283.5771
   6   2.0000      -1.312955       -35.7273
   7   2.0000      -1.214372       -33.0447
   8   2.0000      -1.084652       -29.5149
   9   2.0000      -0.998372       -27.1671
  10   2.0000      -0.935827       -25.4652
  11   2.0000      -0.894414       -24.3382
  12   2.0000      -0.875471       -23.8228
  13   2.0000      -0.834719       -22.7138
  14   2.0000      -0.800077       -21.7712
  15   2.0000      -0.756036       -20.5728
  16   2.0000      -0.722026       -19.6473
  17   2.0000      -0.707852       -19.2616
  18   2.0000      -0.672398       -18.2969
  19   2.0000      -0.657401       -17.8888
  20   2.0000      -0.603417       -16.4198
  21   2.0000      -0.596174       -16.2227
  22   2.0000      -0.591625       -16.0989
  23   2.0000      -0.577195       -15.7063
  24   0.0000      -0.116977        -3.1831
  25   0.0000      -0.051532        -1.4022
  26   0.0000      -0.006382        -0.1737
  27   0.0000      -0.004452        -0.1212
  28   0.0000       0.016540         0.4501

MULLIKEN ATOMIC CHARGES
-----------------------
   0 C :   -0.021162
   1 C :   -0.093674
   2 C :   -0.066588
   3 C :   -0.044870
   4 N :   -0.039825
   5 N :    0.012394
   6 H :    0.186013
   7 H :    0.196214
   8 H :    0.196330
   9 H :    0.181347
  10 H :    0.091191
  11 H :    0.062881
  12 H :    0.093047
  13 H :    0.079365
  14 H :    0.027975
  15 H :    0.088235
  16 H :    0.051128
Sum of atomic charges:    1.0000000

LOEWDIN ATOMIC CHARGES
----------------------
   0 C :   -0.035694
   1 C :   -0.022241
   2 C :   -0.056713
   3 C :    0.158769
   4 N :    0.078456
   5 N :    0.106971
   6 H :    0.116004
   7 H :    0.122064
   8 H :    0.123319
   9 H :    0.110918
  10 H :    0.051542
  11 H :    0.036640
  12 H :    0.058700
  13 H :    0.055999
  14 H :    0.014323
  15 H :    0.051535
  16 H :    0.029409

  Mayer bond orders larger than 0.100000
B(  0-C ,  1-C ) :   1.0445 B(  0-C ,  3-C ) :   1.0114 B(  0-C , 12-H ) :   0.9288
B(  0-C , 13-H ) :   0.9298 B(  1-C ,  2-C ) :   1.0749 B(  1-C , 10-H ) :   0.9490
B(  1-C , 11-H ) :   0.9536 B(  2-C , 14-H ) :   0.9668 B(  2-C , 15-H ) :   0.9633
B(  2-C , 16-H ) :   0.9742 B(  3-C ,  4-N ) :   1.4979 B(  3-C ,  5-N ) :   1.5249
B(  4-N ,  8-H ) :   0.9181 B(  4-N ,  9-H ) :   0.9316 B(  5-N ,  6-H ) :   0.9252
B(  5-N ,  7-H ) :   0.9101

Dispersion correction           -0.004541151
FINAL SINGLE POINT ENERGY      -268.084299831510

DIPOLE MOMENT
-------------
                                X             Y             Z
Electronic contribution:      1.45523       4.46276      -2.97541
Nuclear contribution   :     -0.87169      -3.40560       1.97790
                        -----------------------------------------
Total Dipole Moment    :      0.58354       1.05716      -0.99750
                        -----------------------------------------
Magnitude (a.u.)       :      1.56625
Magnitude (Debye)      :      3.98108

Rotational constants in cm-1:     0.188632     0.081113     0.066356
Rotational constants in MHz :  5655.057814  2431.708101  1989.304146

                             ****ORCA TERMINATED NORMALLY****
TOTAL RUN TIME: 0 days 0 hours 0 minutes 8 seconds 503 msec
