                         Program Version 5.0.0 -  RELEASE  -
|  1> !wB97X-D3 RIJCOSX def2-SVP def2/J TightSCF xyzfile
|  2>
|  3> *xyzfile 0 1 B.xyz
|  4>
|  5> %MaxCore 64000
|  6>
|  7> %pal nprocs 18
|  8> end
|  9>
| 10> %scf
| 11>   MaxIter 150
| 12> end
| 13>
| 14>
| 15>                          ****END OF INPUT****

CARTESIAN COORDINATES (ANGSTROEM)
---------------------------------
  C      3.343500    3.354571   -3.591998
  C      2.952633    1.863077   -3.574849
  C      4.129209    0.898394   -3.418950
  H      3.733687   -0.100605   -3.237633
  H      4.719095    0.862556   -4.339005
  C      5.017344    1.315212   -2.221305
  C      4.255868    3.703851   -4.726054
  N      3.734032    4.293783   -5.800770
  N      5.515039    3.407255   -4.637185
  H      6.149187    3.601203   -5.399053
  H      5.813584    2.899504   -3.808785
  H      2.741380    4.513109   -5.824701
  H      4.287548    4.521260   -6.614341
  H      2.278938    1.735250   -2.725496
  H      2.377466    1.625787   -4.475869
  O      4.737055    0.854112   -1.122825
  O      5.928146    2.168108   -2.491365
  H      3.861246    3.597252   -2.662979
  H      2.446493    3.973461   -3.656556

 Total Charge           Charge          ....    0
 Multiplicity           Mult            ....    1
 Number of Electrons    NEL             ....   70
 Basis Dimension        Dim             ....  176

ORBITAL ENERGIES
----------------

  NO   OCC          E(Eh)            E(eV)
   0   2.0000     -19.129796      -520.5482
   1   2.0000     -19.116378      -520.1831
   2   2.0000     -14.534427      -395.5019
   3   2.0000     -14.492293      -394.3553
   4   2.0000     -10.452016      -284.4138
   5   2.0000     -10.331020      -281.1214
   6   2.0000     -10.322575      -280.8916
   7   2.0000     -10.306474      -280.4534
   8   2.0000     -10.259405      -279.1726
   9   2.0000      -1.154272       -31.4093
  10   2.0000      -1.081428       -29.4272
  11   2.0000      -1.054182       -28.6858
  12   2.0000      -0.988545       -26.8997
  13   2.0000      -0.932140       -25.3648
  14   2.0000      -0.842702       -22.9311
  15   2.0000      -0.779830       -21.2202
  16   2.0000      -0.734802       -19.9950
  17   2.0000      -0.722332       -19.6557
  18   2.0000      -0.687396       -18.7050
  19   2.0000      -0.642058       -17.4713
  20   2.0000      -0.602937       -16.4067
  21   2.0000      -0.581522       -15.8240
  22   2.0000      -0.559919       -15.2362
  23   2.0000      -0.539723       -14.6866
  24   2.0000      -0.519087       -14.1251
  25   2.0000      -0.485731       -13.2174
  26   2.0000      -0.469736       -12.7822
  27   2.0000      -0.459793       -12.5116
  28   2.0000      -0.454344       -12.3633
  29   2.0000      -0.427446       -11.6314
  30   2.0000      -0.418292       -11.3823
  31   2.0000      -0.414211       -11.2713
  32   2.0000      -0.293773        -7.9940
  33   2.0000      -0.290038        -7.8923
  34   2.0000      -0.268714        -7.3121
  35   0.0000       0.039279         1.0688
  36   0.0000       0.079510         2.1636
  37   0.0000       0.119828         3.2607
  38   0.0000       0.143920         3.9163
  39   0.0000       0.160642         4.3713

MULLIKEN ATOMIC CHARGES
-----------------------
   0 C :    0.006384
   1 C :   -0.054068
   2 C :   -0.038549
   3 H :    0.035389
   4 H :   -0.002269
   5 C :    0.128262
   6 C :   -0.084605
   7 N :   -0.063160
   8 N :    0.041097
   9 H :    0.137522
  10 H :    0.151939
  11 H :    0.167723
  12 H :    0.153566
  13 H :    0.063163
  14 H :    0.016782
  15 O :   -0.328721
  16 O :   -0.465520
  17 H :    0.108617
  18 H :    0.026446
Sum of atomic charges:    0.0000000

LOEWDIN ATOMIC CHARGES
----------------------
   0 C :   -0.040981
   1 C :   -0.019184
   2 C :   -0.092153
   3 H :    0.032566
   4 H :    0.006075
   5 C :   -0.003844
   6 C :    0.144804
   7 N :    0.035914
   8 N :    0.115736
   9 H :    0.087683
  10 H :    0.016655
  11 H :    0.104099
  12 H :    0.092960
  13 H :    0.041203
  14 H :    0.016194
  15 O :   -0.288798
  16 O :   -0.345720
  17 H :    0.064201
  18 H :    0.032590

  Mayer bond orders larger than 0.100000
B(  0-C ,  1-C ) :   1.0536 B(  0-C ,  6-C ) :   1.0147 B(  0-C , 17-H ) :   0.8973
B(  0-C , 18-H ) :   0.9303 B(  1-C ,  2-C ) :   1.0857 B(  1-C , 13-H ) :   0.9425
B(  1-C , 14-H ) :   0.9542 B(  2-C ,  3-H ) :   0.9382 B(  2-C ,  4-H ) :   0.9325
B(  2-C ,  5-C ) :   0.9381 B(  5-C , 15-O ) :   2.0035 B(  5-C , 16-O ) :   1.4910
B(  6-C ,  7-N ) :   1.3884 B(  6-C ,  8-N ) :   1.6585 B(  7-N , 11-H ) :   0.9285
B(  7-N , 12-H ) :   0.9410 B(  8-N ,  9-H ) :   0.9342 B(  8-N , 10-H ) :   0.7555
B( 10-H , 16-O ) :   0.3062 B( 15-O , 16-O ) :   0.1032

Dispersion correction           -0.007028433
FINAL SINGLE POINT ENERGY      -456.054941466351

DIPOLE MOMENT
-------------
                                X             Y             Z
Electronic contribution:      3.91186       0.08859       2.60354
Nuclear contribution   :     -5.42217       2.65262      -7.07590
                        -----------------------------------------
Total Dipole Moment    :     -1.51031       2.74121      -4.47236
                        -----------------------------------------
Magnitude (a.u.)       :      5.45869
Magnitude (Debye)      :     13.87488

Rotational constants in cm-1:     0.107541     0.035862     0.030371
Rotational constants in MHz :  3223.996852  1075.120464   910.508313

                             ****ORCA TERMINATED NORMALLY****
TOTAL RUN TIME: 0 days 0 hours 0 minutes 14 seconds 206 msec
