                         Program Version 5.0.0 -  RELEASE  -
|  1> !wB97X-D3 RIJCOSX def2-SVP def2/J TightSCF
|  2> *xyz 0 1
|  3> C          3.34350        3.35457       -3.59200
|  4> C          2.95263        1.86308       -3.57485
|  5> C          4.12921        0.89839       -3.41895
|  6> H          3.73369       -0.10060       -3.23763
|  7> H          4.71910        0.86256       -4.33901
|  8> C          5.01734        1.31521       -2.22130
|  9> H          2.27894        1.73525       -2.72550
| 10> H          2.37747        1.62579       -4.47587
| 11> F          4.73706        0.85411       -1.12283
| 12> O          5.92815        2.16811       -2.49136
| 13> H          4.00801        3.53975       -4.40994
| 14> H          3.83025        3.60631       -2.67298
| 15> H          2.46347        3.95263       -3.70497
| 16> *
| 17> %MaxCore 64000
| 18>
| 19> %pal nprocs 18
| 20> end
| 21>
| 22> %scf
| 23>   MaxIter 150
| 24> end
| 25>
| 26>
| 27>                          ****END OF INPUT****

CARTESIAN COORDINATES (ANGSTROEM)
---------------------------------
  C      3.343500    3.354570   -3.592000
  C      2.952630    1.863080   -3.574850
  C      4.129210    0.898390   -3.418950
  H      3.733690   -0.100600   -3.237630
  H      4.719100    0.862560   -4.339010
  C      5.017340    1.315210   -2.221300
  H      2.278940    1.735250   -2.725500
  H      2.377470    1.625790   -4.475870
  F      4.737060    0.854110   -1.122830
  O      5.928150    2.168110   -2.491360
  H      4.008010    3.539750   -4.409940
  H      3.830250    3.606310   -2.672980
  H      2.463470    3.952630   -3.704970

 Total Charge           Charge          ....    0
 Multiplicity           Mult            ....    1
 Number of Electrons    NEL             ....   48
 Basis Dimension        Dim             ....  119

ORBITAL ENERGIES
----------------

  NO   OCC          E(Eh)            E(eV)
   0   2.0000     -24.873373      -676.8389
   1   2.0000     -19.237135      -523.4691
   2   2.0000     -10.465848      -284.7902
   3   2.0000     -10.314134      -280.6618
   4   2.0000     -10.304852      -280.4093
   5   2.0000     -10.276001      -279.6242
   6   2.0000      -1.440926       -39.2096
   7   2.0000      -1.119928       -30.4748
   8   2.0000      -0.921285       -25.0694
   9   2.0000      -0.831319       -22.6213
  10   2.0000      -0.773078       -21.0365
  11   2.0000      -0.717023       -19.5112
  12   2.0000      -0.666032       -18.1237
  13   2.0000      -0.648002       -17.6330
  14   2.0000      -0.598385       -16.2829
  15   2.0000      -0.568313       -15.4646
  16   2.0000      -0.552164       -15.0251
  17   2.0000      -0.510635       -13.8951
  18   2.0000      -0.488374       -13.2893
  19   2.0000      -0.458239       -12.4693
  20   2.0000      -0.453761       -12.3475
  21   2.0000      -0.440720       -11.9926
  22   2.0000      -0.427570       -11.6348
  23   2.0000      -0.373838       -10.1726
  24   0.0000       0.062833         1.7098
  25   0.0000       0.143162         3.8956
  26   0.0000       0.184400         5.0178
  27   0.0000       0.189352         5.1525
  28   0.0000       0.204388         5.5617

MULLIKEN ATOMIC CHARGES
-----------------------
   0 C :   -0.022544
   1 C :   -0.138784
   2 C :   -0.045399
   3 H :    0.043346
   4 H :    0.069475
   5 C :    0.242064
   6 H :    0.034716
   7 H :    0.046944
   8 F :   -0.042169
   9 O :   -0.297871
  10 H :    0.036115
  11 H :    0.043434
  12 H :    0.030674
Sum of atomic charges:   -0.0000000

LOEWDIN ATOMIC CHARGES
----------------------
   0 C :   -0.054623
   1 C :   -0.038505
   2 C :   -0.069882
   3 H :    0.030312
   4 H :    0.046174
   5 C :    0.105548
   6 H :    0.023237
   7 H :    0.029810
   8 F :    0.081299
   9 O :   -0.225749
  10 H :    0.026314
  11 H :    0.021990
  12 H :    0.024075

  Mayer bond orders larger than 0.100000
B(  0-C ,  1-C ) :   1.0803 B(  0-C , 10-H ) :   0.9757 B(  0-C , 11-H ) :   0.9649
B(  0-C , 12-H ) :   0.9719 B(  1-C ,  2-C ) :   1.0598 B(  1-C ,  6-H ) :   0.9600
B(  1-C ,  7-H ) :   0.9594 B(  2-C ,  3-H ) :   0.9425 B(  2-C ,  4-H ) :   0.9456
B(  2-C ,  5-C ) :   0.9857 B(  5-C ,  8-F ) :   1.2313 B(  5-C ,  9-O ) :   2.0087

Dispersion correction           -0.003380459
FINAL SINGLE POINT ENERGY      -331.359957466207

DIPOLE MOMENT
-------------
                                X             Y             Z
Electronic contribution:      6.13704      -4.34461       7.63843
Nuclear contribution   :     -7.06456       3.75953      -7.86734
                        -----------------------------------------
Total Dipole Moment    :     -0.92751      -0.58508      -0.22891
                        -----------------------------------------
Magnitude (a.u.)       :      1.12026
Magnitude (Debye)      :      2.84749

Rotational constants in cm-1:     0.185871     0.085512     0.073500
Rotational constants in MHz :  5572.269993  2563.593529  2203.466497

                             ****ORCA TERMINATED NORMALLY****
TOTAL RUN TIME: 0 days 0 hours 0 minutes 7 seconds 859 msec
