                         Program Version 5.0.0 -  RELEASE  -
|  1> !wB97X-D3 RIJCOSX def2-SVP def2/J TightSCF
|  2> *xyz 0 1
|  3> C          3.34350        3.35457       -3.59200
|  4> C          2.95263        1.86308       -3.57485
|  5> C          4.12921        0.89839       -3.41895
|  6> C          4.25587        3.70385       -4.72605
|  7> C          3.73403        4.29378       -5.80077
|  8> N          5.51504        3.40725       -4.63718
|  9> H          6.14919        3.60120       -5.39905
| 10> H          5.81358        2.89950       -3.80879
| 11> H          2.74138        4.51311       -5.82470
| 12> H          4.28755        4.52126       -6.61434
| 13> H          2.27894        1.73525       -2.72550
| 14> H          2.37747        1.62579       -4.47587
| 15> H          3.86125        3.59725       -2.66298
| 16> H          2.44649        3.97346       -3.65656
| 17> H          4.79753        1.01430       -4.24649
| 18> H          3.76482       -0.10731       -3.39293
| 19> H          4.64840        1.11330       -2.50837
| 20> *
| 21> %MaxCore 64000
| 22>
| 23> %pal nprocs 18
| 24> end
| 25>
| 26> %scf
| 27>   MaxIter 150
| 28> end
| 29>
| 30>
| 31>                          ****END OF INPUT****

CARTESIAN COORDINATES (ANGSTROEM)
---------------------------------
  C      3.343500    3.354570   -3.592000
  C      2.952630    1.863080   -3.574850
  C      4.129210    0.898390   -3.418950
  C      4.255870    3.703850   -4.726050
  C      3.734030    4.293780   -5.800770
  N      5.515040    3.407250   -4.637180
  H      6.149190    3.601200   -5.399050
  H      5.813580    2.899500   -3.808790
  H      2.741380    4.513110   -5.824700
  H      4.287550    4.521260   -6.614340
  H      2.278940    1.735250   -2.725500
  H      2.377470    1.625790   -4.475870
  H      3.861250    3.597250   -2.662980
  H      2.446490    3.973460   -3.656560
  H      4.797530    1.014300   -4.246490
  H      3.764820   -0.107310   -3.392930
  H      4.648400    1.113300   -2.508370

 Total Charge           Charge          ....    0
 Multiplicity           Mult            ....    1
 Number of Electrons    NEL             ....   48
 Basis Dimension        Dim             ....  139

ORBITAL ENERGIES
----------------

  NO   OCC          E(Eh)            E(eV)
   0   2.0000     -14.433493      -392.7553
   1   2.0000     -10.303988      -280.3858
   2   2.0000     -10.284963      -279.8681
   3   2.0000     -10.284362      -279.8517
   4   2.0000     -10.274777      -279.5909
   5   2.0000     -10.215090      -277.9667
   6   2.0000      -1.041343       -28.3364
   7   2.0000      -0.901350       -24.5270
   8   2.0000      -0.840456       -22.8700
   9   2.0000      -0.783644       -21.3241
  10   2.0000      -0.710502       -19.3337
  11   2.0000      -0.664511       -18.0823
  12   2.0000      -0.626196       -17.0397
  13   2.0000      -0.584000       -15.8914
  14   2.0000      -0.549991       -14.9660
  15   2.0000      -0.530992       -14.4490
  16   2.0000      -0.507664       -13.8143
  17   2.0000      -0.483904       -13.1677
  18   2.0000      -0.467381       -12.7181
  19   2.0000      -0.455258       -12.3882
  20   2.0000      -0.432583       -11.7712
  21   2.0000      -0.417796       -11.3688
  22   2.0000      -0.413064       -11.2400
  23   2.0000      -0.267635        -7.2827
  24   0.0000       0.129025         3.5110
  25   0.0000       0.150625         4.0987
  26   0.0000       0.176246         4.7959
  27   0.0000       0.178137         4.8474
  28   0.0000       0.197761         5.3814

MULLIKEN ATOMIC CHARGES
-----------------------
   0 C :    0.037593
   1 C :   -0.058801
   2 C :   -0.050049
   3 C :   -0.149237
   4 C :   -0.077029
   5 N :   -0.071340
   6 H :    0.128822
   7 H :    0.121563
   8 H :   -0.024116
   9 H :   -0.038595
  10 H :    0.026004
  11 H :    0.030117
  12 H :    0.012073
  13 H :    0.031218
  14 H :    0.030799
  15 H :    0.033723
  16 H :    0.017254
Sum of atomic charges:    0.0000000

LOEWDIN ATOMIC CHARGES
----------------------
   0 C :   -0.029280
   1 C :   -0.033455
   2 C :   -0.064297
   3 C :    0.001789
   4 C :   -0.187912
   5 N :    0.003445
   6 H :    0.081830
   7 H :    0.072471
   8 H :    0.000010
   9 H :   -0.008835
  10 H :    0.021515
  11 H :    0.025409
  12 H :    0.019340
  13 H :    0.037492
  14 H :    0.017397
  15 H :    0.026408
  16 H :    0.016674

  Mayer bond orders larger than 0.100000
B(  0-C ,  1-C ) :   1.0715 B(  0-C ,  3-C ) :   1.0111 B(  0-C , 12-H ) :   0.9380
B(  0-C , 13-H ) :   0.9373 B(  1-C ,  2-C ) :   1.0814 B(  1-C , 10-H ) :   0.9562
B(  1-C , 11-H ) :   0.9534 B(  2-C , 14-H ) :   0.9671 B(  2-C , 15-H ) :   0.9687
B(  2-C , 16-H ) :   0.9737 B(  3-C ,  4-C ) :   1.8583 B(  3-C ,  5-N ) :   1.2650
B(  4-C ,  8-H ) :   0.9480 B(  4-C ,  9-H ) :   0.9634 B(  5-N ,  6-H ) :   0.9462
B(  5-N ,  7-H ) :   0.9454

Dispersion correction           -0.004552828
FINAL SINGLE POINT ENERGY      -251.623149735083

DIPOLE MOMENT
-------------
                                X             Y             Z
Electronic contribution:      1.50038       2.64938      -1.19953
Nuclear contribution   :     -0.93682      -3.08083       1.62582
                        -----------------------------------------
Total Dipole Moment    :      0.56356      -0.43144       0.42629
                        -----------------------------------------
Magnitude (a.u.)       :      0.82793
Magnitude (Debye)      :      2.10444

Rotational constants in cm-1:     0.191400     0.084268     0.068511
Rotational constants in MHz :  5738.038424  2526.291061  2053.912421

                             ****ORCA TERMINATED NORMALLY****
TOTAL RUN TIME: 0 days 0 hours 0 minutes 9 seconds 349 msec
