                         Program Version 5.0.0 -  RELEASE  -
|  1> !wB97X-D3 RIJCOSX def2-SVP def2/J TightSCF
|  2> *xyz 0 1
|  3> C          3.34350        3.35457       -3.59200
|  4> C          2.95263        1.86308       -3.57485
|  5> C          4.12921        0.89839       -3.41895
|  6> H          3.73369       -0.10060       -3.23763
|  7> H          4.71910        0.86256       -4.33901
|  8> C          5.01734        1.31521       -2.22130
|  9> H          2.27894        1.73525       -2.72550
| 10> H          2.37747        1.62579       -4.47587
| 11> O          4.73706        0.85411       -1.12283
| 12> F          5.92815        2.16811       -2.49136
| 13> H          4.00801        3.53975       -4.40994
| 14> H          3.83025        3.60631       -2.67298
| 15> H          2.46347        3.95263       -3.70497
| 16> *
| 17> %MaxCore 64000
| 18>
| 19> %pal nprocs 18
| 20> end
| 21>
| 22> %scf
| 23>   MaxIter 150
| 24> end
| 25>
| 26>
| 27>                          ****END OF INPUT****

CARTESIAN COORDINATES (ANGSTROEM)
---------------------------------
  C      3.343500    3.354570   -3.592000
  C      2.952630    1.863080   -3.574850
  C      4.129210    0.898390   -3.418950
  H      3.733690   -0.100600   -3.237630
  H      4.719100    0.862560   -4.339010
  C      5.017340    1.315210   -2.221300
  H      2.278940    1.735250   -2.725500
  H      2.377470    1.625790   -4.475870
  O      4.737060    0.854110   -1.122830
  F      5.928150    2.168110   -2.491360
  H      4.008010    3.539750   -4.409940
  H      3.830250    3.606310   -2.672980
  H      2.463470    3.952630   -3.704970

 Total Charge           Charge          ....    0
 Multiplicity           Mult            ....    1
 Number of Electrons    NEL             ....   48
 Basis Dimension        Dim             ....  119

ORBITAL ENERGIES
----------------

  NO   OCC          E(Eh)            E(eV)
   0   2.0000     -24.851263      -676.2372
   1   2.0000     -19.247106      -523.7404
   2   2.0000     -10.462067      -284.6873
   3   2.0000     -10.313472      -280.6438
   4   2.0000     -10.305299      -280.4214
   5   2.0000     -10.285053      -279.8705
   6   2.0000      -1.398986       -38.0684
   7   2.0000      -1.153204       -31.3803
   8   2.0000      -0.923637       -25.1334
   9   2.0000      -0.831443       -22.6247
  10   2.0000      -0.757110       -20.6020
  11   2.0000      -0.713736       -19.4218
  12   2.0000      -0.645115       -17.5545
  13   2.0000      -0.626887       -17.0585
  14   2.0000      -0.605108       -16.4658
  15   2.0000      -0.561819       -15.2879
  16   2.0000      -0.552423       -15.0322
  17   2.0000      -0.515931       -14.0392
  18   2.0000      -0.503178       -13.6922
  19   2.0000      -0.477481       -12.9929
  20   2.0000      -0.452846       -12.3226
  21   2.0000      -0.443095       -12.0572
  22   2.0000      -0.439930       -11.9711
  23   2.0000      -0.385777       -10.4975
  24   0.0000       0.069445         1.8897
  25   0.0000       0.143335         3.9004
  26   0.0000       0.180975         4.9246
  27   0.0000       0.187392         5.0992
  28   0.0000       0.202227         5.5029

MULLIKEN ATOMIC CHARGES
-----------------------
   0 C :   -0.042962
   1 C :   -0.128236
   2 C :   -0.043842
   3 H :    0.066344
   4 H :    0.046174
   5 C :    0.238427
   6 H :    0.048233
   7 H :    0.045159
   8 O :   -0.229902
   9 F :   -0.112186
  10 H :    0.030363
  11 H :    0.043186
  12 H :    0.039241
Sum of atomic charges:   -0.0000000

LOEWDIN ATOMIC CHARGES
----------------------
   0 C :   -0.058641
   1 C :   -0.035882
   2 C :   -0.070094
   3 H :    0.045918
   4 H :    0.031405
   5 C :    0.109926
   6 H :    0.029721
   7 H :    0.028971
   8 O :   -0.167933
   9 F :    0.014430
  10 H :    0.022404
  11 H :    0.021362
  12 H :    0.028412

  Mayer bond orders larger than 0.100000
B(  0-C ,  1-C ) :   1.0854 B(  0-C , 10-H ) :   0.9761 B(  0-C , 11-H ) :   0.9668
B(  0-C , 12-H ) :   0.9722 B(  1-C ,  2-C ) :   1.0677 B(  1-C ,  6-H ) :   0.9567
B(  1-C ,  7-H ) :   0.9594 B(  2-C ,  3-H ) :   0.9485 B(  2-C ,  4-H ) :   0.9380
B(  2-C ,  5-C ) :   0.9783 B(  5-C ,  8-O ) :   2.1247 B(  5-C ,  9-F ) :   1.1342

Dispersion correction           -0.003414802
FINAL SINGLE POINT ENERGY      -331.377222446782

DIPOLE MOMENT
-------------
                                X             Y             Z
Electronic contribution:      8.10220      -2.11956       5.30978
Nuclear contribution   :     -8.40998       2.27527      -6.32148
                        -----------------------------------------
Total Dipole Moment    :     -0.30778       0.15571      -1.01171
                        -----------------------------------------
Magnitude (a.u.)       :      1.06889
Magnitude (Debye)      :      2.71690

Rotational constants in cm-1:     0.181105     0.088112     0.073966
Rotational constants in MHz :  5429.384816  2641.525058  2217.445966

                             ****ORCA TERMINATED NORMALLY****
TOTAL RUN TIME: 0 days 0 hours 0 minutes 7 seconds 246 msec
