                         Program Version 5.0.0 -  RELEASE  -
|  1> !wB97X-D3 RIJCOSX def2-SVP def2/J TightSCF
|  2> *xyz 0 1
|  3> C          3.34350        3.35457       -3.59200
|  4> C          2.95263        1.86308       -3.57485
|  5> C          4.12921        0.89839       -3.41895
|  6> C          4.25587        3.70385       -4.72605
|  7> N          3.73403        4.29378       -5.80077
|  8> C          5.51504        3.40725       -4.63718
|  9> H          6.14919        3.60120       -5.39905
| 10> H          5.81358        2.89950       -3.80879
| 11> H          2.74138        4.51311       -5.82470
| 12> H          4.28755        4.52126       -6.61434
| 13> H          2.27894        1.73525       -2.72550
| 14> H          2.37747        1.62579       -4.47587
| 15> H          3.86125        3.59725       -2.66298
| 16> H          2.44649        3.97346       -3.65656
| 17> H          4.79753        1.01430       -4.24649
| 18> H          3.76482       -0.10731       -3.39293
| 19> H          4.64840        1.11330       -2.50837
| 20> *
| 21> %MaxCore 64000
| 22>
| 23> %pal nprocs 18
| 24> end
| 25>
| 26> %scf
| 27>   MaxIter 150
| 28> end
| 29>
| 30>
| 31>                          ****END OF INPUT****

CARTESIAN COORDINATES (ANGSTROEM)
---------------------------------
  C      3.343500    3.354570   -3.592000
  C      2.952630    1.863080   -3.574850
  C      4.129210    0.898390   -3.418950
  C      4.255870    3.703850   -4.726050
  N      3.734030    4.293780   -5.800770
  C      5.515040    3.407250   -4.637180
  H      6.149190    3.601200   -5.399050
  H      5.813580    2.899500   -3.808790
  H      2.741380    4.513110   -5.824700
  H      4.287550    4.521260   -6.614340
  H      2.278940    1.735250   -2.725500
  H      2.377470    1.625790   -4.475870
  H      3.861250    3.597250   -2.662980
  H      2.446490    3.973460   -3.656560
  H      4.797530    1.014300   -4.246490
  H      3.764820   -0.107310   -3.392930
  H      4.648400    1.113300   -2.508370

 Total Charge           Charge          ....    0
 Multiplicity           Mult            ....    1
 Number of Electrons    NEL             ....   48
 Basis Dimension        Dim             ....  139

ORBITAL ENERGIES
----------------

  NO   OCC          E(Eh)            E(eV)
   0   2.0000     -14.428448      -392.6180
   1   2.0000     -10.301323      -280.3133
   2   2.0000     -10.283760      -279.8353
   3   2.0000     -10.282887      -279.8116
   4   2.0000     -10.262132      -279.2468
   5   2.0000     -10.213566      -277.9253
   6   2.0000      -1.025169       -27.8963
   7   2.0000      -0.901617       -24.5343
   8   2.0000      -0.835494       -22.7350
   9   2.0000      -0.790782       -21.5183
  10   2.0000      -0.699294       -19.0288
  11   2.0000      -0.661616       -18.0035
  12   2.0000      -0.616148       -16.7662
  13   2.0000      -0.577647       -15.7186
  14   2.0000      -0.550547       -14.9812
  15   2.0000      -0.532175       -14.4812
  16   2.0000      -0.489154       -13.3106
  17   2.0000      -0.485631       -13.2147
  18   2.0000      -0.468010       -12.7352
  19   2.0000      -0.452566       -12.3150
  20   2.0000      -0.426527       -11.6064
  21   2.0000      -0.413650       -11.2560
  22   2.0000      -0.408278       -11.1098
  23   2.0000      -0.272760        -7.4222
  24   0.0000       0.131087         3.5670
  25   0.0000       0.149948         4.0803
  26   0.0000       0.176920         4.8142
  27   0.0000       0.184149         5.0109
  28   0.0000       0.199269         5.4224

MULLIKEN ATOMIC CHARGES
-----------------------
   0 C :    0.038069
   1 C :   -0.068717
   2 C :   -0.024396
   3 C :   -0.118619
   4 N :   -0.126124
   5 C :   -0.053733
   6 H :   -0.038051
   7 H :   -0.020397
   8 H :    0.119012
   9 H :    0.122873
  10 H :    0.025576
  11 H :    0.019766
  12 H :    0.035706
  13 H :    0.004470
  14 H :    0.041282
  15 H :    0.022799
  16 H :    0.020483
Sum of atomic charges:    0.0000000

LOEWDIN ATOMIC CHARGES
----------------------
   0 C :   -0.030956
   1 C :   -0.032784
   2 C :   -0.058054
   3 C :    0.010017
   4 N :   -0.023813
   5 C :   -0.170394
   6 H :   -0.004701
   7 H :    0.002396
   8 H :    0.071289
   9 H :    0.075544
  10 H :    0.021044
  11 H :    0.020023
  12 H :    0.035069
  13 H :    0.019546
  14 H :    0.024358
  15 H :    0.021726
  16 H :    0.019688

  Mayer bond orders larger than 0.100000
B(  0-C ,  1-C ) :   1.0717 B(  0-C ,  3-C ) :   0.9958 B(  0-C , 12-H ) :   0.9424
B(  0-C , 13-H ) :   0.9389 B(  1-C ,  2-C ) :   1.0912 B(  1-C , 10-H ) :   0.9571
B(  1-C , 11-H ) :   0.9521 B(  2-C , 14-H ) :   0.9641 B(  2-C , 15-H ) :   0.9682
B(  2-C , 16-H ) :   0.9729 B(  3-C ,  4-N ) :   1.2416 B(  3-C ,  5-C ) :   1.8776
B(  4-N ,  8-H ) :   0.9518 B(  4-N ,  9-H ) :   0.9535 B(  5-C ,  6-H ) :   0.9604
B(  5-C ,  7-H ) :   0.9365

Dispersion correction           -0.004495537
FINAL SINGLE POINT ENERGY      -251.621959233402

DIPOLE MOMENT
-------------
                                X             Y             Z
Electronic contribution:     -0.11767       3.50899      -2.27280
Nuclear contribution   :     -0.51555      -3.29052       1.90104
                        -----------------------------------------
Total Dipole Moment    :     -0.63322       0.21847      -0.37176
                        -----------------------------------------
Magnitude (a.u.)       :      0.76610
Magnitude (Debye)      :      1.94727

Rotational constants in cm-1:     0.197086     0.081749     0.067746
Rotational constants in MHz :  5908.486274  2450.769911  2030.963952

                             ****ORCA TERMINATED NORMALLY****
TOTAL RUN TIME: 0 days 0 hours 0 minutes 8 seconds 493 msec
