                         Program Version 5.0.0 -  RELEASE  -
|  1> !wB97X-D3 RIJCOSX def2-SVP def2/J TightSCF xyzfile
|  2>
|  3> *xyzfile 0 1 D4.xyz
|  4>
|  5> %MaxCore 64000
|  6>
|  7> %pal nprocs 18
|  8> end
|  9>
| 10> %scf
| 11>   MaxIter 150
| 12> end
| 13>
| 14>
| 15>                          ****END OF INPUT****

CARTESIAN COORDINATES (ANGSTROEM)
---------------------------------
  C      3.343500    3.354571   -3.591998
  C      2.952633    1.863077   -3.574849
  C      4.129209    0.898394   -3.418950
  H      3.733687   -0.100605   -3.237633
  H      4.719095    0.862556   -4.339005
  C      5.017344    1.315212   -2.221305
  C      4.255868    3.703851   -4.726054
  N      3.734032    4.293783   -5.800770
  C      5.515039    3.407255   -4.637185
  H      6.149187    3.601203   -5.399053
  H      5.813584    2.899504   -3.808785
  H      2.741380    4.513109   -5.824701
  H      4.287548    4.521260   -6.614341
  H      2.278938    1.735250   -2.725496
  H      2.377466    1.625787   -4.475869
  O      4.737055    0.854112   -1.122825
  F      5.928146    2.168108   -2.491365
  H      3.861246    3.597252   -2.662979
  H      2.446493    3.973461   -3.656556

 Total Charge           Charge          ....    0
 Multiplicity           Mult            ....    1
 Number of Electrons    NEL             ....   70
 Basis Dimension        Dim             ....  176

ORBITAL ENERGIES
----------------

  NO   OCC          E(Eh)            E(eV)
   0   2.0000     -24.856858      -676.3895
   1   2.0000     -19.250037      -523.8201
   2   2.0000     -14.431259      -392.6945
   3   2.0000     -10.465287      -284.7749
   4   2.0000     -10.310606      -280.5659
   5   2.0000     -10.307597      -280.4840
   6   2.0000     -10.304792      -280.4076
   7   2.0000     -10.297418      -280.2070
   8   2.0000     -10.204743      -277.6852
   9   2.0000      -1.411915       -38.4202
  10   2.0000      -1.156325       -31.4652
  11   2.0000      -1.029042       -28.0017
  12   2.0000      -0.929261       -25.2865
  13   2.0000      -0.859241       -23.3811
  14   2.0000      -0.815021       -22.1778
  15   2.0000      -0.776252       -21.1229
  16   2.0000      -0.723367       -19.6838
  17   2.0000      -0.684856       -18.6359
  18   2.0000      -0.646729       -17.5984
  19   2.0000      -0.635271       -17.2866
  20   2.0000      -0.623210       -16.9584
  21   2.0000      -0.602695       -16.4002
  22   2.0000      -0.580063       -15.7843
  23   2.0000      -0.560802       -15.2602
  24   2.0000      -0.544354       -14.8126
  25   2.0000      -0.516201       -14.0465
  26   2.0000      -0.492756       -13.4086
  27   2.0000      -0.478628       -13.0241
  28   2.0000      -0.469123       -12.7655
  29   2.0000      -0.459788       -12.5115
  30   2.0000      -0.443360       -12.0645
  31   2.0000      -0.424145       -11.5416
  32   2.0000      -0.419500       -11.4152
  33   2.0000      -0.387362       -10.5407
  34   2.0000      -0.274943        -7.4816
  35   0.0000       0.066433         1.8077
  36   0.0000       0.127515         3.4699
  37   0.0000       0.144110         3.9214
  38   0.0000       0.169280         4.6063
  39   0.0000       0.180966         4.9243

MULLIKEN ATOMIC CHARGES
-----------------------
   0 C :    0.002541
   1 C :   -0.037691
   2 C :   -0.055320
   3 H :    0.063481
   4 H :    0.060361
   5 C :    0.250300
   6 C :   -0.105814
   7 N :   -0.122405
   8 C :   -0.114581
   9 H :   -0.042902
  10 H :    0.022509
  11 H :    0.116506
  12 H :    0.124454
  13 H :    0.048399
  14 H :    0.037180
  15 O :   -0.220719
  16 F :   -0.093523
  17 H :    0.052722
  18 H :    0.014502
Sum of atomic charges:    0.0000000

LOEWDIN ATOMIC CHARGES
----------------------
   0 C :   -0.035314
   1 C :   -0.021214
   2 C :   -0.068353
   3 H :    0.045320
   4 H :    0.037098
   5 C :    0.119481
   6 C :    0.001325
   7 N :   -0.026265
   8 C :   -0.180881
   9 H :   -0.007841
  10 H :   -0.030251
  11 H :    0.069559
  12 H :    0.076286
  13 H :    0.030302
  14 H :    0.029753
  15 O :   -0.162251
  16 F :    0.063508
  17 H :    0.034480
  18 H :    0.025259

  Mayer bond orders larger than 0.100000
B(  0-C ,  1-C ) :   1.0843 B(  0-C ,  6-C ) :   0.9942 B(  0-C , 17-H ) :   0.9327
B(  0-C , 18-H ) :   0.9355 B(  1-C ,  2-C ) :   1.0734 B(  1-C , 13-H ) :   0.9529
B(  1-C , 14-H ) :   0.9483 B(  2-C ,  3-H ) :   0.9433 B(  2-C ,  4-H ) :   0.9198
B(  2-C ,  5-C ) :   0.9913 B(  5-C , 15-O ) :   2.1393 B(  5-C , 16-F ) :   1.0722
B(  6-C ,  7-N ) :   1.2362 B(  6-C ,  8-C ) :   1.8803 B(  7-N , 11-H ) :   0.9520
B(  7-N , 12-H ) :   0.9532 B(  8-C ,  9-H ) :   0.9581 B(  8-C , 10-H ) :   0.9235

Dispersion correction           -0.006844424
FINAL SINGLE POINT ENERGY      -463.953725052507

DIPOLE MOMENT
-------------
                                X             Y             Z
Electronic contribution:      6.15859      -2.80428       7.14696
Nuclear contribution   :     -6.99695       3.07955      -8.37829
                        -----------------------------------------
Total Dipole Moment    :     -0.83837       0.27527      -1.23133
                        -----------------------------------------
Magnitude (a.u.)       :      1.51486
Magnitude (Debye)      :      3.85048

Rotational constants in cm-1:     0.106302     0.035771     0.030198
Rotational constants in MHz :  3186.860872  1072.397550   905.318354

                             ****ORCA TERMINATED NORMALLY****
TOTAL RUN TIME: 0 days 0 hours 0 minutes 14 seconds 443 msec
