                         Program Version 5.0.0 -  RELEASE  -
|  1> !CAM-B3LYP RIJCOSX def2-SVPD def2/J TightSCF
|  2> *xyz -1 1
|  3> C         -1.91658       -2.48508       -3.64367
|  4> C         -1.36353       -1.98134       -2.29361
|  5> O         -0.35039       -2.74969       -1.79601
|  6> H         -2.22622       -1.90839       -1.60204
|  7> H         -1.05135       -0.91567       -2.44333
|  8> H         -1.11522       -2.57167       -4.34739
|  9> H         -2.64227       -1.79099       -4.01314
| 10> H         -2.37564       -3.44180       -3.50640
| 11> *
| 12>
| 13> %MaxCore 64000
| 14> %pal nprocs 4
| 15> end
| 16>
| 17> %scf
| 18>   MaxIter 150
| 19> end
| 20>
| 21>
| 22>                          ****END OF INPUT****

CARTESIAN COORDINATES (ANGSTROEM)
---------------------------------
  C     -1.916580   -2.485080   -3.643670
  C     -1.363530   -1.981340   -2.293610
  O     -0.350390   -2.749690   -1.796010
  H     -2.226220   -1.908390   -1.602040
  H     -1.051350   -0.915670   -2.443330
  H     -1.115220   -2.571670   -4.347390
  H     -2.642270   -1.790990   -4.013140
  H     -2.375640   -3.441800   -3.506400

 Total Charge           Charge          ....   -1
 Multiplicity           Mult            ....    1
 Number of Electrons    NEL             ....   26
 Basis Dimension        Dim             ....  103

ORBITAL ENERGIES
----------------

  NO   OCC          E(Eh)            E(eV)
   0   2.0000     -18.879470      -513.7365
   1   2.0000     -10.074524      -274.1417
   2   2.0000     -10.051290      -273.5095
   3   2.0000      -0.750952       -20.4344
   4   2.0000      -0.600521       -16.3410
   5   2.0000      -0.442644       -12.0450
   6   2.0000      -0.320576        -8.7233
   7   2.0000      -0.297280        -8.0894
   8   2.0000      -0.241169        -6.5625
   9   2.0000      -0.223162        -6.0725
  10   2.0000      -0.178881        -4.8676
  11   2.0000      -0.033028        -0.8987
  12   2.0000      -0.030369        -0.8264
  13   0.0000       0.207414         5.6440
  14   0.0000       0.238823         6.4987
  15   0.0000       0.275351         7.4927
  16   0.0000       0.288047         7.8382
  17   0.0000       0.305352         8.3090

MULLIKEN ATOMIC CHARGES
-----------------------
   0 C :    0.495533
   1 C :    0.222587
   2 O :   -0.871083
   3 H :   -0.224496
   4 H :   -0.190892
   5 H :   -0.158429
   6 H :   -0.122063
   7 H :   -0.151157
Sum of atomic charges:   -1.0000000

LOEWDIN ATOMIC CHARGES
----------------------
   0 C :    0.065154
   1 C :   -0.264895
   2 O :   -0.586226
   3 H :   -0.035274
   4 H :   -0.030569
   5 H :   -0.043355
   6 H :   -0.060103
   7 H :   -0.044733

  Mayer bond orders larger than 0.100000
B(  0-C ,  1-C ) :   1.1554 B(  0-C ,  2-O ) :   0.1293 B(  0-C ,  3-H ) :   0.1304
B(  0-C ,  4-H ) :   0.1262 B(  0-C ,  5-H ) :   0.8758 B(  0-C ,  6-H ) :   0.8683
B(  0-C ,  7-H ) :   0.8733 B(  1-C ,  2-O ) :   1.1857 B(  1-C ,  3-H ) :   0.9643
B(  1-C ,  4-H ) :   0.9632 B(  1-C ,  5-H ) :   0.1951 B(  1-C ,  6-H ) :   0.1396
B(  1-C ,  7-H ) :   0.1824

FINAL SINGLE POINT ENERGY      -154.246973542215

DIPOLE MOMENT
-------------
                                X             Y             Z
Electronic contribution:      1.96033      -0.82422       1.77566
Nuclear contribution   :     -3.14382       1.30299      -2.83231
                        -----------------------------------------
Total Dipole Moment    :     -1.18349       0.47877      -1.05664
                        -----------------------------------------
Magnitude (a.u.)       :      1.65721
Magnitude (Debye)      :      4.21230

Rotational constants in cm-1:     1.288206     0.322942     0.285188
Rotational constants in MHz : 38619.437223  9681.562038  8549.712012

                             ****ORCA TERMINATED NORMALLY****
TOTAL RUN TIME: 0 days 0 hours 0 minutes 13 seconds 93 msec
