                         Program Version 5.0.0 -  RELEASE  -
|  1> !CAM-B3LYP RIJCOSX def2-SVPD def2/J TightSCF
|  2> *xyz 1 1
|  3> C          1.64703       -2.34528       -5.02041
|  4> C          2.20996       -2.81239       -3.66571
|  5> C          2.48901       -1.66851       -2.73754
|  6> N          3.59631       -0.94761       -2.95225
|  7> N          1.66394       -1.41369       -1.77781
|  8> H          0.81164       -1.96318       -1.70275
|  9> H          1.84550       -0.63508       -1.15875
| 10> H          4.20535       -1.17600       -3.73383
| 11> H          3.81723       -0.12585       -2.40604
| 12> H          3.14311       -3.36280       -3.81152
| 13> H          1.48768       -3.45893       -3.16521
| 14> H          1.46566       -3.19589       -5.64368
| 15> H          2.35406       -1.69850       -5.49654
| 16> H          0.73014       -1.81680       -4.86253
| 17> *
| 18>
| 19> %MaxCore 64000
| 20> %pal nprocs 4
| 21> end
| 22>
| 23> %scf
| 24>   MaxIter 150
| 25> end
| 26>
| 27>
| 28>                          ****END OF INPUT****

CARTESIAN COORDINATES (ANGSTROEM)
---------------------------------
  C      1.647030   -2.345280   -5.020410
  C      2.209960   -2.812390   -3.665710
  C      2.489010   -1.668510   -2.737540
  N      3.596310   -0.947610   -2.952250
  N      1.663940   -1.413690   -1.777810
  H      0.811640   -1.963180   -1.702750
  H      1.845500   -0.635080   -1.158750
  H      4.205350   -1.176000   -3.733830
  H      3.817230   -0.125850   -2.406040
  H      3.143110   -3.362800   -3.811520
  H      1.487680   -3.458930   -3.165210
  H      1.465660   -3.195890   -5.643680
  H      2.354060   -1.698500   -5.496540
  H      0.730140   -1.816800   -4.862530

 Total Charge           Charge          ....    1
 Multiplicity           Mult            ....    1
 Number of Electrons    NEL             ....   40
 Basis Dimension        Dim             ....  172

ORBITAL ENERGIES
----------------

  NO   OCC          E(Eh)            E(eV)
   0   2.0000     -14.658724      -398.8841
   1   2.0000     -14.648908      -398.6171
   2   2.0000     -10.585846      -288.0555
   3   2.0000     -10.458461      -284.5892
   4   2.0000     -10.415480      -283.4196
   5   2.0000      -1.283470       -34.9250
   6   2.0000      -1.184604       -32.2347
   7   2.0000      -1.046418       -28.4745
   8   2.0000      -0.935214       -25.4485
   9   2.0000      -0.892810       -24.2946
  10   2.0000      -0.851201       -23.1624
  11   2.0000      -0.823987       -22.4218
  12   2.0000      -0.776441       -21.1280
  13   2.0000      -0.722369       -19.6567
  14   2.0000      -0.693595       -18.8737
  15   2.0000      -0.684531       -18.6270
  16   2.0000      -0.612060       -16.6550
  17   2.0000      -0.602937       -16.4067
  18   2.0000      -0.597309       -16.2536
  19   2.0000      -0.558916       -15.2089
  20   0.0000      -0.163255        -4.4424
  21   0.0000      -0.126821        -3.4510
  22   0.0000      -0.083115        -2.2617
  23   0.0000      -0.081176        -2.2089
  24   0.0000      -0.052922        -1.4401

MULLIKEN ATOMIC CHARGES
-----------------------
   0 C :    0.835525
   1 C :   -0.153610
   2 C :    0.521545
   3 N :    0.173755
   4 N :    0.232842
   5 H :    0.025059
   6 H :   -0.131182
   7 H :    0.009319
   8 H :   -0.174060
   9 H :   -0.042640
  10 H :   -0.057837
  11 H :   -0.045619
  12 H :   -0.088996
  13 H :   -0.104102
Sum of atomic charges:    1.0000000

LOEWDIN ATOMIC CHARGES
----------------------
   0 C :    0.173306
   1 C :    0.011349
   2 C :   -0.050272
   3 N :    0.284700
   4 N :    0.289694
   5 H :    0.062266
   6 H :    0.054895
   7 H :    0.051510
   8 H :    0.042478
   9 H :    0.048451
  10 H :    0.036082
  11 H :    0.007491
  12 H :   -0.009776
  13 H :   -0.002176

  Mayer bond orders larger than 0.100000
B(  0-C ,  1-C ) :   1.2461 B(  0-C , 11-H ) :   0.8168 B(  0-C , 12-H ) :   0.7554
B(  0-C , 13-H ) :   0.8114 B(  1-C ,  2-C ) :   1.1529 B(  1-C ,  9-H ) :   0.8769
B(  1-C , 10-H ) :   0.8723 B(  1-C , 11-H ) :   0.1647 B(  1-C , 12-H ) :   0.2034
B(  1-C , 13-H ) :   0.1738 B(  2-C ,  3-N ) :   1.1498 B(  2-C ,  4-N ) :   1.1961
B(  2-C ,  6-H ) :  -0.1487 B(  2-C ,  8-H ) :  -0.1657 B(  2-C , 10-H ) :   0.1666
B(  3-N ,  4-N ) :   0.1383 B(  3-N ,  7-H ) :   1.1072 B(  3-N ,  8-H ) :   1.2816
B(  4-N ,  5-H ) :   1.0956 B(  4-N ,  6-H ) :   1.2736 B(  5-H ,  6-H ) :  -0.1635
B(  7-H ,  8-H ) :  -0.1757 B( 12-H , 13-H ) :   0.1019

FINAL SINGLE POINT ENERGY      -228.756097593607

DIPOLE MOMENT
-------------
                                X             Y             Z
Electronic contribution:      1.19392       1.65285       3.63013
Nuclear contribution   :     -0.98617      -1.03178      -2.77619
                        -----------------------------------------
Total Dipole Moment    :      0.20776       0.62108       0.85394
                        -----------------------------------------
Magnitude (a.u.)       :      1.07616
Magnitude (Debye)      :      2.73537

Rotational constants in cm-1:     0.257311     0.127495     0.099037
Rotational constants in MHz :  7713.982239  3822.189706  2969.039713

                             ****ORCA TERMINATED NORMALLY****
TOTAL RUN TIME: 0 days 0 hours 0 minutes 29 seconds 780 msec
