                         Program Version 5.0.0 -  RELEASE  -
|  1> !CAM-B3LYP RIJCOSX def2-SVPD def2/J TightSCF xyzfile
|  2>
|  3> *xyzfile 0 1 B.xyz
|  4>
|  5> %MaxCore 64000
|  6>
|  7> %pal nprocs 4
|  8> end
|  9>
| 10> %scf
| 11>   MaxIter 150
| 12> end
| 13>
| 14>
| 15>                          ****END OF INPUT****

CARTESIAN COORDINATES (ANGSTROEM)
---------------------------------
  C      1.647032   -2.345276   -5.020411
  C      0.217628   -1.814022   -4.924389
  C      2.209964   -2.812388   -3.665708
  C     -0.811356   -2.908780   -4.607625
  C     -1.916579   -2.485081   -3.643665
  H     -2.554525   -1.712428   -4.091993
  C     -1.363531   -1.981337   -2.293608
  H     -2.553448   -3.355667   -3.458815
  O     -0.350395   -2.749689   -1.796006
  H      2.308385   -1.588704   -5.457128
  H      1.674286   -3.203478   -5.697392
  C      2.489007   -1.668510   -2.737538
  N      3.596314   -0.947608   -2.952247
  N      1.663936   -1.413685   -1.777806
  H      0.811642   -1.963178   -1.702755
  H      1.845503   -0.635078   -1.158749
  H      4.205351   -1.176003   -3.733825
  H      3.817230   -0.125845   -2.406041
  H     -1.244829   -3.280884   -5.541040
  H     -0.306331   -3.757746   -4.142734
  H     -0.036244   -1.318555   -5.865303
  H      0.175004   -1.035382   -4.158095
  H      3.143106   -3.362803   -3.811524
  H      1.487683   -3.458935   -3.165211
  H     -2.226220   -1.908386   -1.602039
  H     -1.051353   -0.915671   -2.443331

 Total Charge           Charge          ....    0
 Multiplicity           Mult            ....    1
 Number of Electrons    NEL             ....   80
 Basis Dimension        Dim             ....  331

ORBITAL ENERGIES
----------------

  NO   OCC          E(Eh)            E(eV)
   0   2.0000     -19.067938      -518.8650
   1   2.0000     -14.484487      -394.1429
   2   2.0000     -14.437816      -392.8729
   3   2.0000     -10.402407      -283.0639
   4   2.0000     -10.283906      -279.8393
   5   2.0000     -10.271976      -279.5147
   6   2.0000     -10.241909      -278.6965
   7   2.0000     -10.233663      -278.4721
   8   2.0000     -10.221876      -278.1514
   9   2.0000     -10.204906      -277.6896
  10   2.0000      -1.100180       -29.9374
  11   2.0000      -1.004472       -27.3331
  12   2.0000      -0.948749       -25.8168
  13   2.0000      -0.894615       -24.3437
  14   2.0000      -0.831255       -22.6196
  15   2.0000      -0.779874       -21.2214
  16   2.0000      -0.725365       -19.7382
  17   2.0000      -0.705961       -19.2102
  18   2.0000      -0.672311       -18.2945
  19   2.0000      -0.662973       -18.0404
  20   2.0000      -0.634973       -17.2785
  21   2.0000      -0.595901       -16.2153
  22   2.0000      -0.571740       -15.5578
  23   2.0000      -0.558521       -15.1981
  24   2.0000      -0.535758       -14.5787
  25   2.0000      -0.511622       -13.9219
  26   2.0000      -0.500698       -13.6247
  27   2.0000      -0.472307       -12.8521
  28   2.0000      -0.459105       -12.4929
  29   2.0000      -0.455513       -12.3951
  30   2.0000      -0.422802       -11.5050
  31   2.0000      -0.415751       -11.3132
  32   2.0000      -0.404800       -11.0152
  33   2.0000      -0.384711       -10.4685
  34   2.0000      -0.376070       -10.2334
  35   2.0000      -0.364102        -9.9077
  36   2.0000      -0.355337        -9.6692
  37   2.0000      -0.348245        -9.4762
  38   2.0000      -0.232180        -6.3179
  39   2.0000      -0.225554        -6.1376
  40   0.0000       0.009498         0.2585
  41   0.0000       0.014404         0.3920
  42   0.0000       0.049365         1.3433
  43   0.0000       0.069409         1.8887
  44   0.0000       0.074662         2.0317

MULLIKEN ATOMIC CHARGES
-----------------------
   0 C :    0.433788
   1 C :    0.340076
   2 C :    0.320933
   3 C :    0.209033
   4 C :    0.398938
   5 H :   -0.234736
   6 C :    0.610749
   7 H :   -0.031942
   8 O :   -0.713695
   9 H :   -0.159799
  10 H :   -0.162282
  11 C :    0.531851
  12 N :    0.152767
  13 N :    0.610576
  14 H :   -0.469326
  15 H :   -0.157922
  16 H :   -0.080108
  17 H :   -0.192099
  18 H :   -0.308824
  19 H :   -0.033813
  20 H :   -0.256322
  21 H :   -0.175810
  22 H :   -0.181845
  23 H :   -0.059271
  24 H :   -0.466248
  25 H :    0.075330
Sum of atomic charges:    0.0000000

LOEWDIN ATOMIC CHARGES
----------------------
   0 C :   -0.015163
   1 C :   -0.015249
   2 C :    0.053312
   3 C :   -0.029663
   4 C :   -0.031696
   5 H :    0.014823
   6 C :   -0.088873
   7 H :    0.018380
   8 O :   -0.406841
   9 H :    0.010903
  10 H :    0.028424
  11 C :   -0.048384
  12 N :    0.240549
  13 N :    0.314802
  14 H :   -0.197288
  15 H :    0.038500
  16 H :    0.024658
  17 H :    0.018274
  18 H :    0.015209
  19 H :    0.002560
  20 H :    0.019570
  21 H :   -0.003459
  22 H :    0.030280
  23 H :    0.010313
  24 H :    0.003852
  25 H :   -0.007792

  Mayer bond orders larger than 0.100000
B(  0-C ,  1-C ) :   1.2053 B(  0-C ,  2-C ) :   1.1297 B(  0-C ,  9-H ) :   0.6815
B(  0-C , 10-H ) :   0.8197 B(  0-C , 21-H ) :   0.1716 B(  0-C , 22-H ) :   0.1157
B(  0-C , 23-H ) :   0.1152 B(  1-C ,  2-C ) :   0.1332 B(  1-C ,  3-C ) :   1.1388
B(  1-C ,  9-H ) :   0.2057 B(  1-C , 10-H ) :   0.1104 B(  1-C , 18-H ) :   0.2379
B(  1-C , 19-H ) :   0.1076 B(  1-C , 20-H ) :   0.7932 B(  1-C , 21-H ) :   0.7482
B(  2-C ,  9-H ) :   0.1516 B(  2-C , 10-H ) :   0.1396 B(  2-C , 11-C ) :   1.0840
B(  2-C , 12-N ) :   0.1096 B(  2-C , 22-H ) :   0.7411 B(  2-C , 23-H ) :   0.8150
B(  3-C ,  4-C ) :   1.2292 B(  3-C ,  5-H ) :   0.1472 B(  3-C ,  7-H ) :   0.2425
B(  3-C , 18-H ) :   0.8204 B(  3-C , 19-H ) :   0.7767 B(  3-C , 20-H ) :   0.1325
B(  3-C , 21-H ) :   0.1770 B(  4-C ,  5-H ) :   0.8714 B(  4-C ,  6-C ) :   1.1056
B(  4-C ,  7-H ) :   0.6382 B(  4-C , 24-H ) :   0.1497 B(  4-C , 25-H ) :   0.1210
B(  5-H ,  6-C ) :   0.1134 B(  6-C ,  7-H ) :   0.1343 B(  6-C ,  8-O ) :   0.9929
B(  6-C , 24-H ) :   0.9967 B(  6-C , 25-H ) :   0.7819 B(  8-O , 14-H ) :   0.5212
B(  9-H , 10-H ) :  -0.1183 B( 11-C , 12-N ) :   1.0199 B( 11-C , 13-N ) :   1.2425
B( 11-C , 15-H ) :  -0.2076 B( 11-C , 16-H ) :  -0.1495 B( 11-C , 17-H ) :  -0.1207
B( 11-C , 22-H ) :   0.1496 B( 11-C , 23-H ) :   0.2141 B( 12-N , 13-N ) :   0.1584
B( 12-N , 16-H ) :   1.2137 B( 12-N , 17-H ) :   1.2724 B( 13-N , 14-H ) :   0.9411
B( 13-N , 15-H ) :   1.2387 B( 14-H , 15-H ) :  -0.2077 B( 16-H , 17-H ) :  -0.1783
B( 19-H , 23-H ) :   0.1218 B( 20-H , 21-H ) :  -0.1022

FINAL SINGLE POINT ENERGY      -460.529981751395

DIPOLE MOMENT
-------------
                                X             Y             Z
Electronic contribution:      5.60835       0.92999       4.27402
Nuclear contribution   :     -2.25948       0.71378      -5.15247
                        -----------------------------------------
Total Dipole Moment    :      3.34887       1.64377      -0.87845
                        -----------------------------------------
Magnitude (a.u.)       :      3.83257
Magnitude (Debye)      :      9.74161

Rotational constants in cm-1:     0.063973     0.031829     0.024059
Rotational constants in MHz :  1917.874550   954.201145   721.285252

                             ****ORCA TERMINATED NORMALLY****
TOTAL RUN TIME: 0 days 0 hours 2 minutes 34 seconds 734 msec
