                         Program Version 5.0.0 -  RELEASE  -
|  1> !CAM-B3LYP RIJCOSX def2-SVPD def2/J TightSCF
|  2> *xyz 0 1
|  3> C         -1.91658       -2.48508       -3.64367
|  4> C         -1.36353       -1.98134       -2.29361
|  5> F         -0.35039       -2.74969       -1.79601
|  6> H         -2.22622       -1.90839       -1.60204
|  7> H         -1.05135       -0.91567       -2.44333
|  8> H         -1.11522       -2.57167       -4.34739
|  9> H         -2.64227       -1.79099       -4.01314
| 10> H         -2.37564       -3.44180       -3.50640
| 11> *
| 12>
| 13> %MaxCore 64000
| 14> %pal nprocs 4
| 15> end
| 16>
| 17> %scf
| 18>   MaxIter 150
| 19> end
| 20>
| 21>
| 22>                          ****END OF INPUT****

CARTESIAN COORDINATES (ANGSTROEM)
---------------------------------
  C     -1.916580   -2.485080   -3.643670
  C     -1.363530   -1.981340   -2.293610
  F     -0.350390   -2.749690   -1.796010
  H     -2.226220   -1.908390   -1.602040
  H     -1.051350   -0.915670   -2.443330
  H     -1.115220   -2.571670   -4.347390
  H     -2.642270   -1.790990   -4.013140
  H     -2.375640   -3.441800   -3.506400

 Total Charge           Charge          ....    0
 Multiplicity           Mult            ....    1
 Number of Electrons    NEL             ....   26
 Basis Dimension        Dim             ....  103

ORBITAL ENERGIES
----------------

  NO   OCC          E(Eh)            E(eV)
   0   2.0000     -24.764409      -673.8738
   1   2.0000     -10.342765      -281.4409
   2   2.0000     -10.257537      -279.1218
   3   2.0000      -1.269300       -34.5394
   4   2.0000      -0.841235       -22.8912
   5   2.0000      -0.706569       -19.2267
   6   2.0000      -0.586018       -15.9464
   7   2.0000      -0.572213       -15.5707
   8   2.0000      -0.535665       -14.5762
   9   2.0000      -0.478632       -13.0242
  10   2.0000      -0.471653       -12.8343
  11   2.0000      -0.406889       -11.0720
  12   2.0000      -0.399226       -10.8635
  13   0.0000       0.051437         1.3997
  14   0.0000       0.082272         2.2387
  15   0.0000       0.109753         2.9865
  16   0.0000       0.114365         3.1120
  17   0.0000       0.142754         3.8845

MULLIKEN ATOMIC CHARGES
-----------------------
   0 C :    0.532708
   1 C :    0.502099
   2 F :   -0.432401
   3 H :   -0.134697
   4 H :   -0.101819
   5 H :   -0.136355
   6 H :   -0.103294
   7 H :   -0.126241
Sum of atomic charges:   -0.0000000

LOEWDIN ATOMIC CHARGES
----------------------
   0 C :    0.138207
   1 C :    0.058470
   2 F :   -0.214519
   3 H :    0.028633
   4 H :    0.035043
   5 H :   -0.015360
   6 H :   -0.014131
   7 H :   -0.016343

  Mayer bond orders larger than 0.100000
B(  0-C ,  1-C ) :   1.3109 B(  0-C ,  5-H ) :   0.8616 B(  0-C ,  6-H ) :   0.8316
B(  0-C ,  7-H ) :   0.8616 B(  1-C ,  2-F ) :   0.7730 B(  1-C ,  3-H ) :   0.9270
B(  1-C ,  4-H ) :   0.9258 B(  1-C ,  5-H ) :   0.1537 B(  1-C ,  6-H ) :   0.1305
B(  1-C ,  7-H ) :   0.1449

FINAL SINGLE POINT ENERGY      -178.861416414885

DIPOLE MOMENT
-------------
                                X             Y             Z
Electronic contribution:      3.58661      -1.33374       3.41008
Nuclear contribution   :     -4.15401       1.70894      -3.75000
                        -----------------------------------------
Total Dipole Moment    :     -0.56740       0.37519      -0.33992
                        -----------------------------------------
Magnitude (a.u.)       :      0.76044
Magnitude (Debye)      :      1.93287

Rotational constants in cm-1:     1.266842     0.300492     0.266603
Rotational constants in MHz : 37978.968232  9008.526876  7992.551454

                             ****ORCA TERMINATED NORMALLY****
TOTAL RUN TIME: 0 days 0 hours 0 minutes 12 seconds 124 msec
