                         Program Version 5.0.0 -  RELEASE  -
|  1> !CAM-B3LYP RIJCOSX def2-SVPD def2/J TightSCF
|  2> *xyz 0 1
|  3> C          1.64703       -2.34528       -5.02041
|  4> C          2.20996       -2.81239       -3.66571
|  5> C          2.48901       -1.66851       -2.73754
|  6> C          3.59631       -0.94761       -2.95225
|  7> N          1.66394       -1.41369       -1.77781
|  8> H          0.81164       -1.96318       -1.70275
|  9> H          1.84550       -0.63508       -1.15875
| 10> H          4.20535       -1.17600       -3.73383
| 11> H          3.81723       -0.12585       -2.40604
| 12> H          3.14311       -3.36280       -3.81152
| 13> H          1.48768       -3.45893       -3.16521
| 14> H          1.46566       -3.19589       -5.64368
| 15> H          2.35406       -1.69850       -5.49654
| 16> H          0.73014       -1.81680       -4.86253
| 17> *
| 18>
| 19> %MaxCore 64000
| 20> %pal nprocs 4
| 21> end
| 22>
| 23> %scf
| 24>   MaxIter 150
| 25> end
| 26>
| 27>
| 28>                          ****END OF INPUT****

CARTESIAN COORDINATES (ANGSTROEM)
---------------------------------
  C      1.647030   -2.345280   -5.020410
  C      2.209960   -2.812390   -3.665710
  C      2.489010   -1.668510   -2.737540
  C      3.596310   -0.947610   -2.952250
  N      1.663940   -1.413690   -1.777810
  H      0.811640   -1.963180   -1.702750
  H      1.845500   -0.635080   -1.158750
  H      4.205350   -1.176000   -3.733830
  H      3.817230   -0.125850   -2.406040
  H      3.143110   -3.362800   -3.811520
  H      1.487680   -3.458930   -3.165210
  H      1.465660   -3.195890   -5.643680
  H      2.354060   -1.698500   -5.496540
  H      0.730140   -1.816800   -4.862530

 Total Charge           Charge          ....    0
 Multiplicity           Mult            ....    1
 Number of Electrons    NEL             ....   40
 Basis Dimension        Dim             ....  172

ORBITAL ENERGIES
----------------

  NO   OCC          E(Eh)            E(eV)
   0   2.0000     -14.410967      -392.1423
   1   2.0000     -10.279946      -279.7315
   2   2.0000     -10.258579      -279.1501
   3   2.0000     -10.243840      -278.7491
   4   2.0000     -10.188064      -277.2313
   5   2.0000      -1.015312       -27.6280
   6   2.0000      -0.855729       -23.2856
   7   2.0000      -0.783329       -21.3155
   8   2.0000      -0.712885       -19.3986
   9   2.0000      -0.641198       -17.4479
  10   2.0000      -0.603956       -16.4345
  11   2.0000      -0.551865       -15.0170
  12   2.0000      -0.512506       -13.9460
  13   2.0000      -0.481597       -13.1049
  14   2.0000      -0.463284       -12.6066
  15   2.0000      -0.449263       -12.2251
  16   2.0000      -0.417452       -11.3594
  17   2.0000      -0.402765       -10.9598
  18   2.0000      -0.400441       -10.8966
  19   2.0000      -0.243257        -6.6193
  20   0.0000       0.046664         1.2698
  21   0.0000       0.075483         2.0540
  22   0.0000       0.084311         2.2942
  23   0.0000       0.088313         2.4031
  24   0.0000       0.101754         2.7689

MULLIKEN ATOMIC CHARGES
-----------------------
   0 C :    0.809625
   1 C :    0.044756
   2 C :   -0.135091
   3 C :    0.628181
   4 N :    0.340607
   5 H :   -0.128594
   6 H :   -0.173332
   7 H :   -0.270565
   8 H :   -0.597339
   9 H :   -0.013693
  10 H :   -0.161758
  11 H :   -0.074826
  12 H :   -0.130084
  13 H :   -0.137887
Sum of atomic charges:    0.0000000

LOEWDIN ATOMIC CHARGES
----------------------
   0 C :    0.136562
   1 C :   -0.030586
   2 C :   -0.270056
   3 C :    0.174399
   4 N :    0.171563
   5 H :    0.007436
   6 H :    0.014860
   7 H :   -0.084558
   8 H :   -0.095975
   9 H :    0.027100
  10 H :    0.009422
  11 H :   -0.021588
  12 H :   -0.020885
  13 H :   -0.017694

  Mayer bond orders larger than 0.100000
B(  0-C ,  1-C ) :   1.2497 B(  0-C , 10-H ) :   0.1049 B(  0-C , 11-H ) :   0.7868
B(  0-C , 12-H ) :   0.8061 B(  0-C , 13-H ) :   0.8050 B(  1-C ,  2-C ) :   1.1029
B(  1-C ,  3-C ) :   0.1886 B(  1-C ,  4-N ) :   0.1038 B(  1-C ,  9-H ) :   0.8237
B(  1-C , 10-H ) :   0.7899 B(  1-C , 11-H ) :   0.1666 B(  1-C , 12-H ) :   0.2069
B(  1-C , 13-H ) :   0.1986 B(  2-C ,  3-C ) :   1.7145 B(  2-C ,  4-N ) :   1.2677
B(  2-C ,  8-H ) :   0.1751 B(  2-C ,  9-H ) :   0.1327 B(  2-C , 10-H ) :   0.2094
B(  3-C ,  4-N ) :   0.2353 B(  3-C ,  7-H ) :   0.7981 B(  3-C ,  8-H ) :   0.6883
B(  4-N ,  5-H ) :   1.0867 B(  4-N ,  6-H ) :   1.2325 B(  5-H ,  6-H ) :  -0.1461

FINAL SINGLE POINT ENERGY      -212.295422056684

DIPOLE MOMENT
-------------
                                X             Y             Z
Electronic contribution:     -0.04306       0.65526       3.02031
Nuclear contribution   :     -0.69146      -0.83112      -2.71336
                        -----------------------------------------
Total Dipole Moment    :     -0.73453      -0.17586       0.30695
                        -----------------------------------------
Magnitude (a.u.)       :      0.81527
Magnitude (Debye)      :      2.07226

Rotational constants in cm-1:     0.270661     0.129240     0.102040
Rotational constants in MHz :  8114.202941  3874.518141  3059.074383

                             ****ORCA TERMINATED NORMALLY****
TOTAL RUN TIME: 0 days 0 hours 0 minutes 29 seconds 775 msec
