                         Program Version 5.0.0 -  RELEASE  -
|  1> !CAM-B3LYP RIJCOSX def2-SVPD def2/J TightSCF
|  2> *xyz 0 1
|  3> C          1.64703       -2.34528       -5.02041
|  4> C          2.20996       -2.81239       -3.66571
|  5> C          2.48901       -1.66851       -2.73754
|  6> N          3.59631       -0.94761       -2.95225
|  7> C          1.66394       -1.41369       -1.77781
|  8> H          0.81164       -1.96318       -1.70275
|  9> H          1.84550       -0.63508       -1.15875
| 10> H          4.20535       -1.17600       -3.73383
| 11> H          3.81723       -0.12585       -2.40604
| 12> H          3.14311       -3.36280       -3.81152
| 13> H          1.48768       -3.45893       -3.16521
| 14> H          1.46566       -3.19589       -5.64368
| 15> H          2.35406       -1.69850       -5.49654
| 16> H          0.73014       -1.81680       -4.86253
| 17> *
| 18>
| 19> %MaxCore 64000
| 20> %pal nprocs 4
| 21> end
| 22>
| 23> %scf
| 24>   MaxIter 150
| 25> end
| 26>
| 27>
| 28>                          ****END OF INPUT****

CARTESIAN COORDINATES (ANGSTROEM)
---------------------------------
  C      1.647030   -2.345280   -5.020410
  C      2.209960   -2.812390   -3.665710
  C      2.489010   -1.668510   -2.737540
  N      3.596310   -0.947610   -2.952250
  C      1.663940   -1.413690   -1.777810
  H      0.811640   -1.963180   -1.702750
  H      1.845500   -0.635080   -1.158750
  H      4.205350   -1.176000   -3.733830
  H      3.817230   -0.125850   -2.406040
  H      3.143110   -3.362800   -3.811520
  H      1.487680   -3.458930   -3.165210
  H      1.465660   -3.195890   -5.643680
  H      2.354060   -1.698500   -5.496540
  H      0.730140   -1.816800   -4.862530

 Total Charge           Charge          ....    0
 Multiplicity           Mult            ....    1
 Number of Electrons    NEL             ....   40
 Basis Dimension        Dim             ....  172

ORBITAL ENERGIES
----------------

  NO   OCC          E(Eh)            E(eV)
   0   2.0000     -14.404042      -391.9539
   1   2.0000     -10.276650      -279.6419
   2   2.0000     -10.256923      -279.1051
   3   2.0000     -10.244930      -278.7787
   4   2.0000     -10.191830      -277.3338
   5   2.0000      -0.996593       -27.1187
   6   2.0000      -0.855633       -23.2830
   7   2.0000      -0.797761       -21.7082
   8   2.0000      -0.708045       -19.2669
   9   2.0000      -0.637249       -17.3404
  10   2.0000      -0.592090       -16.1116
  11   2.0000      -0.552008       -15.0209
  12   2.0000      -0.504626       -13.7316
  13   2.0000      -0.493169       -13.4198
  14   2.0000      -0.466565       -12.6959
  15   2.0000      -0.452025       -12.3002
  16   2.0000      -0.417479       -11.3602
  17   2.0000      -0.399765       -10.8781
  18   2.0000      -0.393796       -10.7157
  19   2.0000      -0.255460        -6.9514
  20   0.0000       0.047282         1.2866
  21   0.0000       0.077257         2.1023
  22   0.0000       0.085765         2.3338
  23   0.0000       0.088645         2.4121
  24   0.0000       0.105000         2.8572

MULLIKEN ATOMIC CHARGES
-----------------------
   0 C :    0.846043
   1 C :   -0.004612
   2 C :   -0.060356
   3 N :    0.273192
   4 C :    0.503378
   5 H :   -0.207790
   6 H :   -0.477518
   7 H :   -0.158754
   8 H :   -0.228046
   9 H :   -0.140160
  10 H :   -0.005456
  11 H :   -0.089214
  12 H :   -0.117669
  13 H :   -0.133040
Sum of atomic charges:   -0.0000000

LOEWDIN ATOMIC CHARGES
----------------------
   0 C :    0.135001
   1 C :   -0.031595
   2 C :   -0.269777
   3 N :    0.174238
   4 C :    0.170201
   5 H :   -0.073380
   6 H :   -0.079268
   7 H :   -0.003099
   8 H :    0.000614
   9 H :    0.020327
  10 H :    0.019396
  11 H :   -0.021352
  12 H :   -0.026379
  13 H :   -0.014928

  Mayer bond orders larger than 0.100000
B(  0-C ,  1-C ) :   1.2105 B(  0-C , 11-H ) :   0.7926 B(  0-C , 12-H ) :   0.7581
B(  0-C , 13-H ) :   0.8203 B(  1-C ,  2-C ) :   1.2020 B(  1-C ,  3-N ) :   0.1024
B(  1-C ,  4-C ) :   0.1651 B(  1-C ,  9-H ) :   0.8353 B(  1-C , 10-H ) :   0.8364
B(  1-C , 11-H ) :   0.1798 B(  1-C , 12-H ) :   0.2261 B(  1-C , 13-H ) :   0.1835
B(  2-C ,  3-N ) :   1.2084 B(  2-C ,  4-C ) :   1.6808 B(  2-C ,  6-H ) :   0.2573
B(  2-C ,  9-H ) :   0.1707 B(  2-C , 10-H ) :   0.1866 B(  3-N ,  4-C ) :   0.2478
B(  3-N ,  7-H ) :   1.1421 B(  3-N ,  8-H ) :   1.2404 B(  4-C ,  5-H ) :   0.9261
B(  4-C ,  6-H ) :   0.5756 B(  7-H ,  8-H ) :  -0.1533

FINAL SINGLE POINT ENERGY      -212.299807574427

DIPOLE MOMENT
-------------
                                X             Y             Z
Electronic contribution:      1.63578       1.06872       2.00472
Nuclear contribution   :     -1.13902      -0.93906      -2.44135
                        -----------------------------------------
Total Dipole Moment    :      0.49676       0.12966      -0.43663
                        -----------------------------------------
Magnitude (a.u.)       :      0.67396
Magnitude (Debye)      :      1.71308

Rotational constants in cm-1:     0.267243     0.130607     0.102304
Rotational constants in MHz :  8011.748167  3915.504600  3066.999841

                             ****ORCA TERMINATED NORMALLY****
TOTAL RUN TIME: 0 days 0 hours 0 minutes 29 seconds 57 msec
