                         Program Version 5.0.0 -  RELEASE  -
|  1> !M062X D3Zero RIJCOSX def2-TZVPD def2/J TightSCF
|  2> *xyz -1 1
|  3> C          3.80351        1.37472       -3.26081
|  4> C          3.93993        0.32036       -4.36773
|  5> H          4.10504       -0.65508       -3.90773
|  6> H          3.02280        0.28052       -4.95712
|  7> C          5.10585        0.66802       -5.30546
|  8> O          4.80913        1.15019       -6.41436
|  9> O          6.26737        0.56500       -4.81948
| 10> H          3.64113        2.33595       -3.70189
| 11> H          4.69995        1.39701       -2.67703
| 12> H          2.97435        1.12625       -2.63180
| 13> *
| 14>
| 15> %MaxCore 64000
| 16>
| 17> %pal nprocs 4
| 18> end
| 19>
| 20> %scf
| 21>   MaxIter 150
| 22> end
| 23>
| 24>
| 25>                          ****END OF INPUT****

CARTESIAN COORDINATES (ANGSTROEM)
---------------------------------
  C      3.803510    1.374720   -3.260810
  C      3.939930    0.320360   -4.367730
  H      4.105040   -0.655080   -3.907730
  H      3.022800    0.280520   -4.957120
  C      5.105850    0.668020   -5.305460
  O      4.809130    1.150190   -6.414360
  O      6.267370    0.565000   -4.819480
  H      3.641130    2.335950   -3.701890
  H      4.699950    1.397010   -2.677030
  H      2.974350    1.126250   -2.631800

 Total Charge           Charge          ....   -1
 Multiplicity           Mult            ....    1
 Number of Electrons    NEL             ....   40
 Basis Dimension        Dim             ....  236

ORBITAL ENERGIES
----------------

  NO   OCC          E(Eh)            E(eV)
   0   2.0000     -19.362806      -526.8887
   1   2.0000     -19.358845      -526.7810
   2   2.0000     -10.421393      -283.5805
   3   2.0000     -10.369990      -282.1818
   4   2.0000     -10.357766      -281.8492
   5   2.0000      -0.944170       -25.6922
   6   2.0000      -0.846405       -23.0318
   7   2.0000      -0.701166       -19.0797
   8   2.0000      -0.559328       -15.2201
   9   2.0000      -0.399566       -10.8728
  10   2.0000      -0.360884        -9.8202
  11   2.0000      -0.337524        -9.1845
  12   2.0000      -0.300719        -8.1830
  13   2.0000      -0.285843        -7.7782
  14   2.0000      -0.279635        -7.6093
  15   2.0000      -0.244053        -6.6410
  16   2.0000      -0.232543        -6.3278
  17   2.0000      -0.114540        -3.1168
  18   2.0000      -0.109040        -2.9671
  19   2.0000      -0.106461        -2.8969
  20   0.0000       0.142488         3.8773
  21   0.0000       0.164698         4.4817
  22   0.0000       0.172073         4.6823
  23   0.0000       0.183764         5.0005
  24   0.0000       0.214003         5.8233

MULLIKEN ATOMIC CHARGES
-----------------------
   0 C :   -1.113631
   1 C :   -0.333842
   2 H :    0.281303
   3 H :    0.267300
   4 C :    0.618673
   5 O :   -0.773153
   6 O :   -0.806190
   7 H :    0.312490
   8 H :    0.269401
   9 H :    0.277648
Sum of atomic charges:   -1.0000000

LOEWDIN ATOMIC CHARGES
----------------------
   0 C :   -0.130889
   1 C :   -0.212913
   2 H :    0.091999
   3 H :    0.089013
   4 C :   -0.778382
   5 O :   -0.102542
   6 O :   -0.122351
   7 H :    0.063947
   8 H :    0.058632
   9 H :    0.043486

  Mayer bond orders larger than 0.100000
B(  0-C ,  1-C ) :   0.4714 B(  0-C ,  7-H ) :   0.9650 B(  0-C ,  8-H ) :   1.0290
B(  0-C ,  9-H ) :   0.9569 B(  1-C ,  2-H ) :   0.9647 B(  1-C ,  3-H ) :   0.9930
B(  1-C ,  4-C ) :   0.9124 B(  4-C ,  5-O ) :   1.3568 B(  4-C ,  6-O ) :   1.3289

Dispersion correction           -0.000084286
FINAL SINGLE POINT ENERGY      -267.831484391810

DIPOLE MOMENT
-------------
                                X             Y             Z
Electronic contribution:      3.69879      -0.49772      -4.48035
Nuclear contribution   :     -5.15232       0.33441       5.87398
                        -----------------------------------------
Total Dipole Moment    :     -1.45353      -0.16331       1.39363
                        -----------------------------------------
Magnitude (a.u.)       :      2.02031
Magnitude (Debye)      :      5.13521

Rotational constants in cm-1:     0.295355     0.137164     0.110193
Rotational constants in MHz :  8854.523706  4112.077980  3303.490503

                             ****ORCA TERMINATED NORMALLY****
TOTAL RUN TIME: 0 days 0 hours 0 minutes 30 seconds 97 msec
