                         Program Version 5.0.0 -  RELEASE  -
|  1> !M062X D3Zero RIJCOSX def2-TZVPD def2/J TightSCF
|  2> *xyz 1 1
|  3> C          3.90595        2.81985       -3.75292
|  4> N          5.29562        3.13151       -4.10533
|  5> C          3.80351        1.37472       -3.26081
|  6> C          5.70862        3.46889       -5.32419
|  7> N          6.90470        3.03895       -5.71708
|  8> N          4.98188        4.29357       -6.09746
|  9> H          5.00055        4.10131       -7.08776
| 10> H          4.08469        4.59690       -5.73965
| 11> H          5.96336        2.52611       -3.64239
| 12> H          7.04716        2.06686       -5.47360
| 13> H          7.19815        3.30799       -6.64523
| 14> H          3.28202        2.94919       -4.64026
| 15> H          3.56525        3.51457       -2.98252
| 16> H          4.14157        0.71142       -4.02935
| 17> H          2.78528        1.15146       -3.01944
| 18> H          4.41205        1.25066       -2.38949
| 19> *
| 20>
| 21> %MaxCore 64000
| 22>
| 23> %pal nprocs 4
| 24> end
| 25>
| 26> %scf
| 27>   MaxIter 150
| 28> end
| 29>
| 30>
| 31>                          ****END OF INPUT****

CARTESIAN COORDINATES (ANGSTROEM)
---------------------------------
  C      3.905950    2.819850   -3.752920
  N      5.295620    3.131510   -4.105330
  C      3.803510    1.374720   -3.260810
  C      5.708620    3.468890   -5.324190
  N      6.904700    3.038950   -5.717080
  N      4.981880    4.293570   -6.097460
  H      5.000550    4.101310   -7.087760
  H      4.084690    4.596900   -5.739650
  H      5.963360    2.526110   -3.642390
  H      7.047160    2.066860   -5.473600
  H      7.198150    3.307990   -6.645230
  H      3.282020    2.949190   -4.640260
  H      3.565250    3.514570   -2.982520
  H      4.141570    0.711420   -4.029350
  H      2.785280    1.151460   -3.019440
  H      4.412050    1.250660   -2.389490

 Total Charge           Charge          ....    1
 Multiplicity           Mult            ....    1
 Number of Electrons    NEL             ....   48
 Basis Dimension        Dim             ....  312

ORBITAL ENERGIES
----------------

  NO   OCC          E(Eh)            E(eV)
   0   2.0000     -14.975734      -407.5104
   1   2.0000     -14.975708      -407.5097
   2   2.0000     -14.974229      -407.4695
   3   2.0000     -10.879825      -296.0551
   4   2.0000     -10.747776      -292.4619
   5   2.0000     -10.678466      -290.5758
   6   2.0000      -1.336135       -36.3581
   7   2.0000      -1.215372       -33.0720
   8   2.0000      -1.206381       -32.8273
   9   2.0000      -1.031076       -28.0570
  10   2.0000      -0.922020       -25.0895
  11   2.0000      -0.893490       -24.3131
  12   2.0000      -0.854534       -23.2530
  13   2.0000      -0.822493       -22.3812
  14   2.0000      -0.775629       -21.1059
  15   2.0000      -0.757356       -20.6087
  16   2.0000      -0.723485       -19.6870
  17   2.0000      -0.696927       -18.9644
  18   2.0000      -0.668269       -18.1845
  19   2.0000      -0.626031       -17.0352
  20   2.0000      -0.601332       -16.3631
  21   2.0000      -0.586298       -15.9540
  22   2.0000      -0.556801       -15.1513
  23   2.0000      -0.521766       -14.1980
  24   0.0000      -0.157301        -4.2804
  25   0.0000      -0.143998        -3.9184
  26   0.0000      -0.113862        -3.0983
  27   0.0000      -0.102578        -2.7913
  28   0.0000      -0.086062        -2.3419

MULLIKEN ATOMIC CHARGES
-----------------------
   0 C :   -0.375194
   1 N :   -0.329513
   2 C :   -1.335048
   3 C :    0.962495
   4 N :   -0.618504
   5 N :   -0.631917
   6 H :    0.283387
   7 H :    0.319110
   8 H :    0.333724
   9 H :    0.293014
  10 H :    0.307526
  11 H :    0.376397
  12 H :    0.302498
  13 H :    0.364495
  14 H :    0.347344
  15 H :    0.400188
Sum of atomic charges:    1.0000000

LOEWDIN ATOMIC CHARGES
----------------------
   0 C :   -0.202458
   1 N :    0.083588
   2 C :   -0.059708
   3 C :   -0.441792
   4 N :    0.203190
   5 N :    0.213620
   6 H :    0.140213
   7 H :    0.130840
   8 H :    0.157595
   9 H :    0.142398
  10 H :    0.139031
  11 H :    0.118530
  12 H :    0.129579
  13 H :    0.078668
  14 H :    0.085746
  15 H :    0.080961

  Mayer bond orders larger than 0.100000
B(  0-C ,  1-N ) :   0.7202 B(  0-C ,  2-C ) :   0.4998 B(  0-C , 11-H ) :   0.8451
B(  0-C , 12-H ) :   0.9938 B(  1-N ,  3-C ) :   1.2581 B(  1-N ,  8-H ) :   0.8489
B(  2-C , 13-H ) :   0.9492 B(  2-C , 14-H ) :   0.9499 B(  2-C , 15-H ) :   0.9313
B(  3-C ,  4-N ) :   1.0392 B(  3-C ,  5-N ) :   0.9577 B(  4-N ,  9-H ) :   0.9295
B(  4-N , 10-H ) :   0.8852 B(  5-N ,  6-H ) :   0.9350 B(  5-N ,  7-H ) :   0.8824

Dispersion correction           -0.000313006
FINAL SINGLE POINT ENERGY      -284.361926000245

DIPOLE MOMENT
-------------
                                X             Y             Z
Electronic contribution:      3.50125       3.39916      -2.64529
Nuclear contribution   :     -3.31456      -3.64300       1.57303
                        -----------------------------------------
Total Dipole Moment    :      0.18669      -0.24384      -1.07226
                        -----------------------------------------
Magnitude (a.u.)       :      1.11537
Magnitude (Debye)      :      2.83504

Rotational constants in cm-1:     0.229487     0.071000     0.059428
Rotational constants in MHz :  6879.840828  2128.520047  1781.605314

                             ****ORCA TERMINATED NORMALLY****
TOTAL RUN TIME: 0 days 0 hours 0 minutes 55 seconds 651 msec
