                         Program Version 5.0.0 -  RELEASE  -
|  1> !M062X D3Zero RIJCOSX def2-TZVPD def2/J TightSCF xyzfile
|  2>
|  3> *xyzfile 0 1 B.xyz
|  4>
|  5> %MaxCore 64000
|  6>
|  7> %pal nprocs 4
|  8> end
|  9>
| 10> %scf
| 11>   MaxIter 150
| 12> end
| 13>
| 14>
| 15>                          ****END OF INPUT****

CARTESIAN COORDINATES (ANGSTROEM)
---------------------------------
  C      3.905947    2.819855   -3.752920
  N      5.295615    3.131515   -4.105334
  C      3.803511    1.374716   -3.260807
  C      3.939934    0.320362   -4.367729
  H      4.105043   -0.655085   -3.907733
  H      3.022801    0.280517   -4.957117
  C      5.105846    0.668022   -5.305463
  C      5.708619    3.468885   -5.324190
  N      6.904696    3.038954   -5.717084
  N      4.981884    4.293570   -6.097457
  H      5.000546    4.101311   -7.087761
  H      4.084693    4.596899   -5.739652
  H      5.963358    2.526112   -3.642391
  H      7.047164    2.066861   -5.473604
  H      7.198145    3.307994   -6.645225
  H      3.282025    2.949187   -4.640259
  H      3.565254    3.514574   -2.982523
  H      4.574833    1.215157   -2.500443
  H      2.843514    1.260845   -2.751465
  O      4.809132    1.150187   -6.414361
  O      6.267366    0.564999   -4.819481

 Total Charge           Charge          ....    0
 Multiplicity           Mult            ....    1
 Number of Electrons    NEL             ....   78
 Basis Dimension        Dim             ....  475

ORBITAL ENERGIES
----------------

  NO   OCC          E(Eh)            E(eV)
   0   2.0000     -19.542779      -531.7860
   1   2.0000     -19.541634      -531.7549
   2   2.0000     -14.813509      -403.0961
   3   2.0000     -14.805327      -402.8734
   4   2.0000     -14.782962      -402.2649
   5   2.0000     -10.709398      -291.4175
   6   2.0000     -10.599337      -288.4226
   7   2.0000     -10.599100      -288.4162
   8   2.0000     -10.547733      -287.0184
   9   2.0000     -10.514273      -286.1079
  10   2.0000      -1.166311       -31.7369
  11   2.0000      -1.127984       -30.6940
  12   2.0000      -1.050372       -28.5821
  13   2.0000      -1.034289       -28.1444
  14   2.0000      -1.027514       -27.9601
  15   2.0000      -0.894798       -24.3487
  16   2.0000      -0.807110       -21.9626
  17   2.0000      -0.742340       -20.2001
  18   2.0000      -0.709699       -19.3119
  19   2.0000      -0.685876       -18.6636
  20   2.0000      -0.651555       -17.7297
  21   2.0000      -0.610648       -16.6166
  22   2.0000      -0.587078       -15.9752
  23   2.0000      -0.575090       -15.6490
  24   2.0000      -0.553295       -15.0559
  25   2.0000      -0.548636       -14.9292
  26   2.0000      -0.504134       -13.7182
  27   2.0000      -0.502323       -13.6689
  28   2.0000      -0.483146       -13.1471
  29   2.0000      -0.460114       -12.5203
  30   2.0000      -0.455461       -12.3937
  31   2.0000      -0.447494       -12.1769
  32   2.0000      -0.408355       -11.1119
  33   2.0000      -0.401158       -10.9161
  34   2.0000      -0.384236       -10.4556
  35   2.0000      -0.355136        -9.6637
  36   2.0000      -0.300615        -8.1801
  37   2.0000      -0.292658        -7.9636
  38   2.0000      -0.283325        -7.7097
  39   0.0000      -0.005402        -0.1470
  40   0.0000       0.009276         0.2524
  41   0.0000       0.017212         0.4684
  42   0.0000       0.025943         0.7059
  43   0.0000       0.042449         1.1551

MULLIKEN ATOMIC CHARGES
-----------------------
   0 C :   -0.671620
   1 N :   -0.379116
   2 C :   -0.769401
   3 C :   -0.755038
   4 H :    0.337801
   5 H :    0.340347
   6 C :    1.135091
   7 C :    0.965740
   8 N :   -0.704186
   9 N :   -0.734454
  10 H :    0.273621
  11 H :    0.301920
  12 H :    0.398249
  13 H :    0.388567
  14 H :    0.284106
  15 H :    0.419351
  16 H :    0.242649
  17 H :    0.333444
  18 H :    0.348546
  19 O :   -0.799636
  20 O :   -0.955981
Sum of atomic charges:   -0.0000000

LOEWDIN ATOMIC CHARGES
----------------------
   0 C :   -0.164038
   1 N :    0.086142
   2 C :   -0.181783
   3 C :   -0.118536
   4 H :    0.114922
   5 H :    0.112292
   6 C :   -0.711401
   7 C :   -0.474143
   8 N :    0.196566
   9 N :    0.192184
  10 H :    0.129118
  11 H :    0.116894
  12 H :    0.146586
  13 H :    0.081550
  14 H :    0.129579
  15 H :    0.123395
  16 H :    0.117613
  17 H :    0.118365
  18 H :    0.112694
  19 O :   -0.041244
  20 O :   -0.086755

  Mayer bond orders larger than 0.100000
B(  0-C ,  1-N ) :   0.7110 B(  0-C ,  2-C ) :   0.7244 B(  0-C ,  9-N ) :   0.1037
B(  0-C , 15-H ) :   0.8197 B(  0-C , 16-H ) :   1.0829 B(  1-N ,  7-C ) :   1.1717
B(  1-N , 12-H ) :   0.7624 B(  2-C ,  3-C ) :   0.7239 B(  2-C , 17-H ) :   0.9580
B(  2-C , 18-H ) :   0.9457 B(  3-C ,  4-H ) :   0.9354 B(  3-C ,  5-H ) :   0.9870
B(  3-C ,  6-C ) :   0.9054 B(  6-C , 19-O ) :   1.1314 B(  6-C , 20-O ) :   0.8891
B(  7-C ,  8-N ) :   0.9816 B(  7-C ,  9-N ) :   0.6960 B(  7-C , 19-O ) :   0.1774
B(  8-N , 13-H ) :   0.7450 B(  8-N , 14-H ) :   0.8902 B(  9-N , 10-H ) :   0.9450
B(  9-N , 11-H ) :   0.8918 B( 13-H , 20-O ) :   0.1141

Dispersion correction           -0.000695265
FINAL SINGLE POINT ENERGY      -511.876598519659

DIPOLE MOMENT
-------------
                                X             Y             Z
Electronic contribution:      4.14714       0.40474      -3.41037
Nuclear contribution   :     -4.94498       2.03334       3.78956
                        -----------------------------------------
Total Dipole Moment    :     -0.79784       2.43808       0.37919
                        -----------------------------------------
Magnitude (a.u.)       :      2.59317
Magnitude (Debye)      :      6.59133

Rotational constants in cm-1:     0.062533     0.042832     0.033687
Rotational constants in MHz :  1874.701390  1284.063603  1009.911042

                             ****ORCA TERMINATED NORMALLY****
TOTAL RUN TIME: 0 days 0 hours 2 minutes 49 seconds 892 msec
