                         Program Version 5.0.0 -  RELEASE  -
|  1> !M062X D3Zero RIJCOSX def2-TZVPD def2/J TightSCF
|  2> *xyz 0 1
|  3> C          3.80351        1.37472       -3.26081
|  4> C          3.93993        0.32036       -4.36773
|  5> H          4.10504       -0.65508       -3.90773
|  6> H          3.02280        0.28052       -4.95712
|  7> C          5.10585        0.66802       -5.30546
|  8> F          4.80913        1.15019       -6.41436
|  9> O          6.26737        0.56500       -4.81948
| 10> H          3.64113        2.33595       -3.70189
| 11> H          4.69995        1.39701       -2.67703
| 12> H          2.97435        1.12625       -2.63180
| 13> *
| 14>
| 15> %MaxCore 64000
| 16>
| 17> %pal nprocs 4
| 18> end
| 19>
| 20> %scf
| 21>   MaxIter 150
| 22> end
| 23>
| 24>
| 25>                          ****END OF INPUT****

CARTESIAN COORDINATES (ANGSTROEM)
---------------------------------
  C      3.803510    1.374720   -3.260810
  C      3.939930    0.320360   -4.367730
  H      4.105040   -0.655080   -3.907730
  H      3.022800    0.280520   -4.957120
  C      5.105850    0.668020   -5.305460
  F      4.809130    1.150190   -6.414360
  O      6.267370    0.565000   -4.819480
  H      3.641130    2.335950   -3.701890
  H      4.699950    1.397010   -2.677030
  H      2.974350    1.126250   -2.631800

 Total Charge           Charge          ....    0
 Multiplicity           Mult            ....    1
 Number of Electrons    NEL             ....   40
 Basis Dimension        Dim             ....  236

ORBITAL ENERGIES
----------------

  NO   OCC          E(Eh)            E(eV)
   0   2.0000     -25.320858      -689.0156
   1   2.0000     -19.634377      -534.2786
   2   2.0000     -10.722189      -291.7656
   3   2.0000     -10.567253      -287.5496
   4   2.0000     -10.541418      -286.8466
   5   2.0000      -1.474208       -40.1152
   6   2.0000      -1.152188       -31.3526
   7   2.0000      -0.900799       -24.5120
   8   2.0000      -0.789506       -21.4836
   9   2.0000      -0.735561       -20.0156
  10   2.0000      -0.650130       -17.6909
  11   2.0000      -0.637733       -17.3536
  12   2.0000      -0.593143       -16.1402
  13   2.0000      -0.537891       -14.6368
  14   2.0000      -0.511301       -13.9132
  15   2.0000      -0.467671       -12.7260
  16   2.0000      -0.449449       -12.2301
  17   2.0000      -0.439132       -11.9494
  18   2.0000      -0.413467       -11.2510
  19   2.0000      -0.368447       -10.0260
  20   0.0000       0.006439         0.1752
  21   0.0000       0.013599         0.3700
  22   0.0000       0.035883         0.9764
  23   0.0000       0.043398         1.1809
  24   0.0000       0.052198         1.4204

MULLIKEN ATOMIC CHARGES
-----------------------
   0 C :   -1.122728
   1 C :   -0.372281
   2 H :    0.298324
   3 H :    0.307007
   4 C :    0.745427
   5 F :   -0.232762
   6 O :   -0.583662
   7 H :    0.343572
   8 H :    0.316070
   9 H :    0.301034
Sum of atomic charges:    0.0000000

LOEWDIN ATOMIC CHARGES
----------------------
   0 C :   -0.087811
   1 C :   -0.154459
   2 H :    0.119522
   3 H :    0.108856
   4 C :   -0.481792
   5 F :    0.209603
   6 O :    0.065186
   7 H :    0.075664
   8 H :    0.075276
   9 H :    0.069956

  Mayer bond orders larger than 0.100000
B(  0-C ,  1-C ) :   0.5309 B(  0-C ,  7-H ) :   0.9193 B(  0-C ,  8-H ) :   0.9990
B(  0-C ,  9-H ) :   0.9642 B(  1-C ,  2-H ) :   0.9663 B(  1-C ,  3-H ) :   0.9417
B(  1-C ,  4-C ) :   0.8962 B(  4-C ,  5-F ) :   0.9274 B(  4-C ,  6-O ) :   1.6341

Dispersion correction           -0.000088712
FINAL SINGLE POINT ENERGY      -292.389814707286

DIPOLE MOMENT
-------------
                                X             Y             Z
Electronic contribution:      3.97328      -0.01534      -7.41982
Nuclear contribution   :     -5.17129      -0.01923       7.59895
                        -----------------------------------------
Total Dipole Moment    :     -1.19802      -0.03458       0.17912
                        -----------------------------------------
Magnitude (a.u.)       :      1.21183
Magnitude (Debye)      :      3.08022

Rotational constants in cm-1:     0.282073     0.131822     0.105134
Rotational constants in MHz :  8456.328792  3951.925810  3151.840112

                             ****ORCA TERMINATED NORMALLY****
TOTAL RUN TIME: 0 days 0 hours 0 minutes 31 seconds 374 msec
