                         Program Version 5.0.0 -  RELEASE  -
|  1> !M062X D3Zero RIJCOSX def2-TZVPD def2/J TightSCF
|  2> *xyz 0 1
|  3> C          3.90595        2.81985       -3.75292
|  4> C          5.29562        3.13151       -4.10533
|  5> C          3.80351        1.37472       -3.26081
|  6> C          5.70862        3.46889       -5.32419
|  7> N          6.90470        3.03895       -5.71708
|  8> N          4.98188        4.29357       -6.09746
|  9> H          5.00055        4.10131       -7.08776
| 10> H          4.08469        4.59690       -5.73965
| 11> H          5.96336        2.52611       -3.64239
| 12> H          7.04716        2.06686       -5.47360
| 13> H          7.19815        3.30799       -6.64523
| 14> H          3.28202        2.94919       -4.64026
| 15> H          3.56525        3.51457       -2.98252
| 16> H          4.14157        0.71142       -4.02935
| 17> H          2.78528        1.15146       -3.01944
| 18> H          4.41205        1.25066       -2.38949
| 19> *
| 20>
| 21> %MaxCore 64000
| 22>
| 23> %pal nprocs 4
| 24> end
| 25>
| 26> %scf
| 27>   MaxIter 150
| 28> end
| 29>
| 30>
| 31>                          ****END OF INPUT****

CARTESIAN COORDINATES (ANGSTROEM)
---------------------------------
  C      3.905950    2.819850   -3.752920
  C      5.295620    3.131510   -4.105330
  C      3.803510    1.374720   -3.260810
  C      5.708620    3.468890   -5.324190
  N      6.904700    3.038950   -5.717080
  N      4.981880    4.293570   -6.097460
  H      5.000550    4.101310   -7.087760
  H      4.084690    4.596900   -5.739650
  H      5.963360    2.526110   -3.642390
  H      7.047160    2.066860   -5.473600
  H      7.198150    3.307990   -6.645230
  H      3.282020    2.949190   -4.640260
  H      3.565250    3.514570   -2.982520
  H      4.141570    0.711420   -4.029350
  H      2.785280    1.151460   -3.019440
  H      4.412050    1.250660   -2.389490

 Total Charge           Charge          ....    0
 Multiplicity           Mult            ....    1
 Number of Electrons    NEL             ....   48
 Basis Dimension        Dim             ....  312

ORBITAL ENERGIES
----------------

  NO   OCC          E(Eh)            E(eV)
   0   2.0000     -14.751986      -401.4219
   1   2.0000     -14.748663      -401.3315
   2   2.0000     -10.581774      -287.9447
   3   2.0000     -10.512912      -286.0709
   4   2.0000     -10.504592      -285.8445
   5   2.0000     -10.463594      -284.7289
   6   2.0000      -1.078026       -29.3346
   7   2.0000      -0.982361       -26.7314
   8   2.0000      -0.877338       -23.8736
   9   2.0000      -0.789588       -21.4858
  10   2.0000      -0.699807       -19.0427
  11   2.0000      -0.656241       -17.8572
  12   2.0000      -0.610126       -16.6024
  13   2.0000      -0.585901       -15.9432
  14   2.0000      -0.547988       -14.9115
  15   2.0000      -0.516965       -14.0673
  16   2.0000      -0.489405       -13.3174
  17   2.0000      -0.458965       -12.4891
  18   2.0000      -0.438251       -11.9254
  19   2.0000      -0.414084       -11.2678
  20   2.0000      -0.389416       -10.5965
  21   2.0000      -0.386034       -10.5045
  22   2.0000      -0.342277        -9.3138
  23   2.0000      -0.224165        -6.0999
  24   0.0000       0.009628         0.2620
  25   0.0000       0.034914         0.9501
  26   0.0000       0.036522         0.9938
  27   0.0000       0.053658         1.4601
  28   0.0000       0.064567         1.7569

MULLIKEN ATOMIC CHARGES
-----------------------
   0 C :   -0.140792
   1 C :   -0.629102
   2 C :   -1.417324
   3 C :    0.582760
   4 N :   -0.687610
   5 N :   -0.703025
   6 H :    0.237304
   7 H :    0.268900
   8 H :    0.328505
   9 H :    0.257062
  10 H :    0.286125
  11 H :    0.331475
  12 H :    0.261562
  13 H :    0.341724
  14 H :    0.341251
  15 H :    0.341186
Sum of atomic charges:    0.0000000

LOEWDIN ATOMIC CHARGES
----------------------
   0 C :   -0.289429
   1 C :   -0.134729
   2 C :   -0.112268
   3 C :   -0.558905
   4 N :    0.103999
   5 N :    0.116144
   6 H :    0.099339
   7 H :    0.103180
   8 H :    0.064388
   9 H :    0.111905
  10 H :    0.099821
  11 H :    0.097801
  12 H :    0.101470
  13 H :    0.068964
  14 H :    0.060717
  15 H :    0.067604

  Mayer bond orders larger than 0.100000
B(  0-C ,  1-C ) :   0.4145 B(  0-C ,  2-C ) :   0.3461 B(  0-C , 11-H ) :   0.8857
B(  0-C , 12-H ) :   1.0361 B(  1-C ,  2-C ) :   0.2458 B(  1-C ,  3-C ) :   1.7363
B(  1-C ,  5-N ) :   0.1284 B(  1-C ,  8-H ) :   1.0344 B(  2-C , 13-H ) :   0.9912
B(  2-C , 14-H ) :   0.9501 B(  2-C , 15-H ) :   0.9960 B(  3-C ,  4-N ) :   0.7958
B(  3-C ,  5-N ) :   0.7132 B(  4-N ,  9-H ) :   0.9648 B(  4-N , 10-H ) :   0.8907
B(  5-N ,  6-H ) :   0.9890 B(  5-N ,  7-H ) :   0.9014

Dispersion correction           -0.000311309
FINAL SINGLE POINT ENERGY      -267.884438000853

DIPOLE MOMENT
-------------
                                X             Y             Z
Electronic contribution:      3.15288       3.24493      -2.79373
Nuclear contribution   :     -3.27358      -3.61654       1.70633
                        -----------------------------------------
Total Dipole Moment    :     -0.12069      -0.37161      -1.08740
                        -----------------------------------------
Magnitude (a.u.)       :      1.15547
Magnitude (Debye)      :      2.93697

Rotational constants in cm-1:     0.231961     0.071249     0.059473
Rotational constants in MHz :  6954.024434  2135.976855  1782.962814

                             ****ORCA TERMINATED NORMALLY****
TOTAL RUN TIME: 0 days 0 hours 0 minutes 55 seconds 632 msec
