                         Program Version 5.0.0 -  RELEASE  -
|  1> !M062X D3Zero RIJCOSX def2-TZVPD def2/J TightSCF
|  2> *xyz 0 1
|  3> C          3.80351        1.37472       -3.26081
|  4> C          3.93993        0.32036       -4.36773
|  5> H          4.10504       -0.65508       -3.90773
|  6> H          3.02280        0.28052       -4.95712
|  7> C          5.10585        0.66802       -5.30546
|  8> O          4.80913        1.15019       -6.41436
|  9> F          6.26737        0.56500       -4.81948
| 10> H          3.64113        2.33595       -3.70189
| 11> H          4.69995        1.39701       -2.67703
| 12> H          2.97435        1.12625       -2.63180
| 13> *
| 14>
| 15> %MaxCore 64000
| 16>
| 17> %pal nprocs 4
| 18> end
| 19>
| 20> %scf
| 21>   MaxIter 150
| 22> end
| 23>
| 24>
| 25>                          ****END OF INPUT****

CARTESIAN COORDINATES (ANGSTROEM)
---------------------------------
  C      3.803510    1.374720   -3.260810
  C      3.939930    0.320360   -4.367730
  H      4.105040   -0.655080   -3.907730
  H      3.022800    0.280520   -4.957120
  C      5.105850    0.668020   -5.305460
  O      4.809130    1.150190   -6.414360
  F      6.267370    0.565000   -4.819480
  H      3.641130    2.335950   -3.701890
  H      4.699950    1.397010   -2.677030
  H      2.974350    1.126250   -2.631800

 Total Charge           Charge          ....    0
 Multiplicity           Mult            ....    1
 Number of Electrons    NEL             ....   40
 Basis Dimension        Dim             ....  236

ORBITAL ENERGIES
----------------

  NO   OCC          E(Eh)            E(eV)
   0   2.0000     -25.314051      -688.8304
   1   2.0000     -19.637125      -534.3533
   2   2.0000     -10.719980      -291.7055
   3   2.0000     -10.566780      -287.5367
   4   2.0000     -10.544009      -286.9171
   5   2.0000      -1.460333       -39.7377
   6   2.0000      -1.163852       -31.6700
   7   2.0000      -0.902522       -24.5589
   8   2.0000      -0.782593       -21.2954
   9   2.0000      -0.733944       -19.9716
  10   2.0000      -0.643276       -17.5044
  11   2.0000      -0.632920       -17.2226
  12   2.0000      -0.590594       -16.0709
  13   2.0000      -0.538381       -14.6501
  14   2.0000      -0.512595       -13.9484
  15   2.0000      -0.473065       -12.8727
  16   2.0000      -0.455293       -12.3891
  17   2.0000      -0.439612       -11.9624
  18   2.0000      -0.422381       -11.4936
  19   2.0000      -0.368358       -10.0235
  20   0.0000       0.007944         0.2162
  21   0.0000       0.016202         0.4409
  22   0.0000       0.035305         0.9607
  23   0.0000       0.043539         1.1848
  24   0.0000       0.052614         1.4317

MULLIKEN ATOMIC CHARGES
-----------------------
   0 C :   -1.105761
   1 C :   -0.390902
   2 H :    0.321296
   3 H :    0.283624
   4 C :    0.736704
   5 O :   -0.562874
   6 F :   -0.243845
   7 H :    0.347001
   8 H :    0.318761
   9 H :    0.295996
Sum of atomic charges:    0.0000000

LOEWDIN ATOMIC CHARGES
----------------------
   0 C :   -0.089122
   1 C :   -0.152766
   2 H :    0.114154
   3 H :    0.117393
   4 C :   -0.482674
   5 O :    0.083543
   6 F :    0.189329
   7 H :    0.078024
   8 H :    0.071759
   9 H :    0.070360

  Mayer bond orders larger than 0.100000
B(  0-C ,  1-C ) :   0.5098 B(  0-C ,  7-H ) :   0.9483 B(  0-C ,  8-H ) :   0.9569
B(  0-C ,  9-H ) :   0.9726 B(  1-C ,  2-H ) :   0.9369 B(  1-C ,  3-H ) :   0.9765
B(  1-C ,  4-C ) :   0.9148 B(  4-C ,  5-O ) :   1.6551 B(  4-C ,  6-F ) :   0.8929

Dispersion correction           -0.000090414
FINAL SINGLE POINT ENERGY      -292.395367338854

DIPOLE MOMENT
-------------
                                X             Y             Z
Electronic contribution:      6.39120      -0.99247      -4.75387
Nuclear contribution   :     -6.76123       0.61881       5.86003
                        -----------------------------------------
Total Dipole Moment    :     -0.37003      -0.37366       1.10616
                        -----------------------------------------
Magnitude (a.u.)       :      1.22480
Magnitude (Debye)      :      3.11320

Rotational constants in cm-1:     0.275298     0.134631     0.105723
Rotational constants in MHz :  8253.224169  4036.137572  3169.487264

                             ****ORCA TERMINATED NORMALLY****
TOTAL RUN TIME: 0 days 0 hours 0 minutes 38 seconds 225 msec
