                         Program Version 5.0.0 -  RELEASE  -
|  1> !M062X D3Zero RIJCOSX def2-TZVPD def2/J TightSCF
|  2> *xyz 0 1
|  3> C          3.90595        2.81985       -3.75292
|  4> N          5.29562        3.13151       -4.10533
|  5> C          3.80351        1.37472       -3.26081
|  6> C          5.70862        3.46889       -5.32419
|  7> C          6.90470        3.03895       -5.71708
|  8> N          4.98188        4.29357       -6.09746
|  9> H          5.00055        4.10131       -7.08776
| 10> H          4.08469        4.59690       -5.73965
| 11> H          5.96336        2.52611       -3.64239
| 12> H          7.04716        2.06686       -5.47360
| 13> H          7.19815        3.30799       -6.64523
| 14> H          3.28202        2.94919       -4.64026
| 15> H          3.56525        3.51457       -2.98252
| 16> H          4.14157        0.71142       -4.02935
| 17> H          2.78528        1.15146       -3.01944
| 18> H          4.41205        1.25066       -2.38949
| 19> *
| 20>
| 21> %MaxCore 64000
| 22>
| 23> %pal nprocs 4
| 24> end
| 25>
| 26> %scf
| 27>   MaxIter 150
| 28> end
| 29>
| 30>
| 31>                          ****END OF INPUT****

CARTESIAN COORDINATES (ANGSTROEM)
---------------------------------
  C      3.905950    2.819850   -3.752920
  N      5.295620    3.131510   -4.105330
  C      3.803510    1.374720   -3.260810
  C      5.708620    3.468890   -5.324190
  C      6.904700    3.038950   -5.717080
  N      4.981880    4.293570   -6.097460
  H      5.000550    4.101310   -7.087760
  H      4.084690    4.596900   -5.739650
  H      5.963360    2.526110   -3.642390
  H      7.047160    2.066860   -5.473600
  H      7.198150    3.307990   -6.645230
  H      3.282020    2.949190   -4.640260
  H      3.565250    3.514570   -2.982520
  H      4.141570    0.711420   -4.029350
  H      2.785280    1.151460   -3.019440
  H      4.412050    1.250660   -2.389490

 Total Charge           Charge          ....    0
 Multiplicity           Mult            ....    1
 Number of Electrons    NEL             ....   48
 Basis Dimension        Dim             ....  312

ORBITAL ENERGIES
----------------

  NO   OCC          E(Eh)            E(eV)
   0   2.0000     -14.751587      -401.4111
   1   2.0000     -14.749976      -401.3672
   2   2.0000     -10.586714      -288.0791
   3   2.0000     -10.576637      -287.8049
   4   2.0000     -10.533236      -286.6239
   5   2.0000     -10.448599      -284.3208
   6   2.0000      -1.082988       -29.4696
   7   2.0000      -0.994396       -27.0589
   8   2.0000      -0.872008       -23.7285
   9   2.0000      -0.801690       -21.8151
  10   2.0000      -0.717767       -19.5314
  11   2.0000      -0.677631       -18.4393
  12   2.0000      -0.608972       -16.5710
  13   2.0000      -0.567721       -15.4485
  14   2.0000      -0.557317       -15.1654
  15   2.0000      -0.521772       -14.1981
  16   2.0000      -0.492828       -13.4105
  17   2.0000      -0.470472       -12.8022
  18   2.0000      -0.445866       -12.1326
  19   2.0000      -0.437736       -11.9114
  20   2.0000      -0.434950       -11.8356
  21   2.0000      -0.405789       -11.0421
  22   2.0000      -0.326355        -8.8806
  23   2.0000      -0.228313        -6.2127
  24   0.0000       0.009201         0.2504
  25   0.0000       0.028139         0.7657
  26   0.0000       0.038564         1.0494
  27   0.0000       0.051965         1.4140
  28   0.0000       0.070628         1.9219

MULLIKEN ATOMIC CHARGES
-----------------------
   0 C :   -0.387183
   1 N :   -0.399910
   2 C :   -1.297412
   3 C :    0.792212
   4 C :   -0.976167
   5 N :   -0.699688
   6 H :    0.260244
   7 H :    0.280194
   8 H :    0.309503
   9 H :    0.205557
  10 H :    0.245258
  11 H :    0.358016
  12 H :    0.268785
  13 H :    0.340453
  14 H :    0.342532
  15 H :    0.357604
Sum of atomic charges:   -0.0000000

LOEWDIN ATOMIC CHARGES
----------------------
   0 C :   -0.239775
   1 N :    0.007818
   2 C :   -0.088809
   3 C :   -0.574343
   4 C :   -0.002238
   5 N :    0.117991
   6 H :    0.111086
   7 H :    0.094974
   8 H :    0.131457
   9 H :    0.011684
  10 H :    0.006258
  11 H :    0.106969
  12 H :    0.108844
  13 H :    0.072929
  14 H :    0.066493
  15 H :    0.068663

  Mayer bond orders larger than 0.100000
B(  0-C ,  1-N ) :   0.6718 B(  0-C ,  2-C ) :   0.4562 B(  0-C , 11-H ) :   0.8780
B(  0-C , 12-H ) :   1.0232 B(  1-N ,  3-C ) :   1.0632 B(  1-N ,  4-C ) :   0.1017
B(  1-N ,  8-H ) :   0.8577 B(  2-C , 13-H ) :   0.9934 B(  2-C , 14-H ) :   0.9487
B(  2-C , 15-H ) :   0.9594 B(  3-C ,  4-C ) :   1.3305 B(  3-C ,  5-N ) :   0.7405
B(  4-C ,  5-N ) :   0.1133 B(  4-C ,  9-H ) :   1.0744 B(  4-C , 10-H ) :   1.1086
B(  5-N ,  6-H ) :   0.9564 B(  5-N ,  7-H ) :   0.9051

Dispersion correction           -0.000307957
FINAL SINGLE POINT ENERGY      -267.873500548233

DIPOLE MOMENT
-------------
                                X             Y             Z
Electronic contribution:      1.53494       3.22500      -1.27042
Nuclear contribution   :     -2.93222      -3.63618       1.36440
                        -----------------------------------------
Total Dipole Moment    :     -1.39728      -0.41118       0.09399
                        -----------------------------------------
Magnitude (a.u.)       :      1.45956
Magnitude (Debye)      :      3.70990

Rotational constants in cm-1:     0.237993     0.072843     0.061284
Rotational constants in MHz :  7134.860770  2183.763760  1837.240960

                             ****ORCA TERMINATED NORMALLY****
TOTAL RUN TIME: 0 days 0 hours 1 minutes 6 seconds 527 msec
