                         Program Version 5.0.0 -  RELEASE  -
|  1> !M062X D3Zero RIJCOSX def2-TZVPD def2/J TightSCF
|  2> *xyz 0 1
|  3> C          3.90595        2.81985       -3.75292
|  4> N          5.29562        3.13151       -4.10533
|  5> C          3.80351        1.37472       -3.26081
|  6> C          5.70862        3.46889       -5.32419
|  7> N          6.90470        3.03895       -5.71708
|  8> C          4.98188        4.29357       -6.09746
|  9> H          5.00055        4.10131       -7.08776
| 10> H          4.08469        4.59690       -5.73965
| 11> H          5.96336        2.52611       -3.64239
| 12> H          7.04716        2.06686       -5.47360
| 13> H          7.19815        3.30799       -6.64523
| 14> H          3.28202        2.94919       -4.64026
| 15> H          3.56525        3.51457       -2.98252
| 16> H          4.14157        0.71142       -4.02935
| 17> H          2.78528        1.15146       -3.01944
| 18> H          4.41205        1.25066       -2.38949
| 19> *
| 20>
| 21> %MaxCore 64000
| 22>
| 23> %pal nprocs 4
| 24> end
| 25>
| 26> %scf
| 27>   MaxIter 150
| 28> end
| 29>
| 30>
| 31>                          ****END OF INPUT****

CARTESIAN COORDINATES (ANGSTROEM)
---------------------------------
  C      3.905950    2.819850   -3.752920
  N      5.295620    3.131510   -4.105330
  C      3.803510    1.374720   -3.260810
  C      5.708620    3.468890   -5.324190
  N      6.904700    3.038950   -5.717080
  C      4.981880    4.293570   -6.097460
  H      5.000550    4.101310   -7.087760
  H      4.084690    4.596900   -5.739650
  H      5.963360    2.526110   -3.642390
  H      7.047160    2.066860   -5.473600
  H      7.198150    3.307990   -6.645230
  H      3.282020    2.949190   -4.640260
  H      3.565250    3.514570   -2.982520
  H      4.141570    0.711420   -4.029350
  H      2.785280    1.151460   -3.019440
  H      4.412050    1.250660   -2.389490

 Total Charge           Charge          ....    0
 Multiplicity           Mult            ....    1
 Number of Electrons    NEL             ....   48
 Basis Dimension        Dim             ....  312

ORBITAL ENERGIES
----------------

  NO   OCC          E(Eh)            E(eV)
   0   2.0000     -14.752213      -401.4281
   1   2.0000     -14.750568      -401.3834
   2   2.0000     -10.585538      -288.0471
   3   2.0000     -10.571331      -287.6605
   4   2.0000     -10.531127      -286.5665
   5   2.0000     -10.454151      -284.4719
   6   2.0000      -1.088026       -29.6067
   7   2.0000      -0.996243       -27.1092
   8   2.0000      -0.860384       -23.4122
   9   2.0000      -0.803540       -21.8654
  10   2.0000      -0.731327       -19.9004
  11   2.0000      -0.647878       -17.6296
  12   2.0000      -0.611626       -16.6432
  13   2.0000      -0.592147       -16.1131
  14   2.0000      -0.544937       -14.8285
  15   2.0000      -0.526526       -14.3275
  16   2.0000      -0.476106       -12.9555
  17   2.0000      -0.467501       -12.7213
  18   2.0000      -0.459094       -12.4926
  19   2.0000      -0.438864       -11.9421
  20   2.0000      -0.426857       -11.6154
  21   2.0000      -0.406825       -11.0703
  22   2.0000      -0.323882        -8.8133
  23   2.0000      -0.231542        -6.3006
  24   0.0000       0.009896         0.2693
  25   0.0000       0.030991         0.8433
  26   0.0000       0.038800         1.0558
  27   0.0000       0.053272         1.4496
  28   0.0000       0.065430         1.7804

MULLIKEN ATOMIC CHARGES
-----------------------
   0 C :   -0.379298
   1 N :   -0.398824
   2 C :   -1.284620
   3 C :    0.761381
   4 N :   -0.691259
   5 C :   -1.007017
   6 H :    0.160544
   7 H :    0.310758
   8 H :    0.334863
   9 H :    0.242616
  10 H :    0.281527
  11 H :    0.366230
  12 H :    0.264635
  13 H :    0.335490
  14 H :    0.344500
  15 H :    0.358474
Sum of atomic charges:   -0.0000000

LOEWDIN ATOMIC CHARGES
----------------------
   0 C :   -0.233272
   1 N :    0.008899
   2 C :   -0.091280
   3 C :   -0.582018
   4 N :    0.106450
   5 C :    0.012737
   6 H :    0.008841
   7 H :    0.003440
   8 H :    0.128118
   9 H :    0.103037
  10 H :    0.108730
  11 H :    0.110445
  12 H :    0.112962
  13 H :    0.069804
  14 H :    0.067036
  15 H :    0.066070

  Mayer bond orders larger than 0.100000
B(  0-C ,  1-N ) :   0.7031 B(  0-C ,  2-C ) :   0.3975 B(  0-C , 11-H ) :   0.8944
B(  0-C , 12-H ) :   1.0097 B(  0-C , 13-H ) :  -0.1034 B(  1-N ,  3-C ) :   0.9588
B(  1-N ,  8-H ) :   0.8539 B(  2-C , 13-H ) :   1.0029 B(  2-C , 14-H ) :   0.9477
B(  2-C , 15-H ) :   0.9597 B(  3-C ,  4-N ) :   0.8276 B(  3-C ,  5-C ) :   1.3936
B(  3-C ,  6-H ) :  -0.1252 B(  4-N ,  5-C ) :   0.1325 B(  4-N ,  9-H ) :   0.9752
B(  4-N , 10-H ) :   0.8990 B(  5-C ,  6-H ) :   1.2169 B(  5-C ,  7-H ) :   0.9205

Dispersion correction           -0.000310601
FINAL SINGLE POINT ENERGY      -267.878393401887

DIPOLE MOMENT
-------------
                                X             Y             Z
Electronic contribution:      3.35461       2.08258      -0.98919
Nuclear contribution   :     -3.34013      -3.37002       1.28371
                        -----------------------------------------
Total Dipole Moment    :      0.01447      -1.28744       0.29452
                        -----------------------------------------
Magnitude (a.u.)       :      1.32078
Magnitude (Debye)      :      3.35715

Rotational constants in cm-1:     0.239537     0.072280     0.060961
Rotational constants in MHz :  7181.153552  2166.902802  1827.551447

                             ****ORCA TERMINATED NORMALLY****
TOTAL RUN TIME: 0 days 0 hours 1 minutes 3 seconds 663 msec
