                         Program Version 5.0.0 -  RELEASE  -
|  1> !M062X D3Zero RIJCOSX def2-TZVPD def2/J TightSCF xyzfile
|  2>
|  3> *xyzfile 0 1 D1.xyz
|  4>
|  5> %MaxCore 64000
|  6>
|  7> %pal nprocs 4
|  8> end
|  9>
| 10> %scf
| 11>   MaxIter 150
| 12> end
| 13>
| 14>
| 15>                          ****END OF INPUT****

CARTESIAN COORDINATES (ANGSTROEM)
---------------------------------
  C      3.905947    2.819855   -3.752920
  C      5.295615    3.131515   -4.105334
  C      3.803511    1.374716   -3.260807
  C      3.939934    0.320362   -4.367729
  H      4.105043   -0.655085   -3.907733
  H      3.022801    0.280517   -4.957117
  C      5.105846    0.668022   -5.305463
  C      5.708619    3.468885   -5.324190
  N      6.904696    3.038954   -5.717084
  N      4.981884    4.293570   -6.097457
  H      5.000546    4.101311   -7.087761
  H      4.084693    4.596899   -5.739652
  H      5.963358    2.526112   -3.642391
  H      7.047164    2.066861   -5.473604
  H      7.198145    3.307994   -6.645225
  H      3.282025    2.949187   -4.640259
  H      3.565254    3.514574   -2.982523
  H      4.574833    1.215157   -2.500443
  H      2.843514    1.260845   -2.751465
  F      4.809132    1.150187   -6.414361
  O      6.267366    0.564999   -4.819481

 Total Charge           Charge          ....    0
 Multiplicity           Mult            ....    1
 Number of Electrons    NEL             ....   78
 Basis Dimension        Dim             ....  475

ORBITAL ENERGIES
----------------

  NO   OCC          E(Eh)            E(eV)
   0   2.0000     -25.326424      -689.1670
   1   2.0000     -19.637563      -534.3653
   2   2.0000     -14.750665      -401.3860
   3   2.0000     -14.729656      -400.8143
   4   2.0000     -10.730074      -291.9802
   5   2.0000     -10.579590      -287.8853
   6   2.0000     -10.565042      -287.4894
   7   2.0000     -10.543614      -286.9063
   8   2.0000     -10.525376      -286.4100
   9   2.0000     -10.463186      -284.7178
  10   2.0000      -1.480523       -40.2871
  11   2.0000      -1.163780       -31.6681
  12   2.0000      -1.072009       -29.1709
  13   2.0000      -0.975134       -26.5347
  14   2.0000      -0.919973       -25.0337
  15   2.0000      -0.850689       -23.1484
  16   2.0000      -0.793496       -21.5921
  17   2.0000      -0.756526       -20.5861
  18   2.0000      -0.697241       -18.9729
  19   2.0000      -0.663230       -18.0474
  20   2.0000      -0.653021       -17.7696
  21   2.0000      -0.638644       -17.3784
  22   2.0000      -0.615145       -16.7389
  23   2.0000      -0.597943       -16.2709
  24   2.0000      -0.578946       -15.7539
  25   2.0000      -0.540564       -14.7095
  26   2.0000      -0.531462       -14.4618
  27   2.0000      -0.515312       -14.0224
  28   2.0000      -0.501008       -13.6331
  29   2.0000      -0.472959       -12.8699
  30   2.0000      -0.457121       -12.4389
  31   2.0000      -0.435524       -11.8512
  32   2.0000      -0.432610       -11.7719
  33   2.0000      -0.411568       -11.1993
  34   2.0000      -0.399013       -10.8577
  35   2.0000      -0.385828       -10.4989
  36   2.0000      -0.374831       -10.1997
  37   2.0000      -0.332272        -9.0416
  38   2.0000      -0.224434        -6.1072
  39   0.0000       0.002537         0.0690
  40   0.0000       0.006761         0.1840
  41   0.0000       0.025361         0.6901
  42   0.0000       0.031498         0.8571
  43   0.0000       0.038086         1.0364

MULLIKEN ATOMIC CHARGES
-----------------------
   0 C :   -0.485278
   1 C :   -0.631631
   2 C :   -0.765688
   3 C :   -0.808177
   4 H :    0.334741
   5 H :    0.356500
   6 C :    1.120590
   7 C :    0.307586
   8 N :   -0.747697
   9 N :   -0.742930
  10 H :    0.237054
  11 H :    0.285210
  12 H :    0.543214
  13 H :    0.397640
  14 H :    0.264072
  15 H :    0.430191
  16 H :    0.238879
  17 H :    0.339644
  18 H :    0.370075
  19 F :   -0.304833
  20 O :   -0.739163
Sum of atomic charges:   -0.0000000

LOEWDIN ATOMIC CHARGES
----------------------
   0 C :   -0.224849
   1 C :   -0.128003
   2 C :   -0.190135
   3 C :   -0.085212
   4 H :    0.124677
   5 H :    0.117471
   6 C :   -0.461891
   7 C :   -0.572120
   8 N :    0.127727
   9 N :    0.127757
  10 H :    0.100954
  11 H :    0.103594
  12 H :    0.072043
  13 H :    0.069932
  14 H :    0.107904
  15 H :    0.109244
  16 H :    0.107834
  17 H :    0.122598
  18 H :    0.112447
  19 F :    0.218116
  20 O :    0.039912

  Mayer bond orders larger than 0.100000
B(  0-C ,  1-C ) :   0.2858 B(  0-C ,  2-C ) :   0.6069 B(  0-C , 15-H ) :   0.8262
B(  0-C , 16-H ) :   1.1332 B(  1-C ,  2-C ) :   0.1318 B(  1-C ,  7-C ) :   1.7418
B(  1-C , 12-H ) :   0.8585 B(  2-C ,  3-C ) :   0.7453 B(  2-C , 17-H ) :   0.9522
B(  2-C , 18-H ) :   0.9429 B(  3-C ,  4-H ) :   0.9276 B(  3-C ,  5-H ) :   0.9563
B(  3-C ,  6-C ) :   0.9191 B(  6-C , 19-F ) :   0.7742 B(  6-C , 20-O ) :   1.3005
B(  7-C ,  8-N ) :   0.6934 B(  7-C ,  9-N ) :   0.5951 B(  8-N , 13-H ) :   0.7574
B(  8-N , 14-H ) :   0.9054 B(  9-N , 10-H ) :   0.9642 B(  9-N , 11-H ) :   0.9035
B( 15-H , 16-H ) :   0.1177

Dispersion correction           -0.000700714
FINAL SINGLE POINT ENERGY      -519.778515947098

DIPOLE MOMENT
-------------
                                X             Y             Z
Electronic contribution:      3.37167      -3.66496      -6.41552
Nuclear contribution   :     -4.60158       3.22721       5.56005
                        -----------------------------------------
Total Dipole Moment    :     -1.22991      -0.43775      -0.85547
                        -----------------------------------------
Magnitude (a.u.)       :      1.56081
Magnitude (Debye)      :      3.96727

Rotational constants in cm-1:     0.061224     0.042534     0.033552
Rotational constants in MHz :  1835.464095  1275.135177  1005.856966

                             ****ORCA TERMINATED NORMALLY****
TOTAL RUN TIME: 0 days 0 hours 3 minutes 16 seconds 974 msec
