                         Program Version 5.0.0 -  RELEASE  -
|  1> !M062X D3Zero RIJCOSX def2-TZVPD def2/J TightSCF xyzfile
|  2>
|  3> *xyzfile 0 1 D2.xyz
|  4>
|  5> %MaxCore 64000
|  6>
|  7> %pal nprocs 4
|  8> end
|  9>
| 10> %scf
| 11>   MaxIter 150
| 12> end
| 13>
| 14>
| 15>                          ****END OF INPUT****

CARTESIAN COORDINATES (ANGSTROEM)
---------------------------------
  C      3.905947    2.819855   -3.752920
  N      5.295615    3.131515   -4.105334
  C      3.803511    1.374716   -3.260807
  C      3.939934    0.320362   -4.367729
  H      4.105043   -0.655085   -3.907733
  H      3.022801    0.280517   -4.957117
  C      5.105846    0.668022   -5.305463
  C      5.708619    3.468885   -5.324190
  C      6.904696    3.038954   -5.717084
  N      4.981884    4.293570   -6.097457
  H      5.000546    4.101311   -7.087761
  H      4.084693    4.596899   -5.739652
  H      5.963358    2.526112   -3.642391
  H      7.047164    2.066861   -5.473604
  H      7.198145    3.307994   -6.645225
  H      3.282025    2.949187   -4.640259
  H      3.565254    3.514574   -2.982523
  H      4.574833    1.215157   -2.500443
  H      2.843514    1.260845   -2.751465
  F      4.809132    1.150187   -6.414361
  O      6.267366    0.564999   -4.819481

 Total Charge           Charge          ....    0
 Multiplicity           Mult            ....    1
 Number of Electrons    NEL             ....   78
 Basis Dimension        Dim             ....  475

ORBITAL ENERGIES
----------------

  NO   OCC          E(Eh)            E(eV)
   0   2.0000     -25.325452      -689.1406
   1   2.0000     -19.636711      -534.3421
   2   2.0000     -14.749292      -401.3486
   3   2.0000     -14.747173      -401.2910
   4   2.0000     -10.730335      -291.9873
   5   2.0000     -10.585496      -288.0460
   6   2.0000     -10.576949      -287.8134
   7   2.0000     -10.576487      -287.8008
   8   2.0000     -10.566977      -287.5421
   9   2.0000     -10.431794      -283.8635
  10   2.0000      -1.479306       -40.2540
  11   2.0000      -1.162941       -31.6452
  12   2.0000      -1.082138       -29.4465
  13   2.0000      -0.995122       -27.0786
  14   2.0000      -0.920714       -25.0539
  15   2.0000      -0.841554       -22.8999
  16   2.0000      -0.797474       -21.7004
  17   2.0000      -0.762694       -20.7540
  18   2.0000      -0.709550       -19.3078
  19   2.0000      -0.676458       -18.4074
  20   2.0000      -0.658404       -17.9161
  21   2.0000      -0.643126       -17.5003
  22   2.0000      -0.617372       -16.7995
  23   2.0000      -0.592294       -16.1171
  24   2.0000      -0.571491       -15.5511
  25   2.0000      -0.557664       -15.1748
  26   2.0000      -0.540157       -14.6984
  27   2.0000      -0.516869       -14.0647
  28   2.0000      -0.488290       -13.2870
  29   2.0000      -0.477368       -12.9898
  30   2.0000      -0.468103       -12.7377
  31   2.0000      -0.459459       -12.5025
  32   2.0000      -0.433614       -11.7992
  33   2.0000      -0.430597       -11.7172
  34   2.0000      -0.413183       -11.2433
  35   2.0000      -0.405838       -11.0434
  36   2.0000      -0.358671        -9.7599
  37   2.0000      -0.323724        -8.8090
  38   2.0000      -0.220051        -5.9879
  39   0.0000      -0.003824        -0.1041
  40   0.0000       0.004908         0.1335
  41   0.0000       0.020639         0.5616
  42   0.0000       0.025567         0.6957
  43   0.0000       0.035027         0.9531

MULLIKEN ATOMIC CHARGES
-----------------------
   0 C :   -0.721854
   1 N :   -0.422263
   2 C :   -0.725794
   3 C :   -0.682360
   4 H :    0.329396
   5 H :    0.352786
   6 C :    0.988359
   7 C :    0.604538
   8 C :   -0.877940
   9 N :   -0.796966
  10 H :    0.261703
  11 H :    0.277597
  12 H :    0.388395
  13 H :    0.356441
  14 H :    0.224955
  15 H :    0.417544
  16 H :    0.255735
  17 H :    0.349076
  18 H :    0.365932
  19 F :   -0.278355
  20 O :   -0.666925
Sum of atomic charges:   -0.0000000

LOEWDIN ATOMIC CHARGES
----------------------
   0 C :   -0.182611
   1 N :    0.028798
   2 C :   -0.176546
   3 C :   -0.085953
   4 H :    0.125586
   5 H :    0.117990
   6 C :   -0.464866
   7 C :   -0.587997
   8 C :    0.009495
   9 N :    0.125330
  10 H :    0.110686
  11 H :    0.094484
  12 H :    0.133713
  13 H :   -0.008494
  14 H :    0.021466
  15 H :    0.117580
  16 H :    0.115190
  17 H :    0.122690
  18 H :    0.115405
  19 F :    0.223237
  20 O :    0.044817

  Mayer bond orders larger than 0.100000
B(  0-C ,  1-N ) :   0.6422 B(  0-C ,  2-C ) :   0.6832 B(  0-C ,  7-C ) :  -0.1315
B(  0-C ,  9-N ) :   0.1130 B(  0-C , 15-H ) :   0.8656 B(  0-C , 16-H ) :   1.0846
B(  1-N ,  7-C ) :   0.8281 B(  1-N , 12-H ) :   0.7749 B(  2-C ,  3-C ) :   0.6677
B(  2-C , 17-H ) :   0.9588 B(  2-C , 18-H ) :   0.9545 B(  3-C ,  4-H ) :   0.9448
B(  3-C ,  5-H ) :   0.9658 B(  3-C ,  6-C ) :   0.9109 B(  6-C , 19-F ) :   0.7929
B(  6-C , 20-O ) :   1.4397 B(  7-C ,  8-C ) :   1.5079 B(  7-C ,  9-N ) :   0.4877
B(  7-C , 14-H ) :  -0.1745 B(  8-C , 13-H ) :   0.8474 B(  8-C , 14-H ) :   1.3291
B(  9-N , 10-H ) :   0.9550 B(  9-N , 11-H ) :   0.9192

Dispersion correction           -0.000700124
FINAL SINGLE POINT ENERGY      -519.750414518589

DIPOLE MOMENT
-------------
                                X             Y             Z
Electronic contribution:      2.07081      -3.79281      -5.16783
Nuclear contribution   :     -4.40347       3.21582       5.36161
                        -----------------------------------------
Total Dipole Moment    :     -2.33266      -0.57700       0.19378
                        -----------------------------------------
Magnitude (a.u.)       :      2.41076
Magnitude (Debye)      :      6.12767

Rotational constants in cm-1:     0.061226     0.043199     0.033926
Rotational constants in MHz :  1835.503528  1295.087558  1017.061512

                             ****ORCA TERMINATED NORMALLY****
TOTAL RUN TIME: 0 days 0 hours 2 minutes 57 seconds 872 msec
