                         Program Version 5.0.0 -  RELEASE  -
|  1> !M062X D3Zero RIJCOSX def2-TZVPD def2/J TightSCF xyzfile
|  2>
|  3> *xyzfile 0 1 D3.xyz
|  4>
|  5> %MaxCore 64000
|  6>
|  7> %pal nprocs 4
|  8> end
|  9>
| 10> %scf
| 11>   MaxIter 150
| 12> end
| 13>
| 14>
| 15>                          ****END OF INPUT****

CARTESIAN COORDINATES (ANGSTROEM)
---------------------------------
  C      3.905947    2.819855   -3.752920
  N      5.295615    3.131515   -4.105334
  C      3.803511    1.374716   -3.260807
  C      3.939934    0.320362   -4.367729
  H      4.105043   -0.655085   -3.907733
  H      3.022801    0.280517   -4.957117
  C      5.105846    0.668022   -5.305463
  C      5.708619    3.468885   -5.324190
  N      6.904696    3.038954   -5.717084
  C      4.981884    4.293570   -6.097457
  H      5.000546    4.101311   -7.087761
  H      4.084693    4.596899   -5.739652
  H      5.963358    2.526112   -3.642391
  H      7.047164    2.066861   -5.473604
  H      7.198145    3.307994   -6.645225
  H      3.282025    2.949187   -4.640259
  H      3.565254    3.514574   -2.982523
  H      4.574833    1.215157   -2.500443
  H      2.843514    1.260845   -2.751465
  F      4.809132    1.150187   -6.414361
  O      6.267366    0.564999   -4.819481

 Total Charge           Charge          ....    0
 Multiplicity           Mult            ....    1
 Number of Electrons    NEL             ....   78
 Basis Dimension        Dim             ....  475

ORBITAL ENERGIES
----------------

  NO   OCC          E(Eh)            E(eV)
   0   2.0000     -25.336130      -689.4312
   1   2.0000     -19.654417      -534.8239
   2   2.0000     -14.751307      -401.4035
   3   2.0000     -14.728559      -400.7845
   4   2.0000     -10.745996      -292.4134
   5   2.0000     -10.582417      -287.9622
   6   2.0000     -10.582138      -287.9546
   7   2.0000     -10.579604      -287.8857
   8   2.0000     -10.568335      -287.5790
   9   2.0000     -10.448600      -284.3209
  10   2.0000      -1.489718       -40.5373
  11   2.0000      -1.181271       -32.1440
  12   2.0000      -1.083529       -29.4843
  13   2.0000      -0.993089       -27.0233
  14   2.0000      -0.920083       -25.0367
  15   2.0000      -0.836768       -22.7696
  16   2.0000      -0.800024       -21.7698
  17   2.0000      -0.776733       -21.1360
  18   2.0000      -0.722803       -19.6685
  19   2.0000      -0.669067       -18.2062
  20   2.0000      -0.653433       -17.7808
  21   2.0000      -0.648856       -17.6563
  22   2.0000      -0.627494       -17.0750
  23   2.0000      -0.591120       -16.0852
  24   2.0000      -0.582506       -15.8508
  25   2.0000      -0.556984       -15.1563
  26   2.0000      -0.547407       -14.8957
  27   2.0000      -0.509687       -13.8693
  28   2.0000      -0.500482       -13.6188
  29   2.0000      -0.478988       -13.0339
  30   2.0000      -0.462926       -12.5969
  31   2.0000      -0.459269       -12.4974
  32   2.0000      -0.443359       -12.0644
  33   2.0000      -0.437205       -11.8969
  34   2.0000      -0.422942       -11.5088
  35   2.0000      -0.401343       -10.9211
  36   2.0000      -0.389395       -10.5960
  37   2.0000      -0.317642        -8.6435
  38   2.0000      -0.225745        -6.1428
  39   0.0000      -0.013461        -0.3663
  40   0.0000       0.005524         0.1503
  41   0.0000       0.024153         0.6572
  42   0.0000       0.027254         0.7416
  43   0.0000       0.033208         0.9036

MULLIKEN ATOMIC CHARGES
-----------------------
   0 C :   -0.742287
   1 N :   -0.444595
   2 C :   -0.732330
   3 C :   -0.674664
   4 H :    0.337688
   5 H :    0.358232
   6 C :    1.029811
   7 C :    0.508882
   8 N :   -0.722821
   9 C :   -1.080976
  10 H :    0.235426
  11 H :    0.366151
  12 H :    0.432505
  13 H :    0.421231
  14 H :    0.288880
  15 H :    0.425450
  16 H :    0.261566
  17 H :    0.352956
  18 H :    0.362411
  19 F :   -0.252872
  20 O :   -0.730645
Sum of atomic charges:   -0.0000000

LOEWDIN ATOMIC CHARGES
----------------------
   0 C :   -0.174723
   1 N :    0.028906
   2 C :   -0.174844
   3 C :   -0.083380
   4 H :    0.126336
   5 H :    0.120418
   6 C :   -0.457219
   7 C :   -0.597477
   8 N :    0.126384
   9 C :    0.008932
  10 H :    0.011591
  11 H :    0.003700
  12 H :    0.130614
  13 H :    0.062773
  14 H :    0.115393
  15 H :    0.121251
  16 H :    0.119545
  17 H :    0.121026
  18 H :    0.117122
  19 F :    0.232294
  20 O :    0.041357

  Mayer bond orders larger than 0.100000
B(  0-C ,  1-N ) :   0.6867 B(  0-C ,  2-C ) :   0.6758 B(  0-C ,  9-C ) :   0.1486
B(  0-C , 15-H ) :   0.8949 B(  0-C , 16-H ) :   1.0401 B(  1-N ,  7-C ) :   0.8132
B(  1-N , 12-H ) :   0.7175 B(  2-C ,  3-C ) :   0.6797 B(  2-C , 17-H ) :   0.9487
B(  2-C , 18-H ) :   0.9564 B(  3-C ,  4-H ) :   0.9370 B(  3-C ,  5-H ) :   0.9613
B(  3-C ,  6-C ) :   0.9159 B(  6-C , 19-F ) :   0.8453 B(  6-C , 20-O ) :   1.2839
B(  7-C ,  8-N ) :   0.6478 B(  7-C ,  9-C ) :   1.5278 B(  7-C , 10-H ) :  -0.1272
B(  7-C , 11-H ) :  -0.1066 B(  7-C , 20-O ) :   0.1298 B(  8-N ,  9-C ) :   0.1057
B(  8-N , 13-H ) :   0.7370 B(  8-N , 14-H ) :   0.8828 B(  9-C , 10-H ) :   1.0781
B(  9-C , 11-H ) :   0.9169

Dispersion correction           -0.000698077
FINAL SINGLE POINT ENERGY      -519.769344358060

DIPOLE MOMENT
-------------
                                X             Y             Z
Electronic contribution:      3.53081      -4.85748      -4.86950
Nuclear contribution   :     -4.64021       3.37029       5.31478
                        -----------------------------------------
Total Dipole Moment    :     -1.10940      -1.48719       0.44528
                        -----------------------------------------
Magnitude (a.u.)       :      1.90808
Magnitude (Debye)      :      4.84996

Rotational constants in cm-1:     0.061077     0.043622     0.034103
Rotational constants in MHz :  1831.041375  1307.759852  1022.388536

                             ****ORCA TERMINATED NORMALLY****
TOTAL RUN TIME: 0 days 0 hours 2 minutes 58 seconds 954 msec
