                         Program Version 5.0.0 -  RELEASE  -
|  1> !M062X D3Zero RIJCOSX def2-TZVPD def2/J TightSCF xyzfile
|  2>
|  3> *xyzfile 0 1 D4.xyz
|  4>
|  5> %MaxCore 64000
|  6>
|  7> %pal nprocs 4
|  8> end
|  9>
| 10> %scf
| 11>   MaxIter 150
| 12> end
| 13>
| 14>
| 15>                          ****END OF INPUT****

CARTESIAN COORDINATES (ANGSTROEM)
---------------------------------
  C      3.905947    2.819855   -3.752920
  C      5.295615    3.131515   -4.105334
  C      3.803511    1.374716   -3.260807
  C      3.939934    0.320362   -4.367729
  H      4.105043   -0.655085   -3.907733
  H      3.022801    0.280517   -4.957117
  C      5.105846    0.668022   -5.305463
  C      5.708619    3.468885   -5.324190
  N      6.904696    3.038954   -5.717084
  N      4.981884    4.293570   -6.097457
  H      5.000546    4.101311   -7.087761
  H      4.084693    4.596899   -5.739652
  H      5.963358    2.526112   -3.642391
  H      7.047164    2.066861   -5.473604
  H      7.198145    3.307994   -6.645225
  H      3.282025    2.949187   -4.640259
  H      3.565254    3.514574   -2.982523
  H      4.574833    1.215157   -2.500443
  H      2.843514    1.260845   -2.751465
  O      4.809132    1.150187   -6.414361
  F      6.267366    0.564999   -4.819481

 Total Charge           Charge          ....    0
 Multiplicity           Mult            ....    1
 Number of Electrons    NEL             ....   78
 Basis Dimension        Dim             ....  475

ORBITAL ENERGIES
----------------

  NO   OCC          E(Eh)            E(eV)
   0   2.0000     -25.323136      -689.0776
   1   2.0000     -19.636078      -534.3248
   2   2.0000     -14.748656      -401.3313
   3   2.0000     -14.738033      -401.0423
   4   2.0000     -10.722952      -291.7864
   5   2.0000     -10.582638      -287.9682
   6   2.0000     -10.562244      -287.4133
   7   2.0000     -10.543716      -286.9091
   8   2.0000     -10.522797      -286.3399
   9   2.0000     -10.464107      -284.7428
  10   2.0000      -1.473143       -40.0863
  11   2.0000      -1.166679       -31.7470
  12   2.0000      -1.073470       -29.2106
  13   2.0000      -0.977466       -26.5982
  14   2.0000      -0.919381       -25.0176
  15   2.0000      -0.849337       -23.1116
  16   2.0000      -0.791750       -21.5446
  17   2.0000      -0.754496       -20.5309
  18   2.0000      -0.695561       -18.9272
  19   2.0000      -0.677113       -18.4252
  20   2.0000      -0.651368       -17.7246
  21   2.0000      -0.632887       -17.2217
  22   2.0000      -0.605355       -16.4726
  23   2.0000      -0.586526       -15.9602
  24   2.0000      -0.584934       -15.9169
  25   2.0000      -0.540588       -14.7102
  26   2.0000      -0.536592       -14.6014
  27   2.0000      -0.514624       -14.0036
  28   2.0000      -0.501736       -13.6529
  29   2.0000      -0.472572       -12.8593
  30   2.0000      -0.454836       -12.3767
  31   2.0000      -0.440158       -11.9773
  32   2.0000      -0.430271       -11.7083
  33   2.0000      -0.409632       -11.1467
  34   2.0000      -0.404374       -11.0036
  35   2.0000      -0.390375       -10.6227
  36   2.0000      -0.364875        -9.9287
  37   2.0000      -0.333342        -9.0707
  38   2.0000      -0.226554        -6.1648
  39   0.0000       0.009209         0.2506
  40   0.0000       0.012354         0.3362
  41   0.0000       0.024764         0.6739
  42   0.0000       0.032912         0.8956
  43   0.0000       0.037548         1.0217

MULLIKEN ATOMIC CHARGES
-----------------------
   0 C :   -0.466443
   1 C :   -0.716369
   2 C :   -0.801056
   3 C :   -0.843594
   4 H :    0.357264
   5 H :    0.334006
   6 C :    1.051559
   7 C :    0.364659
   8 N :   -0.717022
   9 N :   -0.730546
  10 H :    0.242056
  11 H :    0.289221
  12 H :    0.584664
  13 H :    0.352135
  14 H :    0.263914
  15 H :    0.432495
  16 H :    0.242368
  17 H :    0.352248
  18 H :    0.364704
  19 O :   -0.628217
  20 F :   -0.328046
Sum of atomic charges:    0.0000000

LOEWDIN ATOMIC CHARGES
----------------------
   0 C :   -0.224233
   1 C :   -0.137168
   2 C :   -0.194354
   3 C :   -0.086332
   4 H :    0.118623
   5 H :    0.124914
   6 C :   -0.476703
   7 C :   -0.569623
   8 N :    0.130401
   9 N :    0.140339
  10 H :    0.105632
  11 H :    0.106026
  12 H :    0.069031
  13 H :    0.084124
  14 H :    0.111601
  15 H :    0.112381
  16 H :    0.107294
  17 H :    0.118379
  18 H :    0.112547
  19 O :    0.081233
  20 F :    0.165886

  Mayer bond orders larger than 0.100000
B(  0-C ,  1-C ) :   0.3077 B(  0-C ,  2-C ) :   0.5914 B(  0-C , 15-H ) :   0.8177
B(  0-C , 16-H ) :   1.1416 B(  1-C ,  2-C ) :   0.1318 B(  1-C ,  7-C ) :   1.6586
B(  1-C , 12-H ) :   0.7840 B(  2-C ,  3-C ) :   0.7401 B(  2-C , 17-H ) :   0.9487
B(  2-C , 18-H ) :   0.9480 B(  3-C ,  4-H ) :   0.9215 B(  3-C ,  5-H ) :   0.9881
B(  3-C ,  6-C ) :   0.9324 B(  6-C , 19-O ) :   1.4822 B(  6-C , 20-F ) :   0.6579
B(  7-C ,  8-N ) :   0.7260 B(  7-C ,  9-N ) :   0.6087 B(  8-N , 13-H ) :   0.8009
B(  8-N , 14-H ) :   0.8923 B(  9-N , 10-H ) :   0.9574 B(  9-N , 11-H ) :   0.8992
B( 15-H , 16-H ) :   0.1185

Dispersion correction           -0.000691211
FINAL SINGLE POINT ENERGY      -519.780439957055

DIPOLE MOMENT
-------------
                                X             Y             Z
Electronic contribution:      5.79431      -4.54891      -3.87376
Nuclear contribution   :     -6.25608       3.89116       3.75052
                        -----------------------------------------
Total Dipole Moment    :     -0.46176      -0.65775      -0.12323
                        -----------------------------------------
Magnitude (a.u.)       :      0.81305
Magnitude (Debye)      :      2.06660

Rotational constants in cm-1:     0.061229     0.042568     0.033282
Rotational constants in MHz :  1835.590871  1276.154029   997.769927

                             ****ORCA TERMINATED NORMALLY****
TOTAL RUN TIME: 0 days 0 hours 2 minutes 47 seconds 728 msec
