                         Program Version 5.0.0 -  RELEASE  -
|  1> !M062X D3Zero RIJCOSX def2-TZVPD def2/J TightSCF xyzfile
|  2>
|  3> *xyzfile 0 1 D5.xyz
|  4>
|  5> %MaxCore 64000
|  6>
|  7> %pal nprocs 4
|  8> end
|  9>
| 10> %scf
| 11>   MaxIter 150
| 12> end
| 13>
| 14>
| 15>                          ****END OF INPUT****

CARTESIAN COORDINATES (ANGSTROEM)
---------------------------------
  C      3.905947    2.819855   -3.752920
  N      5.295615    3.131515   -4.105334
  C      3.803511    1.374716   -3.260807
  C      3.939934    0.320362   -4.367729
  H      4.105043   -0.655085   -3.907733
  H      3.022801    0.280517   -4.957117
  C      5.105846    0.668022   -5.305463
  C      5.708619    3.468885   -5.324190
  C      6.904696    3.038954   -5.717084
  N      4.981884    4.293570   -6.097457
  H      5.000546    4.101311   -7.087761
  H      4.084693    4.596899   -5.739652
  H      5.963358    2.526112   -3.642391
  H      7.047164    2.066861   -5.473604
  H      7.198145    3.307994   -6.645225
  H      3.282025    2.949187   -4.640259
  H      3.565254    3.514574   -2.982523
  H      4.574833    1.215157   -2.500443
  H      2.843514    1.260845   -2.751465
  O      4.809132    1.150187   -6.414361
  F      6.267366    0.564999   -4.819481

 Total Charge           Charge          ....    0
 Multiplicity           Mult            ....    1
 Number of Electrons    NEL             ....   78
 Basis Dimension        Dim             ....  475

ORBITAL ENERGIES
----------------

  NO   OCC          E(Eh)            E(eV)
   0   2.0000     -25.318748      -688.9581
   1   2.0000     -19.639519      -534.4185
   2   2.0000     -14.754415      -401.4881
   3   2.0000     -14.744195      -401.2099
   4   2.0000     -10.724806      -291.8368
   5   2.0000     -10.584759      -288.0259
   6   2.0000     -10.579033      -287.8701
   7   2.0000     -10.574908      -287.7579
   8   2.0000     -10.568479      -287.5829
   9   2.0000     -10.436761      -283.9987
  10   2.0000      -1.469265       -39.9807
  11   2.0000      -1.168866       -31.8065
  12   2.0000      -1.083499       -29.4835
  13   2.0000      -0.994612       -27.0648
  14   2.0000      -0.921014       -25.0621
  15   2.0000      -0.841147       -22.8888
  16   2.0000      -0.798031       -21.7155
  17   2.0000      -0.757832       -20.6216
  18   2.0000      -0.709961       -19.3190
  19   2.0000      -0.682352       -18.5678
  20   2.0000      -0.650823       -17.7098
  21   2.0000      -0.648755       -17.6535
  22   2.0000      -0.599256       -16.3066
  23   2.0000      -0.593932       -16.1617
  24   2.0000      -0.573173       -15.5968
  25   2.0000      -0.561902       -15.2901
  26   2.0000      -0.537893       -14.6368
  27   2.0000      -0.515771       -14.0348
  28   2.0000      -0.495411       -13.4808
  29   2.0000      -0.473858       -12.8943
  30   2.0000      -0.463616       -12.6156
  31   2.0000      -0.453580       -12.3426
  32   2.0000      -0.439644       -11.9633
  33   2.0000      -0.430422       -11.7124
  34   2.0000      -0.426783       -11.6134
  35   2.0000      -0.393251       -10.7009
  36   2.0000      -0.371164       -10.0999
  37   2.0000      -0.326885        -8.8950
  38   2.0000      -0.220504        -6.0002
  39   0.0000       0.000701         0.0191
  40   0.0000       0.011442         0.3114
  41   0.0000       0.019266         0.5242
  42   0.0000       0.026526         0.7218
  43   0.0000       0.036429         0.9913

MULLIKEN ATOMIC CHARGES
-----------------------
   0 C :   -0.688055
   1 N :   -0.445097
   2 C :   -0.764309
   3 C :   -0.723254
   4 H :    0.354854
   5 H :    0.331908
   6 C :    0.938840
   7 C :    0.641195
   8 C :   -0.831163
   9 N :   -0.792304
  10 H :    0.263095
  11 H :    0.276668
  12 H :    0.387026
  13 H :    0.277049
  14 H :    0.236200
  15 H :    0.415460
  16 H :    0.262977
  17 H :    0.362686
  18 H :    0.361232
  19 O :   -0.571099
  20 F :   -0.293907
Sum of atomic charges:    0.0000000

LOEWDIN ATOMIC CHARGES
----------------------
   0 C :   -0.181151
   1 N :    0.028912
   2 C :   -0.179894
   3 C :   -0.086152
   4 H :    0.120299
   5 H :    0.125417
   6 C :   -0.478561
   7 C :   -0.585881
   8 C :    0.004782
   9 N :    0.135094
  10 H :    0.114395
  11 H :    0.096555
  12 H :    0.131931
  13 H :    0.001251
  14 H :    0.023559
  15 H :    0.120764
  16 H :    0.115311
  17 H :    0.119077
  18 H :    0.115619
  19 O :    0.095981
  20 F :    0.162691

  Mayer bond orders larger than 0.100000
B(  0-C ,  1-N ) :   0.6875 B(  0-C ,  2-C ) :   0.6595 B(  0-C ,  7-C ) :  -0.1077
B(  0-C ,  9-N ) :   0.1105 B(  0-C , 15-H ) :   0.8567 B(  0-C , 16-H ) :   1.0819
B(  1-N ,  7-C ) :   0.8037 B(  1-N , 12-H ) :   0.7789 B(  2-C ,  3-C ) :   0.6523
B(  2-C , 17-H ) :   0.9528 B(  2-C , 18-H ) :   0.9612 B(  3-C ,  4-H ) :   0.9376
B(  3-C ,  5-H ) :   0.9965 B(  3-C ,  6-C ) :   0.9329 B(  6-C , 19-O ) :   1.5328
B(  6-C , 20-F ) :   0.7156 B(  7-C ,  8-C ) :   1.5675 B(  7-C ,  9-N ) :   0.5035
B(  7-C , 14-H ) :  -0.1726 B(  8-C , 13-H ) :   0.8566 B(  8-C , 14-H ) :   1.2803
B(  9-N , 10-H ) :   0.9469 B(  9-N , 11-H ) :   0.9155

Dispersion correction           -0.000690586
FINAL SINGLE POINT ENERGY      -519.756636088131

DIPOLE MOMENT
-------------
                                X             Y             Z
Electronic contribution:      4.40501      -4.68876      -2.59820
Nuclear contribution   :     -6.05797       3.87976       3.55209
                        -----------------------------------------
Total Dipole Moment    :     -1.65296      -0.80900       0.95389
                        -----------------------------------------
Magnitude (a.u.)       :      2.07283
Magnitude (Debye)      :      5.26872

Rotational constants in cm-1:     0.061282     0.043164     0.033679
Rotational constants in MHz :  1837.191639  1294.028651  1009.659886

                             ****ORCA TERMINATED NORMALLY****
TOTAL RUN TIME: 0 days 0 hours 2 minutes 49 seconds 562 msec
