                         Program Version 5.0.0 -  RELEASE  -
|  1> !M062X D3Zero RIJCOSX def2-TZVPD def2/J TightSCF xyzfile
|  2>
|  3> *xyzfile 0 1 D6.xyz
|  4>
|  5> %MaxCore 64000
|  6>
|  7> %pal nprocs 4
|  8> end
|  9>
| 10> %scf
| 11>   MaxIter 150
| 12> end
| 13>
| 14>
| 15>                          ****END OF INPUT****

CARTESIAN COORDINATES (ANGSTROEM)
---------------------------------
  C      3.905947    2.819855   -3.752920
  N      5.295615    3.131515   -4.105334
  C      3.803511    1.374716   -3.260807
  C      3.939934    0.320362   -4.367729
  H      4.105043   -0.655085   -3.907733
  H      3.022801    0.280517   -4.957117
  C      5.105846    0.668022   -5.305463
  C      5.708619    3.468885   -5.324190
  N      6.904696    3.038954   -5.717084
  C      4.981884    4.293570   -6.097457
  H      5.000546    4.101311   -7.087761
  H      4.084693    4.596899   -5.739652
  H      5.963358    2.526112   -3.642391
  H      7.047164    2.066861   -5.473604
  H      7.198145    3.307994   -6.645225
  H      3.282025    2.949187   -4.640259
  H      3.565254    3.514574   -2.982523
  H      4.574833    1.215157   -2.500443
  H      2.843514    1.260845   -2.751465
  O      4.809132    1.150187   -6.414361
  F      6.267366    0.564999   -4.819481

 Total Charge           Charge          ....    0
 Multiplicity           Mult            ....    1
 Number of Electrons    NEL             ....   78
 Basis Dimension        Dim             ....  475

ORBITAL ENERGIES
----------------

  NO   OCC          E(Eh)            E(eV)
   0   2.0000     -25.336554      -689.4427
   1   2.0000     -19.648687      -534.6679
   2   2.0000     -14.756586      -401.5471
   3   2.0000     -14.736076      -400.9890
   4   2.0000     -10.731728      -292.0252
   5   2.0000     -10.581110      -287.9267
   6   2.0000     -10.579533      -287.8837
   7   2.0000     -10.577844      -287.8378
   8   2.0000     -10.567952      -287.5686
   9   2.0000     -10.447493      -284.2907
  10   2.0000      -1.487013       -40.4637
  11   2.0000      -1.177017       -32.0282
  12   2.0000      -1.087411       -29.5900
  13   2.0000      -0.996623       -27.1195
  14   2.0000      -0.918792       -25.0016
  15   2.0000      -0.836034       -22.7496
  16   2.0000      -0.798588       -21.7307
  17   2.0000      -0.778028       -21.1712
  18   2.0000      -0.722693       -19.6655
  19   2.0000      -0.673922       -18.3384
  20   2.0000      -0.666283       -18.1305
  21   2.0000      -0.648076       -17.6351
  22   2.0000      -0.605434       -16.4747
  23   2.0000      -0.592066       -16.1109
  24   2.0000      -0.579268       -15.7627
  25   2.0000      -0.558757       -15.2045
  26   2.0000      -0.553175       -15.0527
  27   2.0000      -0.505511       -13.7557
  28   2.0000      -0.498958       -13.5773
  29   2.0000      -0.473553       -12.8860
  30   2.0000      -0.463651       -12.6166
  31   2.0000      -0.457791       -12.4571
  32   2.0000      -0.447863       -12.1870
  33   2.0000      -0.433138       -11.7863
  34   2.0000      -0.425412       -11.5760
  35   2.0000      -0.401076       -10.9138
  36   2.0000      -0.375988       -10.2312
  37   2.0000      -0.322341        -8.7714
  38   2.0000      -0.225842        -6.1455
  39   0.0000      -0.001379        -0.0375
  40   0.0000       0.005920         0.1611
  41   0.0000       0.025403         0.6912
  42   0.0000       0.026617         0.7243
  43   0.0000       0.034523         0.9394

MULLIKEN ATOMIC CHARGES
-----------------------
   0 C :   -0.718623
   1 N :   -0.458151
   2 C :   -0.770011
   3 C :   -0.722403
   4 H :    0.358902
   5 H :    0.334504
   6 C :    0.941044
   7 C :    0.567273
   8 N :   -0.693299
   9 C :   -1.073201
  10 H :    0.229000
  11 H :    0.366901
  12 H :    0.428423
  13 H :    0.372501
  14 H :    0.291888
  15 H :    0.419476
  16 H :    0.268398
  17 H :    0.371507
  18 H :    0.355577
  19 O :   -0.544460
  20 F :   -0.325244
Sum of atomic charges:    0.0000000

LOEWDIN ATOMIC CHARGES
----------------------
   0 C :   -0.172786
   1 N :    0.028223
   2 C :   -0.179417
   3 C :   -0.085656
   4 H :    0.119977
   5 H :    0.127287
   6 C :   -0.478841
   7 C :   -0.597731
   8 N :    0.127347
   9 C :    0.019468
  10 H :    0.017518
  11 H :    0.007133
  12 H :    0.129123
  13 H :    0.075990
  14 H :    0.118261
  15 H :    0.124867
  16 H :    0.119458
  17 H :    0.116896
  18 H :    0.116808
  19 O :    0.104585
  20 F :    0.161489

  Mayer bond orders larger than 0.100000
B(  0-C ,  1-N ) :   0.7309 B(  0-C ,  2-C ) :   0.6682 B(  0-C ,  9-C ) :   0.1503
B(  0-C , 15-H ) :   0.8803 B(  0-C , 16-H ) :   1.0383 B(  1-N ,  7-C ) :   0.8422
B(  1-N , 12-H ) :   0.7012 B(  2-C ,  3-C ) :   0.6632 B(  2-C , 17-H ) :   0.9330
B(  2-C , 18-H ) :   0.9686 B(  3-C ,  4-H ) :   0.9357 B(  3-C ,  5-H ) :   0.9896
B(  3-C ,  6-C ) :   0.9320 B(  6-C , 19-O ) :   1.5693 B(  6-C , 20-F ) :   0.6571
B(  7-C ,  8-N ) :   0.6703 B(  7-C ,  9-C ) :   1.4885 B(  7-C , 10-H ) :  -0.1419
B(  7-C , 11-H ) :  -0.1160 B(  8-N ,  9-C ) :   0.1113 B(  8-N , 13-H ) :   0.7641
B(  8-N , 14-H ) :   0.8683 B(  9-C , 10-H ) :   1.0868 B(  9-C , 11-H ) :   0.9084

Dispersion correction           -0.000688392
FINAL SINGLE POINT ENERGY      -519.767268534931

DIPOLE MOMENT
-------------
                                X             Y             Z
Electronic contribution:      5.91736      -5.68400      -2.33284
Nuclear contribution   :     -6.29470       4.03423       3.50525
                        -----------------------------------------
Total Dipole Moment    :     -0.37734      -1.64977       1.17242
                        -----------------------------------------
Magnitude (a.u.)       :      2.05881
Magnitude (Debye)      :      5.23308

Rotational constants in cm-1:     0.061094     0.043661     0.033867
Rotational constants in MHz :  1831.559881  1308.929520  1015.295167

                             ****ORCA TERMINATED NORMALLY****
TOTAL RUN TIME: 0 days 0 hours 2 minutes 52 seconds 1 msec
