                         Program Version 5.0.0 -  RELEASE  -
|  1> !M062X D3Zero RIJCOSX def2-TZVPD def2/J TightSCF
|  2> *xyz -1 1
|  3> C         -1.91658       -2.48508       -3.64367
|  4> C         -1.36353       -1.98134       -2.29361
|  5> O         -0.35039       -2.74969       -1.79601
|  6> H         -2.22622       -1.90839       -1.60204
|  7> H         -1.05135       -0.91567       -2.44333
|  8> H         -1.11522       -2.57167       -4.34739
|  9> H         -2.64227       -1.79099       -4.01314
| 10> H         -2.37564       -3.44180       -3.50640
| 11> *
| 12>
| 13> %MaxCore 64000
| 14> %pal nprocs 4
| 15> end
| 16>
| 17> %scf
| 18>   MaxIter 150
| 19> end
| 20>
| 21>
| 22>                          ****END OF INPUT****

CARTESIAN COORDINATES (ANGSTROEM)
---------------------------------
  C     -1.916580   -2.485080   -3.643670
  C     -1.363530   -1.981340   -2.293610
  O     -0.350390   -2.749690   -1.796010
  H     -2.226220   -1.908390   -1.602040
  H     -1.051350   -0.915670   -2.443330
  H     -1.115220   -2.571670   -4.347390
  H     -2.642270   -1.790990   -4.013140
  H     -2.375640   -3.441800   -3.506400

 Total Charge           Charge          ....   -1
 Multiplicity           Mult            ....    1
 Number of Electrons    NEL             ....   26
 Basis Dimension        Dim             ....  159

ORBITAL ENERGIES
----------------

  NO   OCC          E(Eh)            E(eV)
   0   2.0000     -19.288937      -524.8787
   1   2.0000     -10.346838      -281.5518
   2   2.0000     -10.322301      -280.8841
   3   2.0000      -0.793872       -21.6024
   4   2.0000      -0.619597       -16.8601
   5   2.0000      -0.454408       -12.3651
   6   2.0000      -0.316613        -8.6155
   7   2.0000      -0.294231        -8.0064
   8   2.0000      -0.234663        -6.3855
   9   2.0000      -0.218946        -5.9578
  10   2.0000      -0.179279        -4.8784
  11   2.0000      -0.035409        -0.9635
  12   2.0000      -0.033327        -0.9069
  13   0.0000       0.168133         4.5751
  14   0.0000       0.187117         5.0917
  15   0.0000       0.218609         5.9486
  16   0.0000       0.219029         5.9601
  17   0.0000       0.240242         6.5373

MULLIKEN ATOMIC CHARGES
-----------------------
   0 C :   -0.993001
   1 C :   -0.281301
   2 O :   -0.973033
   3 H :    0.219010
   4 H :    0.219884
   5 H :    0.249406
   6 H :    0.306397
   7 H :    0.252639
Sum of atomic charges:   -1.0000000

LOEWDIN ATOMIC CHARGES
----------------------
   0 C :   -0.172604
   1 C :   -0.627988
   2 O :   -0.430137
   3 H :    0.058820
   4 H :    0.062736
   5 H :    0.040653
   6 H :    0.029107
   7 H :    0.039414

  Mayer bond orders larger than 0.100000
B(  0-C ,  1-C ) :   0.6979 B(  0-C ,  2-O ) :   0.3512 B(  0-C ,  5-H ) :   1.0087
B(  0-C ,  6-H ) :   0.9776 B(  0-C ,  7-H ) :   1.0055 B(  1-C ,  2-O ) :   0.8107
B(  1-C ,  3-H ) :   1.0476 B(  1-C ,  4-H ) :   1.0436

Dispersion correction           -0.000015225
FINAL SINGLE POINT ENERGY      -154.409711348556

DIPOLE MOMENT
-------------
                                X             Y             Z
Electronic contribution:      2.01410      -0.84652       1.82323
Nuclear contribution   :     -3.14382       1.30299      -2.83231
                        -----------------------------------------
Total Dipole Moment    :     -1.12973       0.45647      -1.00907
                        -----------------------------------------
Magnitude (a.u.)       :      1.58205
Magnitude (Debye)      :      4.02124

Rotational constants in cm-1:     1.288206     0.322942     0.285188
Rotational constants in MHz : 38619.437223  9681.562038  8549.712012

                             ****ORCA TERMINATED NORMALLY****
TOTAL RUN TIME: 0 days 0 hours 0 minutes 17 seconds 7 msec
