                         Program Version 5.0.0 -  RELEASE  -
|  1> !M062X D3Zero RIJCOSX def2-TZVPD def2/J TightSCF
|  2> *xyz 1 1
|  3> C          1.64703       -2.34528       -5.02041
|  4> C          2.20996       -2.81239       -3.66571
|  5> C          2.48901       -1.66851       -2.73754
|  6> N          3.59631       -0.94761       -2.95225
|  7> N          1.66394       -1.41369       -1.77781
|  8> H          0.81164       -1.96318       -1.70275
|  9> H          1.84550       -0.63508       -1.15875
| 10> H          4.20535       -1.17600       -3.73383
| 11> H          3.81723       -0.12585       -2.40604
| 12> H          3.14311       -3.36280       -3.81152
| 13> H          1.48768       -3.45893       -3.16521
| 14> H          1.46566       -3.19589       -5.64368
| 15> H          2.35406       -1.69850       -5.49654
| 16> H          0.73014       -1.81680       -4.86253
| 17> *
| 18>
| 19> %MaxCore 64000
| 20> %pal nprocs 4
| 21> end
| 22>
| 23> %scf
| 24>   MaxIter 150
| 25> end
| 26>
| 27>
| 28>                          ****END OF INPUT****

CARTESIAN COORDINATES (ANGSTROEM)
---------------------------------
  C      1.647030   -2.345280   -5.020410
  C      2.209960   -2.812390   -3.665710
  C      2.489010   -1.668510   -2.737540
  N      3.596310   -0.947610   -2.952250
  N      1.663940   -1.413690   -1.777810
  H      0.811640   -1.963180   -1.702750
  H      1.845500   -0.635080   -1.158750
  H      4.205350   -1.176000   -3.733830
  H      3.817230   -0.125850   -2.406040
  H      3.143110   -3.362800   -3.811520
  H      1.487680   -3.458930   -3.165210
  H      1.465660   -3.195890   -5.643680
  H      2.354060   -1.698500   -5.496540
  H      0.730140   -1.816800   -4.862530

 Total Charge           Charge          ....    1
 Multiplicity           Mult            ....    1
 Number of Electrons    NEL             ....   40
 Basis Dimension        Dim             ....  266

ORBITAL ENERGIES
----------------

  NO   OCC          E(Eh)            E(eV)
   0   2.0000     -14.999806      -408.1655
   1   2.0000     -14.989814      -407.8936
   2   2.0000     -10.862902      -295.5946
   3   2.0000     -10.734576      -292.1027
   4   2.0000     -10.690053      -290.8911
   5   2.0000      -1.317957       -35.8634
   6   2.0000      -1.214756       -33.0552
   7   2.0000      -1.066232       -29.0136
   8   2.0000      -0.949550       -25.8386
   9   2.0000      -0.900150       -24.4943
  10   2.0000      -0.850648       -23.1473
  11   2.0000      -0.829386       -22.5687
  12   2.0000      -0.773906       -21.0591
  13   2.0000      -0.721928       -19.6447
  14   2.0000      -0.692004       -18.8304
  15   2.0000      -0.681807       -18.5529
  16   2.0000      -0.606834       -16.5128
  17   2.0000      -0.598608       -16.2889
  18   2.0000      -0.594330       -16.1725
  19   2.0000      -0.555604       -15.1188
  20   0.0000      -0.169815        -4.6209
  21   0.0000      -0.148864        -4.0508
  22   0.0000      -0.110521        -3.0074
  23   0.0000      -0.106882        -2.9084
  24   0.0000      -0.086351        -2.3497

MULLIKEN ATOMIC CHARGES
-----------------------
   0 C :   -1.000446
   1 C :   -0.848285
   2 C :    1.178501
   3 N :   -0.571626
   4 N :   -0.516370
   5 H :    0.287228
   6 H :    0.258554
   7 H :    0.283478
   8 H :    0.253757
   9 H :    0.342635
  10 H :    0.345648
  11 H :    0.333250
  12 H :    0.324461
  13 H :    0.329216
Sum of atomic charges:    1.0000000

LOEWDIN ATOMIC CHARGES
----------------------
   0 C :   -0.052411
   1 C :   -0.149349
   2 C :   -0.363894
   3 N :    0.216574
   4 N :    0.234799
   5 H :    0.160010
   6 H :    0.154500
   7 H :    0.149676
   8 H :    0.143353
   9 H :    0.135541
  10 H :    0.125567
  11 H :    0.086206
  12 H :    0.076079
  13 H :    0.083349

  Mayer bond orders larger than 0.100000
B(  0-C ,  1-C ) :   0.6070 B(  0-C , 11-H ) :   0.9853 B(  0-C , 12-H ) :   0.9268
B(  0-C , 13-H ) :   0.9613 B(  1-C ,  2-C ) :   0.6387 B(  1-C ,  3-N ) :   0.1138
B(  1-C ,  9-H ) :   0.9614 B(  1-C , 10-H ) :   0.9517 B(  2-C ,  3-N ) :   0.9591
B(  2-C ,  4-N ) :   1.0767 B(  3-N ,  4-N ) :   0.1252 B(  3-N ,  7-H ) :   0.9272
B(  3-N ,  8-H ) :   0.9962 B(  4-N ,  5-H ) :   0.9192 B(  4-N ,  6-H ) :   0.9912

Dispersion correction           -0.000201902
FINAL SINGLE POINT ENERGY      -229.005041534704

DIPOLE MOMENT
-------------
                                X             Y             Z
Electronic contribution:      1.18170       1.63837       3.60631
Nuclear contribution   :     -0.98617      -1.03178      -2.77619
                        -----------------------------------------
Total Dipole Moment    :      0.19553       0.60660       0.83012
                        -----------------------------------------
Magnitude (a.u.)       :      1.04657
Magnitude (Debye)      :      2.66016

Rotational constants in cm-1:     0.257311     0.127495     0.099037
Rotational constants in MHz :  7713.982239  3822.189706  2969.039713

                             ****ORCA TERMINATED NORMALLY****
TOTAL RUN TIME: 0 days 0 hours 0 minutes 43 seconds 362 msec
