                         Program Version 5.0.0 -  RELEASE  -
|  1> !M062X D3Zero RIJCOSX def2-TZVPD def2/J TightSCF xyzfile
|  2>
|  3> *xyzfile 0 1 B.xyz
|  4>
|  5> %MaxCore 64000
|  6>
|  7> %pal nprocs 4
|  8> end
|  9>
| 10> %scf
| 11>   MaxIter 150
| 12> end
| 13>
| 14>
| 15>                          ****END OF INPUT****

CARTESIAN COORDINATES (ANGSTROEM)
---------------------------------
  C      1.647032   -2.345276   -5.020411
  C      0.217628   -1.814022   -4.924389
  C      2.209964   -2.812388   -3.665708
  C     -0.811356   -2.908780   -4.607625
  C     -1.916579   -2.485081   -3.643665
  H     -2.554525   -1.712428   -4.091993
  C     -1.363531   -1.981337   -2.293608
  H     -2.553448   -3.355667   -3.458815
  O     -0.350395   -2.749689   -1.796006
  H      2.308385   -1.588704   -5.457128
  H      1.674286   -3.203478   -5.697392
  C      2.489007   -1.668510   -2.737538
  N      3.596314   -0.947608   -2.952247
  N      1.663936   -1.413685   -1.777806
  H      0.811642   -1.963178   -1.702755
  H      1.845503   -0.635078   -1.158749
  H      4.205351   -1.176003   -3.733825
  H      3.817230   -0.125845   -2.406041
  H     -1.244829   -3.280884   -5.541040
  H     -0.306331   -3.757746   -4.142734
  H     -0.036244   -1.318555   -5.865303
  H      0.175004   -1.035382   -4.158095
  H      3.143106   -3.362803   -3.811524
  H      1.487683   -3.458935   -3.165211
  H     -2.226220   -1.908386   -1.602039
  H     -1.051353   -0.915671   -2.443331

 Total Charge           Charge          ....    0
 Multiplicity           Mult            ....    1
 Number of Electrons    NEL             ....   80
 Basis Dimension        Dim             ....  517

ORBITAL ENERGIES
----------------

  NO   OCC          E(Eh)            E(eV)
   0   2.0000     -19.480773      -530.0988
   1   2.0000     -14.824899      -403.4060
   2   2.0000     -14.780473      -402.1971
   3   2.0000     -10.679650      -290.6081
   4   2.0000     -10.560969      -287.3786
   5   2.0000     -10.548451      -287.0379
   6   2.0000     -10.518342      -286.2186
   7   2.0000     -10.508961      -285.9634
   8   2.0000     -10.498322      -285.6739
   9   2.0000     -10.480702      -285.1944
  10   2.0000      -1.134416       -30.8690
  11   2.0000      -1.036570       -28.2065
  12   2.0000      -0.994885       -27.0722
  13   2.0000      -0.915648       -24.9161
  14   2.0000      -0.851135       -23.1606
  15   2.0000      -0.797335       -21.6966
  16   2.0000      -0.736537       -20.0422
  17   2.0000      -0.717911       -19.5353
  18   2.0000      -0.673137       -18.3170
  19   2.0000      -0.669836       -18.2272
  20   2.0000      -0.641908       -17.4672
  21   2.0000      -0.599733       -16.3196
  22   2.0000      -0.578006       -15.7284
  23   2.0000      -0.557690       -15.1755
  24   2.0000      -0.534007       -14.5311
  25   2.0000      -0.507980       -13.8228
  26   2.0000      -0.499756       -13.5990
  27   2.0000      -0.470392       -12.8000
  28   2.0000      -0.455241       -12.3877
  29   2.0000      -0.452273       -12.3070
  30   2.0000      -0.418751       -11.3948
  31   2.0000      -0.412720       -11.2307
  32   2.0000      -0.401410       -10.9229
  33   2.0000      -0.382950       -10.4206
  34   2.0000      -0.372488       -10.1359
  35   2.0000      -0.359902        -9.7934
  36   2.0000      -0.349963        -9.5230
  37   2.0000      -0.345288        -9.3958
  38   2.0000      -0.236204        -6.4274
  39   2.0000      -0.230767        -6.2795
  40   0.0000      -0.017229        -0.4688
  41   0.0000      -0.000241        -0.0066
  42   0.0000       0.015512         0.4221
  43   0.0000       0.032121         0.8741
  44   0.0000       0.035011         0.9527

MULLIKEN ATOMIC CHARGES
-----------------------
   0 C :   -0.631675
   1 C :   -0.565014
   2 C :   -0.855749
   3 C :   -0.365130
   4 C :   -0.975490
   5 H :    0.369247
   6 C :   -0.366764
   7 H :    0.392725
   8 O :   -1.049567
   9 H :    0.324716
  10 H :    0.405556
  11 C :    0.880535
  12 N :   -0.632350
  13 N :   -0.513689
  14 H :    0.456451
  15 H :    0.202541
  16 H :    0.267873
  17 H :    0.235959
  18 H :    0.379679
  19 H :    0.187844
  20 H :    0.388634
  21 H :    0.235388
  22 H :    0.401477
  23 H :    0.280833
  24 H :    0.304499
  25 H :    0.241470
Sum of atomic charges:    0.0000000

LOEWDIN ATOMIC CHARGES
----------------------
   0 C :   -0.193415
   1 C :   -0.204881
   2 C :   -0.112409
   3 C :   -0.219224
   4 C :   -0.206939
   5 H :    0.106438
   6 C :   -0.435615
   7 H :    0.105062
   8 O :   -0.304415
   9 H :    0.105181
  10 H :    0.118016
  11 C :   -0.368836
  12 N :    0.168063
  13 N :    0.232597
  14 H :   -0.024223
  15 H :    0.141620
  16 H :    0.127741
  17 H :    0.123617
  18 H :    0.107852
  19 H :    0.098308
  20 H :    0.111543
  21 H :    0.097297
  22 H :    0.125169
  23 H :    0.113160
  24 H :    0.097609
  25 H :    0.090686

  Mayer bond orders larger than 0.100000
B(  0-C ,  1-C ) :   0.7385 B(  0-C ,  2-C ) :   0.7113 B(  0-C ,  3-C ) :   0.1875
B(  0-C ,  9-H ) :   0.9111 B(  0-C , 10-H ) :   0.9172 B(  0-C , 11-C ) :   0.1025
B(  1-C ,  3-C ) :   0.3785 B(  1-C ,  4-C ) :   0.1577 B(  1-C ,  8-O ) :   0.1013
B(  1-C , 19-H ) :  -0.1248 B(  1-C , 20-H ) :   0.9044 B(  1-C , 21-H ) :   0.9871
B(  2-C , 11-C ) :   0.7506 B(  2-C , 12-N ) :   0.1484 B(  2-C , 22-H ) :   0.9372
B(  2-C , 23-H ) :   0.9917 B(  3-C ,  4-C ) :   0.7176 B(  3-C ,  8-O ) :  -0.1806
B(  3-C , 18-H ) :   0.9247 B(  3-C , 19-H ) :   1.0300 B(  4-C ,  5-H ) :   0.9597
B(  4-C ,  6-C ) :   0.7474 B(  4-C ,  7-H ) :   0.9324 B(  4-C ,  8-O ) :   0.1926
B(  6-C ,  8-O ) :   0.6675 B(  6-C , 24-H ) :   1.0067 B(  6-C , 25-H ) :   1.0650
B(  8-O , 11-C ) :  -0.1279 B(  8-O , 13-N ) :  -0.1662 B(  8-O , 14-H ) :   0.2644
B( 11-C , 12-N ) :   0.8350 B( 11-C , 13-N ) :   1.3184 B( 12-N , 13-N ) :   0.1033
B( 12-N , 16-H ) :   0.9627 B( 12-N , 17-H ) :   0.9941 B( 13-N , 14-H ) :   0.4615
B( 13-N , 15-H ) :   1.0332

Dispersion correction           -0.001070473
FINAL SINGLE POINT ENERGY      -461.036212161080

DIPOLE MOMENT
-------------
                                X             Y             Z
Electronic contribution:      5.57174       0.88914       4.29326
Nuclear contribution   :     -2.25948       0.71378      -5.15247
                        -----------------------------------------
Total Dipole Moment    :      3.31226       1.60292      -0.85921
                        -----------------------------------------
Magnitude (a.u.)       :      3.77871
Magnitude (Debye)      :      9.60471

Rotational constants in cm-1:     0.063973     0.031829     0.024059
Rotational constants in MHz :  1917.874550   954.201145   721.285252

                             ****ORCA TERMINATED NORMALLY****
TOTAL RUN TIME: 0 days 0 hours 3 minutes 33 seconds 529 msec
