                         Program Version 5.0.0 -  RELEASE  -
|  1> !M062X D3Zero RIJCOSX def2-TZVPD def2/J TightSCF
|  2> *xyz 0 1
|  3> C         -1.91658       -2.48508       -3.64367
|  4> C         -1.36353       -1.98134       -2.29361
|  5> F         -0.35039       -2.74969       -1.79601
|  6> H         -2.22622       -1.90839       -1.60204
|  7> H         -1.05135       -0.91567       -2.44333
|  8> H         -1.11522       -2.57167       -4.34739
|  9> H         -2.64227       -1.79099       -4.01314
| 10> H         -2.37564       -3.44180       -3.50640
| 11> *
| 12>
| 13> %MaxCore 64000
| 14> %pal nprocs 4
| 15> end
| 16>
| 17> %scf
| 18>   MaxIter 150
| 19> end
| 20>
| 21>
| 22>                          ****END OF INPUT****

CARTESIAN COORDINATES (ANGSTROEM)
---------------------------------
  C     -1.916580   -2.485080   -3.643670
  C     -1.363530   -1.981340   -2.293610
  F     -0.350390   -2.749690   -1.796010
  H     -2.226220   -1.908390   -1.602040
  H     -1.051350   -0.915670   -2.443330
  H     -1.115220   -2.571670   -4.347390
  H     -2.642270   -1.790990   -4.013140
  H     -2.375640   -3.441800   -3.506400

 Total Charge           Charge          ....    0
 Multiplicity           Mult            ....    1
 Number of Electrons    NEL             ....   26
 Basis Dimension        Dim             ....  159

ORBITAL ENERGIES
----------------

  NO   OCC          E(Eh)            E(eV)
   0   2.0000     -25.234421      -686.6635
   1   2.0000     -10.615743      -288.8691
   2   2.0000     -10.529284      -286.5164
   3   2.0000      -1.345314       -36.6078
   4   2.0000      -0.862180       -23.4611
   5   2.0000      -0.723505       -19.6876
   6   2.0000      -0.591578       -16.0977
   7   2.0000      -0.581973       -15.8363
   8   2.0000      -0.547569       -14.9001
   9   2.0000      -0.483381       -13.1535
  10   2.0000      -0.469020       -12.7627
  11   2.0000      -0.405230       -11.0269
  12   2.0000      -0.398579       -10.8459
  13   0.0000       0.019495         0.5305
  14   0.0000       0.042994         1.1699
  15   0.0000       0.065217         1.7746
  16   0.0000       0.066226         1.8021
  17   0.0000       0.094446         2.5700

MULLIKEN ATOMIC CHARGES
-----------------------
   0 C :   -0.979625
   1 C :   -0.111405
   2 F :   -0.311021
   3 H :    0.252565
   4 H :    0.249625
   5 H :    0.295479
   6 H :    0.318368
   7 H :    0.286015
Sum of atomic charges:    0.0000000

LOEWDIN ATOMIC CHARGES
----------------------
   0 C :   -0.084983
   1 C :   -0.287115
   2 F :   -0.052950
   3 H :    0.111549
   4 H :    0.116945
   5 H :    0.065368
   6 H :    0.066875
   7 H :    0.064312

  Mayer bond orders larger than 0.100000
B(  0-C ,  1-C ) :   0.6977 B(  0-C ,  2-F ) :   0.1118 B(  0-C ,  5-H ) :   0.9534
B(  0-C ,  6-H ) :   0.9488 B(  0-C ,  7-H ) :   0.9608 B(  1-C ,  2-F ) :   0.6990
B(  1-C ,  3-H ) :   0.9790 B(  1-C ,  4-H ) :   0.9813

Dispersion correction           -0.000019349
FINAL SINGLE POINT ENERGY      -179.051469655253

DIPOLE MOMENT
-------------
                                X             Y             Z
Electronic contribution:      3.60750      -1.34892       3.42195
Nuclear contribution   :     -4.15401       1.70894      -3.75000
                        -----------------------------------------
Total Dipole Moment    :     -0.54651       0.36001      -0.32805
                        -----------------------------------------
Magnitude (a.u.)       :      0.73205
Magnitude (Debye)      :      1.86073

Rotational constants in cm-1:     1.266842     0.300492     0.266603
Rotational constants in MHz : 37978.968232  9008.526876  7992.551454

                             ****ORCA TERMINATED NORMALLY****
TOTAL RUN TIME: 0 days 0 hours 0 minutes 14 seconds 15 msec
