                         Program Version 5.0.0 -  RELEASE  -
|  1> !M062X D3Zero RIJCOSX def2-TZVPD def2/J TightSCF
|  2> *xyz 0 1
|  3> C          1.64703       -2.34528       -5.02041
|  4> C          2.20996       -2.81239       -3.66571
|  5> C          2.48901       -1.66851       -2.73754
|  6> C          3.59631       -0.94761       -2.95225
|  7> N          1.66394       -1.41369       -1.77781
|  8> H          0.81164       -1.96318       -1.70275
|  9> H          1.84550       -0.63508       -1.15875
| 10> H          4.20535       -1.17600       -3.73383
| 11> H          3.81723       -0.12585       -2.40604
| 12> H          3.14311       -3.36280       -3.81152
| 13> H          1.48768       -3.45893       -3.16521
| 14> H          1.46566       -3.19589       -5.64368
| 15> H          2.35406       -1.69850       -5.49654
| 16> H          0.73014       -1.81680       -4.86253
| 17> *
| 18>
| 19> %MaxCore 64000
| 20> %pal nprocs 4
| 21> end
| 22>
| 23> %scf
| 24>   MaxIter 150
| 25> end
| 26>
| 27>
| 28>                          ****END OF INPUT****

CARTESIAN COORDINATES (ANGSTROEM)
---------------------------------
  C      1.647030   -2.345280   -5.020410
  C      2.209960   -2.812390   -3.665710
  C      2.489010   -1.668510   -2.737540
  C      3.596310   -0.947610   -2.952250
  N      1.663940   -1.413690   -1.777810
  H      0.811640   -1.963180   -1.702750
  H      1.845500   -0.635080   -1.158750
  H      4.205350   -1.176000   -3.733830
  H      3.817230   -0.125850   -2.406040
  H      3.143110   -3.362800   -3.811520
  H      1.487680   -3.458930   -3.165210
  H      1.465660   -3.195890   -5.643680
  H      2.354060   -1.698500   -5.496540
  H      0.730140   -1.816800   -4.862530

 Total Charge           Charge          ....    0
 Multiplicity           Mult            ....    1
 Number of Electrons    NEL             ....   40
 Basis Dimension        Dim             ....  266

ORBITAL ENERGIES
----------------

  NO   OCC          E(Eh)            E(eV)
   0   2.0000     -14.753132      -401.4531
   1   2.0000     -10.556813      -287.2655
   2   2.0000     -10.534392      -286.6554
   3   2.0000     -10.517665      -286.2002
   4   2.0000     -10.464894      -284.7642
   5   2.0000      -1.049665       -28.5628
   6   2.0000      -0.876971       -23.8636
   7   2.0000      -0.802644       -21.8410
   8   2.0000      -0.726053       -19.7569
   9   2.0000      -0.647512       -17.6197
  10   2.0000      -0.607320       -16.5260
  11   2.0000      -0.552221       -15.0267
  12   2.0000      -0.510492       -13.8912
  13   2.0000      -0.478718       -13.0266
  14   2.0000      -0.460456       -12.5296
  15   2.0000      -0.447861       -12.1869
  16   2.0000      -0.413341       -11.2476
  17   2.0000      -0.400063       -10.8863
  18   2.0000      -0.394077       -10.7234
  19   2.0000      -0.237580        -6.4649
  20   0.0000       0.014694         0.3999
  21   0.0000       0.038657         1.0519
  22   0.0000       0.044103         1.2001
  23   0.0000       0.049157         1.3376
  24   0.0000       0.073479         1.9995

MULLIKEN ATOMIC CHARGES
-----------------------
   0 C :   -1.016039
   1 C :   -0.859328
   2 C :    1.139920
   3 C :   -1.153428
   4 N :   -0.579441
   5 H :    0.251405
   6 H :    0.221167
   7 H :    0.218041
   8 H :    0.224430
   9 H :    0.306143
  10 H :    0.341478
  11 H :    0.296871
  12 H :    0.313143
  13 H :    0.295639
Sum of atomic charges:    0.0000000

LOEWDIN ATOMIC CHARGES
----------------------
   0 C :   -0.091019
   1 C :   -0.203193
   2 C :   -0.513301
   3 C :    0.018818
   4 N :    0.099147
   5 H :    0.116398
   6 H :    0.120865
   7 H :    0.021237
   8 H :    0.012838
   9 H :    0.115646
  10 H :    0.104105
  11 H :    0.061995
  12 H :    0.066570
  13 H :    0.069893

  Mayer bond orders larger than 0.100000
B(  0-C ,  1-C ) :   0.5766 B(  0-C , 11-H ) :   0.9782 B(  0-C , 12-H ) :   0.9813
B(  0-C , 13-H ) :   0.9755 B(  1-C ,  2-C ) :   0.4935 B(  1-C ,  3-C ) :   0.1672
B(  1-C ,  4-N ) :   0.1046 B(  1-C ,  9-H ) :   0.9956 B(  1-C , 10-H ) :   0.9959
B(  2-C ,  3-C ) :   1.1043 B(  2-C ,  4-N ) :   0.8407 B(  2-C ,  8-H ) :  -0.1637
B(  2-C , 10-H ) :  -0.1124 B(  3-C ,  4-N ) :   0.1224 B(  3-C ,  7-H ) :   1.0422
B(  3-C ,  8-H ) :   1.1215 B(  4-N ,  5-H ) :   0.9695 B(  4-N ,  6-H ) :   1.0087

Dispersion correction           -0.000198648
FINAL SINGLE POINT ENERGY      -212.535798663303

DIPOLE MOMENT
-------------
                                X             Y             Z
Electronic contribution:     -0.03117       0.65297       3.00186
Nuclear contribution   :     -0.69146      -0.83112      -2.71336
                        -----------------------------------------
Total Dipole Moment    :     -0.72263      -0.17815       0.28850
                        -----------------------------------------
Magnitude (a.u.)       :      0.79823
Magnitude (Debye)      :      2.02893

Rotational constants in cm-1:     0.270661     0.129240     0.102040
Rotational constants in MHz :  8114.202941  3874.518141  3059.074383

                             ****ORCA TERMINATED NORMALLY****
TOTAL RUN TIME: 0 days 0 hours 0 minutes 46 seconds 586 msec
