                         Program Version 5.0.0 -  RELEASE  -
|  1> !M062X D3Zero RIJCOSX def2-TZVPD def2/J TightSCF
|  2> *xyz 0 1
|  3> C          1.64703       -2.34528       -5.02041
|  4> C          2.20996       -2.81239       -3.66571
|  5> C          2.48901       -1.66851       -2.73754
|  6> N          3.59631       -0.94761       -2.95225
|  7> C          1.66394       -1.41369       -1.77781
|  8> H          0.81164       -1.96318       -1.70275
|  9> H          1.84550       -0.63508       -1.15875
| 10> H          4.20535       -1.17600       -3.73383
| 11> H          3.81723       -0.12585       -2.40604
| 12> H          3.14311       -3.36280       -3.81152
| 13> H          1.48768       -3.45893       -3.16521
| 14> H          1.46566       -3.19589       -5.64368
| 15> H          2.35406       -1.69850       -5.49654
| 16> H          0.73014       -1.81680       -4.86253
| 17> *
| 18>
| 19> %MaxCore 64000
| 20> %pal nprocs 4
| 21> end
| 22>
| 23> %scf
| 24>   MaxIter 150
| 25> end
| 26>
| 27>
| 28>                          ****END OF INPUT****

CARTESIAN COORDINATES (ANGSTROEM)
---------------------------------
  C      1.647030   -2.345280   -5.020410
  C      2.209960   -2.812390   -3.665710
  C      2.489010   -1.668510   -2.737540
  N      3.596310   -0.947610   -2.952250
  C      1.663940   -1.413690   -1.777810
  H      0.811640   -1.963180   -1.702750
  H      1.845500   -0.635080   -1.158750
  H      4.205350   -1.176000   -3.733830
  H      3.817230   -0.125850   -2.406040
  H      3.143110   -3.362800   -3.811520
  H      1.487680   -3.458930   -3.165210
  H      1.465660   -3.195890   -5.643680
  H      2.354060   -1.698500   -5.496540
  H      0.730140   -1.816800   -4.862530

 Total Charge           Charge          ....    0
 Multiplicity           Mult            ....    1
 Number of Electrons    NEL             ....   40
 Basis Dimension        Dim             ....  266

ORBITAL ENERGIES
----------------

  NO   OCC          E(Eh)            E(eV)
   0   2.0000     -14.746120      -401.2623
   1   2.0000     -10.553514      -287.1757
   2   2.0000     -10.532787      -286.6117
   3   2.0000     -10.518586      -286.2253
   4   2.0000     -10.467801      -284.8433
   5   2.0000      -1.029999       -28.0277
   6   2.0000      -0.877455       -23.8768
   7   2.0000      -0.817612       -22.2484
   8   2.0000      -0.721479       -19.6324
   9   2.0000      -0.642953       -17.4957
  10   2.0000      -0.594629       -16.1807
  11   2.0000      -0.552499       -15.0343
  12   2.0000      -0.502359       -13.6699
  13   2.0000      -0.490591       -13.3497
  14   2.0000      -0.463607       -12.6154
  15   2.0000      -0.449259       -12.2250
  16   2.0000      -0.413315       -11.2469
  17   2.0000      -0.393316       -10.7027
  18   2.0000      -0.391627       -10.6567
  19   2.0000      -0.250480        -6.8159
  20   0.0000       0.015535         0.4227
  21   0.0000       0.039374         1.0714
  22   0.0000       0.045679         1.2430
  23   0.0000       0.047090         1.2814
  24   0.0000       0.075402         2.0518

MULLIKEN ATOMIC CHARGES
-----------------------
   0 C :   -0.986818
   1 C :   -0.894482
   2 C :    1.085815
   3 N :   -0.625837
   4 C :   -1.005964
   5 H :    0.192279
   6 H :    0.227031
   7 H :    0.242996
   8 H :    0.211145
   9 H :    0.346483
  10 H :    0.308201
  11 H :    0.306412
  12 H :    0.295539
  13 H :    0.297201
Sum of atomic charges:   -0.0000000

LOEWDIN ATOMIC CHARGES
----------------------
   0 C :   -0.092110
   1 C :   -0.204470
   2 C :   -0.504452
   3 N :    0.089756
   4 C :    0.020471
   5 H :    0.030913
   6 H :    0.027007
   7 H :    0.106733
   8 H :    0.108681
   9 H :    0.112403
  10 H :    0.109125
  11 H :    0.062250
  12 H :    0.061631
  13 H :    0.072063

  Mayer bond orders larger than 0.100000
B(  0-C ,  1-C ) :   0.5907 B(  0-C , 11-H ) :   0.9824 B(  0-C , 12-H ) :   0.9587
B(  0-C , 13-H ) :   1.0099 B(  1-C ,  2-C ) :   0.5602 B(  1-C ,  3-N ) :   0.1511
B(  1-C ,  4-C ) :   0.1674 B(  1-C ,  9-H ) :   0.9666 B(  1-C , 10-H ) :   0.9915
B(  2-C ,  3-N ) :   0.6941 B(  2-C ,  4-C ) :   1.1788 B(  2-C ,  6-H ) :  -0.1626
B(  3-N ,  4-C ) :   0.1320 B(  3-N ,  7-H ) :   0.9786 B(  3-N ,  8-H ) :   1.0167
B(  4-C ,  5-H ) :   1.0703 B(  4-C ,  6-H ) :   1.1042

Dispersion correction           -0.000198449
FINAL SINGLE POINT ENERGY      -212.540421203651

DIPOLE MOMENT
-------------
                                X             Y             Z
Electronic contribution:      1.61706       1.05938       2.00744
Nuclear contribution   :     -1.13902      -0.93906      -2.44135
                        -----------------------------------------
Total Dipole Moment    :      0.47804       0.12032      -0.43391
                        -----------------------------------------
Magnitude (a.u.)       :      0.65671
Magnitude (Debye)      :      1.66923

Rotational constants in cm-1:     0.267243     0.130607     0.102304
Rotational constants in MHz :  8011.748167  3915.504600  3066.999841

                             ****ORCA TERMINATED NORMALLY****
TOTAL RUN TIME: 0 days 0 hours 0 minutes 42 seconds 828 msec
