                         Program Version 5.0.0 -  RELEASE  -
|  1> !M062X D3Zero RIJCOSX def2-TZVPD def2/J TightSCF xyzfile
|  2>
|  3> *xyzfile 0 1 D1.xyz
|  4>
|  5> %MaxCore 64000
|  6>
|  7> %pal nprocs 4
|  8> end
|  9>
| 10> %scf
| 11>   MaxIter 150
| 12> end
| 13>
| 14>
| 15>                          ****END OF INPUT****

CARTESIAN COORDINATES (ANGSTROEM)
---------------------------------
  C      1.647032   -2.345276   -5.020411
  C      0.217628   -1.814022   -4.924389
  C      2.209964   -2.812388   -3.665708
  C     -0.811356   -2.908780   -4.607625
  C     -1.916579   -2.485081   -3.643665
  H     -2.554525   -1.712428   -4.091993
  C     -1.363531   -1.981337   -2.293608
  H     -2.553448   -3.355667   -3.458815
  F     -0.350395   -2.749689   -1.796006
  H      2.308385   -1.588704   -5.457128
  H      1.674286   -3.203478   -5.697392
  C      2.489007   -1.668510   -2.737538
  C      3.596314   -0.947608   -2.952247
  N      1.663936   -1.413685   -1.777806
  H      0.811642   -1.963178   -1.702755
  H      1.845503   -0.635078   -1.158749
  H      4.205351   -1.176003   -3.733825
  H      3.817230   -0.125845   -2.406041
  H     -1.244829   -3.280884   -5.541040
  H     -0.306331   -3.757746   -4.142734
  H     -0.036244   -1.318555   -5.865303
  H      0.175004   -1.035382   -4.158095
  H      3.143106   -3.362803   -3.811524
  H      1.487683   -3.458935   -3.165211
  H     -2.226220   -1.908386   -1.602039
  H     -1.051353   -0.915671   -2.443331

 Total Charge           Charge          ....    0
 Multiplicity           Mult            ....    1
 Number of Electrons    NEL             ....   80
 Basis Dimension        Dim             ....  517

ORBITAL ENERGIES
----------------

  NO   OCC          E(Eh)            E(eV)
   0   2.0000     -25.281608      -687.9475
   1   2.0000     -14.717401      -400.4808
   2   2.0000     -10.635318      -289.4017
   3   2.0000     -10.552466      -287.1472
   4   2.0000     -10.541256      -286.8422
   5   2.0000     -10.536539      -286.7138
   6   2.0000     -10.528292      -286.4894
   7   2.0000     -10.525334      -286.4089
   8   2.0000     -10.521380      -286.3013
   9   2.0000     -10.449810      -284.3538
  10   2.0000      -1.402694       -38.1693
  11   2.0000      -1.027769       -27.9670
  12   2.0000      -0.922268       -25.0962
  13   2.0000      -0.878866       -23.9152
  14   2.0000      -0.832924       -22.6650
  15   2.0000      -0.786619       -21.4050
  16   2.0000      -0.757995       -20.6261
  17   2.0000      -0.699457       -19.0332
  18   2.0000      -0.676041       -18.3960
  19   2.0000      -0.662188       -18.0191
  20   2.0000      -0.624534       -16.9944
  21   2.0000      -0.610763       -16.6197
  22   2.0000      -0.593610       -16.1530
  23   2.0000      -0.560842       -15.2613
  24   2.0000      -0.539560       -14.6822
  25   2.0000      -0.532761       -14.4972
  26   2.0000      -0.513941       -13.9851
  27   2.0000      -0.488472       -13.2920
  28   2.0000      -0.486308       -13.2331
  29   2.0000      -0.454806       -12.3759
  30   2.0000      -0.435442       -11.8490
  31   2.0000      -0.429310       -11.6821
  32   2.0000      -0.426207       -11.5977
  33   2.0000      -0.419412       -11.4128
  34   2.0000      -0.403124       -10.9696
  35   2.0000      -0.392340       -10.6761
  36   2.0000      -0.378641       -10.3033
  37   2.0000      -0.371300       -10.1036
  38   2.0000      -0.367127        -9.9900
  39   2.0000      -0.220468        -5.9992
  40   0.0000       0.010421         0.2836
  41   0.0000       0.022888         0.6228
  42   0.0000       0.028677         0.7803
  43   0.0000       0.030664         0.8344
  44   0.0000       0.048646         1.3237

MULLIKEN ATOMIC CHARGES
-----------------------
   0 C :   -0.665504
   1 C :   -0.589269
   2 C :   -1.011708
   3 C :   -0.523384
   4 C :   -0.878637
   5 H :    0.371619
   6 C :   -0.327372
   7 H :    0.379932
   8 F :   -0.416957
   9 H :    0.384387
  10 H :    0.379992
  11 C :    0.914478
  12 C :   -1.116369
  13 N :   -0.695106
  14 H :    0.530103
  15 H :    0.156419
  16 H :    0.229479
  17 H :    0.244310
  18 H :    0.385349
  19 H :    0.275039
  20 H :    0.374983
  21 H :    0.266362
  22 H :    0.394663
  23 H :    0.306611
  24 H :    0.341484
  25 H :    0.289096
Sum of atomic charges:    0.0000000

LOEWDIN ATOMIC CHARGES
----------------------
   0 C :   -0.194348
   1 C :   -0.203055
   2 C :   -0.146944
   3 C :   -0.212409
   4 C :   -0.179014
   5 H :    0.122886
   6 C :   -0.208561
   7 H :    0.110524
   8 F :   -0.038074
   9 H :    0.113113
  10 H :    0.112342
  11 C :   -0.492285
  12 C :    0.015508
  13 N :    0.121076
  14 H :    0.022603
  15 H :    0.125246
  16 H :    0.017575
  17 H :    0.010452
  18 H :    0.115843
  19 H :    0.102221
  20 H :    0.112728
  21 H :    0.099972
  22 H :    0.121892
  23 H :    0.099080
  24 H :    0.125748
  25 H :    0.125880

  Mayer bond orders larger than 0.100000
B(  0-C ,  1-C ) :   0.7507 B(  0-C ,  2-C ) :   0.7722 B(  0-C ,  3-C ) :   0.1677
B(  0-C ,  9-H ) :   0.9133 B(  0-C , 10-H ) :   0.9176 B(  1-C ,  3-C ) :   0.3082
B(  1-C ,  4-C ) :   0.1187 B(  1-C , 11-C ) :   0.1207 B(  1-C , 19-H ) :  -0.1298
B(  1-C , 20-H ) :   0.9053 B(  1-C , 21-H ) :   1.0168 B(  2-C , 11-C ) :   0.5833
B(  2-C , 12-C ) :   0.1546 B(  2-C , 13-N ) :   0.1323 B(  2-C , 22-H ) :   0.9498
B(  2-C , 23-H ) :   0.9856 B(  3-C ,  4-C ) :   0.6653 B(  3-C , 18-H ) :   0.9147
B(  3-C , 19-H ) :   1.0387 B(  3-C , 21-H ) :  -0.1248 B(  4-C ,  5-H ) :   0.9361
B(  4-C ,  6-C ) :   0.7614 B(  4-C ,  7-H ) :   0.9501 B(  4-C ,  8-F ) :   0.1680
B(  6-C ,  8-F ) :   0.5979 B(  6-C , 24-H ) :   0.9280 B(  6-C , 25-H ) :   1.0364
B( 11-C , 12-C ) :   1.1232 B( 11-C , 13-N ) :   0.8216 B( 11-C , 17-H ) :  -0.1362
B( 12-C , 13-N ) :   0.1198 B( 12-C , 16-H ) :   1.0773 B( 12-C , 17-H ) :   1.0736
B( 13-N , 14-H ) :   0.6115 B( 13-N , 15-H ) :   1.0854

Dispersion correction           -0.001060790
FINAL SINGLE POINT ENERGY      -468.993409729967

DIPOLE MOMENT
-------------
                                X             Y             Z
Electronic contribution:     -1.28493      -1.74325       6.90471
Nuclear contribution   :     -0.37390       1.73388      -6.94752
                        -----------------------------------------
Total Dipole Moment    :     -1.65883      -0.00936      -0.04282
                        -----------------------------------------
Magnitude (a.u.)       :      1.65941
Magnitude (Debye)      :      4.21789

Rotational constants in cm-1:     0.062220     0.032742     0.024374
Rotational constants in MHz :  1865.297979   981.573941   730.711364

                             ****ORCA TERMINATED NORMALLY****
TOTAL RUN TIME: 0 days 0 hours 3 minutes 25 seconds 918 msec
