                         Program Version 5.0.0 -  RELEASE  -
|  1> !M062X D3Zero RIJCOSX def2-TZVPD def2/J TightSCF xyzfile
|  2>
|  3> *xyzfile 0 1 D2.xyz
|  4>
|  5> %MaxCore 64000
|  6>
|  7> %pal nprocs 4
|  8> end
|  9>
| 10> %scf
| 11>   MaxIter 150
| 12> end
| 13>
| 14>
| 15>                          ****END OF INPUT****

CARTESIAN COORDINATES (ANGSTROEM)
---------------------------------
  C      1.647032   -2.345276   -5.020411
  C      0.217628   -1.814022   -4.924389
  C      2.209964   -2.812388   -3.665708
  C     -0.811356   -2.908780   -4.607625
  C     -1.916579   -2.485081   -3.643665
  H     -2.554525   -1.712428   -4.091993
  C     -1.363531   -1.981337   -2.293608
  H     -2.553448   -3.355667   -3.458815
  F     -0.350395   -2.749689   -1.796006
  H      2.308385   -1.588704   -5.457128
  H      1.674286   -3.203478   -5.697392
  C      2.489007   -1.668510   -2.737538
  N      3.596314   -0.947608   -2.952247
  C      1.663936   -1.413685   -1.777806
  H      0.811642   -1.963178   -1.702755
  H      1.845503   -0.635078   -1.158749
  H      4.205351   -1.176003   -3.733825
  H      3.817230   -0.125845   -2.406041
  H     -1.244829   -3.280884   -5.541040
  H     -0.306331   -3.757746   -4.142734
  H     -0.036244   -1.318555   -5.865303
  H      0.175004   -1.035382   -4.158095
  H      3.143106   -3.362803   -3.811524
  H      1.487683   -3.458935   -3.165211
  H     -2.226220   -1.908386   -1.602039
  H     -1.051353   -0.915671   -2.443331

 Total Charge           Charge          ....    0
 Multiplicity           Mult            ....    1
 Number of Electrons    NEL             ....   80
 Basis Dimension        Dim             ....  517

ORBITAL ENERGIES
----------------

  NO   OCC          E(Eh)            E(eV)
   0   2.0000     -25.248401      -687.0439
   1   2.0000     -14.732939      -400.9037
   2   2.0000     -10.616732      -288.8960
   3   2.0000     -10.540651      -286.8257
   4   2.0000     -10.536825      -286.7216
   5   2.0000     -10.528852      -286.5046
   6   2.0000     -10.526081      -286.4292
   7   2.0000     -10.522070      -286.3201
   8   2.0000     -10.520873      -286.2875
   9   2.0000     -10.435041      -283.9519
  10   2.0000      -1.371891       -37.3311
  11   2.0000      -1.016627       -27.6638
  12   2.0000      -0.912920       -24.8418
  13   2.0000      -0.876256       -23.8441
  14   2.0000      -0.824138       -22.4259
  15   2.0000      -0.795936       -21.6585
  16   2.0000      -0.748375       -20.3643
  17   2.0000      -0.690366       -18.7858
  18   2.0000      -0.653180       -17.7739
  19   2.0000      -0.652403       -17.7528
  20   2.0000      -0.608288       -16.5524
  21   2.0000      -0.599184       -16.3046
  22   2.0000      -0.575416       -15.6579
  23   2.0000      -0.566444       -15.4137
  24   2.0000      -0.535892       -14.5824
  25   2.0000      -0.519765       -14.1435
  26   2.0000      -0.513227       -13.9656
  27   2.0000      -0.498844       -13.5742
  28   2.0000      -0.472539       -12.8584
  29   2.0000      -0.447417       -12.1748
  30   2.0000      -0.432159       -11.7597
  31   2.0000      -0.421829       -11.4786
  32   2.0000      -0.415782       -11.3140
  33   2.0000      -0.401795       -10.9334
  34   2.0000      -0.392481       -10.6800
  35   2.0000      -0.385849       -10.4995
  36   2.0000      -0.369415       -10.0523
  37   2.0000      -0.367521       -10.0007
  38   2.0000      -0.356943        -9.7129
  39   2.0000      -0.234451        -6.3797
  40   0.0000       0.017886         0.4867
  41   0.0000       0.023741         0.6460
  42   0.0000       0.029253         0.7960
  43   0.0000       0.036200         0.9850
  44   0.0000       0.048229         1.3124

MULLIKEN ATOMIC CHARGES
-----------------------
   0 C :   -0.655219
   1 C :   -0.513487
   2 C :   -0.912353
   3 C :   -0.536545
   4 C :   -0.876898
   5 H :    0.369342
   6 C :   -0.306454
   7 H :    0.372472
   8 F :   -0.373854
   9 H :    0.363189
  10 H :    0.371112
  11 C :    0.996724
  12 N :   -0.646997
  13 C :   -0.952326
  14 H :    0.103816
  15 H :    0.156235
  16 H :    0.240104
  17 H :    0.217341
  18 H :    0.378366
  19 H :    0.262020
  20 H :    0.376693
  21 H :    0.255520
  22 H :    0.462817
  23 H :    0.230387
  24 H :    0.345376
  25 H :    0.272620
Sum of atomic charges:   -0.0000000

LOEWDIN ATOMIC CHARGES
----------------------
   0 C :   -0.197723
   1 C :   -0.204103
   2 C :   -0.146227
   3 C :   -0.211688
   4 C :   -0.180243
   5 H :    0.120836
   6 C :   -0.212720
   7 H :    0.109248
   8 F :   -0.060128
   9 H :    0.108627
  10 H :    0.111564
  11 C :   -0.474878
  12 N :    0.088304
  13 C :    0.037953
  14 H :   -0.035582
  15 H :    0.038462
  16 H :    0.103350
  17 H :    0.106432
  18 H :    0.114113
  19 H :    0.102892
  20 H :    0.111441
  21 H :    0.098888
  22 H :    0.118414
  23 H :    0.103443
  24 H :    0.124120
  25 H :    0.125204

  Mayer bond orders larger than 0.100000
B(  0-C ,  1-C ) :   0.7967 B(  0-C ,  2-C ) :   0.7503 B(  0-C ,  3-C ) :   0.1798
B(  0-C ,  9-H ) :   0.8963 B(  0-C , 10-H ) :   0.9343 B(  1-C ,  3-C ) :   0.3393
B(  1-C ,  4-C ) :   0.1141 B(  1-C , 19-H ) :  -0.1352 B(  1-C , 20-H ) :   0.9164
B(  1-C , 21-H ) :   1.0248 B(  2-C , 11-C ) :   0.5409 B(  2-C , 12-N ) :   0.2504
B(  2-C , 22-H ) :   0.8815 B(  2-C , 23-H ) :   1.0375 B(  3-C ,  4-C ) :   0.6768
B(  3-C , 18-H ) :   0.9228 B(  3-C , 19-H ) :   1.0436 B(  3-C , 21-H ) :  -0.1150
B(  4-C ,  5-H ) :   0.9312 B(  4-C ,  6-C ) :   0.7758 B(  4-C ,  7-H ) :   0.9580
B(  4-C ,  8-F ) :   0.1535 B(  6-C ,  8-F ) :   0.6738 B(  6-C , 24-H ) :   0.9086
B(  6-C , 25-H ) :   1.0332 B(  8-F , 14-H ) :  -0.2912 B( 11-C , 12-N ) :   0.5942
B( 11-C , 13-C ) :   1.0905 B( 11-C , 15-H ) :  -0.2022 B( 12-N , 13-C ) :   0.1047
B( 12-N , 16-H ) :   0.9950 B( 12-N , 17-H ) :   1.0095 B( 13-C , 14-H ) :   1.2934
B( 13-C , 15-H ) :   1.2633

Dispersion correction           -0.001059503
FINAL SINGLE POINT ENERGY      -468.977075877207

DIPOLE MOMENT
-------------
                                X             Y             Z
Electronic contribution:      0.38587      -1.32567       6.07915
Nuclear contribution   :     -0.73748       1.64619      -6.72655
                        -----------------------------------------
Total Dipole Moment    :     -0.35162       0.32052      -0.64740
                        -----------------------------------------
Magnitude (a.u.)       :      0.80343
Magnitude (Debye)      :      2.04215

Rotational constants in cm-1:     0.063169     0.031711     0.023958
Rotational constants in MHz :  1893.751676   950.657187   718.229932

                             ****ORCA TERMINATED NORMALLY****
TOTAL RUN TIME: 0 days 0 hours 3 minutes 24 seconds 3 msec
