                         Program Version 5.0.0 -  RELEASE  -
|  1> !wB97X-D3 RIJCOSX def2-TZVP def2/J TightSCF
|  2> *xyz -1 1
|  3> C         -7.33044       -2.67899       -3.20681
|  4> S         -6.01966       -2.92697       -4.41913
|  5> O         -5.64583       -1.58838       -4.91931
|  6> O         -4.88196       -3.50370       -3.66724
|  7> O         -6.54927       -3.80515       -5.42507
|  8> H         -8.18867       -2.26077       -3.68996
|  9> H         -6.98921       -2.01038       -2.44430
| 10> H         -7.59151       -3.61862       -2.76655
| 11> *
| 12> %MaxCore 64000
| 13>
| 14> %pal nprocs 8
| 15> end
| 16>
| 17> %scf
| 18>   MaxIter 150
| 19> end
| 20>
| 21>
| 22>                          ****END OF INPUT****

CARTESIAN COORDINATES (ANGSTROEM)
---------------------------------
  C     -7.330440   -2.678990   -3.206810
  S     -6.019660   -2.926970   -4.419130
  O     -5.645830   -1.588380   -4.919310
  O     -4.881960   -3.503700   -3.667240
  O     -6.549270   -3.805150   -5.425070
  H     -8.188670   -2.260770   -3.689960
  H     -6.989210   -2.010380   -2.444300
  H     -7.591510   -3.618620   -2.766550

 Total Charge           Charge          ....   -1
 Multiplicity           Mult            ....    1
 Number of Electrons    NEL             ....   50
 Basis Dimension        Dim             ....  179

ORBITAL ENERGIES
----------------

  NO   OCC          E(Eh)            E(eV)
   0   2.0000     -88.930390     -2419.9189
   1   2.0000     -19.003522      -517.1121
   2   2.0000     -18.991284      -516.7791
   3   2.0000     -18.988668      -516.7079
   4   2.0000     -10.125060      -275.5169
   5   2.0000      -7.992211      -217.4791
   6   2.0000      -5.946700      -161.8179
   7   2.0000      -5.945191      -161.7769
   8   2.0000      -5.944907      -161.7692
   9   2.0000      -1.027454       -27.9585
  10   2.0000      -0.894340       -24.3362
  11   2.0000      -0.871661       -23.7191
  12   2.0000      -0.695812       -18.9340
  13   2.0000      -0.489648       -13.3240
  14   2.0000      -0.391543       -10.6544
  15   2.0000      -0.386141       -10.5074
  16   2.0000      -0.385077       -10.4785
  17   2.0000      -0.337751        -9.1907
  18   2.0000      -0.335744        -9.1361
  19   2.0000      -0.238452        -6.4886
  20   2.0000      -0.238202        -6.4818
  21   2.0000      -0.202506        -5.5105
  22   2.0000      -0.195061        -5.3079
  23   2.0000      -0.186158        -5.0656
  24   2.0000      -0.147048        -4.0014
  25   0.0000       0.275058         7.4847
  26   0.0000       0.331119         9.0102
  27   0.0000       0.333088         9.0638
  28   0.0000       0.344798         9.3824
  29   0.0000       0.415486        11.3060

MULLIKEN ATOMIC CHARGES
-----------------------
   0 C :   -0.388589
   1 S :    0.848718
   2 O :   -0.597120
   3 O :   -0.602812
   4 O :   -0.554572
   5 H :    0.095153
   6 H :    0.102087
   7 H :    0.097134
Sum of atomic charges:   -1.0000000

LOEWDIN ATOMIC CHARGES
----------------------
   0 C :   -0.459158
   1 S :    0.411890
   2 O :   -0.430096
   3 O :   -0.435847
   4 O :   -0.378461
   5 H :    0.096054
   6 H :    0.098632
   7 H :    0.096986

  Mayer bond orders larger than 0.100000
B(  0-C ,  1-S ) :   0.8689 B(  0-C ,  5-H ) :   0.9667 B(  0-C ,  6-H ) :   0.9699
B(  0-C ,  7-H ) :   0.9674 B(  1-S ,  2-O ) :   1.7613 B(  1-S ,  3-O ) :   1.7558
B(  1-S ,  4-O ) :   1.8076

Dispersion correction           -0.001519896
FINAL SINGLE POINT ENERGY      -663.898450496532

DIPOLE MOMENT
-------------
                                X             Y             Z
Electronic contribution:      3.03063      -0.65116      -2.95463
Nuclear contribution   :     -4.26236       0.77434       3.87117
                        -----------------------------------------
Total Dipole Moment    :     -1.23172       0.12317       0.91654
                        -----------------------------------------
Magnitude (a.u.)       :      1.54025
Magnitude (Debye)      :      3.91499

Rotational constants in cm-1:     0.172427     0.155038     0.152780
Rotational constants in MHz :  5169.225473  4647.928623  4580.233540

                             ****ORCA TERMINATED NORMALLY****
TOTAL RUN TIME: 0 days 0 hours 0 minutes 12 seconds 157 msec
