                         Program Version 5.0.0 -  RELEASE  -
|  1> !wB97X-D3 RIJCOSX def2-TZVP def2/J TightSCF
|  2> *xyz 1 1
|  3> C         -2.16038       -1.36949       -3.46710
|  4> N         -3.03011       -1.91086       -4.54107
|  5> H         -3.47744       -2.79151       -4.25710
|  6> H         -2.53801       -2.01786       -5.43808
|  7> H         -3.89159       -1.37604       -4.71437
|  8> H         -1.71294       -0.45536       -3.79734
|  9> H         -1.39344       -2.07939       -3.23742
| 10> H         -2.74775       -1.18344       -2.59230
| 11> *
| 12> %MaxCore 64000
| 13>
| 14> %pal nprocs 8
| 15> end
| 16>
| 17> %scf
| 18>   MaxIter 150
| 19> end
| 20>
| 21>
| 22>                          ****END OF INPUT****

CARTESIAN COORDINATES (ANGSTROEM)
---------------------------------
  C     -2.160380   -1.369490   -3.467100
  N     -3.030110   -1.910860   -4.541070
  H     -3.477440   -2.791510   -4.257100
  H     -2.538010   -2.017860   -5.438080
  H     -3.891590   -1.376040   -4.714370
  H     -1.712940   -0.455360   -3.797340
  H     -1.393440   -2.079390   -3.237420
  H     -2.747750   -1.183440   -2.592300

 Total Charge           Charge          ....    1
 Multiplicity           Mult            ....    1
 Number of Electrons    NEL             ....   18
 Basis Dimension        Dim             ....   98

ORBITAL ENERGIES
----------------

  NO   OCC          E(Eh)            E(eV)
   0   2.0000     -14.771674      -401.9577
   1   2.0000     -10.530668      -286.5540
   2   2.0000      -1.343980       -36.5716
   3   2.0000      -1.055920       -28.7330
   4   2.0000      -0.920907       -25.0591
   5   2.0000      -0.892629       -24.2897
   6   2.0000      -0.817165       -22.2362
   7   2.0000      -0.725089       -19.7307
   8   2.0000      -0.720738       -19.6123
   9   0.0000      -0.118679        -3.2294
  10   0.0000      -0.049517        -1.3474
  11   0.0000      -0.046349        -1.2612
  12   0.0000      -0.029068        -0.7910
  13   0.0000       0.018853         0.5130

MULLIKEN ATOMIC CHARGES
-----------------------
   0 C :   -0.309708
   1 N :   -0.317587
   2 H :    0.336530
   3 H :    0.347402
   4 H :    0.335590
   5 H :    0.202885
   6 H :    0.204558
   7 H :    0.200330
Sum of atomic charges:    1.0000000

LOEWDIN ATOMIC CHARGES
----------------------
   0 C :   -0.243786
   1 N :    0.150338
   2 H :    0.226186
   3 H :    0.227072
   4 H :    0.224810
   5 H :    0.138351
   6 H :    0.138787
   7 H :    0.138242

  Mayer bond orders larger than 0.100000
B(  0-C ,  1-N ) :   0.8967 B(  0-C ,  5-H ) :   0.9540 B(  0-C ,  6-H ) :   0.9527
B(  0-C ,  7-H ) :   0.9522 B(  1-N ,  2-H ) :   0.8744 B(  1-N ,  3-H ) :   0.8660
B(  1-N ,  4-H ) :   0.8740

Dispersion correction           -0.000522512
FINAL SINGLE POINT ENERGY       -96.223820992883

DIPOLE MOMENT
-------------
                                X             Y             Z
Electronic contribution:     -0.58842      -0.38312      -0.80022
Nuclear contribution   :      0.00575       0.04584       0.17617
                        -----------------------------------------
Total Dipole Moment    :     -0.58266      -0.33728      -0.62405
                        -----------------------------------------
Magnitude (a.u.)       :      0.91798
Magnitude (Debye)      :      2.33331

Rotational constants in cm-1:     2.917716     0.684997     0.676552
Rotational constants in MHz : 87470.913131 20535.702929 20282.512120

                             ****ORCA TERMINATED NORMALLY****
TOTAL RUN TIME: 0 days 0 hours 0 minutes 4 seconds 853 msec
