                         Program Version 5.0.0 -  RELEASE  -
|  1> !wB97X-D3 RIJCOSX def2-TZVP def2/J TightSCF xyzfile
|  2>
|  3> *xyzfile 0 1 B.xyz
|  4>
|  5> %MaxCore 64000
|  6>
|  7> %pal nprocs 18
|  8> end
|  9>
| 10> %scf
| 11>   MaxIter 150
| 12> end
| 13>
| 14>
| 15>                          ****END OF INPUT****

CARTESIAN COORDINATES (ANGSTROEM)
---------------------------------
  C     -2.160376   -1.369486   -3.467104
  N     -3.030108   -1.910857   -4.541074
  C     -2.047717    0.146583   -3.511774
  C     -7.330440   -2.678991   -3.206811
  S     -6.019659   -2.926965   -4.419128
  H     -3.477443   -2.791513   -4.257096
  H     -2.538013   -2.017860   -5.438075
  H     -3.891589   -1.376039   -4.714365
  O     -5.645830   -1.588384   -4.919307
  O     -4.881961   -3.503697   -3.667235
  H     -1.184438   -1.843997   -3.566393
  H     -2.598195   -1.708376   -2.528477
  O     -6.549267   -3.805150   -5.425071
  C     -3.328755    0.875037   -3.103669
  H     -1.740034    0.452343   -4.517126
  H     -1.232611    0.434938   -2.842208
  C     -3.628487    0.771601   -1.609363
  H     -4.175106    0.490791   -3.682203
  H     -3.237812    1.928663   -3.381480
  C     -4.975718    1.361432   -1.190644
  H     -2.830700    1.276234   -1.054766
  H     -3.594312   -0.275838   -1.294603
  C     -6.184720    0.784347   -1.926464
  H     -4.956292    2.445725   -1.342200
  H     -5.097256    1.205252   -0.114136
  C     -6.286921   -0.735882   -1.893531
  H     -6.163994    1.100199   -2.974250
  H     -7.094530    1.223459   -1.504509
  C     -7.468999   -1.246153   -2.713833
  H     -6.360641   -1.090347   -0.859176
  H     -5.369848   -1.171853   -2.295982
  H     -7.601914   -0.601349   -3.585329
  H     -8.389791   -1.173436   -2.126922
  H     -7.118254   -3.379818   -2.398055
  H     -8.241838   -3.004745   -3.706513

 Total Charge           Charge          ....    0
 Multiplicity           Mult            ....    1
 Number of Electrons    NEL             ....  122
 Basis Dimension        Dim             ....  566

ORBITAL ENERGIES
----------------

  NO   OCC          E(Eh)            E(eV)
   0   2.0000     -89.100941     -2424.5599
   1   2.0000     -19.180855      -521.9376
   2   2.0000     -19.180582      -521.9302
   3   2.0000     -19.164924      -521.5041
   4   2.0000     -14.527246      -395.3064
   5   2.0000     -10.359488      -281.8960
   6   2.0000     -10.311841      -280.5995
   7   2.0000     -10.291407      -280.0434
   8   2.0000     -10.282922      -279.8125
   9   2.0000     -10.275464      -279.6096
  10   2.0000     -10.274929      -279.5950
  11   2.0000     -10.267059      -279.3809
  12   2.0000     -10.266025      -279.3527
  13   2.0000     -10.263238      -279.2769
  14   2.0000      -8.164590      -222.1698
  15   2.0000      -6.118656      -166.4971
  16   2.0000      -6.117895      -166.4764
  17   2.0000      -6.116857      -166.4481
  18   2.0000      -1.209360       -32.9084
  19   2.0000      -1.123954       -30.5843
  20   2.0000      -1.068549       -29.0767
  21   2.0000      -1.066760       -29.0280
  22   2.0000      -0.955710       -26.0062
  23   2.0000      -0.925758       -25.1912
  24   2.0000      -0.898848       -24.4589
  25   2.0000      -0.853986       -23.2381
  26   2.0000      -0.820118       -22.3165
  27   2.0000      -0.774777       -21.0828
  28   2.0000      -0.735695       -20.0193
  29   2.0000      -0.716260       -19.4904
  30   2.0000      -0.702371       -19.1125
  31   2.0000      -0.676382       -18.4053
  32   2.0000      -0.668442       -18.1892
  33   2.0000      -0.643095       -17.4995
  34   2.0000      -0.616100       -16.7649
  35   2.0000      -0.592126       -16.1126
  36   2.0000      -0.591137       -16.0857
  37   2.0000      -0.576068       -15.6756
  38   2.0000      -0.558766       -15.2048
  39   2.0000      -0.547011       -14.8849
  40   2.0000      -0.538492       -14.6531
  41   2.0000      -0.534853       -14.5541
  42   2.0000      -0.528077       -14.3697
  43   2.0000      -0.512261       -13.9393
  44   2.0000      -0.507818       -13.8184
  45   2.0000      -0.497160       -13.5284
  46   2.0000      -0.483692       -13.1619
  47   2.0000      -0.470385       -12.7998
  48   2.0000      -0.464323       -12.6349
  49   2.0000      -0.448339       -12.1999
  50   2.0000      -0.439969       -11.9722
  51   2.0000      -0.432041       -11.7564
  52   2.0000      -0.419339       -11.4108
  53   2.0000      -0.415415       -11.3040
  54   2.0000      -0.412214       -11.2169
  55   2.0000      -0.408901       -11.1268
  56   2.0000      -0.403132       -10.9698
  57   2.0000      -0.375810       -10.2263
  58   2.0000      -0.367871       -10.0103
  59   2.0000      -0.357523        -9.7287
  60   2.0000      -0.333229        -9.0676
  61   0.0000       0.073533         2.0009
  62   0.0000       0.108017         2.9393
  63   0.0000       0.115513         3.1433
  64   0.0000       0.120072         3.2673
  65   0.0000       0.133913         3.6439

MULLIKEN ATOMIC CHARGES
-----------------------
   0 C :   -0.209026
   1 N :   -0.288409
   2 C :   -0.166295
   3 C :   -0.271975
   4 S :    0.898337
   5 H :    0.313450
   6 H :    0.283509
   7 H :    0.291827
   8 O :   -0.611965
   9 O :   -0.611464
  10 H :    0.150423
  11 H :    0.175222
  12 O :   -0.496902
  13 C :   -0.282791
  14 H :    0.122148
  15 H :    0.120949
  16 C :   -0.242167
  17 H :    0.147275
  18 H :    0.121231
  19 C :   -0.158313
  20 H :    0.112555
  21 H :    0.110199
  22 C :   -0.228640
  23 H :    0.104695
  24 H :    0.107087
  25 C :   -0.263351
  26 H :    0.126092
  27 H :    0.109195
  28 C :   -0.142875
  29 H :    0.100051
  30 H :    0.075084
  31 H :    0.119602
  32 H :    0.105657
  33 H :    0.127882
  34 H :    0.151701
Sum of atomic charges:   -0.0000000

LOEWDIN ATOMIC CHARGES
----------------------
   0 C :   -0.268880
   1 N :    0.139548
   2 C :   -0.270052
   3 C :   -0.371510
   4 S :    0.468222
   5 H :    0.172440
   6 H :    0.197615
   7 H :    0.178862
   8 O :   -0.386914
   9 O :   -0.393292
  10 H :    0.137195
  11 H :    0.144258
  12 O :   -0.317802
  13 C :   -0.265189
  14 H :    0.139307
  15 H :    0.147930
  16 C :   -0.270667
  17 H :    0.140484
  18 H :    0.141748
  19 C :   -0.266725
  20 H :    0.136224
  21 H :    0.133017
  22 C :   -0.271289
  23 H :    0.136370
  24 H :    0.137542
  25 C :   -0.270695
  26 H :    0.137908
  27 H :    0.137265
  28 C :   -0.288742
  29 H :    0.133649
  30 H :    0.129429
  31 H :    0.143651
  32 H :    0.136402
  33 H :    0.135471
  34 H :    0.137221

  Mayer bond orders larger than 0.100000
B(  0-C ,  1-N ) :   0.9065 B(  0-C ,  2-C ) :   0.9597 B(  0-C , 10-H ) :   0.9722
B(  0-C , 11-H ) :   0.9742 B(  1-N ,  5-H ) :   0.7908 B(  1-N ,  6-H ) :   0.8946
B(  1-N ,  7-H ) :   0.8272 B(  2-C , 13-C ) :   0.9698 B(  2-C , 14-H ) :   0.9737
B(  2-C , 15-H ) :   0.9702 B(  3-C ,  4-S ) :   0.8981 B(  3-C , 28-C ) :   0.9738
B(  3-C , 33-H ) :   0.9556 B(  3-C , 34-H ) :   0.9605 B(  4-S ,  8-O ) :   1.5655
B(  4-S ,  9-O ) :   1.5411 B(  4-S , 12-O ) :   1.9297 B(  5-H ,  9-O ) :   0.1552
B(  7-H ,  8-O ) :   0.1194 B( 13-C , 16-C ) :   0.9270 B( 13-C , 17-H ) :   0.9908
B( 13-C , 18-H ) :   0.9671 B( 16-C , 19-C ) :   0.9726 B( 16-C , 20-H ) :   0.9655
B( 16-C , 21-H ) :   0.9925 B( 19-C , 22-C ) :   0.9692 B( 19-C , 23-H ) :   0.9832
B( 19-C , 24-H ) :   0.9800 B( 22-C , 25-C ) :   0.9468 B( 22-C , 26-H ) :   0.9904
B( 22-C , 27-H ) :   0.9747 B( 25-C , 28-C ) :   0.9715 B( 25-C , 29-H ) :   0.9629
B( 25-C , 30-H ) :   0.9853 B( 28-C , 31-H ) :   0.9761 B( 28-C , 32-H ) :   0.9610

Dispersion correction           -0.018858199
FINAL SINGLE POINT ENERGY     -1034.345416015745

DIPOLE MOMENT
-------------
                                X             Y             Z
Electronic contribution:     -5.93025     -15.21959     -11.45019
Nuclear contribution   :      8.59301      16.99497      12.41069
                        -----------------------------------------
Total Dipole Moment    :      2.66276       1.77538       0.96050
                        -----------------------------------------
Magnitude (a.u.)       :      3.34138
Magnitude (Debye)      :      8.49312

Rotational constants in cm-1:     0.025617     0.015295     0.010641
Rotational constants in MHz :   767.991150   458.522408   319.013093

                             ****ORCA TERMINATED NORMALLY****
TOTAL RUN TIME: 0 days 0 hours 1 minutes 48 seconds 352 msec
