                         Program Version 5.0.0 -  RELEASE  -
|  1> !wB97X-D3 RIJCOSX def2-TZVP def2/J TightSCF
|  2> *xyz 0 1
|  3> C         -7.33044       -2.67899       -3.20681
|  4> S         -6.01966       -2.92697       -4.41913
|  5> F         -5.64583       -1.58838       -4.91931
|  6> O         -4.88196       -3.50370       -3.66724
|  7> O         -6.54927       -3.80515       -5.42507
|  8> H         -8.18867       -2.26077       -3.68996
|  9> H         -6.98921       -2.01038       -2.44430
| 10> H         -7.59151       -3.61862       -2.76655
| 11> *
| 12> %MaxCore 64000
| 13>
| 14> %pal nprocs 8
| 15> end
| 16>
| 17> %scf
| 18>   MaxIter 150
| 19> end
| 20>
| 21>
| 22>                          ****END OF INPUT****

CARTESIAN COORDINATES (ANGSTROEM)
---------------------------------
  C     -7.330440   -2.678990   -3.206810
  S     -6.019660   -2.926970   -4.419130
  F     -5.645830   -1.588380   -4.919310
  O     -4.881960   -3.503700   -3.667240
  O     -6.549270   -3.805150   -5.425070
  H     -8.188670   -2.260770   -3.689960
  H     -6.989210   -2.010380   -2.444300
  H     -7.591510   -3.618620   -2.766550

 Total Charge           Charge          ....    0
 Multiplicity           Mult            ....    1
 Number of Electrons    NEL             ....   50
 Basis Dimension        Dim             ....  179

ORBITAL ENERGIES
----------------

  NO   OCC          E(Eh)            E(eV)
   0   2.0000     -89.202010     -2427.3101
   1   2.0000     -24.895027      -677.4281
   2   2.0000     -19.248811      -523.7868
   3   2.0000     -19.234128      -523.3872
   4   2.0000     -10.336783      -281.2782
   5   2.0000      -8.264377      -224.8851
   6   2.0000      -6.221786      -169.3034
   7   2.0000      -6.215815      -169.1409
   8   2.0000      -6.214817      -169.1138
   9   2.0000      -1.476541       -40.1787
  10   2.0000      -1.226355       -33.3708
  11   2.0000      -1.125639       -30.6302
  12   2.0000      -0.918183       -24.9850
  13   2.0000      -0.815855       -22.2005
  14   2.0000      -0.696972       -18.9656
  15   2.0000      -0.676183       -18.3999
  16   2.0000      -0.658609       -17.9217
  17   2.0000      -0.581240       -15.8163
  18   2.0000      -0.576586       -15.6897
  19   2.0000      -0.567237       -15.4353
  20   2.0000      -0.538123       -14.6431
  21   2.0000      -0.487558       -13.2671
  22   2.0000      -0.439902       -11.9704
  23   2.0000      -0.425331       -11.5738
  24   2.0000      -0.408152       -11.1064
  25   0.0000       0.096377         2.6226
  26   0.0000       0.125894         3.4258
  27   0.0000       0.146069         3.9747
  28   0.0000       0.155556         4.2329
  29   0.0000       0.165027         4.4906

MULLIKEN ATOMIC CHARGES
-----------------------
   0 C :   -0.384933
   1 S :    0.869123
   2 F :   -0.118471
   3 O :   -0.456081
   4 O :   -0.409182
   5 H :    0.158334
   6 H :    0.160966
   7 H :    0.180244
Sum of atomic charges:   -0.0000000

LOEWDIN ATOMIC CHARGES
----------------------
   0 C :   -0.394170
   1 S :    0.541106
   2 F :    0.056775
   3 O :   -0.315826
   4 O :   -0.261021
   5 H :    0.119501
   6 H :    0.120872
   7 H :    0.132763

  Mayer bond orders larger than 0.100000
B(  0-C ,  1-S ) :   0.9184 B(  0-C ,  5-H ) :   0.9458 B(  0-C ,  6-H ) :   0.9474
B(  0-C ,  7-H ) :   0.9467 B(  1-S ,  2-F ) :   1.1185 B(  1-S ,  3-O ) :   1.8917
B(  1-S ,  4-O ) :   1.9469

Dispersion correction           -0.001526319
FINAL SINGLE POINT ENERGY      -688.430248089567

DIPOLE MOMENT
-------------
                                X             Y             Z
Electronic contribution:      3.56776       1.61000      -3.75697
Nuclear contribution   :     -4.68608      -0.54182       4.44322
                        -----------------------------------------
Total Dipole Moment    :     -1.11832       1.06817       0.68625
                        -----------------------------------------
Magnitude (a.u.)       :      1.69192
Magnitude (Debye)      :      4.30051

Rotational constants in cm-1:     0.164393     0.151201     0.145518
Rotational constants in MHz :  4928.381777  4532.884356  4362.527209

                             ****ORCA TERMINATED NORMALLY****
TOTAL RUN TIME: 0 days 0 hours 0 minutes 12 seconds 419 msec
