                         Program Version 5.0.0 -  RELEASE  -
|  1> !wB97X-D3 RIJCOSX def2-TZVP def2/J TightSCF
|  2> *xyz 0 1
|  3> C         -2.16038       -1.36949       -3.46710
|  4> C         -3.03011       -1.91086       -4.54107
|  5> H         -3.47744       -2.79151       -4.25710
|  6> H         -2.53801       -2.01786       -5.43808
|  7> H         -3.89159       -1.37604       -4.71437
|  8> H         -1.71294       -0.45536       -3.79734
|  9> H         -1.39344       -2.07939       -3.23742
| 10> H         -2.74775       -1.18344       -2.59230
| 11> *
| 12> %MaxCore 64000
| 13>
| 14> %pal nprocs 8
| 15> end
| 16>
| 17> %scf
| 18>   MaxIter 150
| 19> end
| 20>
| 21>
| 22>                          ****END OF INPUT****

CARTESIAN COORDINATES (ANGSTROEM)
---------------------------------
  C     -2.160380   -1.369490   -3.467100
  C     -3.030110   -1.910860   -4.541070
  H     -3.477440   -2.791510   -4.257100
  H     -2.538010   -2.017860   -5.438080
  H     -3.891590   -1.376040   -4.714370
  H     -1.712940   -0.455360   -3.797340
  H     -1.393440   -2.079390   -3.237420
  H     -2.747750   -1.183440   -2.592300

 Total Charge           Charge          ....    0
 Multiplicity           Mult            ....    1
 Number of Electrons    NEL             ....   18
 Basis Dimension        Dim             ....   98

ORBITAL ENERGIES
----------------

  NO   OCC          E(Eh)            E(eV)
   0   2.0000     -10.249448      -278.9017
   1   2.0000     -10.233576      -278.4698
   2   2.0000      -0.884916       -24.0798
   3   2.0000      -0.736992       -20.0546
   4   2.0000      -0.554565       -15.0905
   5   2.0000      -0.538773       -14.6608
   6   2.0000      -0.469727       -12.7819
   7   2.0000      -0.445864       -12.1326
   8   2.0000      -0.429001       -11.6737
   9   0.0000       0.127670         3.4741
  10   0.0000       0.168986         4.5983
  11   0.0000       0.197685         5.3793
  12   0.0000       0.201300         5.4776
  13   0.0000       0.214519         5.8374

MULLIKEN ATOMIC CHARGES
-----------------------
   0 C :   -0.298295
   1 C :   -0.318694
   2 H :    0.103310
   3 H :    0.105706
   4 H :    0.104899
   5 H :    0.100610
   6 H :    0.101881
   7 H :    0.100582
Sum of atomic charges:    0.0000000

LOEWDIN ATOMIC CHARGES
----------------------
   0 C :   -0.329207
   1 C :   -0.332615
   2 H :    0.107562
   3 H :    0.105260
   4 H :    0.106087
   5 H :    0.113867
   6 H :    0.114449
   7 H :    0.114597

  Mayer bond orders larger than 0.100000
B(  0-C ,  1-C ) :   0.9842 B(  0-C ,  5-H ) :   0.9815 B(  0-C ,  6-H ) :   0.9804
B(  0-C ,  7-H ) :   0.9822 B(  1-C ,  2-H ) :   0.9826 B(  1-C ,  3-H ) :   0.9812
B(  1-C ,  4-H ) :   0.9834

Dispersion correction           -0.000511730
FINAL SINGLE POINT ENERGY       -79.820673667592

DIPOLE MOMENT
-------------
                                X             Y             Z
Electronic contribution:      0.10122       0.03340      -0.00166
Nuclear contribution   :     -0.14218      -0.04688      -0.00907
                        -----------------------------------------
Total Dipole Moment    :     -0.04095      -0.01348      -0.01073
                        -----------------------------------------
Magnitude (a.u.)       :      0.04443
Magnitude (Debye)      :      0.11293

Rotational constants in cm-1:     2.917838     0.714537     0.705359
Rotational constants in MHz : 87474.579540 21421.280941 21146.123231

                             ****ORCA TERMINATED NORMALLY****
TOTAL RUN TIME: 0 days 0 hours 0 minutes 4 seconds 940 msec
