                         Program Version 5.0.0 -  RELEASE  -
|  1> !wB97X-D3 RIJCOSX def2-TZVP def2/J TightSCF
|  2> *xyz 0 1
|  3> C         -7.33044       -2.67899       -3.20681
|  4> S         -6.01966       -2.92697       -4.41913
|  5> O         -5.64583       -1.58838       -4.91931
|  6> F         -4.88196       -3.50370       -3.66724
|  7> O         -6.54927       -3.80515       -5.42507
|  8> H         -8.18867       -2.26077       -3.68996
|  9> H         -6.98921       -2.01038       -2.44430
| 10> H         -7.59151       -3.61862       -2.76655
| 11> *
| 12> %MaxCore 64000
| 13>
| 14> %pal nprocs 8
| 15> end
| 16>
| 17> %scf
| 18>   MaxIter 150
| 19> end
| 20>
| 21>
| 22>                          ****END OF INPUT****

CARTESIAN COORDINATES (ANGSTROEM)
---------------------------------
  C     -7.330440   -2.678990   -3.206810
  S     -6.019660   -2.926970   -4.419130
  O     -5.645830   -1.588380   -4.919310
  F     -4.881960   -3.503700   -3.667240
  O     -6.549270   -3.805150   -5.425070
  H     -8.188670   -2.260770   -3.689960
  H     -6.989210   -2.010380   -2.444300
  H     -7.591510   -3.618620   -2.766550

 Total Charge           Charge          ....    0
 Multiplicity           Mult            ....    1
 Number of Electrons    NEL             ....   50
 Basis Dimension        Dim             ....  179

ORBITAL ENERGIES
----------------

  NO   OCC          E(Eh)            E(eV)
   0   2.0000     -89.201890     -2427.3068
   1   2.0000     -24.892188      -677.3509
   2   2.0000     -19.248647      -523.7823
   3   2.0000     -19.236639      -523.4556
   4   2.0000     -10.336712      -281.2762
   5   2.0000      -8.264235      -224.8813
   6   2.0000      -6.221684      -169.3006
   7   2.0000      -6.215663      -169.1368
   8   2.0000      -6.214676      -169.1099
   9   2.0000      -1.472986       -40.0820
  10   2.0000      -1.226998       -33.3883
  11   2.0000      -1.128225       -30.7006
  12   2.0000      -0.918479       -24.9931
  13   2.0000      -0.813668       -22.1410
  14   2.0000      -0.695343       -18.9212
  15   2.0000      -0.673704       -18.3324
  16   2.0000      -0.658158       -17.9094
  17   2.0000      -0.581113       -15.8129
  18   2.0000      -0.577114       -15.7041
  19   2.0000      -0.566453       -15.4140
  20   2.0000      -0.539038       -14.6680
  21   2.0000      -0.488128       -13.2826
  22   2.0000      -0.440252       -11.9799
  23   2.0000      -0.428087       -11.6489
  24   2.0000      -0.410231       -11.1630
  25   0.0000       0.099124         2.6973
  26   0.0000       0.126309         3.4370
  27   0.0000       0.145552         3.9607
  28   0.0000       0.155774         4.2388
  29   0.0000       0.164296         4.4707

MULLIKEN ATOMIC CHARGES
-----------------------
   0 C :   -0.386076
   1 S :    0.870282
   2 O :   -0.451401
   3 F :   -0.122157
   4 O :   -0.410537
   5 H :    0.179102
   6 H :    0.161980
   7 H :    0.158806
Sum of atomic charges:    0.0000000

LOEWDIN ATOMIC CHARGES
----------------------
   0 C :   -0.394308
   1 S :    0.541555
   2 O :   -0.310670
   3 F :    0.052087
   4 O :   -0.261801
   5 H :    0.132129
   6 H :    0.121130
   7 H :    0.119879

  Mayer bond orders larger than 0.100000
B(  0-C ,  1-S ) :   0.9179 B(  0-C ,  5-H ) :   0.9470 B(  0-C ,  6-H ) :   0.9473
B(  0-C ,  7-H ) :   0.9459 B(  1-S ,  2-O ) :   1.8977 B(  1-S ,  3-F ) :   1.1143
B(  1-S ,  4-O ) :   1.9465

Dispersion correction           -0.001526802
FINAL SINGLE POINT ENERGY      -688.432919871534

DIPOLE MOMENT
-------------
                                X             Y             Z
Electronic contribution:      4.86332      -1.62944      -1.63795
Nuclear contribution   :     -5.44924       1.37171       3.19232
                        -----------------------------------------
Total Dipole Moment    :     -0.58592      -0.25773       1.55437
                        -----------------------------------------
Magnitude (a.u.)       :      1.68101
Magnitude (Debye)      :      4.27278

Rotational constants in cm-1:     0.163884     0.151426     0.145804
Rotational constants in MHz :  4913.124213  4539.628058  4371.086672

                             ****ORCA TERMINATED NORMALLY****
TOTAL RUN TIME: 0 days 0 hours 0 minutes 12 seconds 427 msec
