                         Program Version 5.0.0 -  RELEASE  -
|  1> !wB97X-D3 RIJCOSX def2-TZVP def2/J TightSCF
|  2> *xyz 0 1
|  3> C         -7.33044       -2.67899       -3.20681
|  4> S         -6.01966       -2.92697       -4.41913
|  5> O         -5.64583       -1.58838       -4.91931
|  6> O         -4.88196       -3.50370       -3.66724
|  7> F         -6.54927       -3.80515       -5.42507
|  8> H         -8.18867       -2.26077       -3.68996
|  9> H         -6.98921       -2.01038       -2.44430
| 10> H         -7.59151       -3.61862       -2.76655
| 11> *
| 12> %MaxCore 64000
| 13>
| 14> %pal nprocs 8
| 15> end
| 16>
| 17> %scf
| 18>   MaxIter 150
| 19> end
| 20>
| 21>
| 22>                          ****END OF INPUT****

CARTESIAN COORDINATES (ANGSTROEM)
---------------------------------
  C     -7.330440   -2.678990   -3.206810
  S     -6.019660   -2.926970   -4.419130
  O     -5.645830   -1.588380   -4.919310
  O     -4.881960   -3.503700   -3.667240
  F     -6.549270   -3.805150   -5.425070
  H     -8.188670   -2.260770   -3.689960
  H     -6.989210   -2.010380   -2.444300
  H     -7.591510   -3.618620   -2.766550

 Total Charge           Charge          ....    0
 Multiplicity           Mult            ....    1
 Number of Electrons    NEL             ....   50
 Basis Dimension        Dim             ....  179

ORBITAL ENERGIES
----------------

  NO   OCC          E(Eh)            E(eV)
   0   2.0000     -89.204176     -2427.3690
   1   2.0000     -24.914683      -677.9630
   2   2.0000     -19.237047      -523.4667
   3   2.0000     -19.234399      -523.3946
   4   2.0000     -10.337384      -281.2945
   5   2.0000      -8.266492      -224.9427
   6   2.0000      -6.223910      -169.3612
   7   2.0000      -6.217714      -169.1926
   8   2.0000      -6.217038      -169.1742
   9   2.0000      -1.509957       -41.0880
  10   2.0000      -1.210741       -32.9459
  11   2.0000      -1.111438       -30.2438
  12   2.0000      -0.920695       -25.0534
  13   2.0000      -0.832222       -22.6459
  14   2.0000      -0.713768       -19.4226
  15   2.0000      -0.699890       -19.0450
  16   2.0000      -0.662539       -18.0286
  17   2.0000      -0.581011       -15.8101
  18   2.0000      -0.574132       -15.6229
  19   2.0000      -0.566376       -15.4119
  20   2.0000      -0.531135       -14.4529
  21   2.0000      -0.479380       -13.0446
  22   2.0000      -0.428869       -11.6701
  23   2.0000      -0.421826       -11.4785
  24   2.0000      -0.396503       -10.7894
  25   0.0000       0.098706         2.6859
  26   0.0000       0.128765         3.5039
  27   0.0000       0.144377         3.9287
  28   0.0000       0.145147         3.9496
  29   0.0000       0.165924         4.5150

MULLIKEN ATOMIC CHARGES
-----------------------
   0 C :   -0.384456
   1 S :    0.865144
   2 O :   -0.442589
   3 O :   -0.448510
   4 F :   -0.089829
   5 H :    0.157577
   6 H :    0.182742
   7 H :    0.159920
Sum of atomic charges:    0.0000000

LOEWDIN ATOMIC CHARGES
----------------------
   0 C :   -0.394875
   1 S :    0.534822
   2 O :   -0.306494
   3 O :   -0.312356
   4 F :    0.105625
   5 H :    0.119227
   6 H :    0.133727
   7 H :    0.120323

  Mayer bond orders larger than 0.100000
B(  0-C ,  1-S ) :   0.9181 B(  0-C ,  5-H ) :   0.9456 B(  0-C ,  6-H ) :   0.9477
B(  0-C ,  7-H ) :   0.9456 B(  1-S ,  2-O ) :   1.8998 B(  1-S ,  3-O ) :   1.8939
B(  1-S ,  4-F ) :   1.1561

Dispersion correction           -0.001528595
FINAL SINGLE POINT ENERGY      -688.414642397750

DIPOLE MOMENT
-------------
                                X             Y             Z
Electronic contribution:      2.05689      -2.12404      -4.60287
Nuclear contribution   :     -3.78348       1.67287       4.94851
                        -----------------------------------------
Total Dipole Moment    :     -1.72660      -0.45116       0.34564
                        -----------------------------------------
Magnitude (a.u.)       :      1.81773
Magnitude (Debye)      :      4.62031

Rotational constants in cm-1:     0.163108     0.153882     0.144407
Rotational constants in MHz :  4889.859464  4613.257659  4329.207840

                             ****ORCA TERMINATED NORMALLY****
TOTAL RUN TIME: 0 days 0 hours 0 minutes 12 seconds 570 msec
