                         Program Version 5.0.0 -  RELEASE  -
|  1> !wB97X-D3 RIJCOSX def2-TZVP def2/J TightSCF xyzfile
|  2>
|  3> *xyzfile 0 1 D2.xyz
|  4>
|  5> %MaxCore 64000
|  6>
|  7> %pal nprocs 18
|  8> end
|  9>
| 10> %scf
| 11>   MaxIter 150
| 12> end
| 13>
| 14>
| 15>                          ****END OF INPUT****

CARTESIAN COORDINATES (ANGSTROEM)
---------------------------------
  C     -2.160376   -1.369486   -3.467104
  C     -3.030108   -1.910857   -4.541074
  C     -2.047717    0.146583   -3.511774
  C     -7.330440   -2.678991   -3.206811
  S     -6.019659   -2.926965   -4.419128
  H     -3.477443   -2.791513   -4.257096
  H     -2.538013   -2.017860   -5.438075
  H     -3.891589   -1.376039   -4.714365
  O     -5.645830   -1.588384   -4.919307
  F     -4.881961   -3.503697   -3.667235
  H     -1.184438   -1.843997   -3.566393
  H     -2.598195   -1.708376   -2.528477
  O     -6.549267   -3.805150   -5.425071
  C     -3.328755    0.875037   -3.103669
  H     -1.740034    0.452343   -4.517126
  H     -1.232611    0.434938   -2.842208
  C     -3.628487    0.771601   -1.609363
  H     -4.175106    0.490791   -3.682203
  H     -3.237812    1.928663   -3.381480
  C     -4.975718    1.361432   -1.190644
  H     -2.830700    1.276234   -1.054766
  H     -3.594312   -0.275838   -1.294603
  C     -6.184720    0.784347   -1.926464
  H     -4.956292    2.445725   -1.342200
  H     -5.097256    1.205252   -0.114136
  C     -6.286921   -0.735882   -1.893531
  H     -6.163994    1.100199   -2.974250
  H     -7.094530    1.223459   -1.504509
  C     -7.468999   -1.246153   -2.713833
  H     -6.360641   -1.090347   -0.859176
  H     -5.369848   -1.171853   -2.295982
  H     -7.601914   -0.601349   -3.585329
  H     -8.389791   -1.173436   -2.126922
  H     -7.118254   -3.379818   -2.398055
  H     -8.241838   -3.004745   -3.706513

 Total Charge           Charge          ....    0
 Multiplicity           Mult            ....    1
 Number of Electrons    NEL             ....  122
 Basis Dimension        Dim             ....  566

ORBITAL ENERGIES
----------------

  NO   OCC          E(Eh)            E(eV)
   0   2.0000     -89.199939     -2427.2538
   1   2.0000     -24.893894      -677.3973
   2   2.0000     -19.250995      -523.8462
   3   2.0000     -19.239308      -523.5282
   4   2.0000     -10.340682      -281.3843
   5   2.0000     -10.301709      -280.3238
   6   2.0000     -10.284092      -279.8444
   7   2.0000     -10.273937      -279.5680
   8   2.0000     -10.269029      -279.4345
   9   2.0000     -10.263033      -279.2713
  10   2.0000     -10.257467      -279.1199
  11   2.0000     -10.254598      -279.0418
  12   2.0000     -10.248129      -278.8658
  13   2.0000     -10.199128      -277.5324
  14   2.0000      -8.263524      -224.8619
  15   2.0000      -6.220955      -169.2808
  16   2.0000      -6.214519      -169.1057
  17   2.0000      -6.214037      -169.0926
  18   2.0000      -1.479874       -40.2694
  19   2.0000      -1.231271       -33.5046
  20   2.0000      -1.135308       -30.8933
  21   2.0000      -0.960828       -26.1455
  22   2.0000      -0.931492       -25.3472
  23   2.0000      -0.904092       -24.6016
  24   2.0000      -0.876585       -23.8531
  25   2.0000      -0.834689       -22.7130
  26   2.0000      -0.819250       -22.2929
  27   2.0000      -0.780006       -21.2251
  28   2.0000      -0.745569       -20.2880
  29   2.0000      -0.730635       -19.8816
  30   2.0000      -0.689466       -18.7613
  31   2.0000      -0.683500       -18.5990
  32   2.0000      -0.679633       -18.4937
  33   2.0000      -0.663887       -18.0653
  34   2.0000      -0.651269       -17.7219
  35   2.0000      -0.606422       -16.5016
  36   2.0000      -0.587763       -15.9938
  37   2.0000      -0.578357       -15.7379
  38   2.0000      -0.572136       -15.5686
  39   2.0000      -0.564159       -15.3515
  40   2.0000      -0.544895       -14.8273
  41   2.0000      -0.532500       -14.4901
  42   2.0000      -0.530156       -14.4263
  43   2.0000      -0.525738       -14.3061
  44   2.0000      -0.504572       -13.7301
  45   2.0000      -0.496891       -13.5211
  46   2.0000      -0.485785       -13.2189
  47   2.0000      -0.478614       -13.0238
  48   2.0000      -0.469626       -12.7792
  49   2.0000      -0.459446       -12.5022
  50   2.0000      -0.452329       -12.3085
  51   2.0000      -0.439492       -11.9592
  52   2.0000      -0.432125       -11.7587
  53   2.0000      -0.427274       -11.6267
  54   2.0000      -0.422471       -11.4960
  55   2.0000      -0.418983       -11.4011
  56   2.0000      -0.410582       -11.1725
  57   2.0000      -0.404923       -11.0185
  58   2.0000      -0.393210       -10.6998
  59   2.0000      -0.390864       -10.6360
  60   2.0000      -0.378123       -10.2893
  61   0.0000       0.096954         2.6383
  62   0.0000       0.104587         2.8459
  63   0.0000       0.119591         3.2542
  64   0.0000       0.122882         3.3438
  65   0.0000       0.133215         3.6250

MULLIKEN ATOMIC CHARGES
-----------------------
   0 C :   -0.160702
   1 C :   -0.438702
   2 C :   -0.123075
   3 C :   -0.298100
   4 S :    0.917243
   5 H :    0.095401
   6 H :    0.115849
   7 H :    0.158442
   8 O :   -0.458924
   9 F :   -0.119303
  10 H :    0.094239
  11 H :    0.076440
  12 O :   -0.422212
  13 C :   -0.258616
  14 H :    0.100039
  15 H :    0.086999
  16 C :   -0.241959
  17 H :    0.129261
  18 H :    0.101787
  19 C :   -0.154699
  20 H :    0.107971
  21 H :    0.105618
  22 C :   -0.235447
  23 H :    0.104288
  24 H :    0.101723
  25 C :   -0.278547
  26 H :    0.131633
  27 H :    0.108035
  28 C :   -0.146702
  29 H :    0.110551
  30 H :    0.090079
  31 H :    0.139464
  32 H :    0.125212
  33 H :    0.151020
  34 H :    0.185694
Sum of atomic charges:    0.0000000

LOEWDIN ATOMIC CHARGES
----------------------
   0 C :   -0.302214
   1 C :   -0.335751
   2 C :   -0.265061
   3 C :   -0.359632
   4 S :    0.576502
   5 H :    0.092476
   6 H :    0.105144
   7 H :    0.103730
   8 O :   -0.274863
   9 F :    0.067840
  10 H :    0.132625
  11 H :    0.127240
  12 O :   -0.254691
  13 C :   -0.264618
  14 H :    0.136529
  15 H :    0.133048
  16 C :   -0.270502
  17 H :    0.137662
  18 H :    0.134808
  19 C :   -0.267914
  20 H :    0.136027
  21 H :    0.130498
  22 C :   -0.269421
  23 H :    0.137116
  24 H :    0.134878
  25 C :   -0.269882
  26 H :    0.140067
  27 H :    0.136437
  28 C :   -0.281147
  29 H :    0.135844
  30 H :    0.133133
  31 H :    0.149425
  32 H :    0.144489
  33 H :    0.139661
  34 H :    0.150519

  Mayer bond orders larger than 0.100000
B(  0-C ,  1-C ) :   0.9342 B(  0-C ,  2-C ) :   0.9653 B(  0-C , 10-H ) :   0.9790
B(  0-C , 11-H ) :   0.9988 B(  1-C ,  5-H ) :   0.9895 B(  1-C ,  6-H ) :   0.9740
B(  1-C ,  7-H ) :   0.9881 B(  2-C , 13-C ) :   0.9810 B(  2-C , 14-H ) :   0.9718
B(  2-C , 15-H ) :   0.9794 B(  3-C ,  4-S ) :   0.9076 B(  3-C , 28-C ) :   0.9565
B(  3-C , 33-H ) :   0.9493 B(  3-C , 34-H ) :   0.9489 B(  4-S ,  8-O ) :   1.7964
B(  4-S ,  9-F ) :   1.0800 B(  4-S , 12-O ) :   1.9693 B( 13-C , 16-C ) :   0.9468
B( 13-C , 17-H ) :   0.9871 B( 13-C , 18-H ) :   0.9705 B( 16-C , 19-C ) :   0.9666
B( 16-C , 20-H ) :   0.9707 B( 16-C , 21-H ) :   0.9920 B( 19-C , 22-C ) :   0.9741
B( 19-C , 23-H ) :   0.9806 B( 19-C , 24-H ) :   0.9834 B( 22-C , 25-C ) :   0.9575
B( 22-C , 26-H ) :   0.9854 B( 22-C , 27-H ) :   0.9748 B( 25-C , 28-C ) :   0.9556
B( 25-C , 29-H ) :   0.9606 B( 25-C , 30-H ) :   0.9926 B( 28-C , 31-H ) :   0.9735
B( 28-C , 32-H ) :   0.9539

Dispersion correction           -0.018521771
FINAL SINGLE POINT ENERGY     -1042.242808310303

DIPOLE MOMENT
-------------
                                X             Y             Z
Electronic contribution:     -9.53873     -19.53077     -11.08940
Nuclear contribution   :      8.71934      19.48829      12.54264
                        -----------------------------------------
Total Dipole Moment    :     -0.81940      -0.04249       1.45323
                        -----------------------------------------
Magnitude (a.u.)       :      1.66886
Magnitude (Debye)      :      4.24192

Rotational constants in cm-1:     0.025810     0.015137     0.010647
Rotational constants in MHz :   773.773140   453.802427   319.195213

                             ****ORCA TERMINATED NORMALLY****
TOTAL RUN TIME: 0 days 0 hours 1 minutes 48 seconds 299 msec
