                         Program Version 5.0.0 -  RELEASE  -
|  1> !LC-PBE RIJCOSX def2-SVPD def2/J TightSCF
|  2> *xyz -1 1
|  3> C         -5.57236       -5.80780       -0.81644
|  4> S         -6.90318       -4.61903       -0.52846
|  5> O         -8.11485       -5.25093       -0.95701
|  6> O         -6.53271       -3.42684       -1.31485
|  7> O         -6.86563       -4.29496        0.91412
|  8> C         -4.45780       -5.94187        0.22919
|  9> H         -5.17735       -5.54257       -1.79771
| 10> H         -6.07420       -6.76889       -0.92127
| 11> H         -3.75515       -6.68239       -0.09144
| 12> H         -4.88182       -6.23486        1.16689
| 13> H         -3.95908       -5.00189        0.34143
| 14> *
| 15> %MaxCore 64000
| 16>
| 17> %pal nprocs 4
| 18> end
| 19>
| 20> %scf
| 21>   MaxIter 150
| 22> end
| 23>
| 24>                          ****END OF INPUT****

CARTESIAN COORDINATES (ANGSTROEM)
---------------------------------
  C     -5.572360   -5.807800   -0.816440
  S     -6.903180   -4.619030   -0.528460
  O     -8.114850   -5.250930   -0.957010
  O     -6.532710   -3.426840   -1.314850
  O     -6.865630   -4.294960    0.914120
  C     -4.457800   -5.941870    0.229190
  H     -5.177350   -5.542570   -1.797710
  H     -6.074200   -6.768890   -0.921270
  H     -3.755150   -6.682390   -0.091440
  H     -4.881820   -6.234860    1.166890
  H     -3.959080   -5.001890    0.341430

 Total Charge           Charge          ....   -1
 Multiplicity           Mult            ....    1
 Number of Electrons    NEL             ....   58
 Basis Dimension        Dim             ....  176

ORBITAL ENERGIES
----------------

  NO   OCC          E(Eh)            E(eV)
   0   2.0000     -88.315415     -2403.1846
   1   2.0000     -18.779587      -511.0185
   2   2.0000     -18.764691      -510.6132
   3   2.0000     -18.764066      -510.5962
   4   2.0000      -9.997178      -272.0371
   5   2.0000      -9.990854      -271.8650
   6   2.0000      -7.937174      -215.9815
   7   2.0000      -5.959473      -162.1655
   8   2.0000      -5.959418      -162.1640
   9   2.0000      -5.959157      -162.1569
  10   2.0000      -1.108195       -30.1555
  11   2.0000      -0.952820       -25.9276
  12   2.0000      -0.928153       -25.2563
  13   2.0000      -0.810010       -22.0415
  14   2.0000      -0.676799       -18.4166
  15   2.0000      -0.535832       -14.5807
  16   2.0000      -0.470069       -12.7912
  17   2.0000      -0.468639       -12.7523
  18   2.0000      -0.427187       -11.6243
  19   2.0000      -0.410771       -11.1776
  20   2.0000      -0.406388       -11.0584
  21   2.0000      -0.366984        -9.9861
  22   2.0000      -0.356956        -9.7133
  23   2.0000      -0.292625        -7.9627
  24   2.0000      -0.291756        -7.9391
  25   2.0000      -0.252221        -6.8633
  26   2.0000      -0.237458        -6.4616
  27   2.0000      -0.236640        -6.4393
  28   2.0000      -0.197290        -5.3685
  29   0.0000       0.202566         5.5121
  30   0.0000       0.225438         6.1345
  31   0.0000       0.228860         6.2276
  32   0.0000       0.235697         6.4136
  33   0.0000       0.256039         6.9672

MULLIKEN ATOMIC CHARGES
-----------------------
   0 C :   -0.496572
   1 S :    1.194890
   2 O :   -0.733798
   3 O :   -0.791664
   4 O :   -0.801526
   5 C :    0.497751
   6 H :    0.062197
   7 H :    0.075512
   8 H :   -0.027861
   9 H :    0.020435
  10 H :    0.000636
Sum of atomic charges:   -1.0000000

LOEWDIN ATOMIC CHARGES
----------------------
   0 C :   -0.146180
   1 S :    0.849445
   2 O :   -0.570291
   3 O :   -0.598822
   4 O :   -0.591332
   5 C :    0.073068
   6 H :    0.011868
   7 H :    0.006163
   8 H :   -0.020903
   9 H :   -0.009663
  10 H :   -0.003354

  Mayer bond orders larger than 0.100000
B(  0-C ,  1-S ) :   0.9161 B(  0-C ,  5-C ) :   1.2913 B(  0-C ,  6-H ) :   0.9803
B(  0-C ,  7-H ) :   0.9835 B(  0-C ,  8-H ) :   0.1609 B(  0-C ,  9-H ) :   0.1665
B(  0-C , 10-H ) :   0.1579 B(  1-S ,  2-O ) :   1.3847 B(  1-S ,  3-O ) :   1.3185
B(  1-S ,  4-O ) :   1.3169 B(  5-C ,  8-H ) :   0.8155 B(  5-C ,  9-H ) :   0.8494
B(  5-C , 10-H ) :   0.8615

FINAL SINGLE POINT ENERGY      -701.573273507456

DIPOLE MOMENT
-------------
                                X             Y             Z
Electronic contribution:     -6.55689       4.19739      -0.93663
Nuclear contribution   :      8.13140      -5.68016       0.80206
                        -----------------------------------------
Total Dipole Moment    :      1.57452      -1.48277      -0.13457
                        -----------------------------------------
Magnitude (a.u.)       :      2.16699
Magnitude (Debye)      :      5.50804

Rotational constants in cm-1:     0.162101     0.080498     0.079099
Rotational constants in MHz :  4859.669771  2413.267251  2371.338602

                             ****ORCA TERMINATED NORMALLY****
TOTAL RUN TIME: 0 days 0 hours 0 minutes 23 seconds 199 msec
