                         Program Version 5.0.0 -  RELEASE  -
|  1> !LC-PBE RIJCOSX def2-SVPD def2/J TightSCF
|  2> *xyz 1 1
|  3> C         -4.38262       -1.67089        1.21620
|  4> N         -5.76354       -1.91517        0.70501
|  5> C         -3.28173       -2.19127        0.29436
|  6> H         -5.84081       -2.11520       -0.30065
|  7> H         -6.40882       -1.14866        0.93612
|  8> H         -6.17478       -2.79061        1.05143
|  9> H         -4.32862       -2.13922        2.19810
| 10> H         -4.26158       -0.59740        1.35725
| 11> H         -3.36057       -1.71407       -0.66008
| 12> H         -3.38775       -3.24919        0.17403
| 13> H         -2.32559       -1.97514        0.72329
| 14> *
| 15> %MaxCore 64000
| 16>
| 17> %pal nprocs 4
| 18> end
| 19>
| 20> %scf
| 21>   MaxIter 150
| 22> end
| 23>
| 24>                          ****END OF INPUT****

CARTESIAN COORDINATES (ANGSTROEM)
---------------------------------
  C     -4.382620   -1.670890    1.216200
  N     -5.763540   -1.915170    0.705010
  C     -3.281730   -2.191270    0.294360
  H     -5.840810   -2.115200   -0.300650
  H     -6.408820   -1.148660    0.936120
  H     -6.174780   -2.790610    1.051430
  H     -4.328620   -2.139220    2.198100
  H     -4.261580   -0.597400    1.357250
  H     -3.360570   -1.714070   -0.660080
  H     -3.387750   -3.249190    0.174030
  H     -2.325590   -1.975140    0.723290

 Total Charge           Charge          ....    1
 Multiplicity           Mult            ....    1
 Number of Electrons    NEL             ....   26
 Basis Dimension        Dim             ....  124

ORBITAL ENERGIES
----------------

  NO   OCC          E(Eh)            E(eV)
   0   2.0000     -14.566269      -396.3683
   1   2.0000     -10.382886      -282.5327
   2   2.0000     -10.300547      -280.2921
   3   2.0000      -1.382377       -37.6164
   4   2.0000      -1.135820       -30.9072
   5   2.0000      -1.008420       -27.4405
   6   2.0000      -0.946446       -25.7541
   7   2.0000      -0.924948       -25.1691
   8   2.0000      -0.846813       -23.0430
   9   2.0000      -0.782519       -21.2934
  10   2.0000      -0.718927       -19.5630
  11   2.0000      -0.699814       -19.0429
  12   2.0000      -0.678248       -18.4561
  13   0.0000      -0.109566        -2.9815
  14   0.0000      -0.054479        -1.4824
  15   0.0000      -0.049478        -1.3464
  16   0.0000      -0.042545        -1.1577
  17   0.0000      -0.012511        -0.3404

MULLIKEN ATOMIC CHARGES
-----------------------
   0 C :    0.027188
   1 N :   -0.834288
   2 C :    0.296385
   3 H :    0.410271
   4 H :    0.419701
   5 H :    0.399912
   6 H :    0.035731
   7 H :    0.068665
   8 H :    0.033121
   9 H :    0.064256
  10 H :    0.079057
Sum of atomic charges:    1.0000000

LOEWDIN ATOMIC CHARGES
----------------------
   0 C :    0.039085
   1 N :    0.311297
   2 C :    0.136127
   3 H :    0.112271
   4 H :    0.118344
   5 H :    0.114922
   6 H :    0.061179
   7 H :    0.060709
   8 H :    0.010698
   9 H :    0.010709
  10 H :    0.024658

  Mayer bond orders larger than 0.100000
B(  0-C ,  1-N ) :   0.7351 B(  0-C ,  2-C ) :   1.3340 B(  0-C ,  6-H ) :   0.9506
B(  0-C ,  7-H ) :   0.9452 B(  0-C ,  8-H ) :   0.1332 B(  0-C ,  9-H ) :   0.1185
B(  0-C , 10-H ) :   0.1370 B(  1-N ,  3-H ) :   0.7401 B(  1-N ,  4-H ) :   0.7401
B(  1-N ,  5-H ) :   0.7835 B(  2-C ,  8-H ) :   0.8783 B(  2-C ,  9-H ) :   0.8645
B(  2-C , 10-H ) :   0.8763

FINAL SINGLE POINT ENERGY      -134.988467390612

DIPOLE MOMENT
-------------
                                X             Y             Z
Electronic contribution:     -1.83726       0.23750       0.30507
Nuclear contribution   :      0.19437      -0.25358      -0.32106
                        -----------------------------------------
Total Dipole Moment    :     -1.64290      -0.01608      -0.01599
                        -----------------------------------------
Magnitude (a.u.)       :      1.64305
Magnitude (Debye)      :      4.17631

Rotational constants in cm-1:     1.030014     0.272489     0.242697
Rotational constants in MHz : 30879.030706  8169.007780  7275.865152

                             ****ORCA TERMINATED NORMALLY****
TOTAL RUN TIME: 0 days 0 hours 0 minutes 13 seconds 676 msec
