                         Program Version 5.0.0 -  RELEASE  -
|  1> !LC-PBE RIJCOSX def2-SVPD def2/J TightSCF
|  2> *xyz 0 1
|  3> C         -5.57236       -5.80780       -0.81644
|  4> S         -6.90318       -4.61903       -0.52846
|  5> F         -8.11485       -5.25093       -0.95701
|  6> O         -6.53271       -3.42684       -1.31485
|  7> O         -6.86563       -4.29496        0.91412
|  8> C         -4.45780       -5.94187        0.22919
|  9> H         -5.17735       -5.54257       -1.79771
| 10> H         -6.07420       -6.76889       -0.92127
| 11> H         -3.75515       -6.68239       -0.09144
| 12> H         -4.88182       -6.23486        1.16689
| 13> H         -3.95908       -5.00189        0.34143
| 14> *
| 15> %MaxCore 64000
| 16>
| 17> %pal nprocs 4
| 18> end
| 19>
| 20> %scf
| 21>   MaxIter 150
| 22> end
| 23>
| 24>                          ****END OF INPUT****

CARTESIAN COORDINATES (ANGSTROEM)
---------------------------------
  C     -5.572360   -5.807800   -0.816440
  S     -6.903180   -4.619030   -0.528460
  F     -8.114850   -5.250930   -0.957010
  O     -6.532710   -3.426840   -1.314850
  O     -6.865630   -4.294960    0.914120
  C     -4.457800   -5.941870    0.229190
  H     -5.177350   -5.542570   -1.797710
  H     -6.074200   -6.768890   -0.921270
  H     -3.755150   -6.682390   -0.091440
  H     -4.881820   -6.234860    1.166890
  H     -3.959080   -5.001890    0.341430

 Total Charge           Charge          ....    0
 Multiplicity           Mult            ....    1
 Number of Electrons    NEL             ....   58
 Basis Dimension        Dim             ....  176

ORBITAL ENERGIES
----------------

  NO   OCC          E(Eh)            E(eV)
   0   2.0000     -88.578059     -2410.3315
   1   2.0000     -24.639345      -670.4707
   2   2.0000     -19.000246      -517.0230
   3   2.0000     -19.000145      -517.0202
   4   2.0000     -10.200828      -277.5786
   5   2.0000     -10.151911      -276.2475
   6   2.0000      -8.200720      -223.1529
   7   2.0000      -6.227885      -169.4694
   8   2.0000      -6.220381      -169.2652
   9   2.0000      -6.219292      -169.2355
  10   2.0000      -1.553885       -42.2833
  11   2.0000      -1.272978       -34.6395
  12   2.0000      -1.161180       -31.5973
  13   2.0000      -1.001857       -27.2619
  14   2.0000      -0.907548       -24.6956
  15   2.0000      -0.847232       -23.0544
  16   2.0000      -0.756811       -20.5939
  17   2.0000      -0.753966       -20.5165
  18   2.0000      -0.710750       -19.3405
  19   2.0000      -0.645503       -17.5650
  20   2.0000      -0.633024       -17.2255
  21   2.0000      -0.590851       -16.0779
  22   2.0000      -0.573623       -15.6091
  23   2.0000      -0.547365       -14.8946
  24   2.0000      -0.530119       -14.4253
  25   2.0000      -0.523833       -14.2542
  26   2.0000      -0.464713       -12.6455
  27   2.0000      -0.458731       -12.4827
  28   2.0000      -0.439222       -11.9518
  29   0.0000       0.061375         1.6701
  30   0.0000       0.082496         2.2448
  31   0.0000       0.091494         2.4897
  32   0.0000       0.096439         2.6242
  33   0.0000       0.118317         3.2196

MULLIKEN ATOMIC CHARGES
-----------------------
   0 C :   -0.538116
   1 S :    1.367297
   2 F :   -0.344531
   3 O :   -0.649509
   4 O :   -0.660251
   5 C :    0.476012
   6 H :    0.115581
   7 H :    0.128428
   8 H :    0.020079
   9 H :    0.051324
  10 H :    0.033686
Sum of atomic charges:   -0.0000000

LOEWDIN ATOMIC CHARGES
----------------------
   0 C :   -0.109377
   1 S :    1.113882
   2 F :   -0.240019
   3 O :   -0.482756
   4 O :   -0.479599
   5 C :    0.115385
   6 H :    0.033179
   7 H :    0.023179
   8 H :    0.007431
   9 H :    0.005806
  10 H :    0.012888

  Mayer bond orders larger than 0.100000
B(  0-C ,  1-S ) :   0.9649 B(  0-C ,  5-C ) :   1.3450 B(  0-C ,  6-H ) :   0.9746
B(  0-C ,  7-H ) :   0.9407 B(  0-C ,  8-H ) :   0.1540 B(  0-C ,  9-H ) :   0.1617
B(  0-C , 10-H ) :   0.1484 B(  1-S ,  2-F ) :   0.7494 B(  1-S ,  3-O ) :   1.5351
B(  1-S ,  4-O ) :   1.5281 B(  5-C ,  8-H ) :   0.8182 B(  5-C ,  9-H ) :   0.8462
B(  5-C , 10-H ) :   0.8638

FINAL SINGLE POINT ENERGY      -726.021596201574

DIPOLE MOMENT
-------------
                                X             Y             Z
Electronic contribution:     -9.34532       3.46871      -1.89172
Nuclear contribution   :      9.80704      -5.24335       1.35017
                        -----------------------------------------
Total Dipole Moment    :      0.46171      -1.77463      -0.54155
                        -----------------------------------------
Magnitude (a.u.)       :      1.91201
Magnitude (Debye)      :      4.85994

Rotational constants in cm-1:     0.156316     0.078308     0.076228
Rotational constants in MHz :  4686.224999  2347.601204  2285.245115

                             ****ORCA TERMINATED NORMALLY****
TOTAL RUN TIME: 0 days 0 hours 0 minutes 22 seconds 417 msec
