                         Program Version 5.0.0 -  RELEASE  -
|  1> !LC-PBE RIJCOSX def2-SVPD def2/J TightSCF
|  2> *xyz 0 1
|  3> C         -4.38262       -1.67089        1.21620
|  4> C         -5.76354       -1.91517        0.70501
|  5> C         -3.28173       -2.19127        0.29436
|  6> H         -5.84081       -2.11520       -0.30065
|  7> H         -6.40882       -1.14866        0.93612
|  8> H         -6.17478       -2.79061        1.05143
|  9> H         -4.32862       -2.13922        2.19810
| 10> H         -4.26158       -0.59740        1.35725
| 11> H         -3.36057       -1.71407       -0.66008
| 12> H         -3.38775       -3.24919        0.17403
| 13> H         -2.32559       -1.97514        0.72329
| 14> *
| 15> %MaxCore 64000
| 16>
| 17> %pal nprocs 4
| 18> end
| 19>
| 20> %scf
| 21>   MaxIter 150
| 22> end
| 23>
| 24>                          ****END OF INPUT****

CARTESIAN COORDINATES (ANGSTROEM)
---------------------------------
  C     -4.382620   -1.670890    1.216200
  C     -5.763540   -1.915170    0.705010
  C     -3.281730   -2.191270    0.294360
  H     -5.840810   -2.115200   -0.300650
  H     -6.408820   -1.148660    0.936120
  H     -6.174780   -2.790610    1.051430
  H     -4.328620   -2.139220    2.198100
  H     -4.261580   -0.597400    1.357250
  H     -3.360570   -1.714070   -0.660080
  H     -3.387750   -3.249190    0.174030
  H     -2.325590   -1.975140    0.723290

 Total Charge           Charge          ....    0
 Multiplicity           Mult            ....    1
 Number of Electrons    NEL             ....   26
 Basis Dimension        Dim             ....  124

ORBITAL ENERGIES
----------------

  NO   OCC          E(Eh)            E(eV)
   0   2.0000     -10.115343      -275.2525
   1   2.0000     -10.104917      -274.9688
   2   2.0000     -10.086879      -274.4779
   3   2.0000      -0.962061       -26.1790
   4   2.0000      -0.855897       -23.2902
   5   2.0000      -0.744964       -20.2715
   6   2.0000      -0.610045       -16.6002
   7   2.0000      -0.586649       -15.9635
   8   2.0000      -0.549500       -14.9527
   9   2.0000      -0.521342       -14.1864
  10   2.0000      -0.471041       -12.8177
  11   2.0000      -0.463915       -12.6238
  12   2.0000      -0.447613       -12.1802
  13   0.0000       0.095922         2.6102
  14   0.0000       0.121600         3.3089
  15   0.0000       0.129349         3.5198
  16   0.0000       0.164357         4.4724
  17   0.0000       0.185534         5.0486

MULLIKEN ATOMIC CHARGES
-----------------------
   0 C :   -0.647183
   1 C :    0.647697
   2 C :    0.384781
   3 H :   -0.214973
   4 H :   -0.080826
   5 H :   -0.110252
   6 H :   -0.039369
   7 H :    0.018218
   8 H :    0.035948
   9 H :   -0.000814
  10 H :    0.006773
Sum of atomic charges:   -0.0000000

LOEWDIN ATOMIC CHARGES
----------------------
   0 C :   -0.130150
   1 C :    0.083541
   2 C :    0.082219
   3 H :   -0.026585
   4 H :   -0.021427
   5 H :   -0.024447
   6 H :    0.029584
   7 H :    0.028901
   8 H :   -0.005499
   9 H :   -0.005295
  10 H :   -0.010841

  Mayer bond orders larger than 0.100000
B(  0-C ,  1-C ) :   1.3045 B(  0-C ,  2-C ) :   1.2687 B(  0-C ,  3-H ) :   0.1507
B(  0-C ,  4-H ) :   0.1547 B(  0-C ,  5-H ) :   0.1882 B(  0-C ,  6-H ) :   0.9705
B(  0-C ,  7-H ) :   0.9583 B(  0-C ,  8-H ) :   0.1223 B(  0-C ,  9-H ) :   0.1417
B(  0-C , 10-H ) :   0.1665 B(  1-C ,  3-H ) :   0.7505 B(  1-C ,  4-H ) :   0.7999
B(  1-C ,  5-H ) :   0.7059 B(  2-C ,  8-H ) :   0.8701 B(  2-C ,  9-H ) :   0.8774
B(  2-C , 10-H ) :   0.8434 B(  3-H ,  5-H ) :   0.2683

FINAL SINGLE POINT ENERGY      -118.610450856238

DIPOLE MOMENT
-------------
                                X             Y             Z
Electronic contribution:      0.18226       0.23474       0.33798
Nuclear contribution   :     -0.21528      -0.24783      -0.32864
                        -----------------------------------------
Total Dipole Moment    :     -0.03301      -0.01309       0.00933
                        -----------------------------------------
Magnitude (a.u.)       :      0.03672
Magnitude (Debye)      :      0.09333

Rotational constants in cm-1:     1.037566     0.286459     0.254172
Rotational constants in MHz : 31105.431429  8587.814531  7619.871198

                             ****ORCA TERMINATED NORMALLY****
TOTAL RUN TIME: 0 days 0 hours 0 minutes 14 seconds 149 msec
