                         Program Version 5.0.0 -  RELEASE  -
|  1> !LC-PBE RIJCOSX def2-SVPD def2/J TightSCF
|  2> *xyz 0 1
|  3> C         -5.57236       -5.80780       -0.81644
|  4> S         -6.90318       -4.61903       -0.52846
|  5> O         -8.11485       -5.25093       -0.95701
|  6> F         -6.53271       -3.42684       -1.31485
|  7> O         -6.86563       -4.29496        0.91412
|  8> C         -4.45780       -5.94187        0.22919
|  9> H         -5.17735       -5.54257       -1.79771
| 10> H         -6.07420       -6.76889       -0.92127
| 11> H         -3.75515       -6.68239       -0.09144
| 12> H         -4.88182       -6.23486        1.16689
| 13> H         -3.95908       -5.00189        0.34143
| 14> *
| 15> %MaxCore 64000
| 16>
| 17> %pal nprocs 4
| 18> end
| 19>
| 20> %scf
| 21>   MaxIter 150
| 22> end
| 23>
| 24>                          ****END OF INPUT****

CARTESIAN COORDINATES (ANGSTROEM)
---------------------------------
  C     -5.572360   -5.807800   -0.816440
  S     -6.903180   -4.619030   -0.528460
  O     -8.114850   -5.250930   -0.957010
  F     -6.532710   -3.426840   -1.314850
  O     -6.865630   -4.294960    0.914120
  C     -4.457800   -5.941870    0.229190
  H     -5.177350   -5.542570   -1.797710
  H     -6.074200   -6.768890   -0.921270
  H     -3.755150   -6.682390   -0.091440
  H     -4.881820   -6.234860    1.166890
  H     -3.959080   -5.001890    0.341430

 Total Charge           Charge          ....    0
 Multiplicity           Mult            ....    1
 Number of Electrons    NEL             ....   58
 Basis Dimension        Dim             ....  176

ORBITAL ENERGIES
----------------

  NO   OCC          E(Eh)            E(eV)
   0   2.0000     -88.576064     -2410.2772
   1   2.0000     -24.616723      -669.8551
   2   2.0000     -19.015485      -517.4377
   3   2.0000     -18.999849      -517.0122
   4   2.0000     -10.199932      -277.5543
   5   2.0000     -10.151661      -276.2407
   6   2.0000      -8.198580      -223.0947
   7   2.0000      -6.225583      -169.4067
   8   2.0000      -6.218458      -169.2129
   9   2.0000      -6.217368      -169.1832
  10   2.0000      -1.516861       -41.2759
  11   2.0000      -1.288634       -35.0655
  12   2.0000      -1.177476       -32.0408
  13   2.0000      -1.001581       -27.2544
  14   2.0000      -0.893902       -24.3243
  15   2.0000      -0.838435       -22.8150
  16   2.0000      -0.741139       -20.1674
  17   2.0000      -0.728579       -19.8256
  18   2.0000      -0.706254       -19.2181
  19   2.0000      -0.644733       -17.5441
  20   2.0000      -0.632630       -17.2147
  21   2.0000      -0.604354       -16.4453
  22   2.0000      -0.576829       -15.6963
  23   2.0000      -0.544708       -14.8222
  24   2.0000      -0.543714       -14.7952
  25   2.0000      -0.522582       -14.2202
  26   2.0000      -0.476766       -12.9735
  27   2.0000      -0.463327       -12.6078
  28   2.0000      -0.452414       -12.3108
  29   0.0000       0.062731         1.7070
  30   0.0000       0.085536         2.3276
  31   0.0000       0.092947         2.5292
  32   0.0000       0.095302         2.5933
  33   0.0000       0.118663         3.2290

MULLIKEN ATOMIC CHARGES
-----------------------
   0 C :   -0.536875
   1 S :    1.362433
   2 O :   -0.603434
   3 F :   -0.380608
   4 O :   -0.668967
   5 C :    0.499609
   6 H :    0.110194
   7 H :    0.133764
   8 H :    0.018390
   9 H :    0.051172
  10 H :    0.014322
Sum of atomic charges:   -0.0000000

LOEWDIN ATOMIC CHARGES
----------------------
   0 C :   -0.104233
   1 S :    1.109987
   2 O :   -0.457156
   3 F :   -0.261969
   4 O :   -0.478709
   5 C :    0.108178
   6 H :    0.028479
   7 H :    0.035181
   8 H :    0.006126
   9 H :    0.007143
  10 H :    0.006972

  Mayer bond orders larger than 0.100000
B(  0-C ,  1-S ) :   0.9765 B(  0-C ,  5-C ) :   1.3338 B(  0-C ,  6-H ) :   0.9477
B(  0-C ,  7-H ) :   0.9764 B(  0-C ,  8-H ) :   0.1563 B(  0-C ,  9-H ) :   0.1603
B(  0-C , 10-H ) :   0.1523 B(  1-S ,  2-O ) :   1.5995 B(  1-S ,  3-F ) :   0.6875
B(  1-S ,  4-O ) :   1.5344 B(  5-C ,  8-H ) :   0.8167 B(  5-C ,  9-H ) :   0.8507
B(  5-C , 10-H ) :   0.8605

FINAL SINGLE POINT ENERGY      -726.041451170403

DIPOLE MOMENT
-------------
                                X             Y             Z
Electronic contribution:     -6.62341       6.62343      -2.52830
Nuclear contribution   :      8.15840      -7.14411       1.72305
                        -----------------------------------------
Total Dipole Moment    :      1.53499      -0.52068      -0.80524
                        -----------------------------------------
Magnitude (a.u.)       :      1.80989
Magnitude (Debye)      :      4.60038

Rotational constants in cm-1:     0.153926     0.078297     0.077402
Rotational constants in MHz :  4614.585804  2347.272644  2320.438903

                             ****ORCA TERMINATED NORMALLY****
TOTAL RUN TIME: 0 days 0 hours 0 minutes 22 seconds 173 msec
