                         Program Version 5.0.0 -  RELEASE  -
|  1> !LC-PBE RIJCOSX def2-SVPD def2/J TightSCF
|  2> *xyz 0 1
|  3> C         -5.57236       -5.80780       -0.81644
|  4> S         -6.90318       -4.61903       -0.52846
|  5> O         -8.11485       -5.25093       -0.95701
|  6> O         -6.53271       -3.42684       -1.31485
|  7> F         -6.86563       -4.29496        0.91412
|  8> C         -4.45780       -5.94187        0.22919
|  9> H         -5.17735       -5.54257       -1.79771
| 10> H         -6.07420       -6.76889       -0.92127
| 11> H         -3.75515       -6.68239       -0.09144
| 12> H         -4.88182       -6.23486        1.16689
| 13> H         -3.95908       -5.00189        0.34143
| 14> *
| 15> %MaxCore 64000
| 16>
| 17> %pal nprocs 4
| 18> end
| 19>
| 20> %scf
| 21>   MaxIter 150
| 22> end
| 23>
| 24>                          ****END OF INPUT****

CARTESIAN COORDINATES (ANGSTROEM)
---------------------------------
  C     -5.572360   -5.807800   -0.816440
  S     -6.903180   -4.619030   -0.528460
  O     -8.114850   -5.250930   -0.957010
  O     -6.532710   -3.426840   -1.314850
  F     -6.865630   -4.294960    0.914120
  C     -4.457800   -5.941870    0.229190
  H     -5.177350   -5.542570   -1.797710
  H     -6.074200   -6.768890   -0.921270
  H     -3.755150   -6.682390   -0.091440
  H     -4.881820   -6.234860    1.166890
  H     -3.959080   -5.001890    0.341430

 Total Charge           Charge          ....    0
 Multiplicity           Mult            ....    1
 Number of Electrons    NEL             ....   58
 Basis Dimension        Dim             ....  176

ORBITAL ENERGIES
----------------

  NO   OCC          E(Eh)            E(eV)
   0   2.0000     -88.575564     -2410.2636
   1   2.0000     -24.615388      -669.8188
   2   2.0000     -19.015188      -517.4296
   3   2.0000     -18.999224      -516.9952
   4   2.0000     -10.199129      -277.5324
   5   2.0000     -10.159251      -276.4473
   6   2.0000      -8.198082      -223.0811
   7   2.0000      -6.225160      -169.3952
   8   2.0000      -6.218016      -169.2008
   9   2.0000      -6.216777      -169.1671
  10   2.0000      -1.513809       -41.1928
  11   2.0000      -1.289283       -35.0832
  12   2.0000      -1.178237       -32.0615
  13   2.0000      -1.004625       -27.3372
  14   2.0000      -0.890271       -24.2255
  15   2.0000      -0.843412       -22.9504
  16   2.0000      -0.747454       -20.3393
  17   2.0000      -0.727620       -19.7995
  18   2.0000      -0.697224       -18.9724
  19   2.0000      -0.649052       -17.6616
  20   2.0000      -0.626367       -17.0443
  21   2.0000      -0.600272       -16.3342
  22   2.0000      -0.591897       -16.1063
  23   2.0000      -0.555875       -15.1261
  24   2.0000      -0.536198       -14.5907
  25   2.0000      -0.530955       -14.4480
  26   2.0000      -0.476319       -12.9613
  27   2.0000      -0.462637       -12.5890
  28   2.0000      -0.451778       -12.2935
  29   0.0000       0.060779         1.6539
  30   0.0000       0.088827         2.4171
  31   0.0000       0.093117         2.5339
  32   0.0000       0.095322         2.5938
  33   0.0000       0.123713         3.3664

MULLIKEN ATOMIC CHARGES
-----------------------
   0 C :   -0.523218
   1 S :    1.352612
   2 O :   -0.599638
   3 O :   -0.658223
   4 F :   -0.392670
   5 C :    0.482672
   6 H :    0.121349
   7 H :    0.136500
   8 H :    0.024938
   9 H :    0.033511
  10 H :    0.022166
Sum of atomic charges:   -0.0000000

LOEWDIN ATOMIC CHARGES
----------------------
   0 C :   -0.098359
   1 S :    1.108757
   2 O :   -0.456771
   3 O :   -0.484010
   4 F :   -0.259940
   5 C :    0.102967
   6 H :    0.040996
   7 H :    0.030036
   8 H :    0.007099
   9 H :    0.001625
  10 H :    0.007600

  Mayer bond orders larger than 0.100000
B(  0-C ,  1-S ) :   0.9828 B(  0-C ,  5-C ) :   1.3040 B(  0-C ,  6-H ) :   0.9661
B(  0-C ,  7-H ) :   0.9741 B(  0-C ,  8-H ) :   0.1588 B(  0-C ,  9-H ) :   0.1500
B(  0-C , 10-H ) :   0.1419 B(  1-S ,  2-O ) :   1.5953 B(  1-S ,  3-O ) :   1.5351
B(  1-S ,  4-F ) :   0.6869 B(  5-C ,  8-H ) :   0.8173 B(  5-C ,  9-H ) :   0.8545
B(  5-C , 10-H ) :   0.8675

FINAL SINGLE POINT ENERGY      -726.041850213041

DIPOLE MOMENT
-------------
                                X             Y             Z
Electronic contribution:     -7.17772       5.09361       1.32384
Nuclear contribution   :      8.50531      -6.23950      -0.59960
                        -----------------------------------------
Total Dipole Moment    :      1.32759      -1.14589       0.72424
                        -----------------------------------------
Magnitude (a.u.)       :      1.89739
Magnitude (Debye)      :      4.82277

Rotational constants in cm-1:     0.152799     0.080212     0.076962
Rotational constants in MHz :  4580.804531  2404.707790  2307.252710

                             ****ORCA TERMINATED NORMALLY****
TOTAL RUN TIME: 0 days 0 hours 0 minutes 22 seconds 928 msec
