                         Program Version 5.0.0 -  RELEASE  -
|  1> !LC-PBE RIJCOSX def2-SVPD def2/J TightSCF xyzfile
|  2>
|  3> *xyzfile 0 1 D2.xyz
|  4>
|  5> %MaxCore 64000
|  6>
|  7> %pal nprocs 4
|  8> end
|  9>
| 10> %scf
| 11>   MaxIter 150
| 12> end
| 13>
| 14>
| 15>                          ****END OF INPUT****

CARTESIAN COORDINATES (ANGSTROEM)
---------------------------------
  C     -4.382623   -1.670889    1.216201
  C     -5.763539   -1.915170    0.705012
  C     -3.281728   -2.191272    0.294361
  C     -5.572364   -5.807798   -0.816445
  S     -6.903179   -4.619033   -0.528458
  H     -5.840812   -2.115205   -0.300646
  H     -6.408823   -1.148656    0.936124
  H     -6.174781   -2.790606    1.051433
  O     -8.114853   -5.250932   -0.957007
  F     -6.532715   -3.426838   -1.314848
  H     -4.328618   -2.139223    2.198103
  H     -4.261583   -0.597399    1.357248
  O     -6.865632   -4.294957    0.914118
  C     -3.474641   -3.605898   -0.259608
  H     -2.354548   -2.127602    0.871433
  H     -3.166611   -1.499693   -0.545037
  C     -3.827078   -4.661097    0.786174
  H     -2.560559   -3.889391   -0.788050
  H     -4.255932   -3.570040   -1.019300
  C     -4.457800   -5.941875    0.229195
  H     -5.177347   -5.542575   -1.797714
  H     -6.074202   -6.768894   -0.921272
  H     -4.530506   -4.253640    1.511979
  H     -2.933400   -4.932302    1.356825
  H     -3.681064   -6.562236   -0.229885
  H     -4.843942   -6.512728    1.075805

 Total Charge           Charge          ....    0
 Multiplicity           Mult            ....    1
 Number of Electrons    NEL             ....   98
 Basis Dimension        Dim             ....  356

ORBITAL ENERGIES
----------------

  NO   OCC          E(Eh)            E(eV)
   0   2.0000     -88.582983     -2410.4655
   1   2.0000     -24.621230      -669.9777
   2   2.0000     -19.019770      -517.5542
   3   2.0000     -19.004952      -517.1510
   4   2.0000     -10.199376      -277.5391
   5   2.0000     -10.159855      -276.4637
   6   2.0000     -10.132635      -275.7230
   7   2.0000     -10.131277      -275.6861
   8   2.0000     -10.119422      -275.3635
   9   2.0000     -10.106156      -275.0025
  10   2.0000     -10.055389      -273.6210
  11   2.0000      -8.203938      -223.2405
  12   2.0000      -6.230999      -169.5541
  13   2.0000      -6.224017      -169.3641
  14   2.0000      -6.222701      -169.3283
  15   2.0000      -1.523925       -41.4681
  16   2.0000      -1.294151       -35.2156
  17   2.0000      -1.187064       -32.3017
  18   2.0000      -1.019294       -27.7364
  19   2.0000      -0.981567       -26.7098
  20   2.0000      -0.927540       -25.2397
  21   2.0000      -0.897928       -24.4339
  22   2.0000      -0.859423       -23.3861
  23   2.0000      -0.821343       -22.3499
  24   2.0000      -0.780662       -21.2429
  25   2.0000      -0.744560       -20.2605
  26   2.0000      -0.729498       -19.8507
  27   2.0000      -0.710895       -19.3444
  28   2.0000      -0.709020       -19.2934
  29   2.0000      -0.652287       -17.7496
  30   2.0000      -0.641892       -17.4668
  31   2.0000      -0.622410       -16.9366
  32   2.0000      -0.613478       -16.6936
  33   2.0000      -0.603525       -16.4228
  34   2.0000      -0.583587       -15.8802
  35   2.0000      -0.567692       -15.4477
  36   2.0000      -0.548675       -14.9302
  37   2.0000      -0.538125       -14.6431
  38   2.0000      -0.529471       -14.4076
  39   2.0000      -0.525719       -14.3055
  40   2.0000      -0.495467       -13.4823
  41   2.0000      -0.490103       -13.3364
  42   2.0000      -0.486525       -13.2390
  43   2.0000      -0.472882       -12.8678
  44   2.0000      -0.457940       -12.4612
  45   2.0000      -0.452455       -12.3119
  46   2.0000      -0.438551       -11.9336
  47   2.0000      -0.437149       -11.8954
  48   2.0000      -0.403581       -10.9820
  49   0.0000       0.066627         1.8130
  50   0.0000       0.080805         2.1988
  51   0.0000       0.088726         2.4144
  52   0.0000       0.094671         2.5761
  53   0.0000       0.113051         3.0763

MULLIKEN ATOMIC CHARGES
-----------------------
   0 C :   -0.213083
   1 C :    1.619421
   2 C :    0.243516
   3 C :   -0.013744
   4 S :    1.383591
   5 H :   -0.386306
   6 H :   -0.290911
   7 H :   -0.796088
   8 O :   -0.638646
   9 F :   -0.388610
  10 H :    0.196254
  11 H :   -0.260381
  12 O :   -0.684962
  13 C :   -0.017681
  14 H :    0.033618
  15 H :    0.127632
  16 C :   -0.086699
  17 H :   -0.212859
  18 H :   -0.046561
  19 C :    0.280393
  20 H :    0.220586
  21 H :   -0.132633
  22 H :    0.031985
  23 H :   -0.121065
  24 H :    0.065703
  25 H :    0.087530
Sum of atomic charges:    0.0000000

LOEWDIN ATOMIC CHARGES
----------------------
   0 C :   -0.065085
   1 C :    0.107758
   2 C :   -0.048219
   3 C :   -0.050839
   4 S :    1.151068
   5 H :   -0.070203
   6 H :   -0.005467
   7 H :   -0.133385
   8 O :   -0.438721
   9 F :   -0.262369
  10 H :    0.030243
  11 H :    0.028972
  12 O :   -0.443237
  13 C :   -0.035855
  14 H :    0.030981
  15 H :    0.037115
  16 C :   -0.032356
  17 H :    0.037965
  18 H :   -0.007121
  19 C :   -0.039513
  20 H :    0.031101
  21 H :    0.035801
  22 H :    0.006761
  23 H :    0.044267
  24 H :    0.044986
  25 H :    0.045352

  Mayer bond orders larger than 0.100000
B(  0-C ,  1-C ) :   1.1068 B(  0-C ,  2-C ) :   1.1843 B(  0-C ,  5-H ) :   0.3290
B(  0-C ,  7-H ) :   0.3457 B(  0-C , 10-H ) :   0.7131 B(  0-C , 11-H ) :   1.0994
B(  0-C , 14-H ) :   0.1430 B(  0-C , 15-H ) :   0.1322 B(  1-C ,  2-C ) :   0.1114
B(  1-C ,  6-H ) :   0.7000 B(  1-C ,  7-H ) :  -0.1713 B(  1-C , 10-H ) :   0.1728
B(  2-C , 10-H ) :   0.1048 B(  2-C , 13-C ) :   1.2820 B(  2-C , 14-H ) :   0.8169
B(  2-C , 15-H ) :   0.7081 B(  3-C ,  4-S ) :   0.9506 B(  3-C , 19-C ) :   1.2462
B(  3-C , 20-H ) :   0.8505 B(  3-C , 21-H ) :   0.9615 B(  3-C , 24-H ) :   0.1061
B(  3-C , 25-H ) :   0.1071 B(  4-S ,  8-O ) :   1.6754 B(  4-S ,  9-F ) :   0.6323
B(  4-S , 12-O ) :   1.4486 B(  5-H ,  6-H ) :  -0.1074 B(  5-H ,  7-H ) :   0.8263
B(  5-H ,  9-F ) :   0.1719 B(  5-H , 11-H ) :   0.1325 B(  5-H , 18-H ) :   0.1224
B(  6-H ,  7-H ) :   0.1014 B(  6-H , 11-H ) :  -0.1222 B(  6-H , 18-H ) :  -0.1089
B(  7-H , 10-H ) :  -0.1091 B(  7-H , 12-O ) :   0.1426 B(  9-F , 12-O ) :   0.1011
B( 10-H , 11-H ) :  -0.1649 B( 10-H , 22-H ) :   0.1257 B( 13-C , 14-H ) :   0.1458
B( 13-C , 15-H ) :   0.2105 B( 13-C , 16-C ) :   1.1998 B( 13-C , 17-H ) :   0.9457
B( 13-C , 18-H ) :   0.8427 B( 13-C , 23-H ) :   0.1632 B( 16-C , 17-H ) :   0.1765
B( 16-C , 18-H ) :   0.1418 B( 16-C , 19-C ) :   1.2835 B( 16-C , 22-H ) :   0.9143
B( 16-C , 23-H ) :   0.8892 B( 16-C , 24-H ) :   0.1106 B( 16-C , 25-H ) :   0.2125
B( 19-C , 21-H ) :   0.1611 B( 19-C , 24-H ) :   0.8181 B( 19-C , 25-H ) :   0.7291

FINAL SINGLE POINT ENERGY      -921.736716395662

DIPOLE MOMENT
-------------
                                X             Y             Z
Electronic contribution:    -15.87823      -5.40901      -7.25140
Nuclear contribution   :     17.25367       4.78608       6.55647
                        -----------------------------------------
Total Dipole Moment    :      1.37544      -0.62293      -0.69493
                        -----------------------------------------
Magnitude (a.u.)       :      1.66217
Magnitude (Debye)      :      4.22489

Rotational constants in cm-1:     0.048508     0.025517     0.020225
Rotational constants in MHz :  1454.219007   764.979652   606.316599

                             ****ORCA TERMINATED NORMALLY****
TOTAL RUN TIME: 0 days 0 hours 1 minutes 51 seconds 316 msec
