                         Program Version 5.0.0 -  RELEASE  -
|  1> !LC-PBE RIJCOSX def2-SVPD def2/J TightSCF xyzfile
|  2>
|  3> *xyzfile 0 1 D3.xyz
|  4>
|  5> %MaxCore 64000
|  6>
|  7> %pal nprocs 4
|  8> end
|  9>
| 10> %scf
| 11>   MaxIter 150
| 12> end
| 13>
| 14>
| 15>                          ****END OF INPUT****

CARTESIAN COORDINATES (ANGSTROEM)
---------------------------------
  C     -4.382623   -1.670889    1.216201
  C     -5.763539   -1.915170    0.705012
  C     -3.281728   -2.191272    0.294361
  C     -5.572364   -5.807798   -0.816445
  S     -6.903179   -4.619033   -0.528458
  H     -5.840812   -2.115205   -0.300646
  H     -6.408823   -1.148656    0.936124
  H     -6.174781   -2.790606    1.051433
  O     -8.114853   -5.250932   -0.957007
  O     -6.532715   -3.426838   -1.314848
  H     -4.328618   -2.139223    2.198103
  H     -4.261583   -0.597399    1.357248
  F     -6.865632   -4.294957    0.914118
  C     -3.474641   -3.605898   -0.259608
  H     -2.354548   -2.127602    0.871433
  H     -3.166611   -1.499693   -0.545037
  C     -3.827078   -4.661097    0.786174
  H     -2.560559   -3.889391   -0.788050
  H     -4.255932   -3.570040   -1.019300
  C     -4.457800   -5.941875    0.229195
  H     -5.177347   -5.542575   -1.797714
  H     -6.074202   -6.768894   -0.921272
  H     -4.530506   -4.253640    1.511979
  H     -2.933400   -4.932302    1.356825
  H     -3.681064   -6.562236   -0.229885
  H     -4.843942   -6.512728    1.075805

 Total Charge           Charge          ....    0
 Multiplicity           Mult            ....    1
 Number of Electrons    NEL             ....   98
 Basis Dimension        Dim             ....  356

ORBITAL ENERGIES
----------------

  NO   OCC          E(Eh)            E(eV)
   0   2.0000     -88.582196     -2410.4441
   1   2.0000     -24.621029      -669.9723
   2   2.0000     -19.019368      -517.5433
   3   2.0000     -19.003406      -517.1090
   4   2.0000     -10.198474      -277.5146
   5   2.0000     -10.165072      -276.6057
   6   2.0000     -10.139888      -275.9204
   7   2.0000     -10.124103      -275.4908
   8   2.0000     -10.116442      -275.2824
   9   2.0000     -10.106737      -275.0183
  10   2.0000     -10.057433      -273.6767
  11   2.0000      -8.203169      -223.2196
  12   2.0000      -6.230376      -169.5371
  13   2.0000      -6.223224      -169.3425
  14   2.0000      -6.221834      -169.3047
  15   2.0000      -1.522870       -41.4394
  16   2.0000      -1.294471       -35.2243
  17   2.0000      -1.186016       -32.2731
  18   2.0000      -1.022337       -27.8192
  19   2.0000      -0.980409       -26.6783
  20   2.0000      -0.927261       -25.2321
  21   2.0000      -0.897139       -24.4124
  22   2.0000      -0.860394       -23.4125
  23   2.0000      -0.821061       -22.3422
  24   2.0000      -0.784977       -21.3603
  25   2.0000      -0.746886       -20.3238
  26   2.0000      -0.739897       -20.1336
  27   2.0000      -0.706208       -19.2169
  28   2.0000      -0.697792       -18.9879
  29   2.0000      -0.648602       -17.6493
  30   2.0000      -0.642764       -17.4905
  31   2.0000      -0.628496       -17.1023
  32   2.0000      -0.607593       -16.5334
  33   2.0000      -0.599431       -16.3113
  34   2.0000      -0.593396       -16.1471
  35   2.0000      -0.570409       -15.5216
  36   2.0000      -0.549541       -14.9538
  37   2.0000      -0.533637       -14.5210
  38   2.0000      -0.529915       -14.4197
  39   2.0000      -0.528462       -14.3802
  40   2.0000      -0.497464       -13.5367
  41   2.0000      -0.491632       -13.3780
  42   2.0000      -0.481367       -13.0987
  43   2.0000      -0.465787       -12.6747
  44   2.0000      -0.464024       -12.6267
  45   2.0000      -0.454569       -12.3695
  46   2.0000      -0.434661       -11.8277
  47   2.0000      -0.429785       -11.6950
  48   2.0000      -0.415776       -11.3138
  49   0.0000       0.063276         1.7218
  50   0.0000       0.083652         2.2763
  51   0.0000       0.088516         2.4086
  52   0.0000       0.094309         2.5663
  53   0.0000       0.107574         2.9272

MULLIKEN ATOMIC CHARGES
-----------------------
   0 C :   -0.202755
   1 C :    1.665705
   2 C :    0.248390
   3 C :   -0.037768
   4 S :    1.346181
   5 H :   -0.360528
   6 H :   -0.285558
   7 H :   -0.863901
   8 O :   -0.638913
   9 O :   -0.595759
  10 H :    0.177177
  11 H :   -0.260341
  12 F :   -0.455695
  13 C :    0.003840
  14 H :    0.026359
  15 H :    0.134676
  16 C :   -0.064754
  17 H :   -0.218755
  18 H :   -0.019628
  19 C :    0.275752
  20 H :    0.242382
  21 H :   -0.107382
  22 H :   -0.003767
  23 H :   -0.130455
  24 H :    0.069463
  25 H :    0.056033
Sum of atomic charges:    0.0000000

LOEWDIN ATOMIC CHARGES
----------------------
   0 C :   -0.067904
   1 C :    0.109978
   2 C :   -0.045648
   3 C :   -0.044144
   4 S :    1.149122
   5 H :   -0.089637
   6 H :   -0.005175
   7 H :   -0.103663
   8 O :   -0.438591
   9 O :   -0.456714
  10 H :    0.025887
  11 H :    0.029997
  12 F :   -0.257708
  13 C :   -0.031559
  14 H :    0.029271
  15 H :    0.039552
  16 C :   -0.035702
  17 H :    0.037951
  18 H :   -0.006892
  19 C :   -0.048225
  20 H :    0.043465
  21 H :    0.030796
  22 H :    0.005125
  23 H :    0.044444
  24 H :    0.045957
  25 H :    0.040017

  Mayer bond orders larger than 0.100000
B(  0-C ,  1-C ) :   1.1083 B(  0-C ,  2-C ) :   1.1836 B(  0-C ,  5-H ) :   0.3184
B(  0-C ,  7-H ) :   0.3361 B(  0-C , 10-H ) :   0.7224 B(  0-C , 11-H ) :   1.0932
B(  0-C , 14-H ) :   0.1446 B(  0-C , 15-H ) :   0.1339 B(  1-C ,  2-C ) :   0.1194
B(  1-C ,  6-H ) :   0.7019 B(  1-C ,  7-H ) :  -0.3567 B(  1-C , 10-H ) :   0.1803
B(  2-C , 10-H ) :   0.1010 B(  2-C , 13-C ) :   1.2965 B(  2-C , 14-H ) :   0.8207
B(  2-C , 15-H ) :   0.7101 B(  3-C ,  4-S ) :   0.9632 B(  3-C , 19-C ) :   1.2318
B(  3-C , 20-H ) :   0.8515 B(  3-C , 21-H ) :   0.9717 B(  3-C , 24-H ) :   0.1044
B(  4-S ,  8-O ) :   1.6731 B(  4-S ,  9-O ) :   1.4541 B(  4-S , 12-F ) :   0.6463
B(  5-H ,  7-H ) :   0.8774 B(  5-H ,  9-O ) :   0.2067 B(  5-H , 11-H ) :   0.1389
B(  5-H , 18-H ) :   0.1308 B(  6-H , 11-H ) :  -0.1229 B(  6-H , 18-H ) :  -0.1180
B(  7-H , 10-H ) :  -0.1065 B(  7-H , 12-F ) :   0.1578 B(  9-O , 12-F ) :   0.1097
B( 10-H , 11-H ) :  -0.1637 B( 10-H , 22-H ) :   0.1246 B( 13-C , 14-H ) :   0.1441
B( 13-C , 15-H ) :   0.2079 B( 13-C , 16-C ) :   1.1885 B( 13-C , 17-H ) :   0.9182
B( 13-C , 18-H ) :   0.8668 B( 13-C , 23-H ) :   0.1675 B( 16-C , 17-H ) :   0.1744
B( 16-C , 18-H ) :   0.1461 B( 16-C , 19-C ) :   1.2746 B( 16-C , 22-H ) :   0.8973
B( 16-C , 23-H ) :   0.8988 B( 16-C , 24-H ) :   0.1186 B( 16-C , 25-H ) :   0.2145
B( 19-C , 21-H ) :   0.1781 B( 19-C , 24-H ) :   0.8098 B( 19-C , 25-H ) :   0.7449

FINAL SINGLE POINT ENERGY      -921.736442071727

DIPOLE MOMENT
-------------
                                X             Y             Z
Electronic contribution:    -16.44495      -6.91425      -3.42064
Nuclear contribution   :     17.63907       5.79106       3.97609
                        -----------------------------------------
Total Dipole Moment    :      1.19412      -1.12319       0.55546
                        -----------------------------------------
Magnitude (a.u.)       :      1.73090
Magnitude (Debye)      :      4.39959

Rotational constants in cm-1:     0.048663     0.025472     0.020259
Rotational constants in MHz :  1458.892793   763.621130   607.350055

                             ****ORCA TERMINATED NORMALLY****
TOTAL RUN TIME: 0 days 0 hours 1 minutes 50 seconds 595 msec
