                         Program Version 5.0.0 -  RELEASE  -
|  1> !DLPNO-CCSD(T) aug-cc-pVTZ aug-cc-pVTZ/C TightSCF TightPNO RIJCOSX def2/J
|  2> *xyz -1 1
|  3> C          4.08422        1.74208       -2.11472
|  4> C          4.26524        2.50052       -0.79589
|  5> H          4.86853        3.39267       -0.98113
|  6> H          3.30764        2.82457       -0.38781
|  7> C          4.98224        1.65026        0.24742
|  8> O          4.36806        1.38927        1.31371
|  9> O          6.12892        1.23351       -0.04562
| 10> C          1.99727        0.43092       -1.39922
| 11> C          3.41275        0.37689       -1.96550
| 12> H          4.04741       -0.24659       -1.32671
| 13> H          3.39077       -0.11872       -2.94284
| 14> H          5.06847        1.59850       -2.56573
| 15> H          3.50336        2.36394       -2.80457
| 16> C          1.32224       -0.93577       -1.25641
| 17> H          1.37644        1.05892       -2.04742
| 18> H          2.01534        0.92978       -0.42653
| 19> H          1.30366       -1.42552       -2.20757
| 20> H          0.32075       -0.80379       -0.90357
| 21> H          1.87053       -1.53318       -0.55828
| 22> *
| 23> %MaxCore 64000
| 24> %pal nprocs 8
| 25> end
| 26> %scf
| 27>   MaxIter 150
| 28> end
| 29>
| 30>                          ****END OF INPUT****

CARTESIAN COORDINATES (ANGSTROEM)
---------------------------------
  C      4.084220    1.742080   -2.114720
  C      4.265240    2.500520   -0.795890
  H      4.868530    3.392670   -0.981130
  H      3.307640    2.824570   -0.387810
  C      4.982240    1.650260    0.247420
  O      4.368060    1.389270    1.313710
  O      6.128920    1.233510   -0.045620
  C      1.997270    0.430920   -1.399220
  C      3.412750    0.376890   -1.965500
  H      4.047410   -0.246590   -1.326710
  H      3.390770   -0.118720   -2.942840
  H      5.068470    1.598500   -2.565730
  H      3.503360    2.363940   -2.804570
  C      1.322240   -0.935770   -1.256410
  H      1.376440    1.058920   -2.047420
  H      2.015340    0.929780   -0.426530
  H      1.303660   -1.425520   -2.207570
  H      0.320750   -0.803790   -0.903570
  H      1.870530   -1.533180   -0.558280

 Total Charge           Charge          ....   -1
 Multiplicity           Mult            ....    1
 Number of Electrons    NEL             ....   64
 Basis Dimension        Dim             ....  621

ORBITAL ENERGIES
----------------

  NO   OCC          E(Eh)            E(eV)
   0   2.0000     -20.288693      -552.0834
   1   2.0000     -20.286955      -552.0361
   2   2.0000     -11.129266      -302.8427
   3   2.0000     -11.094307      -301.8914
   4   2.0000     -11.090965      -301.8005
   5   2.0000     -11.082158      -301.5609
   6   2.0000     -11.079312      -301.4834
   7   2.0000     -11.055761      -300.8426
   8   2.0000      -1.168241       -31.7894
   9   2.0000      -1.060368       -28.8541
  10   2.0000      -0.952622       -25.9222
  11   2.0000      -0.887850       -24.1596
  12   2.0000      -0.798161       -21.7191
  13   2.0000      -0.713023       -19.4023
  14   2.0000      -0.647908       -17.6305
  15   2.0000      -0.520969       -14.1763
  16   2.0000      -0.512930       -13.9575
  17   2.0000      -0.475249       -12.9322
  18   2.0000      -0.469435       -12.7740
  19   2.0000      -0.452821       -12.3219
  20   2.0000      -0.422733       -11.5031
  21   2.0000      -0.408578       -11.1180
  22   2.0000      -0.384098       -10.4518
  23   2.0000      -0.375811       -10.2263
  24   2.0000      -0.366621        -9.9763
  25   2.0000      -0.345314        -9.3965
  26   2.0000      -0.332234        -9.0405
  27   2.0000      -0.313644        -8.5347
  28   2.0000      -0.307424        -8.3654
  29   2.0000      -0.202325        -5.5056
  30   2.0000      -0.200665        -5.4604
  31   2.0000      -0.189976        -5.1695
  32   0.0000       0.103635         2.8200
  33   0.0000       0.113671         3.0931
  34   0.0000       0.115524         3.1436
  35   0.0000       0.128575         3.4987
  36   0.0000       0.130686         3.5561

MULLIKEN ATOMIC CHARGES
-----------------------
   0 C :   -0.470008
   1 C :   -0.234889
   2 H :    0.347611
   3 H :    0.119228
   4 C :    0.769372
   5 O :   -0.985014
   6 O :   -0.988040
   7 C :   -0.454200
   8 C :   -0.422583
   9 H :    0.188544
  10 H :    0.362216
  11 H :    0.164178
  12 H :    0.260254
  13 C :   -0.994623
  14 H :    0.193104
  15 H :    0.331260
  16 H :    0.275135
  17 H :    0.241371
  18 H :    0.297084
Sum of atomic charges:   -1.0000000

LOEWDIN ATOMIC CHARGES
----------------------
   0 C :    0.248315
   1 C :    0.192877
   2 H :   -0.171344
   3 H :   -0.196487
   4 C :   -1.211704
   5 O :    0.260326
   6 O :    0.266638
   7 C :    0.256417
   8 C :    0.262566
   9 H :   -0.151738
  10 H :   -0.150250
  11 H :   -0.159114
  12 H :   -0.158221
  13 C :    0.593516
  14 H :   -0.150265
  15 H :   -0.161134
  16 H :   -0.194116
  17 H :   -0.193839
  18 H :   -0.182445

  Mayer bond orders larger than 0.100000
B(  0-C ,  1-C ) :   0.9058 B(  0-C ,  4-C ) :   0.1177 B(  0-C ,  8-C ) :   0.8220
B(  0-C , 11-H ) :   1.0336 B(  0-C , 12-H ) :   0.9095 B(  1-C ,  2-H ) :   0.9379
B(  1-C ,  3-H ) :   1.0226 B(  1-C ,  4-C ) :   0.6751 B(  3-H ,  4-C ) :   0.1405
B(  4-C ,  5-O ) :   1.2206 B(  4-C ,  6-O ) :   1.2423 B(  7-C ,  8-C ) :   0.8645
B(  7-C , 13-C ) :   0.7872 B(  7-C , 14-H ) :   1.0171 B(  7-C , 15-H ) :   0.8934
B(  8-C ,  9-H ) :   0.9834 B(  8-C , 10-H ) :   0.8588 B( 13-C , 16-H ) :   0.9620
B( 13-C , 17-H ) :   1.0397 B( 13-C , 18-H ) :   0.9437

E(0)                                       ...   -383.519050236
E(0)                                       ...   -383.519050236
E(CORR)(strong-pairs)                      ...     -1.586587296
E(CORR)(weak-pairs)                        ...     -0.001878625
E(CORR)(corrected)                         ...     -1.588465921
E(TOT)                                     ...   -385.107516157
E(CCSD(T))                                 ...   -385.174410107
FINAL SINGLE POINT ENERGY      -385.174410106897

DIPOLE MOMENT
-------------
                                X             Y             Z
Electronic contribution:      7.81645       2.98633       6.03147
Nuclear contribution   :    -10.26134      -3.14086      -8.47900
                        -----------------------------------------
Total Dipole Moment    :     -2.44489      -0.15454      -2.44753
                        -----------------------------------------
Magnitude (a.u.)       :      3.46291
Magnitude (Debye)      :      8.80202

Rotational constants in cm-1:     0.105311     0.039378     0.034267
Rotational constants in MHz :  3157.156799  1180.514814  1027.294855

                             ****ORCA TERMINATED NORMALLY****
TOTAL RUN TIME: 0 days 0 hours 55 minutes 42 seconds 77 msec
