                         Program Version 5.0.0 -  RELEASE  -
|  1> !DLPNO-CCSD(T) aug-cc-pVTZ aug-cc-pVTZ/C TightSCF TightPNO RIJCOSX def2/J
|  2> *xyz 1 1
|  3> C          3.91385       -1.65829        3.01513
|  4> N          5.03927       -0.90115        2.49282
|  5> C          6.21038       -1.41726        2.17824
|  6> N          6.53591       -2.67712        2.55608
|  7> N          7.07675       -0.70082        1.47891
|  8> H          7.95464       -1.12155        1.20755
|  9> H          6.75616        0.10664        0.96028
| 10> H          4.84217        0.01761        2.11519
| 11> H          5.99388       -3.12692        3.28278
| 12> H          7.49844       -2.97548        2.46878
| 13> C          3.13916       -2.37657        1.91061
| 14> H          3.26723       -0.93940        3.52069
| 15> H          4.24720       -2.35509        3.79006
| 16> C          2.39995       -1.38958        1.00949
| 17> H          2.44075       -3.08712        2.36298
| 18> H          3.84448       -2.97046        1.31868
| 19> H          1.87065       -1.92698        0.25058
| 20> H          3.10498       -0.72749        0.55181
| 21> H          1.70633       -0.82279        1.59477
| 22> *
| 23> %MaxCore 64000
| 24> %pal nprocs 2
| 25> end
| 26> %scf
| 27>   MaxIter 150
| 28> end
| 29>
| 30>
| 31>                          ****END OF INPUT****

CARTESIAN COORDINATES (ANGSTROEM)
---------------------------------
  C      3.913850   -1.658290    3.015130
  N      5.039270   -0.901150    2.492820
  C      6.210380   -1.417260    2.178240
  N      6.535910   -2.677120    2.556080
  N      7.076750   -0.700820    1.478910
  H      7.954640   -1.121550    1.207550
  H      6.756160    0.106640    0.960280
  H      4.842170    0.017610    2.115190
  H      5.993880   -3.126920    3.282780
  H      7.498440   -2.975480    2.468780
  C      3.139160   -2.376570    1.910610
  H      3.267230   -0.939400    3.520690
  H      4.247200   -2.355090    3.790060
  C      2.399950   -1.389580    1.009490
  H      2.440750   -3.087120    2.362980
  H      3.844480   -2.970460    1.318680
  H      1.870650   -1.926980    0.250580
  H      3.104980   -0.727490    0.551810
  H      1.706330   -0.822790    1.594770

 Total Charge           Charge          ....    1
 Multiplicity           Mult            ....    1
 Number of Electrons    NEL             ....   56
 Basis Dimension        Dim             ....  598

ORBITAL ENERGIES
----------------

  NO   OCC          E(Eh)            E(eV)
   0   2.0000     -15.785571      -429.5472
   1   2.0000     -15.782512      -429.4640
   2   2.0000     -15.782405      -429.4611
   3   2.0000     -11.586656      -315.2889
   4   2.0000     -11.428956      -310.9977
   5   2.0000     -11.363437      -309.2148
   6   2.0000     -11.335566      -308.4564
   7   2.0000      -1.540669       -41.9237
   8   2.0000      -1.406418       -38.2706
   9   2.0000      -1.385862       -37.7112
  10   2.0000      -1.207912       -32.8690
  11   2.0000      -1.104839       -30.0642
  12   2.0000      -1.039561       -28.2879
  13   2.0000      -0.977805       -26.6074
  14   2.0000      -0.966229       -26.2924
  15   2.0000      -0.924255       -25.1503
  16   2.0000      -0.861461       -23.4415
  17   2.0000      -0.853873       -23.2351
  18   2.0000      -0.823119       -22.3982
  19   2.0000      -0.792401       -21.5623
  20   2.0000      -0.758168       -20.6308
  21   2.0000      -0.738531       -20.0964
  22   2.0000      -0.704454       -19.1692
  23   2.0000      -0.653732       -17.7889
  24   2.0000      -0.630854       -17.1664
  25   2.0000      -0.628091       -17.0912
  26   2.0000      -0.618549       -16.8316
  27   2.0000      -0.577394       -15.7117
  28   0.0000      -0.091710        -2.4956
  29   0.0000      -0.074446        -2.0258
  30   0.0000      -0.066894        -1.8203
  31   0.0000      -0.057702        -1.5701
  32   0.0000      -0.046957        -1.2778

MULLIKEN ATOMIC CHARGES
-----------------------
   0 C :   -0.400030
   1 N :   -0.077974
   2 C :    0.705979
   3 N :   -0.283837
   4 N :   -0.497572
   5 H :    0.151551
   6 H :    0.142916
   7 H :    0.161950
   8 H :    0.207222
   9 H :    0.166186
  10 C :   -0.434418
  11 H :    0.353087
  12 H :    0.311361
  13 C :   -0.975717
  14 H :    0.369019
  15 H :    0.193752
  16 H :    0.288973
  17 H :    0.349487
  18 H :    0.268065
Sum of atomic charges:    1.0000000

LOEWDIN ATOMIC CHARGES
----------------------
   0 C :    0.240241
   1 N :    0.618539
   2 C :   -0.362792
   3 N :    0.949220
   4 N :    0.936109
   5 H :   -0.242275
   6 H :   -0.236418
   7 H :   -0.234826
   8 H :   -0.278062
   9 H :   -0.244029
  10 C :    0.297690
  11 H :   -0.121537
  12 H :   -0.141736
  13 C :    0.618961
  14 H :   -0.128709
  15 H :   -0.144697
  16 H :   -0.165771
  17 H :   -0.187177
  18 H :   -0.172730

  Mayer bond orders larger than 0.100000
B(  0-C ,  1-N ) :   0.8894 B(  0-C , 10-C ) :   0.9383 B(  0-C , 11-H ) :   0.9144
B(  0-C , 12-H ) :   0.8994 B(  1-N ,  2-C ) :   0.9711 B(  1-N ,  7-H ) :   0.9849
B(  2-C ,  3-N ) :   0.9762 B(  2-C ,  4-N ) :   0.9812 B(  3-N ,  8-H ) :   1.0009
B(  3-N ,  9-H ) :   1.0028 B(  4-N ,  5-H ) :   1.0801 B(  4-N ,  6-H ) :   1.0798
B( 10-C , 13-C ) :   0.8266 B( 10-C , 14-H ) :   0.8567 B( 10-C , 15-H ) :   1.0151
B( 13-C , 16-H ) :   0.9920 B( 13-C , 17-H ) :   0.8908 B( 13-C , 18-H ) :   0.9752

E(0)                                       ...   -321.755404327
E(0)                                       ...   -321.755404327
E(CORR)(strong-pairs)                      ...     -1.370265354
E(CORR)(weak-pairs)                        ...     -0.001626465
E(CORR)(corrected)                         ...     -1.371891819
E(TOT)                                     ...   -323.127296145
E(CCSD(T))                                 ...   -323.182377663
FINAL SINGLE POINT ENERGY      -323.182377662633

DIPOLE MOMENT
-------------
                                X             Y             Z
Electronic contribution:      6.91674       1.01498       1.47058
Nuclear contribution   :     -5.22950      -0.81973      -1.43960
                        -----------------------------------------
Total Dipole Moment    :      1.68724       0.19525       0.03098
                        -----------------------------------------
Magnitude (a.u.)       :      1.69878
Magnitude (Debye)      :      4.31796

Rotational constants in cm-1:     0.158118     0.049676     0.044442
Rotational constants in MHz :  4740.256785  1489.254255  1332.331442

                             ****ORCA TERMINATED NORMALLY****
TOTAL RUN TIME: 0 days 1 hours 55 minutes 22 seconds 899 msec
