                         Program Version 5.0.0 -  RELEASE  -
|  1> !DLPNO-CCSD(T) aug-cc-pVTZ aug-cc-pVTZ/C TightSCF TightPNO RIJCOSX def2/J
|  2> *xyz 1 1
|  3> C          3.91385       -1.65829        3.01513
|  4> N          5.03927       -0.90115        2.49282
|  5> C          4.08422        1.74208       -2.11472
|  6> C          4.26524        2.50052       -0.79589
|  7> C          6.21038       -1.41726        2.17824
|  8> N          6.53591       -2.67712        2.55608
|  9> N          7.07675       -0.70082        1.47891
| 10> H          7.95464       -1.12155        1.20755
| 11> H          6.75616        0.10664        0.96028
| 12> H          4.84217        0.01761        2.11519
| 13> H          5.99388       -3.12692        3.28278
| 14> H          7.49844       -2.97548        2.46878
| 15> C          3.13916       -2.37657        1.91061
| 16> H          3.26723       -0.93940        3.52069
| 17> H          4.24720       -2.35509        3.79006
| 18> C          1.99727        0.43092       -1.39922
| 19> C          3.41275        0.37689       -1.96550
| 20> H          4.04741       -0.24659       -1.32671
| 21> H          3.39077       -0.11872       -2.94284
| 22> H          5.06847        1.59850       -2.56573
| 23> H          3.50336        2.36394       -2.80457
| 24> C          2.39995       -1.38958        1.00949
| 25> H          2.44075       -3.08712        2.36298
| 26> H          3.84448       -2.97046        1.31868
| 27> C          2.07018       -1.93671       -0.37240
| 28> H          1.48161       -1.06154        1.50991
| 29> H          3.00863       -0.49000        0.89745
| 30> C          1.32224       -0.93577       -1.25641
| 31> H          1.47275       -2.85090       -0.28400
| 32> H          3.00354       -2.23404       -0.86254
| 33> H          1.37644        1.05892       -2.04742
| 34> H          2.01534        0.92978       -0.42653
| 35> H          0.31665       -0.78721       -0.84828
| 36> H          1.18561       -1.37925       -2.24861
| 37> H          4.73963        3.44035       -0.98715
| 38> H          4.87389        1.92223       -0.13253
| 39> H          3.30865        2.66865       -0.34693
| 40> *
| 41> %MaxCore 64000
| 42> %pal nprocs 8
| 43> end
| 44> %scf
| 45>   MaxIter 150
| 46> end
| 47>
| 48>                          ****END OF INPUT****

CARTESIAN COORDINATES (ANGSTROEM)
---------------------------------
  C      3.913850   -1.658290    3.015130
  N      5.039270   -0.901150    2.492820
  C      4.084220    1.742080   -2.114720
  C      4.265240    2.500520   -0.795890
  C      6.210380   -1.417260    2.178240
  N      6.535910   -2.677120    2.556080
  N      7.076750   -0.700820    1.478910
  H      7.954640   -1.121550    1.207550
  H      6.756160    0.106640    0.960280
  H      4.842170    0.017610    2.115190
  H      5.993880   -3.126920    3.282780
  H      7.498440   -2.975480    2.468780
  C      3.139160   -2.376570    1.910610
  H      3.267230   -0.939400    3.520690
  H      4.247200   -2.355090    3.790060
  C      1.997270    0.430920   -1.399220
  C      3.412750    0.376890   -1.965500
  H      4.047410   -0.246590   -1.326710
  H      3.390770   -0.118720   -2.942840
  H      5.068470    1.598500   -2.565730
  H      3.503360    2.363940   -2.804570
  C      2.399950   -1.389580    1.009490
  H      2.440750   -3.087120    2.362980
  H      3.844480   -2.970460    1.318680
  C      2.070180   -1.936710   -0.372400
  H      1.481610   -1.061540    1.509910
  H      3.008630   -0.490000    0.897450
  C      1.322240   -0.935770   -1.256410
  H      1.472750   -2.850900   -0.284000
  H      3.003540   -2.234040   -0.862540
  H      1.376440    1.058920   -2.047420
  H      2.015340    0.929780   -0.426530
  H      0.316650   -0.787210   -0.848280
  H      1.185610   -1.379250   -2.248610
  H      4.739630    3.440350   -0.987150
  H      4.873890    1.922230   -0.132530
  H      3.308650    2.668650   -0.346930

 Total Charge           Charge          ....    1
 Multiplicity           Mult            ....    1
 Number of Electrons    NEL             ....  104
 Basis Dimension        Dim             .... 1150

ORBITAL ENERGIES
----------------

  NO   OCC          E(Eh)            E(eV)
   0   2.0000     -15.780306      -429.4040
   1   2.0000     -15.777794      -429.3356
   2   2.0000     -15.776281      -429.2944
   3   2.0000     -11.581278      -315.1426
   4   2.0000     -11.423397      -310.8464
   5   2.0000     -11.354910      -308.9828
   6   2.0000     -11.335720      -308.4606
   7   2.0000     -11.317903      -307.9758
   8   2.0000     -11.308590      -307.7224
   9   2.0000     -11.307083      -307.6814
  10   2.0000     -11.306505      -307.6657
  11   2.0000     -11.304601      -307.6138
  12   2.0000     -11.303034      -307.5712
  13   2.0000      -1.535251       -41.7763
  14   2.0000      -1.400793       -38.1175
  15   2.0000      -1.380950       -37.5776
  16   2.0000      -1.214528       -33.0490
  17   2.0000      -1.181760       -32.1573
  18   2.0000      -1.145918       -31.1820
  19   2.0000      -1.097080       -29.8531
  20   2.0000      -1.052278       -28.6339
  21   2.0000      -1.025573       -27.9073
  22   2.0000      -0.985871       -26.8269
  23   2.0000      -0.970139       -26.3988
  24   2.0000      -0.946765       -25.7628
  25   2.0000      -0.918575       -24.9957
  26   2.0000      -0.895205       -24.3598
  27   2.0000      -0.857697       -23.3391
  28   2.0000      -0.851373       -23.1670
  29   2.0000      -0.847222       -23.0541
  30   2.0000      -0.817594       -22.2479
  31   2.0000      -0.785080       -21.3631
  32   2.0000      -0.752885       -20.4871
  33   2.0000      -0.745255       -20.2794
  34   2.0000      -0.727701       -19.8017
  35   2.0000      -0.715144       -19.4601
  36   2.0000      -0.695931       -18.9373
  37   2.0000      -0.694759       -18.9054
  38   2.0000      -0.677478       -18.4351
  39   2.0000      -0.649078       -17.6623
  40   2.0000      -0.636496       -17.3199
  41   2.0000      -0.626387       -17.0449
  42   2.0000      -0.620190       -16.8762
  43   2.0000      -0.609206       -16.5773
  44   2.0000      -0.604878       -16.4596
  45   2.0000      -0.581566       -15.8252
  46   2.0000      -0.579393       -15.7661
  47   2.0000      -0.576748       -15.6941
  48   2.0000      -0.559073       -15.2131
  49   2.0000      -0.542339       -14.7578
  50   2.0000      -0.539598       -14.6832
  51   2.0000      -0.534047       -14.5322
  52   0.0000      -0.085992        -2.3400
  53   0.0000      -0.066047        -1.7972
  54   0.0000      -0.062482        -1.7002
  55   0.0000      -0.051414        -1.3990
  56   0.0000      -0.043084        -1.1724

MULLIKEN ATOMIC CHARGES
-----------------------
   0 C :   -0.615913
   1 N :    0.002008
   2 C :   -0.522350
   3 C :   -1.106397
   4 C :    0.661602
   5 N :   -0.366040
   6 N :   -0.555319
   7 H :    0.123517
   8 H :    0.255563
   9 H :    0.369852
  10 H :    0.198233
  11 H :    0.157350
  12 C :   -0.454294
  13 H :    0.214382
  14 H :    0.324411
  15 C :   -0.283282
  16 C :   -0.476211
  17 H :    0.420135
  18 H :    0.207672
  19 H :    0.243597
  20 H :    0.187732
  21 C :   -0.556221
  22 H :    0.305665
  23 H :    0.127625
  24 C :   -0.335502
  25 H :    0.270909
  26 H :    0.494801
  27 C :   -0.712348
  28 H :    0.516894
  29 H :    0.019486
  30 H :    0.503903
  31 H :    0.117489
  32 H :    0.144626
  33 H :    0.173195
  34 H :    0.271928
  35 H :    0.432917
  36 H :    0.238385
Sum of atomic charges:    1.0000000

LOEWDIN ATOMIC CHARGES
----------------------
   0 C :    0.249914
   1 N :    0.624421
   2 C :    0.285191
   3 C :    0.601974
   4 C :   -0.360576
   5 N :    0.949845
   6 N :    0.937438
   7 H :   -0.241541
   8 H :   -0.242990
   9 H :   -0.242384
  10 H :   -0.278115
  11 H :   -0.244502
  12 C :    0.321298
  13 H :   -0.116572
  14 H :   -0.140998
  15 C :    0.284176
  16 C :    0.276652
  17 H :   -0.165059
  18 H :   -0.127013
  19 H :   -0.147711
  20 H :   -0.135428
  21 C :    0.281007
  22 H :   -0.122035
  23 H :   -0.143108
  24 C :    0.295166
  25 H :   -0.116439
  26 H :   -0.186833
  27 C :    0.310941
  28 H :   -0.126143
  29 H :   -0.149823
  30 H :   -0.124566
  31 H :   -0.174147
  32 H :   -0.135432
  33 H :   -0.133565
  34 H :   -0.173236
  35 H :   -0.196601
  36 H :   -0.193208

  Mayer bond orders larger than 0.100000
B(  0-C ,  1-N ) :   0.9468 B(  0-C ,  4-C ) :  -0.1151 B(  0-C , 12-C ) :   0.9610
B(  0-C , 13-H ) :   1.0933 B(  0-C , 14-H ) :   0.8879 B(  0-C , 21-C ) :   0.1241
B(  1-N ,  4-C ) :   0.9314 B(  1-N ,  9-H ) :   0.7778 B(  2-C ,  3-C ) :   0.7927
B(  2-C , 16-C ) :   0.8971 B(  2-C , 19-H ) :   1.0091 B(  2-C , 20-H ) :   1.0253
B(  3-C , 34-H ) :   1.0404 B(  3-C , 35-H ) :   0.8162 B(  3-C , 36-H ) :   1.0183
B(  4-C ,  5-N ) :   0.8813 B(  4-C ,  6-N ) :   0.9402 B(  5-N , 10-H ) :   1.0161
B(  5-N , 11-H ) :   1.0057 B(  6-N ,  7-H ) :   1.1049 B(  6-N ,  8-H ) :   0.9674
B( 12-C , 21-C ) :   0.8771 B( 12-C , 22-H ) :   0.9144 B( 12-C , 23-H ) :   1.0581
B( 15-C , 16-C ) :   0.8060 B( 15-C , 27-C ) :   0.9235 B( 15-C , 30-H ) :   0.7572
B( 15-C , 31-H ) :   1.1150 B( 16-C , 17-H ) :   0.8672 B( 16-C , 18-H ) :   1.0704
B( 21-C , 24-C ) :   0.7661 B( 21-C , 25-H ) :   1.0079 B( 21-C , 26-H ) :   0.8568
B( 24-C , 27-C ) :   0.9031 B( 24-C , 28-H ) :   0.7302 B( 24-C , 29-H ) :   1.1814
B( 27-C , 29-H ) :   0.1103 B( 27-C , 32-H ) :   1.0988 B( 27-C , 33-H ) :   1.0455

E(0)                                       ...   -556.036412558
E(0)                                       ...   -556.036412558
E(CORR)(strong-pairs)                      ...     -2.496086073
E(CORR)(weak-pairs)                        ...     -0.004382202
E(CORR)(corrected)                         ...     -2.500468275
E(TOT)                                     ...   -558.536880833
E(CCSD(T))                                 ...   -558.638116782
FINAL SINGLE POINT ENERGY      -558.638116782022

DIPOLE MOMENT
-------------
                                X             Y             Z
Electronic contribution:      9.10810      -5.78826       9.20751
Nuclear contribution   :     -5.98847       4.49964      -6.74598
                        -----------------------------------------
Total Dipole Moment    :      3.11962      -1.28862       2.46153
                        -----------------------------------------
Magnitude (a.u.)       :      4.17753
Magnitude (Debye)      :     10.61843

Rotational constants in cm-1:     0.028337     0.014100     0.010615
Rotational constants in MHz :   849.536347   422.710017   318.239994

                             ****ORCA TERMINATED NORMALLY****
TOTAL RUN TIME: 0 days 5 hours 26 minutes 15 seconds 912 msec
