                         Program Version 5.0.0 -  RELEASE  -
|  1> !DLPNO-CCSD(T) aug-cc-pVTZ aug-cc-pVTZ/C TightSCF TightPNO RIJCOSX def2/J
|  2> *xyz 1 1
|  3> C          3.91385       -1.65829        3.01513
|  4> N          5.03927       -0.90115        2.49282
|  5> C          6.21038       -1.41726        2.17824
|  6> N          6.53591       -2.67712        2.55608
|  7> N          7.07675       -0.70082        1.47891
|  8> H          7.95464       -1.12155        1.20755
|  9> H          6.75616        0.10664        0.96028
| 10> H          4.84217        0.01761        2.11519
| 11> H          5.99388       -3.12692        3.28278
| 12> H          7.49844       -2.97548        2.46878
| 13> C          3.13916       -2.37657        1.91061
| 14> H          3.26723       -0.93940        3.52069
| 15> H          4.24720       -2.35509        3.79006
| 16> C          2.39995       -1.38958        1.00949
| 17> H          2.44075       -3.08712        2.36298
| 18> H          3.84448       -2.97046        1.31868
| 19> C          2.07018       -1.93671       -0.37240
| 20> H          1.48161       -1.06154        1.50991
| 21> H          3.00863       -0.49000        0.89745
| 22> C          1.32224       -0.93577       -1.25641
| 23> H          1.47275       -2.85090       -0.28400
| 24> H          3.00354       -2.23404       -0.86254
| 25> H          1.12209       -1.38090       -2.20862
| 26> H          1.92280       -0.06049       -1.39103
| 27> H          0.39898       -0.66619       -0.78757
| 28> *
| 29> %MaxCore 64000
| 30> %pal nprocs 8
| 31> end
| 32> %scf
| 33>   MaxIter 150
| 34> end
| 35>
| 36>                          ****END OF INPUT****

CARTESIAN COORDINATES (ANGSTROEM)
---------------------------------
  C      3.913850   -1.658290    3.015130
  N      5.039270   -0.901150    2.492820
  C      6.210380   -1.417260    2.178240
  N      6.535910   -2.677120    2.556080
  N      7.076750   -0.700820    1.478910
  H      7.954640   -1.121550    1.207550
  H      6.756160    0.106640    0.960280
  H      4.842170    0.017610    2.115190
  H      5.993880   -3.126920    3.282780
  H      7.498440   -2.975480    2.468780
  C      3.139160   -2.376570    1.910610
  H      3.267230   -0.939400    3.520690
  H      4.247200   -2.355090    3.790060
  C      2.399950   -1.389580    1.009490
  H      2.440750   -3.087120    2.362980
  H      3.844480   -2.970460    1.318680
  C      2.070180   -1.936710   -0.372400
  H      1.481610   -1.061540    1.509910
  H      3.008630   -0.490000    0.897450
  C      1.322240   -0.935770   -1.256410
  H      1.472750   -2.850900   -0.284000
  H      3.003540   -2.234040   -0.862540
  H      1.122090   -1.380900   -2.208620
  H      1.922800   -0.060490   -1.391030
  H      0.398980   -0.666190   -0.787570

 Total Charge           Charge          ....    1
 Multiplicity           Mult            ....    1
 Number of Electrons    NEL             ....   72
 Basis Dimension        Dim             ....  782

ORBITAL ENERGIES
----------------

  NO   OCC          E(Eh)            E(eV)
   0   2.0000     -15.783710      -429.4966
   1   2.0000     -15.780543      -429.4104
   2   2.0000     -15.779747      -429.3887
   3   2.0000     -11.584457      -315.2291
   4   2.0000     -11.426329      -310.9262
   5   2.0000     -11.357896      -309.0641
   6   2.0000     -11.340125      -308.5805
   7   2.0000     -11.322228      -308.0935
   8   2.0000     -11.296783      -307.4011
   9   2.0000      -1.538465       -41.8638
  10   2.0000      -1.404092       -38.2073
  11   2.0000      -1.383917       -37.6583
  12   2.0000      -1.214635       -33.0519
  13   2.0000      -1.151061       -31.3219
  14   2.0000      -1.075772       -29.2732
  15   2.0000      -1.032950       -28.1080
  16   2.0000      -0.976074       -26.5603
  17   2.0000      -0.967362       -26.3232
  18   2.0000      -0.925171       -25.1752
  19   2.0000      -0.906102       -24.6563
  20   2.0000      -0.859002       -23.3746
  21   2.0000      -0.851470       -23.1697
  22   2.0000      -0.820791       -22.3349
  23   2.0000      -0.788171       -21.4472
  24   2.0000      -0.754000       -20.5174
  25   2.0000      -0.744922       -20.2704
  26   2.0000      -0.709831       -19.3155
  27   2.0000      -0.682338       -18.5674
  28   2.0000      -0.678124       -18.4527
  29   2.0000      -0.635514       -17.2932
  30   2.0000      -0.624903       -17.0045
  31   2.0000      -0.613872       -16.7043
  32   2.0000      -0.592082       -16.1114
  33   2.0000      -0.580308       -15.7910
  34   2.0000      -0.574625       -15.6363
  35   2.0000      -0.563166       -15.3245
  36   0.0000      -0.090294        -2.4570
  37   0.0000      -0.073371        -1.9965
  38   0.0000      -0.066011        -1.7962
  39   0.0000      -0.055094        -1.4992
  40   0.0000      -0.046037        -1.2527

MULLIKEN ATOMIC CHARGES
-----------------------
   0 C :   -0.487687
   1 N :   -0.029906
   2 C :    0.723370
   3 N :   -0.304864
   4 N :   -0.525088
   5 H :    0.146230
   6 H :    0.141296
   7 H :    0.148624
   8 H :    0.212786
   9 H :    0.169182
  10 C :   -0.428542
  11 H :    0.351850
  12 H :    0.280555
  13 C :   -0.369317
  14 H :    0.371004
  15 H :    0.191349
  16 C :   -0.478833
  17 H :    0.272997
  18 H :    0.264745
  19 C :   -0.998300
  20 H :    0.251128
  21 H :    0.219180
  22 H :    0.298257
  23 H :    0.301709
  24 H :    0.278275
Sum of atomic charges:    1.0000000

LOEWDIN ATOMIC CHARGES
----------------------
   0 C :    0.246593
   1 N :    0.621596
   2 C :   -0.360655
   3 N :    0.949577
   4 N :    0.936214
   5 H :   -0.242585
   6 H :   -0.236389
   7 H :   -0.239855
   8 H :   -0.277947
   9 H :   -0.244257
  10 C :    0.312514
  11 H :   -0.117129
  12 H :   -0.141076
  13 C :    0.276254
  14 H :   -0.122511
  15 H :   -0.145679
  16 C :    0.273626
  17 H :   -0.126627
  18 H :   -0.163974
  19 C :    0.615921
  20 H :   -0.133499
  21 H :   -0.145439
  22 H :   -0.175662
  23 H :   -0.181656
  24 H :   -0.177355

  Mayer bond orders larger than 0.100000
B(  0-C ,  1-N ) :   0.8848 B(  0-C , 10-C ) :   0.9900 B(  0-C , 11-H ) :   0.9457
B(  0-C , 12-H ) :   0.9333 B(  1-N ,  2-C ) :   0.9299 B(  1-N ,  7-H ) :   0.9980
B(  2-C ,  3-N ) :   0.9359 B(  2-C ,  4-N ) :   0.9446 B(  3-N ,  4-N ) :  -0.1027
B(  3-N ,  8-H ) :   1.0015 B(  3-N ,  9-H ) :   0.9972 B(  4-N ,  5-H ) :   1.0875
B(  4-N ,  6-H ) :   1.0819 B( 10-C , 13-C ) :   0.8340 B( 10-C , 14-H ) :   0.8734
B( 10-C , 15-H ) :   1.0049 B( 13-C , 16-C ) :   0.8671 B( 13-C , 17-H ) :   0.9648
B( 13-C , 18-H ) :   0.9579 B( 16-C , 19-C ) :   0.8543 B( 16-C , 20-H ) :   0.9418
B( 16-C , 21-H ) :   0.9960 B( 19-C , 22-H ) :   0.9876 B( 19-C , 23-H ) :   0.9290
B( 19-C , 24-H ) :   0.9715

E(0)                                       ...   -399.850556651
E(0)                                       ...   -399.850556651
E(CORR)(strong-pairs)                      ...     -1.744035215
E(CORR)(weak-pairs)                        ...     -0.002390258
E(CORR)(corrected)                         ...     -1.746425473
E(TOT)                                     ...   -401.596982125
E(CCSD(T))                                 ...   -401.667239542
FINAL SINGLE POINT ENERGY      -401.667239542336

DIPOLE MOMENT
-------------
                                X             Y             Z
Electronic contribution:     10.62444       0.47107       5.85360
Nuclear contribution   :     -7.76207      -0.34873      -4.79295
                        -----------------------------------------
Total Dipole Moment    :      2.86237       0.12234       1.06064
                        -----------------------------------------
Magnitude (a.u.)       :      3.05501
Magnitude (Debye)      :      7.76523

Rotational constants in cm-1:     0.090389     0.022892     0.020733
Rotational constants in MHz :  2709.783883   686.298683   621.572538

                             ****ORCA TERMINATED NORMALLY****
TOTAL RUN TIME: 0 days 1 hours 26 minutes 42 seconds 616 msec
