                         Program Version 5.0.0 -  RELEASE  -
|  1> !DLPNO-CCSD(T) aug-cc-pVTZ aug-cc-pVTZ/C TightSCF TightPNO RIJCOSX def2/J
|  2> *xyz -1 1
|  3> C          3.91385       -1.65829        3.01513
|  4> C          4.08422        1.74208       -2.11472
|  5> C          4.26524        2.50052       -0.79589
|  6> H          4.86853        3.39267       -0.98113
|  7> H          3.30764        2.82457       -0.38781
|  8> C          4.98224        1.65026        0.24742
|  9> O          4.36806        1.38927        1.31371
| 10> O          6.12892        1.23351       -0.04562
| 11> C          3.13916       -2.37657        1.91061
| 12> C          1.99727        0.43092       -1.39922
| 13> C          3.41275        0.37689       -1.96550
| 14> H          4.04741       -0.24659       -1.32671
| 15> H          3.39077       -0.11872       -2.94284
| 16> H          5.06847        1.59850       -2.56573
| 17> H          3.50336        2.36394       -2.80457
| 18> C          2.39995       -1.38958        1.00949
| 19> H          2.44075       -3.08712        2.36298
| 20> H          3.84448       -2.97046        1.31868
| 21> C          2.07018       -1.93671       -0.37240
| 22> H          1.48161       -1.06154        1.50991
| 23> H          3.00863       -0.49000        0.89745
| 24> C          1.32224       -0.93577       -1.25641
| 25> H          1.47275       -2.85090       -0.28400
| 26> H          3.00354       -2.23404       -0.86254
| 27> H          1.37644        1.05892       -2.04742
| 28> H          2.01534        0.92978       -0.42653
| 29> H          0.31665       -0.78721       -0.84828
| 30> H          1.18561       -1.37925       -2.24861
| 31> H          4.59802       -0.96242        2.57629
| 32> H          4.45705       -2.37561        3.59417
| 33> H          3.22883       -1.13399        3.64819
| 34> *
| 35> %MaxCore 64000
| 36> %pal nprocs 4
| 37> end
| 38> %scf
| 39>   MaxIter 150
| 40> end
| 41>
| 42>                          ****END OF INPUT****

CARTESIAN COORDINATES (ANGSTROEM)
---------------------------------
  C      3.913850   -1.658290    3.015130
  C      4.084220    1.742080   -2.114720
  C      4.265240    2.500520   -0.795890
  H      4.868530    3.392670   -0.981130
  H      3.307640    2.824570   -0.387810
  C      4.982240    1.650260    0.247420
  O      4.368060    1.389270    1.313710
  O      6.128920    1.233510   -0.045620
  C      3.139160   -2.376570    1.910610
  C      1.997270    0.430920   -1.399220
  C      3.412750    0.376890   -1.965500
  H      4.047410   -0.246590   -1.326710
  H      3.390770   -0.118720   -2.942840
  H      5.068470    1.598500   -2.565730
  H      3.503360    2.363940   -2.804570
  C      2.399950   -1.389580    1.009490
  H      2.440750   -3.087120    2.362980
  H      3.844480   -2.970460    1.318680
  C      2.070180   -1.936710   -0.372400
  H      1.481610   -1.061540    1.509910
  H      3.008630   -0.490000    0.897450
  C      1.322240   -0.935770   -1.256410
  H      1.472750   -2.850900   -0.284000
  H      3.003540   -2.234040   -0.862540
  H      1.376440    1.058920   -2.047420
  H      2.015340    0.929780   -0.426530
  H      0.316650   -0.787210   -0.848280
  H      1.185610   -1.379250   -2.248610
  H      4.598020   -0.962420    2.576290
  H      4.457050   -2.375610    3.594170
  H      3.228830   -1.133990    3.648190

 Total Charge           Charge          ....   -1
 Multiplicity           Mult            ....    1
 Number of Electrons    NEL             ....   96
 Basis Dimension        Dim             ....  989

ORBITAL ENERGIES
----------------

  NO   OCC          E(Eh)            E(eV)
   0   2.0000     -20.298555      -552.3518
   1   2.0000     -20.295876      -552.2789
   2   2.0000     -11.138601      -303.0967
   3   2.0000     -11.105118      -302.1856
   4   2.0000     -11.099337      -302.0283
   5   2.0000     -11.094796      -301.9048
   6   2.0000     -11.092308      -301.8371
   7   2.0000     -11.085951      -301.6641
   8   2.0000     -11.083894      -301.6081
   9   2.0000     -11.080446      -301.5143
  10   2.0000     -11.071506      -301.2710
  11   2.0000     -11.061898      -301.0095
  12   2.0000      -1.178629       -32.0721
  13   2.0000      -1.070887       -29.1403
  14   2.0000      -0.978051       -26.6141
  15   2.0000      -0.941929       -25.6312
  16   2.0000      -0.905375       -24.6365
  17   2.0000      -0.848369       -23.0853
  18   2.0000      -0.795636       -21.6503
  19   2.0000      -0.745143       -20.2764
  20   2.0000      -0.690245       -18.7825
  21   2.0000      -0.668627       -18.1943
  22   2.0000      -0.634142       -17.2559
  23   2.0000      -0.530786       -14.4434
  24   2.0000      -0.525525       -14.3003
  25   2.0000      -0.513443       -13.9715
  26   2.0000      -0.487494       -13.2654
  27   2.0000      -0.479723       -13.0539
  28   2.0000      -0.469700       -12.7812
  29   2.0000      -0.444822       -12.1042
  30   2.0000      -0.435985       -11.8638
  31   2.0000      -0.430123       -11.7042
  32   2.0000      -0.410641       -11.1741
  33   2.0000      -0.408988       -11.1291
  34   2.0000      -0.389173       -10.5899
  35   2.0000      -0.380318       -10.3490
  36   2.0000      -0.372535       -10.1372
  37   2.0000      -0.365356        -9.9418
  38   2.0000      -0.354698        -9.6518
  39   2.0000      -0.343787        -9.3549
  40   2.0000      -0.336215        -9.1489
  41   2.0000      -0.324203        -8.8220
  42   2.0000      -0.316142        -8.6027
  43   2.0000      -0.313713        -8.5366
  44   2.0000      -0.312989        -8.5169
  45   2.0000      -0.212652        -5.7866
  46   2.0000      -0.209810        -5.7092
  47   2.0000      -0.200087        -5.4447
  48   0.0000       0.098486         2.6799
  49   0.0000       0.104156         2.8342
  50   0.0000       0.109405         2.9771
  51   0.0000       0.110933         3.0186
  52   0.0000       0.119598         3.2544

MULLIKEN ATOMIC CHARGES
-----------------------
   0 C :   -1.166282
   1 C :   -0.613015
   2 C :   -0.304254
   3 H :    0.373623
   4 H :    0.098611
   5 C :    1.011173
   6 O :   -1.051504
   7 O :   -1.110990
   8 C :   -0.588834
   9 C :   -0.312211
  10 C :   -0.385001
  11 H :    0.157219
  12 H :    0.369094
  13 H :    0.142183
  14 H :    0.219576
  15 C :   -0.477553
  16 H :    0.204605
  17 H :    0.213480
  18 C :   -0.335638
  19 H :    0.235559
  20 H :    0.581345
  21 C :   -0.756490
  22 H :    0.562783
  23 H :    0.052862
  24 H :    0.507925
  25 H :    0.145662
  26 H :    0.114623
  27 H :    0.140645
  28 H :    0.387808
  29 H :    0.296720
  30 H :    0.286274
Sum of atomic charges:   -1.0000000

LOEWDIN ATOMIC CHARGES
----------------------
   0 C :    0.593963
   1 C :    0.258536
   2 C :    0.205275
   3 H :   -0.168988
   4 H :   -0.192350
   5 C :   -1.181277
   6 O :    0.317673
   7 O :    0.280514
   8 C :    0.267365
   9 C :    0.276344
  10 C :    0.271241
  11 H :   -0.163533
  12 H :   -0.139097
  13 H :   -0.157002
  14 H :   -0.156008
  15 C :    0.270835
  16 H :   -0.154362
  17 H :   -0.150055
  18 C :    0.273395
  19 H :   -0.128110
  20 H :   -0.230747
  21 C :    0.285317
  22 H :   -0.144101
  23 H :   -0.152036
  24 H :   -0.140723
  25 H :   -0.167038
  26 H :   -0.148903
  27 H :   -0.150757
  28 H :   -0.199145
  29 H :   -0.195465
  30 H :   -0.180763

  Mayer bond orders larger than 0.100000
B(  0-C ,  8-C ) :   0.8185 B(  0-C , 28-H ) :   0.8862 B(  0-C , 29-H ) :   0.9916
B(  0-C , 30-H ) :   0.9657 B(  1-C ,  2-C ) :   0.9314 B(  1-C ,  5-C ) :   0.1366
B(  1-C , 10-C ) :   0.8380 B(  1-C , 13-H ) :   1.0764 B(  1-C , 14-H ) :   0.9508
B(  2-C ,  3-H ) :   0.9185 B(  2-C ,  4-H ) :   1.0660 B(  2-C ,  5-C ) :   0.7145
B(  3-H ,  5-C ) :  -0.1316 B(  4-H ,  5-C ) :   0.1357 B(  5-C ,  6-O ) :   1.1647
B(  5-C ,  7-O ) :   0.9161 B(  8-C , 15-C ) :   0.7967 B(  8-C , 16-H ) :   1.0360
B(  8-C , 17-H ) :   0.9779 B(  9-C , 10-C ) :   0.8281 B(  9-C , 21-C ) :   0.8793
B(  9-C , 24-H ) :   0.7295 B(  9-C , 25-H ) :   1.1093 B( 10-C , 11-H ) :   1.0735
B( 10-C , 12-H ) :   0.8478 B( 15-C , 18-C ) :   0.7950 B( 15-C , 19-H ) :   1.0505
B( 15-C , 20-H ) :   0.7639 B( 18-C , 21-C ) :   0.9238 B( 18-C , 22-H ) :   0.6822
B( 18-C , 23-H ) :   1.1409 B( 21-C , 26-H ) :   1.1123 B( 21-C , 27-H ) :   1.0738
B( 26-H , 27-H ) :   0.1015

E(0)                                       ...   -539.707887999
E(0)                                       ...   -539.707887999
E(CORR)(strong-pairs)                      ...     -2.339808347
E(CORR)(weak-pairs)                        ...     -0.003880385
E(CORR)(corrected)                         ...     -2.343688732
E(TOT)                                     ...   -542.051576731
E(CCSD(T))                                 ...   -542.149697803
FINAL SINGLE POINT ENERGY      -542.149697803037

DIPOLE MOMENT
-------------
                                X             Y             Z
Electronic contribution:      7.02948       7.18590       0.21755
Nuclear contribution   :     -9.74185      -8.60984      -1.45569
                        -----------------------------------------
Total Dipole Moment    :     -2.71236      -1.42394      -1.23814
                        -----------------------------------------
Magnitude (a.u.)       :      3.30416
Magnitude (Debye)      :      8.39852

Rotational constants in cm-1:     0.032584     0.022194     0.014806
Rotational constants in MHz :   976.858159   665.350414   443.863530

                             ****ORCA TERMINATED NORMALLY****
TOTAL RUN TIME: 0 days 8 hours 38 minutes 50 seconds 514 msec
