                         Program Version 5.0.0 -  RELEASE  -
|  1> !DLPNO-CCSD(T) aug-cc-pVTZ aug-cc-pVTZ/C TightSCF TightPNO RIJCOSX def2/J
|  2> *xyz 1 1
|  3> C          3.91385       -1.65829        3.01513
|  4> N          5.03927       -0.90115        2.49282
|  5> C          6.21038       -1.41726        2.17824
|  6> N          6.53591       -2.67712        2.55608
|  7> N          7.07675       -0.70082        1.47891
|  8> H          7.95464       -1.12155        1.20755
|  9> H          6.75616        0.10664        0.96028
| 10> H          4.84217        0.01761        2.11519
| 11> H          5.99388       -3.12692        3.28278
| 12> H          7.49844       -2.97548        2.46878
| 13> C          3.13916       -2.37657        1.91061
| 14> H          3.26723       -0.93940        3.52069
| 15> H          4.24720       -2.35509        3.79006
| 16> C          1.99727        0.43092       -1.39922
| 17> C          2.39995       -1.38958        1.00949
| 18> H          2.44075       -3.08712        2.36298
| 19> H          3.84448       -2.97046        1.31868
| 20> C          2.07018       -1.93671       -0.37240
| 21> H          1.48161       -1.06154        1.50991
| 22> H          3.00863       -0.49000        0.89745
| 23> C          1.32224       -0.93577       -1.25641
| 24> H          1.47275       -2.85090       -0.28400
| 25> H          3.00354       -2.23404       -0.86254
| 26> H          0.31665       -0.78721       -0.84828
| 27> H          1.18561       -1.37925       -2.24861
| 28> H          1.40357        1.05764       -2.03139
| 29> H          2.96811        0.30580       -1.83133
| 30> H          2.09191        0.88450       -0.43475
| 31> *
| 32> %MaxCore 64000
| 33> %pal nprocs 8
| 34> end
| 35> %scf
| 36>   MaxIter 150
| 37> end
| 38>
| 39>                          ****END OF INPUT****

CARTESIAN COORDINATES (ANGSTROEM)
---------------------------------
  C      3.913850   -1.658290    3.015130
  N      5.039270   -0.901150    2.492820
  C      6.210380   -1.417260    2.178240
  N      6.535910   -2.677120    2.556080
  N      7.076750   -0.700820    1.478910
  H      7.954640   -1.121550    1.207550
  H      6.756160    0.106640    0.960280
  H      4.842170    0.017610    2.115190
  H      5.993880   -3.126920    3.282780
  H      7.498440   -2.975480    2.468780
  C      3.139160   -2.376570    1.910610
  H      3.267230   -0.939400    3.520690
  H      4.247200   -2.355090    3.790060
  C      1.997270    0.430920   -1.399220
  C      2.399950   -1.389580    1.009490
  H      2.440750   -3.087120    2.362980
  H      3.844480   -2.970460    1.318680
  C      2.070180   -1.936710   -0.372400
  H      1.481610   -1.061540    1.509910
  H      3.008630   -0.490000    0.897450
  C      1.322240   -0.935770   -1.256410
  H      1.472750   -2.850900   -0.284000
  H      3.003540   -2.234040   -0.862540
  H      0.316650   -0.787210   -0.848280
  H      1.185610   -1.379250   -2.248610
  H      1.403570    1.057640   -2.031390
  H      2.968110    0.305800   -1.831330
  H      2.091910    0.884500   -0.434750

 Total Charge           Charge          ....    1
 Multiplicity           Mult            ....    1
 Number of Electrons    NEL             ....   80
 Basis Dimension        Dim             ....  874

ORBITAL ENERGIES
----------------

  NO   OCC          E(Eh)            E(eV)
   0   2.0000     -15.783082      -429.4795
   1   2.0000     -15.779968      -429.3948
   2   2.0000     -15.779050      -429.3698
   3   2.0000     -11.583812      -315.2115
   4   2.0000     -11.425537      -310.9047
   5   2.0000     -11.356953      -309.0384
   6   2.0000     -11.338128      -308.5262
   7   2.0000     -11.320266      -308.0401
   8   2.0000     -11.307883      -307.7031
   9   2.0000     -11.294908      -307.3501
  10   2.0000      -1.537815       -41.8461
  11   2.0000      -1.403407       -38.1886
  12   2.0000      -1.383321       -37.6421
  13   2.0000      -1.215161       -33.0662
  14   2.0000      -1.162283       -31.6273
  15   2.0000      -1.097349       -29.8604
  16   2.0000      -1.044858       -28.4320
  17   2.0000      -1.008374       -27.4393
  18   2.0000      -0.973237       -26.4831
  19   2.0000      -0.952386       -25.9157
  20   2.0000      -0.920675       -25.0529
  21   2.0000      -0.879802       -23.9406
  22   2.0000      -0.858188       -23.3525
  23   2.0000      -0.850760       -23.1504
  24   2.0000      -0.819897       -22.3105
  25   2.0000      -0.787483       -21.4285
  26   2.0000      -0.752671       -20.4812
  27   2.0000      -0.744498       -20.2588
  28   2.0000      -0.712714       -19.3939
  29   2.0000      -0.697187       -18.9714
  30   2.0000      -0.691802       -18.8249
  31   2.0000      -0.645104       -17.5542
  32   2.0000      -0.635596       -17.2954
  33   2.0000      -0.623526       -16.9670
  34   2.0000      -0.616946       -16.7880
  35   2.0000      -0.597554       -16.2603
  36   2.0000      -0.583945       -15.8900
  37   2.0000      -0.560929       -15.2637
  38   2.0000      -0.558520       -15.1981
  39   2.0000      -0.551768       -15.0144
  40   0.0000      -0.089579        -2.4376
  41   0.0000      -0.071964        -1.9582
  42   0.0000      -0.065874        -1.7925
  43   0.0000      -0.054368        -1.4794
  44   0.0000      -0.045087        -1.2269

MULLIKEN ATOMIC CHARGES
-----------------------
   0 C :   -0.529014
   1 N :   -0.006347
   2 C :    0.676405
   3 N :   -0.314353
   4 N :   -0.517144
   5 H :    0.142048
   6 H :    0.141217
   7 H :    0.215449
   8 H :    0.209582
   9 H :    0.169218
  10 C :   -0.466360
  11 H :    0.276310
  12 H :    0.350679
  13 C :   -0.954217
  14 C :   -0.317561
  15 H :    0.329243
  16 H :    0.155305
  17 C :   -0.459869
  18 H :    0.278305
  19 H :    0.266183
  20 C :   -0.464051
  21 H :    0.230309
  22 H :    0.229254
  23 H :    0.221413
  24 H :    0.293013
  25 H :    0.275894
  26 H :    0.255888
  27 H :    0.313204
Sum of atomic charges:    1.0000000

LOEWDIN ATOMIC CHARGES
----------------------
   0 C :    0.248365
   1 N :    0.622881
   2 C :   -0.360327
   3 N :    0.949635
   4 N :    0.936247
   5 H :   -0.242610
   6 H :   -0.236431
   7 H :   -0.238452
   8 H :   -0.277980
   9 H :   -0.244320
  10 C :    0.317873
  11 H :   -0.116765
  12 H :   -0.141004
  13 C :    0.605893
  14 C :    0.275328
  15 H :   -0.122197
  16 H :   -0.144477
  17 C :    0.292292
  18 H :   -0.118750
  19 H :   -0.186281
  20 C :    0.285939
  21 H :   -0.129773
  22 H :   -0.141835
  23 H :   -0.141191
  24 H :   -0.138945
  25 H :   -0.171923
  26 H :   -0.178126
  27 H :   -0.203065

  Mayer bond orders larger than 0.100000
B(  0-C ,  1-N ) :   0.9126 B(  0-C ,  2-C ) :  -0.1020 B(  0-C , 10-C ) :   0.9693
B(  0-C , 11-H ) :   1.0281 B(  0-C , 12-H ) :   0.8633 B(  1-N ,  2-C ) :   0.9378
B(  1-N ,  7-H ) :   0.9261 B(  2-C ,  3-N ) :   0.9122 B(  2-C ,  4-N ) :   0.9478
B(  3-N ,  4-N ) :  -0.1055 B(  3-N ,  8-H ) :   1.0065 B(  3-N ,  9-H ) :   0.9942
B(  4-N ,  5-H ) :   1.0903 B(  4-N ,  6-H ) :   1.0830 B( 10-C , 14-C ) :   0.8571
B( 10-C , 15-H ) :   0.9065 B( 10-C , 16-H ) :   1.0231 B( 13-C , 20-C ) :   0.8166
B( 13-C , 25-H ) :   1.0109 B( 13-C , 26-H ) :   0.9704 B( 13-C , 27-H ) :   0.9128
B( 14-C , 17-C ) :   0.7853 B( 14-C , 18-H ) :   0.9675 B( 14-C , 19-H ) :   0.9472
B( 17-C , 20-C ) :   0.9346 B( 17-C , 21-H ) :   0.9594 B( 17-C , 22-H ) :   0.9877
B( 20-C , 23-H ) :   0.9805 B( 20-C , 24-H ) :   0.9435

E(0)                                       ...   -438.895755114
E(0)                                       ...   -438.895755114
E(CORR)(strong-pairs)                      ...     -1.932153665
E(CORR)(weak-pairs)                        ...     -0.002820068
E(CORR)(corrected)                         ...     -1.934973732
E(TOT)                                     ...   -440.830728846
E(CCSD(T))                                 ...   -440.908732003
FINAL SINGLE POINT ENERGY      -440.908732002865

DIPOLE MOMENT
-------------
                                X             Y             Z
Electronic contribution:     11.05062      -1.41518       7.14377
Nuclear contribution   :     -7.84703       1.20060      -5.62405
                        -----------------------------------------
Total Dipole Moment    :      3.20359      -0.21458       1.51972
                        -----------------------------------------
Magnitude (a.u.)       :      3.55226
Magnitude (Debye)      :      9.02913

Rotational constants in cm-1:     0.068282     0.018588     0.016433
Rotational constants in MHz :  2047.055736   557.258811   492.646936

                             ****ORCA TERMINATED NORMALLY****
TOTAL RUN TIME: 0 days 2 hours 11 minutes 28 seconds 935 msec
