                         Program Version 5.0.0 -  RELEASE  -
|  1> !DLPNO-CCSD(T) aug-cc-pVTZ aug-cc-pVTZ/C TightSCF TightPNO RIJCOSX def2/J
|  2> *xyz 1 1
|  3> C          3.91385       -1.65829        3.01513
|  4> N          5.03927       -0.90115        2.49282
|  5> C          6.21038       -1.41726        2.17824
|  6> N          6.53591       -2.67712        2.55608
|  7> N          7.07675       -0.70082        1.47891
|  8> H          7.95464       -1.12155        1.20755
|  9> H          6.75616        0.10664        0.96028
| 10> H          4.84217        0.01761        2.11519
| 11> H          5.99388       -3.12692        3.28278
| 12> H          7.49844       -2.97548        2.46878
| 13> C          3.13916       -2.37657        1.91061
| 14> H          3.26723       -0.93940        3.52069
| 15> H          4.24720       -2.35509        3.79006
| 16> C          1.99727        0.43092       -1.39922
| 17> C          3.41275        0.37689       -1.96550
| 18> C          2.39995       -1.38958        1.00949
| 19> H          2.44075       -3.08712        2.36298
| 20> H          3.84448       -2.97046        1.31868
| 21> C          2.07018       -1.93671       -0.37240
| 22> H          1.48161       -1.06154        1.50991
| 23> H          3.00863       -0.49000        0.89745
| 24> C          1.32224       -0.93577       -1.25641
| 25> H          1.47275       -2.85090       -0.28400
| 26> H          3.00354       -2.23404       -0.86254
| 27> H          1.37644        1.05892       -2.04742
| 28> H          2.01534        0.92978       -0.42653
| 29> H          0.31665       -0.78721       -0.84828
| 30> H          1.18561       -1.37925       -2.24861
| 31> H          3.39759       -0.11102       -2.91766
| 32> H          4.04439       -0.16810       -1.29548
| 33> H          3.78910        1.37189       -2.08055
| 34> *
| 35> %MaxCore 64000
| 36> %pal nprocs 8
| 37> end
| 38> %scf
| 39>   MaxIter 150
| 40> end
| 41>
| 42>                          ****END OF INPUT****

CARTESIAN COORDINATES (ANGSTROEM)
---------------------------------
  C      3.913850   -1.658290    3.015130
  N      5.039270   -0.901150    2.492820
  C      6.210380   -1.417260    2.178240
  N      6.535910   -2.677120    2.556080
  N      7.076750   -0.700820    1.478910
  H      7.954640   -1.121550    1.207550
  H      6.756160    0.106640    0.960280
  H      4.842170    0.017610    2.115190
  H      5.993880   -3.126920    3.282780
  H      7.498440   -2.975480    2.468780
  C      3.139160   -2.376570    1.910610
  H      3.267230   -0.939400    3.520690
  H      4.247200   -2.355090    3.790060
  C      1.997270    0.430920   -1.399220
  C      3.412750    0.376890   -1.965500
  C      2.399950   -1.389580    1.009490
  H      2.440750   -3.087120    2.362980
  H      3.844480   -2.970460    1.318680
  C      2.070180   -1.936710   -0.372400
  H      1.481610   -1.061540    1.509910
  H      3.008630   -0.490000    0.897450
  C      1.322240   -0.935770   -1.256410
  H      1.472750   -2.850900   -0.284000
  H      3.003540   -2.234040   -0.862540
  H      1.376440    1.058920   -2.047420
  H      2.015340    0.929780   -0.426530
  H      0.316650   -0.787210   -0.848280
  H      1.185610   -1.379250   -2.248610
  H      3.397590   -0.111020   -2.917660
  H      4.044390   -0.168100   -1.295480
  H      3.789100    1.371890   -2.080550

 Total Charge           Charge          ....    1
 Multiplicity           Mult            ....    1
 Number of Electrons    NEL             ....   88
 Basis Dimension        Dim             ....  966

ORBITAL ENERGIES
----------------

  NO   OCC          E(Eh)            E(eV)
   0   2.0000     -15.782247      -429.4568
   1   2.0000     -15.779354      -429.3781
   2   2.0000     -15.778371      -429.3513
   3   2.0000     -11.583109      -315.1924
   4   2.0000     -11.424971      -310.8893
   5   2.0000     -11.356358      -309.0222
   6   2.0000     -11.337413      -308.5067
   7   2.0000     -11.319232      -308.0120
   8   2.0000     -11.306853      -307.6751
   9   2.0000     -11.306213      -307.6577
  10   2.0000     -11.298513      -307.4482
  11   2.0000      -1.537112       -41.8269
  12   2.0000      -1.402705       -38.1696
  13   2.0000      -1.382634       -37.6234
  14   2.0000      -1.215498       -33.0754
  15   2.0000      -1.171471       -31.8773
  16   2.0000      -1.117185       -30.4001
  17   2.0000      -1.061779       -28.8925
  18   2.0000      -1.029705       -28.0197
  19   2.0000      -0.980095       -26.6697
  20   2.0000      -0.970786       -26.4164
  21   2.0000      -0.939266       -25.5587
  22   2.0000      -0.918205       -24.9856
  23   2.0000      -0.862413       -23.4675
  24   2.0000      -0.856048       -23.2943
  25   2.0000      -0.849720       -23.1221
  26   2.0000      -0.819355       -22.2958
  27   2.0000      -0.786818       -21.4104
  28   2.0000      -0.756094       -20.5744
  29   2.0000      -0.744829       -20.2678
  30   2.0000      -0.721199       -19.6248
  31   2.0000      -0.707460       -19.2510
  32   2.0000      -0.692492       -18.8437
  33   2.0000      -0.662752       -18.0344
  34   2.0000      -0.648326       -17.6419
  35   2.0000      -0.633084       -17.2271
  36   2.0000      -0.620326       -16.8799
  37   2.0000      -0.612936       -16.6788
  38   2.0000      -0.600776       -16.3479
  39   2.0000      -0.590288       -16.0626
  40   2.0000      -0.576356       -15.6834
  41   2.0000      -0.550370       -14.9763
  42   2.0000      -0.547803       -14.9065
  43   2.0000      -0.545158       -14.8345
  44   0.0000      -0.088288        -2.4024
  45   0.0000      -0.070290        -1.9127
  46   0.0000      -0.065522        -1.7830
  47   0.0000      -0.052577        -1.4307
  48   0.0000      -0.044605        -1.2138

MULLIKEN ATOMIC CHARGES
-----------------------
   0 C :   -0.551745
   1 N :    0.088966
   2 C :    0.716823
   3 N :   -0.345417
   4 N :   -0.514227
   5 H :    0.133198
   6 H :    0.157565
   7 H :    0.169307
   8 H :    0.204312
   9 H :    0.161147
  10 C :   -0.466371
  11 H :    0.261913
  12 H :    0.322308
  13 C :   -0.366701
  14 C :   -1.055516
  15 C :   -0.348466
  16 H :    0.311646
  17 H :    0.134916
  18 C :   -0.363318
  19 H :    0.299895
  20 H :    0.185990
  21 C :   -0.596339
  22 H :    0.462174
  23 H :    0.081476
  24 H :    0.388122
  25 H :    0.123427
  26 H :    0.205468
  27 H :    0.236345
  28 H :    0.194836
  29 H :    0.535749
  30 H :    0.232517
Sum of atomic charges:    1.0000000

LOEWDIN ATOMIC CHARGES
----------------------
   0 C :    0.249231
   1 N :    0.623605
   2 C :   -0.360888
   3 N :    0.949820
   4 N :    0.936387
   5 H :   -0.242378
   6 H :   -0.236718
   7 H :   -0.238235
   8 H :   -0.278010
   9 H :   -0.244327
  10 C :    0.320270
  11 H :   -0.116573
  12 H :   -0.140972
  13 C :    0.271861
  14 C :    0.600904
  15 C :    0.277809
  16 H :   -0.121940
  17 H :   -0.143350
  18 C :    0.291344
  19 H :   -0.116974
  20 H :   -0.188922
  21 C :    0.300999
  22 H :   -0.126487
  23 H :   -0.148531
  24 H :   -0.134640
  25 H :   -0.160797
  26 H :   -0.137176
  27 H :   -0.135033
  28 H :   -0.169000
  29 H :   -0.204456
  30 H :   -0.176825

  Mayer bond orders larger than 0.100000
B(  0-C ,  1-N ) :   0.9041 B(  0-C , 10-C ) :   0.9585 B(  0-C , 11-H ) :   1.0317
B(  0-C , 12-H ) :   0.8917 B(  1-N ,  2-C ) :   0.8862 B(  1-N ,  7-H ) :   0.9563
B(  2-C ,  3-N ) :   0.9095 B(  2-C ,  4-N ) :   0.9365 B(  3-N ,  8-H ) :   1.0071
B(  3-N ,  9-H ) :   1.0012 B(  4-N ,  5-H ) :   1.1016 B(  4-N ,  6-H ) :   1.0668
B( 10-C , 15-C ) :   0.8476 B( 10-C , 16-H ) :   0.9059 B( 10-C , 17-H ) :   1.0451
B( 13-C , 14-C ) :   0.7544 B( 13-C , 21-C ) :   0.8817 B( 13-C , 24-H ) :   0.8716
B( 13-C , 25-H ) :   1.0520 B( 14-C , 25-H ) :   0.1011 B( 14-C , 28-H ) :   1.0914
B( 14-C , 29-H ) :   0.7188 B( 14-C , 30-H ) :   1.0419 B( 15-C , 18-C ) :   0.7554
B( 15-C , 19-H ) :   0.9288 B( 15-C , 20-H ) :   1.0291 B( 18-C , 21-C ) :   0.9193
B( 18-C , 22-H ) :   0.7578 B( 18-C , 23-H ) :   1.1341 B( 21-C , 26-H ) :   1.0079
B( 21-C , 27-H ) :   0.9794

E(0)                                       ...   -477.942345210
E(0)                                       ...   -477.942345210
E(CORR)(strong-pairs)                      ...     -2.120511987
E(CORR)(weak-pairs)                        ...     -0.003324426
E(CORR)(corrected)                         ...     -2.123836413
E(TOT)                                     ...   -480.066181623
E(CCSD(T))                                 ...   -480.151959240
FINAL SINGLE POINT ENERGY      -480.151959240146

DIPOLE MOMENT
-------------
                                X             Y             Z
Electronic contribution:     10.12449      -2.09098       8.70353
Nuclear contribution   :     -6.88183       1.63170      -6.72806
                        -----------------------------------------
Total Dipole Moment    :      3.24267      -0.45928       1.97546
                        -----------------------------------------
Magnitude (a.u.)       :      3.82469
Magnitude (Debye)      :      9.72160

Rotational constants in cm-1:     0.051078     0.016872     0.014086
Rotational constants in MHz :  1531.282302   505.802227   422.292033

                             ****ORCA TERMINATED NORMALLY****
TOTAL RUN TIME: 0 days 3 hours 3 minutes 38 seconds 711 msec
