                         Program Version 5.0.0 -  RELEASE  -
|  1> !DLPNO-CCSD(T) aug-cc-pVTZ aug-cc-pVTZ/C TightSCF TightPNO RIJCOSX def2/J
|  2> *xyz -1 1
|  3> C          4.08422        1.74208       -2.11472
|  4> C          4.26524        2.50052       -0.79589
|  5> H          4.86853        3.39267       -0.98113
|  6> H          3.30764        2.82457       -0.38781
|  7> C          4.98224        1.65026        0.24742
|  8> O          4.36806        1.38927        1.31371
|  9> O          6.12892        1.23351       -0.04562
| 10> C          1.99727        0.43092       -1.39922
| 11> C          3.41275        0.37689       -1.96550
| 12> H          4.04741       -0.24659       -1.32671
| 13> H          3.39077       -0.11872       -2.94284
| 14> H          5.06847        1.59850       -2.56573
| 15> H          3.50336        2.36394       -2.80457
| 16> H          1.38433        1.04154       -2.02878
| 17> H          2.02294        0.84749       -0.41397
| 18> H          1.59172       -0.55838       -1.35771
| 19> *
| 20> %MaxCore 64000
| 21> %pal nprocs 8
| 22> end
| 23> %scf
| 24>   MaxIter 150
| 25> end
| 26>
| 27>                          ****END OF INPUT****

CARTESIAN COORDINATES (ANGSTROEM)
---------------------------------
  C      4.084220    1.742080   -2.114720
  C      4.265240    2.500520   -0.795890
  H      4.868530    3.392670   -0.981130
  H      3.307640    2.824570   -0.387810
  C      4.982240    1.650260    0.247420
  O      4.368060    1.389270    1.313710
  O      6.128920    1.233510   -0.045620
  C      1.997270    0.430920   -1.399220
  C      3.412750    0.376890   -1.965500
  H      4.047410   -0.246590   -1.326710
  H      3.390770   -0.118720   -2.942840
  H      5.068470    1.598500   -2.565730
  H      3.503360    2.363940   -2.804570
  H      1.384330    1.041540   -2.028780
  H      2.022940    0.847490   -0.413970
  H      1.591720   -0.558380   -1.357710

 Total Charge           Charge          ....   -1
 Multiplicity           Mult            ....    1
 Number of Electrons    NEL             ....   56
 Basis Dimension        Dim             ....  529

ORBITAL ENERGIES
----------------

  NO   OCC          E(Eh)            E(eV)
   0   2.0000     -20.287670      -552.0556
   1   2.0000     -20.285959      -552.0090
   2   2.0000     -11.128269      -302.8156
   3   2.0000     -11.081217      -301.5353
   4   2.0000     -11.077569      -301.4360
   5   2.0000     -11.076143      -301.3972
   6   2.0000     -11.054792      -300.8162
   7   2.0000      -1.167223       -31.7618
   8   2.0000      -1.059356       -28.8265
   9   2.0000      -0.936803       -25.4917
  10   2.0000      -0.846530       -23.0353
  11   2.0000      -0.746958       -20.3258
  12   2.0000      -0.648555       -17.6481
  13   2.0000      -0.516931       -14.0664
  14   2.0000      -0.494460       -13.4549
  15   2.0000      -0.487075       -13.2540
  16   2.0000      -0.439373       -11.9560
  17   2.0000      -0.417706       -11.3664
  18   2.0000      -0.407670       -11.0933
  19   2.0000      -0.395745       -10.7688
  20   2.0000      -0.371665       -10.1135
  21   2.0000      -0.348477        -9.4825
  22   2.0000      -0.334957        -9.1146
  23   2.0000      -0.316856        -8.6221
  24   2.0000      -0.306375        -8.3369
  25   2.0000      -0.201325        -5.4783
  26   2.0000      -0.199660        -5.4330
  27   2.0000      -0.188993        -5.1428
  28   0.0000       0.109840         2.9889
  29   0.0000       0.117964         3.2100
  30   0.0000       0.120915         3.2903
  31   0.0000       0.133356         3.6288
  32   0.0000       0.142903         3.8886

MULLIKEN ATOMIC CHARGES
-----------------------
   0 C :   -0.387206
   1 C :   -0.258237
   2 H :    0.330332
   3 H :    0.140164
   4 C :    0.751077
   5 O :   -0.981118
   6 O :   -0.973791
   7 C :   -1.016996
   8 C :   -0.504679
   9 H :    0.196972
  10 H :    0.328713
  11 H :    0.208940
  12 H :    0.268973
  13 H :    0.256589
  14 H :    0.385621
  15 H :    0.254646
Sum of atomic charges:   -1.0000000

LOEWDIN ATOMIC CHARGES
----------------------
   0 C :    0.241764
   1 C :    0.190414
   2 H :   -0.172078
   3 H :   -0.195373
   4 C :   -1.213354
   5 O :    0.258605
   6 O :    0.265838
   7 C :    0.584465
   8 C :    0.249244
   9 H :   -0.156177
  10 H :   -0.155543
  11 H :   -0.160628
  12 H :   -0.159826
  13 H :   -0.190657
  14 H :   -0.195781
  15 H :   -0.190912

  Mayer bond orders larger than 0.100000
B(  0-C ,  1-C ) :   0.8951 B(  0-C ,  4-C ) :   0.1139 B(  0-C ,  8-C ) :   0.8179
B(  0-C , 11-H ) :   0.9799 B(  0-C , 12-H ) :   0.9010 B(  1-C ,  2-H ) :   0.9367
B(  1-C ,  3-H ) :   1.0115 B(  1-C ,  4-C ) :   0.6722 B(  3-H ,  4-C ) :   0.1221
B(  4-C ,  5-O ) :   1.2292 B(  4-C ,  6-O ) :   1.2737 B(  7-C ,  8-C ) :   0.8451
B(  7-C , 13-H ) :   0.9667 B(  7-C , 14-H ) :   0.8563 B(  7-C , 15-H ) :   1.0140
B(  8-C ,  9-H ) :   0.9848 B(  8-C , 10-H ) :   0.8926

E(0)                                       ...   -344.470909354
E(0)                                       ...   -344.470909354
E(CORR)(strong-pairs)                      ...     -1.399649148
E(CORR)(weak-pairs)                        ...     -0.001503822
E(CORR)(corrected)                         ...     -1.401152969
E(TOT)                                     ...   -345.872062323
E(CCSD(T))                                 ...   -345.931328419
FINAL SINGLE POINT ENERGY      -345.931328419281

DIPOLE MOMENT
-------------
                                X             Y             Z
Electronic contribution:      6.01068       0.99052       5.90778
Nuclear contribution   :     -7.86199      -0.70595      -8.25765
                        -----------------------------------------
Total Dipole Moment    :     -1.85131       0.28457      -2.34988
                        -----------------------------------------
Magnitude (a.u.)       :      3.00504
Magnitude (Debye)      :      7.63820

Rotational constants in cm-1:     0.135717     0.060708     0.052881
Rotational constants in MHz :  4068.703475  1819.978148  1585.335756

                             ****ORCA TERMINATED NORMALLY****
TOTAL RUN TIME: 0 days 0 hours 33 minutes 29 seconds 904 msec
