                         Program Version 5.0.0 -  RELEASE  -
|  1> !DLPNO-CCSD(T) aug-cc-pVTZ aug-cc-pVTZ/C TightSCF TightPNO RIJCOSX def2/J
|  2> *xyz -1 1
|  3> C          4.08422        1.74208       -2.11472
|  4> C          4.26524        2.50052       -0.79589
|  5> H          4.86853        3.39267       -0.98113
|  6> H          3.30764        2.82457       -0.38781
|  7> C          4.98224        1.65026        0.24742
|  8> O          4.36806        1.38927        1.31371
|  9> O          6.12892        1.23351       -0.04562
| 10> C          3.13916       -2.37657        1.91061
| 11> C          1.99727        0.43092       -1.39922
| 12> C          3.41275        0.37689       -1.96550
| 13> H          4.04741       -0.24659       -1.32671
| 14> H          3.39077       -0.11872       -2.94284
| 15> H          5.06847        1.59850       -2.56573
| 16> H          3.50336        2.36394       -2.80457
| 17> C          2.39995       -1.38958        1.00949
| 18> C          2.07018       -1.93671       -0.37240
| 19> H          1.48161       -1.06154        1.50991
| 20> H          3.00863       -0.49000        0.89745
| 21> C          1.32224       -0.93577       -1.25641
| 22> H          1.47275       -2.85090       -0.28400
| 23> H          3.00354       -2.23404       -0.86254
| 24> H          1.37644        1.05892       -2.04742
| 25> H          2.01534        0.92978       -0.42653
| 26> H          0.31665       -0.78721       -0.84828
| 27> H          1.18561       -1.37925       -2.24861
| 28> H          4.03659       -2.69929        1.42546
| 29> H          2.51297       -3.22286        2.10186
| 30> H          3.38580       -1.89904        2.83583
| 31> *
| 32> %MaxCore 64000
| 33> %pal nprocs 8
| 34> end
| 35> %scf
| 36>   MaxIter 150
| 37> end
| 38>
| 39>                          ****END OF INPUT****

CARTESIAN COORDINATES (ANGSTROEM)
---------------------------------
  C      4.084220    1.742080   -2.114720
  C      4.265240    2.500520   -0.795890
  H      4.868530    3.392670   -0.981130
  H      3.307640    2.824570   -0.387810
  C      4.982240    1.650260    0.247420
  O      4.368060    1.389270    1.313710
  O      6.128920    1.233510   -0.045620
  C      3.139160   -2.376570    1.910610
  C      1.997270    0.430920   -1.399220
  C      3.412750    0.376890   -1.965500
  H      4.047410   -0.246590   -1.326710
  H      3.390770   -0.118720   -2.942840
  H      5.068470    1.598500   -2.565730
  H      3.503360    2.363940   -2.804570
  C      2.399950   -1.389580    1.009490
  C      2.070180   -1.936710   -0.372400
  H      1.481610   -1.061540    1.509910
  H      3.008630   -0.490000    0.897450
  C      1.322240   -0.935770   -1.256410
  H      1.472750   -2.850900   -0.284000
  H      3.003540   -2.234040   -0.862540
  H      1.376440    1.058920   -2.047420
  H      2.015340    0.929780   -0.426530
  H      0.316650   -0.787210   -0.848280
  H      1.185610   -1.379250   -2.248610
  H      4.036590   -2.699290    1.425460
  H      2.512970   -3.222860    2.101860
  H      3.385800   -1.899040    2.835830

 Total Charge           Charge          ....   -1
 Multiplicity           Mult            ....    1
 Number of Electrons    NEL             ....   88
 Basis Dimension        Dim             ....  897

ORBITAL ENERGIES
----------------

  NO   OCC          E(Eh)            E(eV)
   0   2.0000     -20.295629      -552.2721
   1   2.0000     -20.293058      -552.2022
   2   2.0000     -11.135773      -303.0198
   3   2.0000     -11.105019      -302.1829
   4   2.0000     -11.099354      -302.0288
   5   2.0000     -11.091519      -301.8156
   6   2.0000     -11.084889      -301.6352
   7   2.0000     -11.084438      -301.6229
   8   2.0000     -11.082609      -301.5731
   9   2.0000     -11.081603      -301.5458
  10   2.0000     -11.060155      -300.9621
  11   2.0000      -1.175430       -31.9851
  12   2.0000      -1.067693       -29.0534
  13   2.0000      -0.975927       -26.5563
  14   2.0000      -0.933504       -25.4019
  15   2.0000      -0.887828       -24.1590
  16   2.0000      -0.827017       -22.5043
  17   2.0000      -0.770247       -20.9595
  18   2.0000      -0.713484       -19.4149
  19   2.0000      -0.671014       -18.2592
  20   2.0000      -0.632539       -17.2123
  21   2.0000      -0.527833       -14.3631
  22   2.0000      -0.523851       -14.2547
  23   2.0000      -0.510717       -13.8973
  24   2.0000      -0.478337       -13.0162
  25   2.0000      -0.471481       -12.8296
  26   2.0000      -0.462727       -12.5915
  27   2.0000      -0.453696       -12.3457
  28   2.0000      -0.428565       -11.6619
  29   2.0000      -0.418756       -11.3949
  30   2.0000      -0.399727       -10.8771
  31   2.0000      -0.394422       -10.7328
  32   2.0000      -0.382632       -10.4119
  33   2.0000      -0.371805       -10.1173
  34   2.0000      -0.359994        -9.7959
  35   2.0000      -0.351596        -9.5674
  36   2.0000      -0.340376        -9.2621
  37   2.0000      -0.325899        -8.8682
  38   2.0000      -0.321740        -8.7550
  39   2.0000      -0.312999        -8.5171
  40   2.0000      -0.311394        -8.4735
  41   2.0000      -0.209351        -5.6967
  42   2.0000      -0.207046        -5.6340
  43   2.0000      -0.196911        -5.3582
  44   0.0000       0.099111         2.6969
  45   0.0000       0.105495         2.8707
  46   0.0000       0.110347         3.0027
  47   0.0000       0.112649         3.0653
  48   0.0000       0.122825         3.3422

MULLIKEN ATOMIC CHARGES
-----------------------
   0 C :   -0.614188
   1 C :   -0.269205
   2 H :    0.380738
   3 H :    0.082926
   4 C :    0.918220
   5 O :   -1.039837
   6 O :   -1.073492
   7 C :   -1.084828
   8 C :   -0.322896
   9 C :   -0.371059
  10 H :    0.129533
  11 H :    0.391704
  12 H :    0.143907
  13 H :    0.225715
  14 C :   -0.458041
  15 C :   -0.383209
  16 H :    0.214768
  17 H :    0.548548
  18 C :   -0.725931
  19 H :    0.507570
  20 H :    0.084274
  21 H :    0.491013
  22 H :    0.137697
  23 H :    0.146420
  24 H :    0.149582
  25 H :    0.292274
  26 H :    0.225703
  27 H :    0.272094
Sum of atomic charges:   -1.0000000

LOEWDIN ATOMIC CHARGES
----------------------
   0 C :    0.257737
   1 C :    0.202664
   2 H :   -0.169696
   3 H :   -0.193029
   4 C :   -1.187707
   5 O :    0.302287
   6 O :    0.276205
   7 C :    0.602717
   8 C :    0.275032
   9 C :    0.270200
  10 H :   -0.164292
  11 H :   -0.139425
  12 H :   -0.157253
  13 H :   -0.156365
  14 C :    0.260251
  15 C :    0.268779
  16 H :   -0.134176
  17 H :   -0.230396
  18 C :    0.283834
  19 H :   -0.147855
  20 H :   -0.151144
  21 H :   -0.140924
  22 H :   -0.167818
  23 H :   -0.149153
  24 H :   -0.150980
  25 H :   -0.181322
  26 H :   -0.196377
  27 H :   -0.181796

  Mayer bond orders larger than 0.100000
B(  0-C ,  1-C ) :   0.9318 B(  0-C ,  4-C ) :   0.1358 B(  0-C ,  9-C ) :   0.8406
B(  0-C , 12-H ) :   1.0726 B(  0-C , 13-H ) :   0.9379 B(  1-C ,  2-H ) :   0.9173
B(  1-C ,  3-H ) :   1.0591 B(  1-C ,  4-C ) :   0.7146 B(  2-H ,  4-C ) :  -0.1235
B(  3-H ,  4-C ) :   0.1493 B(  4-C ,  5-O ) :   1.2227 B(  4-C ,  6-O ) :   1.0397
B(  7-C , 14-C ) :   0.6549 B(  7-C , 25-H ) :   0.9672 B(  7-C , 26-H ) :   1.0390
B(  7-C , 27-H ) :   1.0255 B(  8-C ,  9-C ) :   0.8220 B(  8-C , 18-C ) :   0.8744
B(  8-C , 21-H ) :   0.7231 B(  8-C , 22-H ) :   1.1280 B(  9-C , 10-H ) :   1.0836
B(  9-C , 11-H ) :   0.8234 B( 14-C , 15-C ) :   0.8497 B( 14-C , 16-H ) :   1.0245
B( 14-C , 17-H ) :   0.7406 B( 15-C , 18-C ) :   0.9207 B( 15-C , 19-H ) :   0.7207
B( 15-C , 20-H ) :   1.1229 B( 18-C , 23-H ) :   1.0685 B( 18-C , 24-H ) :   1.0660

E(0)                                       ...   -500.660425740
E(0)                                       ...   -500.660425740
E(CORR)(strong-pairs)                      ...     -2.151905221
E(CORR)(weak-pairs)                        ...     -0.003273946
E(CORR)(corrected)                         ...     -2.155179167
E(TOT)                                     ...   -502.815604907
E(CCSD(T))                                 ...   -502.905978275
FINAL SINGLE POINT ENERGY      -502.905978275092

DIPOLE MOMENT
-------------
                                X             Y             Z
Electronic contribution:      7.75189       7.06253       2.09910
Nuclear contribution   :    -10.58896      -8.33040      -3.74608
                        -----------------------------------------
Total Dipole Moment    :     -2.83707      -1.26787      -1.64699
                        -----------------------------------------
Magnitude (a.u.)       :      3.51696
Magnitude (Debye)      :      8.93941

Rotational constants in cm-1:     0.042828     0.024669     0.017892
Rotational constants in MHz :  1283.963339   739.557818   536.380459

                             ****ORCA TERMINATED NORMALLY****
TOTAL RUN TIME: 0 days 3 hours 52 minutes 45 seconds 488 msec
