                         Program Version 5.0.0 -  RELEASE  -
|  1> !DLPNO-CCSD(T) aug-cc-pVTZ aug-cc-pVTZ/C TightSCF TightPNO RIJCOSX def2/J
|  2> *xyz -1 1
|  3> C          4.26524        2.50052       -0.79589
|  4> C          4.98224        1.65026        0.24742
|  5> O          4.36806        1.38927        1.31371
|  6> O          6.12892        1.23351       -0.04562
|  7> H          4.90412        2.63966       -1.64287
|  8> H          4.02079        3.45265       -0.37328
|  9> H          3.36773        2.00584       -1.10356
| 10> *
| 11> %MaxCore 64000
| 12> %pal nprocs 8
| 13> end
| 14> %scf
| 15>   MaxIter 150
| 16> end
| 17>
| 18>
| 19>                          ****END OF INPUT****

CARTESIAN COORDINATES (ANGSTROEM)
---------------------------------
  C      4.265240    2.500520   -0.795890
  C      4.982240    1.650260    0.247420
  O      4.368060    1.389270    1.313710
  O      6.128920    1.233510   -0.045620
  H      4.904120    2.639660   -1.642870
  H      4.020790    3.452650   -0.373280
  H      3.367730    2.005840   -1.103560

 Total Charge           Charge          ....   -1
 Multiplicity           Mult            ....    1
 Number of Electrons    NEL             ....   32
 Basis Dimension        Dim             ....  253

ORBITAL ENERGIES
----------------

  NO   OCC          E(Eh)            E(eV)
   0   2.0000     -20.280706      -551.8661
   1   2.0000     -20.278626      -551.8095
   2   2.0000     -11.123651      -302.6899
   3   2.0000     -11.037987      -300.3589
   4   2.0000      -1.159058       -31.5396
   5   2.0000      -1.051551       -28.6141
   6   2.0000      -0.805080       -21.9073
   7   2.0000      -0.510642       -13.8953
   8   2.0000      -0.422050       -11.4846
   9   2.0000      -0.419735       -11.4216
  10   2.0000      -0.412694       -11.2300
  11   2.0000      -0.356262        -9.6944
  12   2.0000      -0.316074        -8.6008
  13   2.0000      -0.195926        -5.3314
  14   2.0000      -0.193197        -5.2572
  15   2.0000      -0.181538        -4.9399
  16   0.0000       0.132608         3.6084
  17   0.0000       0.143233         3.8976
  18   0.0000       0.145426         3.9572
  19   0.0000       0.184354         5.0165
  20   0.0000       0.221170         6.0183

MULLIKEN ATOMIC CHARGES
-----------------------
   0 C :   -0.645650
   1 C :    0.425601
   2 O :   -0.803420
   3 O :   -0.773482
   4 H :    0.293208
   5 H :    0.253154
   6 H :    0.250588
Sum of atomic charges:   -1.0000000

LOEWDIN ATOMIC CHARGES
----------------------
   0 C :    0.480724
   1 C :   -1.234179
   2 O :    0.218707
   3 O :    0.227600
   4 H :   -0.241989
   5 H :   -0.226268
   6 H :   -0.224596

  Mayer bond orders larger than 0.100000
B(  0-C ,  1-C ) :   0.7231 B(  0-C ,  4-H ) :   0.9132 B(  0-C ,  5-H ) :   0.9542
B(  0-C ,  6-H ) :   0.9557 B(  1-C ,  2-O ) :   1.4721 B(  1-C ,  3-O ) :   1.4571

E(0)                                       ...   -227.327755278
E(0)                                       ...   -227.327755278
E(CORR)(strong-pairs)                      ...     -0.836495121
E(CORR)(weak-pairs)                        ...     -0.000622296
E(CORR)(corrected)                         ...     -0.837117417
E(TOT)                                     ...   -228.164872696
E(CCSD(T))                                 ...   -228.200895257
FINAL SINGLE POINT ENERGY      -228.200895256919

DIPOLE MOMENT
-------------
                                X             Y             Z
Electronic contribution:      1.62382      -1.91620       2.33172
Nuclear contribution   :     -2.34880       2.82033      -3.41655
                        -----------------------------------------
Total Dipole Moment    :     -0.72498       0.90412      -1.08483
                        -----------------------------------------
Magnitude (a.u.)       :      1.58742
Magnitude (Debye)      :      4.03490

Rotational constants in cm-1:     0.393413     0.334516     0.186969
Rotational constants in MHz : 11794.232386 10028.538646  5605.197050

                             ****ORCA TERMINATED NORMALLY****
TOTAL RUN TIME: 0 days 0 hours 2 minutes 54 seconds 478 msec
