                         Program Version 5.0.0 -  RELEASE  -
|  1> !DLPNO-CCSD(T) aug-cc-pVTZ aug-cc-pVTZ/C TightSCF TightPNO RIJCOSX def2/J
|  2> *xyz 1 1
|  3> C          3.91385       -1.65829        3.01513
|  4> N          5.03927       -0.90115        2.49282
|  5> C          4.08422        1.74208       -2.11472
|  6> C          6.21038       -1.41726        2.17824
|  7> N          6.53591       -2.67712        2.55608
|  8> N          7.07675       -0.70082        1.47891
|  9> H          7.95464       -1.12155        1.20755
| 10> H          6.75616        0.10664        0.96028
| 11> H          4.84217        0.01761        2.11519
| 12> H          5.99388       -3.12692        3.28278
| 13> H          7.49844       -2.97548        2.46878
| 14> C          3.13916       -2.37657        1.91061
| 15> H          3.26723       -0.93940        3.52069
| 16> H          4.24720       -2.35509        3.79006
| 17> C          1.99727        0.43092       -1.39922
| 18> C          3.41275        0.37689       -1.96550
| 19> H          4.04741       -0.24659       -1.32671
| 20> H          3.39077       -0.11872       -2.94284
| 21> C          2.39995       -1.38958        1.00949
| 22> H          2.44075       -3.08712        2.36298
| 23> H          3.84448       -2.97046        1.31868
| 24> C          2.07018       -1.93671       -0.37240
| 25> H          1.48161       -1.06154        1.50991
| 26> H          3.00863       -0.49000        0.89745
| 27> C          1.32224       -0.93577       -1.25641
| 28> H          1.47275       -2.85090       -0.28400
| 29> H          3.00354       -2.23404       -0.86254
| 30> H          1.37644        1.05892       -2.04742
| 31> H          2.01534        0.92978       -0.42653
| 32> H          0.31665       -0.78721       -0.84828
| 33> H          1.18561       -1.37925       -2.24861
| 34> H          3.48097        2.37022       -2.73636
| 35> H          5.04852        1.61832       -2.56161
| 36> H          4.19316        2.19326       -1.15063
| 37> *
| 38> %MaxCore 64000
| 39> %pal nprocs 4
| 40> end
| 41> %scf
| 42>   MaxIter 150
| 43> end
| 44>
| 45>                          ****END OF INPUT****

CARTESIAN COORDINATES (ANGSTROEM)
---------------------------------
  C      3.913850   -1.658290    3.015130
  N      5.039270   -0.901150    2.492820
  C      4.084220    1.742080   -2.114720
  C      6.210380   -1.417260    2.178240
  N      6.535910   -2.677120    2.556080
  N      7.076750   -0.700820    1.478910
  H      7.954640   -1.121550    1.207550
  H      6.756160    0.106640    0.960280
  H      4.842170    0.017610    2.115190
  H      5.993880   -3.126920    3.282780
  H      7.498440   -2.975480    2.468780
  C      3.139160   -2.376570    1.910610
  H      3.267230   -0.939400    3.520690
  H      4.247200   -2.355090    3.790060
  C      1.997270    0.430920   -1.399220
  C      3.412750    0.376890   -1.965500
  H      4.047410   -0.246590   -1.326710
  H      3.390770   -0.118720   -2.942840
  C      2.399950   -1.389580    1.009490
  H      2.440750   -3.087120    2.362980
  H      3.844480   -2.970460    1.318680
  C      2.070180   -1.936710   -0.372400
  H      1.481610   -1.061540    1.509910
  H      3.008630   -0.490000    0.897450
  C      1.322240   -0.935770   -1.256410
  H      1.472750   -2.850900   -0.284000
  H      3.003540   -2.234040   -0.862540
  H      1.376440    1.058920   -2.047420
  H      2.015340    0.929780   -0.426530
  H      0.316650   -0.787210   -0.848280
  H      1.185610   -1.379250   -2.248610
  H      3.480970    2.370220   -2.736360
  H      5.048520    1.618320   -2.561610
  H      4.193160    2.193260   -1.150630

 Total Charge           Charge          ....    1
 Multiplicity           Mult            ....    1
 Number of Electrons    NEL             ....   96
 Basis Dimension        Dim             .... 1058

ORBITAL ENERGIES
----------------

  NO   OCC          E(Eh)            E(eV)
   0   2.0000     -15.781803      -429.4447
   1   2.0000     -15.778953      -429.3671
   2   2.0000     -15.777874      -429.3378
   3   2.0000     -11.582659      -315.1802
   4   2.0000     -11.424475      -310.8758
   5   2.0000     -11.355762      -309.0060
   6   2.0000     -11.336611      -308.4849
   7   2.0000     -11.318301      -307.9866
   8   2.0000     -11.309423      -307.7450
   9   2.0000     -11.306569      -307.6674
  10   2.0000     -11.304968      -307.6238
  11   2.0000     -11.294227      -307.3315
  12   2.0000      -1.536653       -41.8144
  13   2.0000      -1.402229       -38.1566
  14   2.0000      -1.382219       -37.6121
  15   2.0000      -1.215109       -33.0648
  16   2.0000      -1.176458       -32.0130
  17   2.0000      -1.132725       -30.8230
  18   2.0000      -1.081305       -29.4238
  19   2.0000      -1.040303       -28.3081
  20   2.0000      -1.005272       -27.3548
  21   2.0000      -0.972217       -26.4554
  22   2.0000      -0.955282       -25.9945
  23   2.0000      -0.923456       -25.1285
  24   2.0000      -0.912760       -24.8375
  25   2.0000      -0.860366       -23.4118
  26   2.0000      -0.854896       -23.2629
  27   2.0000      -0.849166       -23.1070
  28   2.0000      -0.818852       -22.2821
  29   2.0000      -0.786382       -21.3985
  30   2.0000      -0.754761       -20.5381
  31   2.0000      -0.745128       -20.2760
  32   2.0000      -0.726486       -19.7687
  33   2.0000      -0.706692       -19.2301
  34   2.0000      -0.687141       -18.6980
  35   2.0000      -0.681204       -18.5365
  36   2.0000      -0.668012       -18.1775
  37   2.0000      -0.636159       -17.3108
  38   2.0000      -0.625112       -17.0102
  39   2.0000      -0.619125       -16.8472
  40   2.0000      -0.615482       -16.7481
  41   2.0000      -0.591096       -16.0845
  42   2.0000      -0.588029       -16.0011
  43   2.0000      -0.584188       -15.8966
  44   2.0000      -0.566490       -15.4150
  45   2.0000      -0.545224       -14.8363
  46   2.0000      -0.543413       -14.7870
  47   2.0000      -0.539290       -14.6748
  48   0.0000      -0.087725        -2.3871
  49   0.0000      -0.068863        -1.8739
  50   0.0000      -0.065251        -1.7756
  51   0.0000      -0.052004        -1.4151
  52   0.0000      -0.044154        -1.2015

MULLIKEN ATOMIC CHARGES
-----------------------
   0 C :   -0.548145
   1 N :    0.066108
   2 C :   -1.020997
   3 C :    0.739123
   4 N :   -0.354991
   5 N :   -0.531110
   6 H :    0.129296
   7 H :    0.184662
   8 H :    0.167448
   9 H :    0.203572
  10 H :    0.160883
  11 C :   -0.481870
  12 H :    0.251855
  13 H :    0.321046
  14 C :   -0.331075
  15 C :   -0.463230
  16 H :    0.418972
  17 H :    0.208309
  18 C :   -0.365960
  19 H :    0.313354
  20 H :    0.130875
  21 C :   -0.343266
  22 H :    0.289247
  23 H :    0.227719
  24 C :   -0.647787
  25 H :    0.509184
  26 H :    0.036281
  27 H :    0.442038
  28 H :    0.115576
  29 H :    0.179992
  30 H :    0.191458
  31 H :    0.246700
  32 H :    0.235815
  33 H :    0.318919
Sum of atomic charges:    1.0000000

LOEWDIN ATOMIC CHARGES
----------------------
   0 C :    0.249379
   1 N :    0.623874
   2 C :    0.608342
   3 C :   -0.360629
   4 N :    0.949838
   5 N :    0.936602
   6 H :   -0.242356
   7 H :   -0.236920
   8 H :   -0.238484
   9 H :   -0.278035
  10 H :   -0.244365
  11 C :    0.320701
  12 H :   -0.116592
  13 H :   -0.141012
  14 C :    0.282296
  15 C :    0.257270
  16 H :   -0.169656
  17 H :   -0.130643
  18 C :    0.279282
  19 H :   -0.121980
  20 H :   -0.143185
  21 C :    0.293071
  22 H :   -0.116849
  23 H :   -0.187557
  24 C :    0.306292
  25 H :   -0.126289
  26 H :   -0.150486
  27 H :   -0.130949
  28 H :   -0.157248
  29 H :   -0.136225
  30 H :   -0.133939
  31 H :   -0.174677
  32 H :   -0.182687
  33 H :   -0.186185

  Mayer bond orders larger than 0.100000
B(  0-C ,  1-N ) :   0.9019 B(  0-C ,  3-C ) :  -0.1023 B(  0-C , 11-C ) :   0.9551
B(  0-C , 12-H ) :   1.0404 B(  0-C , 13-H ) :   0.8914 B(  1-N ,  3-C ) :   0.8803
B(  1-N ,  8-H ) :   0.9639 B(  2-C , 15-C ) :   0.7196 B(  2-C , 31-H ) :   1.0214
B(  2-C , 32-H ) :   1.0557 B(  2-C , 33-H ) :   0.9297 B(  3-C ,  4-N ) :   0.9068
B(  3-C ,  5-N ) :   0.9080 B(  4-N ,  9-H ) :   1.0077 B(  4-N , 10-H ) :   1.0009
B(  5-N ,  6-H ) :   1.1045 B(  5-N ,  7-H ) :   1.0399 B( 11-C , 18-C ) :   0.8698
B( 11-C , 19-H ) :   0.9051 B( 11-C , 20-H ) :   1.0511 B( 14-C , 15-C ) :   0.7951
B( 14-C , 24-C ) :   0.8536 B( 14-C , 27-H ) :   0.8033 B( 14-C , 28-H ) :   1.1022
B( 15-C , 16-H ) :   0.8365 B( 15-C , 17-H ) :   1.0909 B( 18-C , 21-C ) :   0.7639
B( 18-C , 22-H ) :   0.9331 B( 18-C , 23-H ) :   1.0252 B( 21-C , 24-C ) :   0.9102
B( 21-C , 25-H ) :   0.7155 B( 21-C , 26-H ) :   1.1708 B( 24-C , 29-H ) :   1.0590
B( 24-C , 30-H ) :   1.0165

E(0)                                       ...   -516.990118663
E(0)                                       ...   -516.990118663
E(CORR)(strong-pairs)                      ...     -2.307567773
E(CORR)(weak-pairs)                        ...     -0.003783339
E(CORR)(corrected)                         ...     -2.311351112
E(TOT)                                     ...   -519.301469775
E(CCSD(T))                                 ...   -519.394875188
FINAL SINGLE POINT ENERGY      -519.394875187600

DIPOLE MOMENT
-------------
                                X             Y             Z
Electronic contribution:      9.44949      -4.11896       9.83571
Nuclear contribution   :     -6.23649       3.21675      -7.47061
                        -----------------------------------------
Total Dipole Moment    :      3.21300      -0.90221       2.36510
                        -----------------------------------------
Magnitude (a.u.)       :      4.09036
Magnitude (Debye)      :     10.39687

Rotational constants in cm-1:     0.036011     0.015251     0.011792
Rotational constants in MHz :  1079.582821   457.209208   353.506163

                             ****ORCA TERMINATED NORMALLY****
TOTAL RUN TIME: 0 days 7 hours 3 minutes 25 seconds 681 msec
