                         Program Version 5.0.0 -  RELEASE  -
|  1> !DLPNO-CCSD(T) aug-cc-pVTZ aug-cc-pVTZ/C TightSCF TightPNO RIJCOSX def2/J
|  2> *xyz -1 1
|  3> C          4.08422        1.74208       -2.11472
|  4> C          4.26524        2.50052       -0.79589
|  5> H          4.86853        3.39267       -0.98113
|  6> H          3.30764        2.82457       -0.38781
|  7> C          4.98224        1.65026        0.24742
|  8> O          4.36806        1.38927        1.31371
|  9> O          6.12892        1.23351       -0.04562
| 10> C          1.99727        0.43092       -1.39922
| 11> C          3.41275        0.37689       -1.96550
| 12> H          4.04741       -0.24659       -1.32671
| 13> H          3.39077       -0.11872       -2.94284
| 14> H          5.06847        1.59850       -2.56573
| 15> H          3.50336        2.36394       -2.80457
| 16> C          2.07018       -1.93671       -0.37240
| 17> C          1.32224       -0.93577       -1.25641
| 18> H          1.37644        1.05892       -2.04742
| 19> H          2.01534        0.92978       -0.42653
| 20> H          0.31665       -0.78721       -0.84828
| 21> H          1.18561       -1.37925       -2.24861
| 22> H          3.05500       -2.09002       -0.76167
| 23> H          1.54206       -2.86723       -0.36163
| 24> H          2.13634       -1.55260        0.62409
| 25> *
| 26> %MaxCore 64000
| 27> %pal nprocs 8
| 28> end
| 29> %scf
| 30>   MaxIter 150
| 31> end
| 32>
| 33>                          ****END OF INPUT****

CARTESIAN COORDINATES (ANGSTROEM)
---------------------------------
  C      4.084220    1.742080   -2.114720
  C      4.265240    2.500520   -0.795890
  H      4.868530    3.392670   -0.981130
  H      3.307640    2.824570   -0.387810
  C      4.982240    1.650260    0.247420
  O      4.368060    1.389270    1.313710
  O      6.128920    1.233510   -0.045620
  C      1.997270    0.430920   -1.399220
  C      3.412750    0.376890   -1.965500
  H      4.047410   -0.246590   -1.326710
  H      3.390770   -0.118720   -2.942840
  H      5.068470    1.598500   -2.565730
  H      3.503360    2.363940   -2.804570
  C      2.070180   -1.936710   -0.372400
  C      1.322240   -0.935770   -1.256410
  H      1.376440    1.058920   -2.047420
  H      2.015340    0.929780   -0.426530
  H      0.316650   -0.787210   -0.848280
  H      1.185610   -1.379250   -2.248610
  H      3.055000   -2.090020   -0.761670
  H      1.542060   -2.867230   -0.361630
  H      2.136340   -1.552600    0.624090

 Total Charge           Charge          ....   -1
 Multiplicity           Mult            ....    1
 Number of Electrons    NEL             ....   72
 Basis Dimension        Dim             ....  713

ORBITAL ENERGIES
----------------

  NO   OCC          E(Eh)            E(eV)
   0   2.0000     -20.289692      -552.1106
   1   2.0000     -20.287874      -552.0611
   2   2.0000     -11.130232      -302.8690
   3   2.0000     -11.107261      -302.2439
   4   2.0000     -11.091447      -301.8136
   5   2.0000     -11.090636      -301.7915
   6   2.0000     -11.082664      -301.5746
   7   2.0000     -11.080103      -301.5049
   8   2.0000     -11.056578      -300.8648
   9   2.0000      -1.169234       -31.8165
  10   2.0000      -1.061366       -28.8812
  11   2.0000      -0.964464       -26.2444
  12   2.0000      -0.910668       -24.7805
  13   2.0000      -0.834677       -22.7127
  14   2.0000      -0.767611       -20.8878
  15   2.0000      -0.691555       -18.8182
  16   2.0000      -0.641829       -17.4651
  17   2.0000      -0.524826       -14.2813
  18   2.0000      -0.511079       -13.9072
  19   2.0000      -0.500470       -13.6185
  20   2.0000      -0.479734       -13.0542
  21   2.0000      -0.460402       -12.5282
  22   2.0000      -0.431660       -11.7461
  23   2.0000      -0.416413       -11.3312
  24   2.0000      -0.414418       -11.2769
  25   2.0000      -0.395064       -10.7502
  26   2.0000      -0.372413       -10.1339
  27   2.0000      -0.366726        -9.9791
  28   2.0000      -0.359220        -9.7749
  29   2.0000      -0.342226        -9.3124
  30   2.0000      -0.328116        -8.9285
  31   2.0000      -0.312047        -8.4912
  32   2.0000      -0.307779        -8.3751
  33   2.0000      -0.203298        -5.5320
  34   2.0000      -0.201631        -5.4867
  35   2.0000      -0.191001        -5.1974
  36   0.0000       0.100833         2.7438
  37   0.0000       0.109425         2.9776
  38   0.0000       0.112555         3.0628
  39   0.0000       0.119800         3.2599
  40   0.0000       0.127763         3.4766

MULLIKEN ATOMIC CHARGES
-----------------------
   0 C :   -0.560605
   1 C :   -0.276665
   2 H :    0.348377
   3 H :    0.124646
   4 C :    0.836100
   5 O :   -1.008387
   6 O :   -1.013266
   7 C :   -0.391823
   8 C :   -0.414413
   9 H :    0.186471
  10 H :    0.419905
  11 H :    0.158962
  12 H :    0.242707
  13 C :   -1.010647
  14 C :   -0.477945
  15 H :    0.187941
  16 H :    0.329590
  17 H :    0.268892
  18 H :    0.189237
  19 H :    0.319698
  20 H :    0.263205
  21 H :    0.278020
Sum of atomic charges:   -1.0000000

LOEWDIN ATOMIC CHARGES
----------------------
   0 C :    0.253532
   1 C :    0.195087
   2 H :   -0.170992
   3 H :   -0.195673
   4 C :   -1.210371
   5 O :    0.262378
   6 O :    0.268060
   7 C :    0.273853
   8 C :    0.263555
   9 H :   -0.168266
  10 H :   -0.142189
  11 H :   -0.158063
  12 H :   -0.157536
  13 C :    0.598711
  14 C :    0.264390
  15 H :   -0.146105
  16 H :   -0.157814
  17 H :   -0.155093
  18 H :   -0.155763
  19 H :   -0.195869
  20 H :   -0.192786
  21 H :   -0.173045

  Mayer bond orders larger than 0.100000
B(  0-C ,  1-C ) :   0.9244 B(  0-C ,  4-C ) :   0.1331 B(  0-C ,  8-C ) :   0.8441
B(  0-C , 11-H ) :   1.0404 B(  0-C , 12-H ) :   0.9389 B(  1-C ,  2-H ) :   0.9382
B(  1-C ,  3-H ) :   1.0296 B(  1-C ,  4-C ) :   0.7041 B(  3-H ,  4-C ) :   0.1317
B(  4-C ,  5-O ) :   1.2074 B(  4-C ,  6-O ) :   1.1848 B(  7-C ,  8-C ) :   0.8842
B(  7-C , 14-C ) :   0.8914 B(  7-C , 15-H ) :   0.9960 B(  7-C , 16-H ) :   0.8985
B(  8-C ,  9-H ) :   1.0009 B(  8-C , 10-H ) :   0.8064 B( 13-C , 14-C ) :   0.8128
B( 13-C , 19-H ) :   0.9296 B( 13-C , 20-H ) :   1.0139 B( 13-C , 21-H ) :   0.9608
B( 14-C , 17-H ) :   0.9772 B( 14-C , 18-H ) :   1.0079

E(0)                                       ...   -422.565104347
E(0)                                       ...   -422.565104347
E(CORR)(strong-pairs)                      ...     -1.774542463
E(CORR)(weak-pairs)                        ...     -0.002291037
E(CORR)(corrected)                         ...     -1.776833500
E(TOT)                                     ...   -424.341937847
E(CCSD(T))                                 ...   -424.416574343
FINAL SINGLE POINT ENERGY      -424.416574343466

DIPOLE MOMENT
-------------
                                X             Y             Z
Electronic contribution:      7.97616       4.94267       5.24414
Nuclear contribution   :    -10.71743      -5.64916      -7.59120
                        -----------------------------------------
Total Dipole Moment    :     -2.74127      -0.70649      -2.34706
                        -----------------------------------------
Magnitude (a.u.)       :      3.67728
Magnitude (Debye)      :      9.34689

Rotational constants in cm-1:     0.078105     0.031038     0.026427
Rotational constants in MHz :  2341.531514   930.482065   792.274319

                             ****ORCA TERMINATED NORMALLY****
TOTAL RUN TIME: 0 days 1 hours 37 minutes 46 seconds 614 msec
