                         Program Version 5.0.0 -  RELEASE  -
|  1> !DLPNO-CCSD(T) aug-cc-pVTZ aug-cc-pVTZ/C TightSCF TightPNO RIJCOSX def2/J
|  2> *xyz -1 1
|  3> C          4.08422        1.74208       -2.11472
|  4> C          4.26524        2.50052       -0.79589
|  5> H          4.86853        3.39267       -0.98113
|  6> H          3.30764        2.82457       -0.38781
|  7> C          4.98224        1.65026        0.24742
|  8> O          4.36806        1.38927        1.31371
|  9> O          6.12892        1.23351       -0.04562
| 10> C          1.99727        0.43092       -1.39922
| 11> C          3.41275        0.37689       -1.96550
| 12> H          4.04741       -0.24659       -1.32671
| 13> H          3.39077       -0.11872       -2.94284
| 14> H          5.06847        1.59850       -2.56573
| 15> H          3.50336        2.36394       -2.80457
| 16> C          2.39995       -1.38958        1.00949
| 17> C          2.07018       -1.93671       -0.37240
| 18> C          1.32224       -0.93577       -1.25641
| 19> H          1.47275       -2.85090       -0.28400
| 20> H          3.00354       -2.23404       -0.86254
| 21> H          1.37644        1.05892       -2.04742
| 22> H          2.01534        0.92978       -0.42653
| 23> H          0.31665       -0.78721       -0.84828
| 24> H          1.18561       -1.37925       -2.24861
| 25> H          2.98295       -0.49786        0.91024
| 26> H          2.95620       -2.12008        1.55891
| 27> H          1.49248       -1.16626        1.53057
| 28> *
| 29> %MaxCore 64000
| 30> %pal nprocs 4
| 31> end
| 32> %scf
| 33>   MaxIter 150
| 34> end
| 35>
| 36>                          ****END OF INPUT****

CARTESIAN COORDINATES (ANGSTROEM)
---------------------------------
  C      4.084220    1.742080   -2.114720
  C      4.265240    2.500520   -0.795890
  H      4.868530    3.392670   -0.981130
  H      3.307640    2.824570   -0.387810
  C      4.982240    1.650260    0.247420
  O      4.368060    1.389270    1.313710
  O      6.128920    1.233510   -0.045620
  C      1.997270    0.430920   -1.399220
  C      3.412750    0.376890   -1.965500
  H      4.047410   -0.246590   -1.326710
  H      3.390770   -0.118720   -2.942840
  H      5.068470    1.598500   -2.565730
  H      3.503360    2.363940   -2.804570
  C      2.399950   -1.389580    1.009490
  C      2.070180   -1.936710   -0.372400
  C      1.322240   -0.935770   -1.256410
  H      1.472750   -2.850900   -0.284000
  H      3.003540   -2.234040   -0.862540
  H      1.376440    1.058920   -2.047420
  H      2.015340    0.929780   -0.426530
  H      0.316650   -0.787210   -0.848280
  H      1.185610   -1.379250   -2.248610
  H      2.982950   -0.497860    0.910240
  H      2.956200   -2.120080    1.558910
  H      1.492480   -1.166260    1.530570

 Total Charge           Charge          ....   -1
 Multiplicity           Mult            ....    1
 Number of Electrons    NEL             ....   80
 Basis Dimension        Dim             ....  805

ORBITAL ENERGIES
----------------

  NO   OCC          E(Eh)            E(eV)
   0   2.0000     -20.293984      -552.2274
   1   2.0000     -20.291671      -552.1644
   2   2.0000     -11.134318      -302.9802
   3   2.0000     -11.103905      -302.1526
   4   2.0000     -11.099227      -302.0253
   5   2.0000     -11.090911      -301.7990
   6   2.0000     -11.084058      -301.6125
   7   2.0000     -11.081761      -301.5501
   8   2.0000     -11.068657      -301.1935
   9   2.0000     -11.059145      -300.9346
  10   2.0000      -1.173886       -31.9431
  11   2.0000      -1.066136       -29.0110
  12   2.0000      -0.971597       -26.4385
  13   2.0000      -0.923119       -25.1194
  14   2.0000      -0.860404       -23.4128
  15   2.0000      -0.797704       -21.7066
  16   2.0000      -0.738200       -20.0874
  17   2.0000      -0.675804       -18.3896
  18   2.0000      -0.632647       -17.2152
  19   2.0000      -0.526665       -14.3313
  20   2.0000      -0.521797       -14.1988
  21   2.0000      -0.509043       -13.8518
  22   2.0000      -0.474258       -12.9052
  23   2.0000      -0.468199       -12.7403
  24   2.0000      -0.442690       -12.0462
  25   2.0000      -0.433448       -11.7947
  26   2.0000      -0.414316       -11.2741
  27   2.0000      -0.401865       -10.9353
  28   2.0000      -0.399602       -10.8737
  29   2.0000      -0.373725       -10.1696
  30   2.0000      -0.369505       -10.0548
  31   2.0000      -0.357591        -9.7305
  32   2.0000      -0.347525        -9.4566
  33   2.0000      -0.329670        -8.9708
  34   2.0000      -0.326060        -8.8725
  35   2.0000      -0.312219        -8.4959
  36   2.0000      -0.310525        -8.4498
  37   2.0000      -0.207776        -5.6539
  38   2.0000      -0.205619        -5.5952
  39   2.0000      -0.195527        -5.3206
  40   0.0000       0.099863         2.7174
  41   0.0000       0.107908         2.9363
  42   0.0000       0.111728         3.0403
  43   0.0000       0.116786         3.1779
  44   0.0000       0.125042         3.4026

MULLIKEN ATOMIC CHARGES
-----------------------
   0 C :   -0.609340
   1 C :   -0.260443
   2 H :    0.377806
   3 H :    0.081503
   4 C :    0.899116
   5 O :   -1.029824
   6 O :   -1.057927
   7 C :   -0.333037
   8 C :   -0.383047
   9 H :    0.132098
  10 H :    0.393826
  11 H :    0.145730
  12 H :    0.230716
  13 C :   -0.981765
  14 C :   -0.387695
  15 C :   -0.642983
  16 H :    0.404295
  17 H :    0.161042
  18 H :    0.445740
  19 H :    0.181198
  20 H :    0.184070
  21 H :    0.159087
  22 H :    0.428916
  23 H :    0.227439
  24 H :    0.233479
Sum of atomic charges:   -1.0000000

LOEWDIN ATOMIC CHARGES
----------------------
   0 C :    0.256859
   1 C :    0.201328
   2 H :   -0.169945
   3 H :   -0.193368
   4 C :   -1.189447
   5 O :    0.297455
   6 O :    0.274721
   7 C :    0.273047
   8 C :    0.268751
   9 H :   -0.164245
  10 H :   -0.139842
  11 H :   -0.157418
  12 H :   -0.156579
  13 C :    0.597159
  14 C :    0.255990
  15 C :    0.278101
  16 H :   -0.153777
  17 H :   -0.154919
  18 H :   -0.141297
  19 H :   -0.167800
  20 H :   -0.150309
  21 H :   -0.152367
  22 H :   -0.258310
  23 H :   -0.177095
  24 H :   -0.176692

  Mayer bond orders larger than 0.100000
B(  0-C ,  1-C ) :   0.9344 B(  0-C ,  4-C ) :   0.1416 B(  0-C ,  8-C ) :   0.8467
B(  0-C , 11-H ) :   1.0663 B(  0-C , 12-H ) :   0.9381 B(  1-C ,  2-H ) :   0.9179
B(  1-C ,  3-H ) :   1.0573 B(  1-C ,  4-C ) :   0.7066 B(  2-H ,  4-C ) :  -0.1240
B(  3-H ,  4-C ) :   0.1512 B(  4-C ,  5-O ) :   1.2213 B(  4-C ,  6-O ) :   1.0769
B(  7-C ,  8-C ) :   0.8458 B(  7-C , 15-C ) :   0.8667 B(  7-C , 18-H ) :   0.7586
B(  7-C , 19-H ) :   1.0905 B(  8-C ,  9-H ) :   1.0630 B(  8-C , 10-H ) :   0.8186
B( 13-C , 14-C ) :   0.7689 B( 13-C , 22-H ) :   0.7990 B( 13-C , 23-H ) :   1.0470
B( 13-C , 24-H ) :   1.0143 B( 14-C , 15-C ) :   0.9104 B( 14-C , 16-H ) :   0.8388
B( 14-C , 17-H ) :   1.0489 B( 15-C , 20-H ) :   1.0481 B( 15-C , 21-H ) :   1.0400

E(0)                                       ...   -461.611734020
E(0)                                       ...   -461.611734020
E(CORR)(strong-pairs)                      ...     -1.964678143
E(CORR)(weak-pairs)                        ...     -0.002809265
E(CORR)(corrected)                         ...     -1.967487408
E(TOT)                                     ...   -463.579221428
E(CCSD(T))                                 ...   -463.661931127
FINAL SINGLE POINT ENERGY      -463.661931127431

DIPOLE MOMENT
-------------
                                X             Y             Z
Electronic contribution:      8.20960       5.41449       3.61322
Nuclear contribution   :    -11.01582      -6.33392      -5.63219
                        -----------------------------------------
Total Dipole Moment    :     -2.80622      -0.91943      -2.01897
                        -----------------------------------------
Magnitude (a.u.)       :      3.57721
Magnitude (Debye)      :      9.09254

Rotational constants in cm-1:     0.059641     0.028339     0.022398
Rotational constants in MHz :  1787.983768   849.588441   671.487724

                             ****ORCA TERMINATED NORMALLY****
TOTAL RUN TIME: 0 days 4 hours 35 minutes 51 seconds 671 msec
