                         Program Version 5.0.0 -  RELEASE  -
|  1> !DLPNO-CCSD(T) aug-cc-pVTZ aug-cc-pVTZ/C TightSCF TightPNO RIJCOSX def2/J
|  2> *xyz -1 1
|  3> C          4.08422        1.74208       -2.11472
|  4> C          4.26524        2.50052       -0.79589
|  5> H          4.86853        3.39267       -0.98113
|  6> H          3.30764        2.82457       -0.38781
|  7> C          4.98224        1.65026        0.24742
|  8> O          4.36806        1.38927        1.31371
|  9> O          6.12892        1.23351       -0.04562
| 10> C          3.41275        0.37689       -1.96550
| 11> H          5.06847        1.59850       -2.56573
| 12> H          3.50336        2.36394       -2.80457
| 13> H          3.32456       -0.08422       -2.92701
| 14> H          2.43923        0.50287       -1.53972
| 15> H          4.00446       -0.24355       -1.32531
| 16> *
| 17> %MaxCore 64000
| 18> %pal nprocs 8
| 19> end
| 20> %scf
| 21>   MaxIter 150
| 22> end
| 23>
| 24>
| 25>                          ****END OF INPUT****

CARTESIAN COORDINATES (ANGSTROEM)
---------------------------------
  C      4.084220    1.742080   -2.114720
  C      4.265240    2.500520   -0.795890
  H      4.868530    3.392670   -0.981130
  H      3.307640    2.824570   -0.387810
  C      4.982240    1.650260    0.247420
  O      4.368060    1.389270    1.313710
  O      6.128920    1.233510   -0.045620
  C      3.412750    0.376890   -1.965500
  H      5.068470    1.598500   -2.565730
  H      3.503360    2.363940   -2.804570
  H      3.324560   -0.084220   -2.927010
  H      2.439230    0.502870   -1.539720
  H      4.004460   -0.243550   -1.325310

 Total Charge           Charge          ....   -1
 Multiplicity           Mult            ....    1
 Number of Electrons    NEL             ....   48
 Basis Dimension        Dim             ....  437

ORBITAL ENERGIES
----------------

  NO   OCC          E(Eh)            E(eV)
   0   2.0000     -20.285141      -551.9867
   1   2.0000     -20.284232      -551.9620
   2   2.0000     -11.126024      -302.7545
   3   2.0000     -11.077507      -301.4343
   4   2.0000     -11.067372      -301.1585
   5   2.0000     -11.053080      -300.7696
   6   2.0000      -1.164905       -31.6987
   7   2.0000      -1.057002       -28.7625
   8   2.0000      -0.913740       -24.8641
   9   2.0000      -0.795486       -21.6463
  10   2.0000      -0.669489       -18.2177
  11   2.0000      -0.519819       -14.1450
  12   2.0000      -0.474134       -12.9018
  13   2.0000      -0.467217       -12.7136
  14   2.0000      -0.424832       -11.5603
  15   2.0000      -0.413324       -11.2471
  16   2.0000      -0.378759       -10.3066
  17   2.0000      -0.359321        -9.7776
  18   2.0000      -0.350417        -9.5353
  19   2.0000      -0.322768        -8.7830
  20   2.0000      -0.308411        -8.3923
  21   2.0000      -0.199186        -5.4201
  22   2.0000      -0.197312        -5.3691
  23   2.0000      -0.186765        -5.0821
  24   0.0000       0.112725         3.0674
  25   0.0000       0.122725         3.3395
  26   0.0000       0.132297         3.6000
  27   0.0000       0.142240         3.8705
  28   0.0000       0.148900         4.0518

MULLIKEN ATOMIC CHARGES
-----------------------
   0 C :   -0.399061
   1 C :   -0.264375
   2 H :    0.247236
   3 H :    0.226511
   4 C :    0.704746
   5 O :   -0.962389
   6 O :   -0.938478
   7 C :   -1.019198
   8 H :    0.271763
   9 H :    0.275211
  10 H :    0.268942
  11 H :    0.269945
  12 H :    0.319149
Sum of atomic charges:   -1.0000000

LOEWDIN ATOMIC CHARGES
----------------------
   0 C :    0.224501
   1 C :    0.186785
   2 H :   -0.176825
   3 H :   -0.191803
   4 C :   -1.220147
   5 O :    0.249452
   6 O :    0.261480
   7 C :    0.576591
   8 H :   -0.165393
   9 H :   -0.165258
  10 H :   -0.198405
  11 H :   -0.187291
  12 H :   -0.193688

  Mayer bond orders larger than 0.100000
B(  0-C ,  1-C ) :   0.8868 B(  0-C ,  4-C ) :   0.1005 B(  0-C ,  7-C ) :   0.7983
B(  0-C ,  8-H ) :   0.9372 B(  0-C ,  9-H ) :   0.9171 B(  1-C ,  2-H ) :   0.9781
B(  1-C ,  3-H ) :   0.9662 B(  1-C ,  4-C ) :   0.6753 B(  4-C ,  5-O ) :   1.2498
B(  4-C ,  6-O ) :   1.3300 B(  7-C , 10-H ) :   0.9788 B(  7-C , 11-H ) :   0.9615
B(  7-C , 12-H ) :   0.9012

E(0)                                       ...   -305.423375531
E(0)                                       ...   -305.423375531
E(CORR)(strong-pairs)                      ...     -1.211478019
E(CORR)(weak-pairs)                        ...     -0.001181704
E(CORR)(corrected)                         ...     -1.212659722
E(TOT)                                     ...   -306.636035253
E(CCSD(T))                                 ...   -306.687515943
FINAL SINGLE POINT ENERGY      -306.687515942586

DIPOLE MOMENT
-------------
                                X             Y             Z
Electronic contribution:      3.65177       0.45278       5.89079
Nuclear contribution   :     -4.94481       0.08097      -8.10693
                        -----------------------------------------
Total Dipole Moment    :     -1.29304       0.53375      -2.21614
                        -----------------------------------------
Magnitude (a.u.)       :      2.62071
Magnitude (Debye)      :      6.66130

Rotational constants in cm-1:     0.192263     0.082741     0.079730
Rotational constants in MHz :  5763.914333  2480.509926  2390.233107

                             ****ORCA TERMINATED NORMALLY****
TOTAL RUN TIME: 0 days 0 hours 16 minutes 20 seconds 62 msec
