                         Program Version 5.0.0 -  RELEASE  -
|  1> !DLPNO-CCSD(T) aug-cc-pVTZ aug-cc-pVTZ/C TightSCF TightPNO RIJCOSX def2/J
|  2> *xyz 1 1
|  3> C          3.91385       -1.65829        3.01513
|  4> N          5.03927       -0.90115        2.49282
|  5> C          6.21038       -1.41726        2.17824
|  6> N          6.53591       -2.67712        2.55608
|  7> N          7.07675       -0.70082        1.47891
|  8> H          7.95464       -1.12155        1.20755
|  9> H          6.75616        0.10664        0.96028
| 10> H          4.84217        0.01761        2.11519
| 11> H          5.99388       -3.12692        3.28278
| 12> H          7.49844       -2.97548        2.46878
| 13> C          3.13916       -2.37657        1.91061
| 14> H          3.26723       -0.93940        3.52069
| 15> H          4.24720       -2.35509        3.79006
| 16> C          2.39995       -1.38958        1.00949
| 17> H          2.44075       -3.08712        2.36298
| 18> H          3.84448       -2.97046        1.31868
| 19> C          2.07018       -1.93671       -0.37240
| 20> H          1.48161       -1.06154        1.50991
| 21> H          3.00863       -0.49000        0.89745
| 22> H          1.55578       -1.18868       -0.93874
| 23> H          1.44721       -2.80112       -0.27443
| 24> H          2.97578       -2.20487       -0.87527
| 25> *
| 26> %MaxCore 64000
| 27> %pal nprocs 8
| 28> end
| 29> %scf
| 30>   MaxIter 150
| 31> end
| 32>
| 33>                          ****END OF INPUT****

CARTESIAN COORDINATES (ANGSTROEM)
---------------------------------
  C      3.913850   -1.658290    3.015130
  N      5.039270   -0.901150    2.492820
  C      6.210380   -1.417260    2.178240
  N      6.535910   -2.677120    2.556080
  N      7.076750   -0.700820    1.478910
  H      7.954640   -1.121550    1.207550
  H      6.756160    0.106640    0.960280
  H      4.842170    0.017610    2.115190
  H      5.993880   -3.126920    3.282780
  H      7.498440   -2.975480    2.468780
  C      3.139160   -2.376570    1.910610
  H      3.267230   -0.939400    3.520690
  H      4.247200   -2.355090    3.790060
  C      2.399950   -1.389580    1.009490
  H      2.440750   -3.087120    2.362980
  H      3.844480   -2.970460    1.318680
  C      2.070180   -1.936710   -0.372400
  H      1.481610   -1.061540    1.509910
  H      3.008630   -0.490000    0.897450
  H      1.555780   -1.188680   -0.938740
  H      1.447210   -2.801120   -0.274430
  H      2.975780   -2.204870   -0.875270

 Total Charge           Charge          ....    1
 Multiplicity           Mult            ....    1
 Number of Electrons    NEL             ....   64
 Basis Dimension        Dim             ....  690

ORBITAL ENERGIES
----------------

  NO   OCC          E(Eh)            E(eV)
   0   2.0000     -15.784383      -429.5149
   1   2.0000     -15.781278      -429.4304
   2   2.0000     -15.780585      -429.4115
   3   2.0000     -11.585218      -315.2498
   4   2.0000     -11.427388      -310.9550
   5   2.0000     -11.359362      -309.1040
   6   2.0000     -11.343271      -308.6661
   7   2.0000     -11.312865      -307.8387
   8   2.0000      -1.539232       -41.8846
   9   2.0000      -1.404899       -38.2292
  10   2.0000      -1.384634       -37.6778
  11   2.0000      -1.213494       -33.0209
  12   2.0000      -1.134685       -30.8764
  13   2.0000      -1.053845       -28.6766
  14   2.0000      -1.010238       -27.4900
  15   2.0000      -0.974023       -26.5045
  16   2.0000      -0.940245       -25.5854
  17   2.0000      -0.916627       -24.9427
  18   2.0000      -0.859828       -23.3971
  19   2.0000      -0.852222       -23.1901
  20   2.0000      -0.821648       -22.3582
  21   2.0000      -0.790590       -21.5131
  22   2.0000      -0.750095       -20.4111
  23   2.0000      -0.742059       -20.1925
  24   2.0000      -0.719251       -19.5718
  25   2.0000      -0.676210       -18.4006
  26   2.0000      -0.654680       -17.8148
  27   2.0000      -0.623223       -16.9588
  28   2.0000      -0.614776       -16.7289
  29   2.0000      -0.598543       -16.2872
  30   2.0000      -0.594450       -16.1758
  31   2.0000      -0.572741       -15.5851
  32   0.0000      -0.090776        -2.4701
  33   0.0000      -0.073907        -2.0111
  34   0.0000      -0.066360        -1.8058
  35   0.0000      -0.055903        -1.5212
  36   0.0000      -0.046664        -1.2698

MULLIKEN ATOMIC CHARGES
-----------------------
   0 C :   -0.474822
   1 N :   -0.052273
   2 C :    0.729474
   3 N :   -0.296023
   4 N :   -0.513499
   5 H :    0.147853
   6 H :    0.141748
   7 H :    0.133405
   8 H :    0.210129
   9 H :    0.167066
  10 C :   -0.389310
  11 H :    0.371565
  12 H :    0.281730
  13 C :   -0.491318
  14 H :    0.371649
  15 H :    0.239378
  16 C :   -0.982459
  17 H :    0.299402
  18 H :    0.244209
  19 H :    0.318463
  20 H :    0.254527
  21 H :    0.289105
Sum of atomic charges:    1.0000000

LOEWDIN ATOMIC CHARGES
----------------------
   0 C :    0.244950
   1 N :    0.620827
   2 C :   -0.360964
   3 N :    0.949522
   4 N :    0.936319
   5 H :   -0.242498
   6 H :   -0.236328
   7 H :   -0.240329
   8 H :   -0.277943
   9 H :   -0.244171
  10 C :    0.308192
  11 H :   -0.117334
  12 H :   -0.141257
  13 C :    0.269893
  14 H :   -0.123566
  15 H :   -0.146210
  16 C :    0.620248
  17 H :   -0.129388
  18 H :   -0.167000
  19 H :   -0.172331
  20 H :   -0.170544
  21 H :   -0.180089

  Mayer bond orders larger than 0.100000
B(  0-C ,  1-N ) :   0.8889 B(  0-C , 10-C ) :   0.9860 B(  0-C , 11-H ) :   0.9151
B(  0-C , 12-H ) :   0.9245 B(  1-N ,  2-C ) :   0.9275 B(  1-N ,  7-H ) :   1.0142
B(  2-C ,  3-N ) :   0.9517 B(  2-C ,  4-N ) :   0.9481 B(  3-N ,  4-N ) :  -0.1031
B(  3-N ,  8-H ) :   1.0030 B(  3-N ,  9-H ) :   1.0000 B(  4-N ,  5-H ) :   1.0862
B(  4-N ,  6-H ) :   1.0839 B( 10-C , 13-C ) :   0.8355 B( 10-C , 14-H ) :   0.8649
B( 10-C , 15-H ) :   0.9722 B( 13-C , 16-C ) :   0.8598 B( 13-C , 17-H ) :   0.9326
B( 13-C , 18-H ) :   0.9581 B( 16-C , 19-H ) :   0.9544 B( 16-C , 20-H ) :   0.9856
B( 16-C , 21-H ) :   0.9540

E(0)                                       ...   -360.802184967
E(0)                                       ...   -360.802184967
E(CORR)(strong-pairs)                      ...     -1.557316969
E(CORR)(weak-pairs)                        ...     -0.001975760
E(CORR)(corrected)                         ...     -1.559292730
E(TOT)                                     ...   -362.361477697
E(CCSD(T))                                 ...   -362.424155432
FINAL SINGLE POINT ENERGY      -362.424155432417

DIPOLE MOMENT
-------------
                                X             Y             Z
Electronic contribution:      8.59919       1.52307       3.75881
Nuclear contribution   :     -6.34535      -1.24643      -3.24642
                        -----------------------------------------
Total Dipole Moment    :      2.25384       0.27663       0.51239
                        -----------------------------------------
Magnitude (a.u.)       :      2.32785
Magnitude (Debye)      :      5.91692

Rotational constants in cm-1:     0.111793     0.033525     0.030804
Rotational constants in MHz :  3351.457473  1005.047666   923.494287

                             ****ORCA TERMINATED NORMALLY****
TOTAL RUN TIME: 0 days 1 hours 6 minutes 17 seconds 790 msec
