                         Program Version 5.0.0 -  RELEASE  -
|  1> !DLPNO-CCSD(T) aug-cc-pVTZ aug-cc-pVTZ/C TightSCF TightPNO RIJCOSX def2/J
|  2>
|  3> *xyzfile 0 1 B.xyz
|  4>
|  5> %MaxCore 64000
|  6>
|  7> %pal nprocs 18
|  8> end
|  9>
| 10> %scf
| 11>   MaxIter 150
| 12> end
| 13>
| 14>
| 15>                          ****END OF INPUT****

CARTESIAN COORDINATES (ANGSTROEM)
---------------------------------
  C      3.913853   -1.658291    3.015134
  N      5.039266   -0.901154    2.492821
  C      4.084215    1.742081   -2.114724
  C      4.265245    2.500518   -0.795890
  H      4.868534    3.392674   -0.981134
  H      3.307640    2.824571   -0.387809
  C      4.982240    1.650257    0.247422
  C      6.210384   -1.417261    2.178244
  N      6.535913   -2.677122    2.556078
  N      7.076754   -0.700820    1.478906
  H      7.954643   -1.121554    1.207554
  H      6.756161    0.106637    0.960278
  H      4.842168    0.017609    2.115191
  H      5.993876   -3.126918    3.282784
  H      7.498441   -2.975482    2.468776
  O      4.368065    1.389270    1.313706
  O      6.128919    1.233512   -0.045620
  C      3.139159   -2.376572    1.910609
  H      3.267235   -0.939401    3.520693
  H      4.247195   -2.355095    3.790065
  C      1.997274    0.430918   -1.399218
  C      3.412746    0.376886   -1.965497
  H      4.047407   -0.246590   -1.326706
  H      3.390774   -0.118719   -2.942839
  H      5.068475    1.598504   -2.565728
  H      3.503356    2.363939   -2.804565
  C      2.399946   -1.389579    1.009490
  H      2.440750   -3.087118    2.362976
  H      3.844475   -2.970462    1.318677
  C      2.070177   -1.936705   -0.372401
  H      1.481611   -1.061542    1.509912
  H      3.008628   -0.490001    0.897451
  C      1.322238   -0.935775   -1.256413
  H      1.472747   -2.850902   -0.283997
  H      3.003539   -2.234041   -0.862535
  H      1.376444    1.058920   -2.047420
  H      2.015341    0.929780   -0.426535
  H      0.316648   -0.787213   -0.848278
  H      1.185611   -1.379252   -2.248613

 Total Charge           Charge          ....    0
 Multiplicity           Mult            ....    1
 Number of Electrons    NEL             ....  126
 Basis Dimension        Dim             .... 1265

ORBITAL ENERGIES
----------------

  NO   OCC          E(Eh)            E(eV)
   0   2.0000     -20.464685      -556.8724
   1   2.0000     -20.463303      -556.8348
   2   2.0000     -15.631444      -425.3532
   3   2.0000     -15.590446      -424.2376
   4   2.0000     -15.587708      -424.1631
   5   2.0000     -11.411501      -310.5227
   6   2.0000     -11.300337      -307.4978
   7   2.0000     -11.284200      -307.0587
   8   2.0000     -11.229956      -305.5826
   9   2.0000     -11.207849      -304.9811
  10   2.0000     -11.206142      -304.9346
  11   2.0000     -11.203803      -304.8710
  12   2.0000     -11.194665      -304.6223
  13   2.0000     -11.193744      -304.5973
  14   2.0000     -11.193150      -304.5811
  15   2.0000     -11.185246      -304.3660
  16   2.0000      -1.369023       -37.2530
  17   2.0000      -1.350935       -36.7608
  18   2.0000      -1.248684       -33.9784
  19   2.0000      -1.232499       -33.5380
  20   2.0000      -1.214343       -33.0439
  21   2.0000      -1.090546       -29.6753
  22   2.0000      -1.061148       -28.8753
  23   2.0000      -1.025124       -27.8951
  24   2.0000      -0.973003       -26.4768
  25   2.0000      -0.924759       -25.1640
  26   2.0000      -0.889919       -24.2159
  27   2.0000      -0.856418       -23.3043
  28   2.0000      -0.824508       -22.4360
  29   2.0000      -0.806329       -21.9413
  30   2.0000      -0.787494       -21.4288
  31   2.0000      -0.758907       -20.6509
  32   2.0000      -0.744791       -20.2668
  33   2.0000      -0.704985       -19.1836
  34   2.0000      -0.699411       -19.0319
  35   2.0000      -0.671155       -18.2631
  36   2.0000      -0.655334       -17.8325
  37   2.0000      -0.635742       -17.2994
  38   2.0000      -0.624942       -17.0055
  39   2.0000      -0.622714       -16.9449
  40   2.0000      -0.606007       -16.4903
  41   2.0000      -0.602089       -16.3837
  42   2.0000      -0.581000       -15.8098
  43   2.0000      -0.576046       -15.6750
  44   2.0000      -0.570296       -15.5185
  45   2.0000      -0.562135       -15.2965
  46   2.0000      -0.546665       -14.8755
  47   2.0000      -0.524047       -14.2600
  48   2.0000      -0.516034       -14.0420
  49   2.0000      -0.501471       -13.6457
  50   2.0000      -0.493836       -13.4379
  51   2.0000      -0.486911       -13.2495
  52   2.0000      -0.468838       -12.7577
  53   2.0000      -0.460773       -12.5383
  54   2.0000      -0.457053       -12.4370
  55   2.0000      -0.448835       -12.2134
  56   2.0000      -0.435528       -11.8513
  57   2.0000      -0.427937       -11.6448
  58   2.0000      -0.422243       -11.4898
  59   2.0000      -0.406898       -11.0723
  60   2.0000      -0.384506       -10.4629
  61   2.0000      -0.372953       -10.1486
  62   2.0000      -0.370022       -10.0688
  63   0.0000       0.008466         0.2304
  64   0.0000       0.023543         0.6406
  65   0.0000       0.031992         0.8705
  66   0.0000       0.036115         0.9828
  67   0.0000       0.041746         1.1360

MULLIKEN ATOMIC CHARGES
-----------------------
   0 C :   -0.770047
   1 N :   -0.177936
   2 C :   -0.637549
   3 C :   -0.196891
   4 H :    0.374468
   5 H :    0.156607
   6 C :    1.097050
   7 C :    0.503932
   8 N :   -0.493749
   9 N :   -0.585632
  10 H :    0.097620
  11 H :    0.418444
  12 H :    0.764339
  13 H :    0.164355
  14 H :    0.123043
  15 O :   -1.061255
  16 O :   -1.126556
  17 C :   -0.504641
  18 H :    0.194202
  19 H :    0.305180
  20 C :   -0.324061
  21 C :   -0.446695
  22 H :    0.297497
  23 H :    0.322801
  24 H :    0.107805
  25 H :    0.274177
  26 C :   -0.464334
  27 H :    0.301535
  28 H :    0.111966
  29 C :   -0.402060
  30 H :    0.257563
  31 H :    0.629237
  32 C :   -0.738476
  33 H :    0.529830
  34 H :    0.011993
  35 H :    0.498681
  36 H :    0.125908
  37 H :    0.105515
  38 H :    0.156133
Sum of atomic charges:    0.0000000

LOEWDIN ATOMIC CHARGES
----------------------
   0 C :    0.242643
   1 N :    0.635374
   2 C :    0.277799
   3 C :    0.255158
   4 H :   -0.155021
   5 H :   -0.178259
   6 C :   -0.970061
   7 C :   -0.360422
   8 N :    0.920022
   9 N :    0.935238
  10 H :   -0.248143
  11 H :   -0.599699
  12 H :   -0.575115
  13 H :   -0.296671
  14 H :   -0.263246
  15 O :    0.502237
  16 O :    0.493111
  17 C :    0.312503
  18 H :   -0.120188
  19 H :   -0.154583
  20 C :    0.284090
  21 C :    0.277413
  22 H :   -0.165906
  23 H :   -0.130901
  24 H :   -0.150803
  25 H :   -0.143119
  26 C :    0.284897
  27 H :   -0.135255
  28 H :   -0.146615
  29 C :    0.287905
  30 H :   -0.119290
  31 H :   -0.226137
  32 C :    0.299965
  33 H :   -0.135565
  34 H :   -0.149870
  35 H :   -0.132630
  36 H :   -0.166720
  37 H :   -0.142017
  38 H :   -0.142116

  Mayer bond orders larger than 0.100000
B(  0-C ,  1-N ) :   1.1488 B(  0-C ,  7-C ) :  -0.1254 B(  0-C , 12-H ) :  -0.1992
B(  0-C , 17-C ) :   0.9860 B(  0-C , 18-H ) :   1.1274 B(  0-C , 19-H ) :   0.8634
B(  0-C , 26-C ) :   0.1057 B(  1-N ,  7-C ) :   1.2224 B(  2-C ,  3-C ) :   0.9579
B(  2-C ,  6-C ) :   0.1433 B(  2-C , 21-C ) :   0.8665 B(  2-C , 24-H ) :   1.1210
B(  2-C , 25-H ) :   0.9108 B(  3-C ,  4-H ) :   0.9327 B(  3-C ,  5-H ) :   1.0407
B(  3-C ,  6-C ) :   0.5414 B(  3-C , 15-O ) :  -0.1082 B(  4-H ,  6-C ) :  -0.1391
B(  6-C , 15-O ) :   1.0701 B(  6-C , 16-O ) :   0.8316 B(  7-C ,  8-N ) :   0.7992
B(  7-C ,  9-N ) :   0.9183 B(  7-C , 11-H ) :  -0.1014 B(  7-C , 12-H ) :  -0.2269
B(  7-C , 13-H ) :  -0.1051 B(  8-N , 13-H ) :   1.0497 B(  8-N , 14-H ) :   1.0334
B(  9-N , 10-H ) :   1.1153 B(  9-N , 11-H ) :   0.7515 B( 15-O , 16-O ) :   0.1675
B( 17-C , 26-C ) :   0.8265 B( 17-C , 27-H ) :   0.9165 B( 17-C , 28-H ) :   1.0909
B( 20-C , 21-C ) :   0.8403 B( 20-C , 32-C ) :   0.9165 B( 20-C , 35-H ) :   0.7430
B( 20-C , 36-H ) :   1.0973 B( 21-C , 22-H ) :   0.9392 B( 21-C , 23-H ) :   0.9314
B( 26-C , 29-C ) :   0.7263 B( 26-C , 30-H ) :   1.0488 B( 26-C , 31-H ) :   0.6954
B( 29-C , 32-C ) :   0.9220 B( 29-C , 33-H ) :   0.7065 B( 29-C , 34-H ) :   1.2060
B( 30-H , 31-H ) :  -0.1154 B( 32-C , 34-H ) :   0.1119 B( 32-C , 37-H ) :   1.1258
B( 32-C , 38-H ) :   1.0564

E(0)                                       ...   -743.329219933
E(0)                                       ...   -743.329219933
E(CORR)(strong-pairs)                      ...     -3.127155868
E(CORR)(weak-pairs)                        ...     -0.006206675
E(CORR)(corrected)                         ...     -3.133362543
E(TOT)                                     ...   -746.462582476
E(CCSD(T))                                 ...   -746.596191364
FINAL SINGLE POINT ENERGY      -746.596191364105

DIPOLE MOMENT
-------------
                                X             Y             Z
Electronic contribution:     12.27858       3.21646       7.68547
Nuclear contribution   :    -11.44764      -6.21818      -6.18483
                        -----------------------------------------
Total Dipole Moment    :      0.83094      -3.00172       1.50064
                        -----------------------------------------
Magnitude (a.u.)       :      3.45727
Magnitude (Debye)      :      8.78769

Rotational constants in cm-1:     0.020281     0.013510     0.009451
Rotational constants in MHz :   608.005987   405.034308   283.324538

                             ****ORCA TERMINATED NORMALLY****
TOTAL RUN TIME: 0 days 6 hours 13 minutes 22 seconds 142 msec
