                         Program Version 5.0.0 -  RELEASE  -
|  1> !DLPNO-CCSD(T) aug-cc-pVTZ aug-cc-pVTZ/C TightSCF TightPNO RIJCOSX def2/J
|  2> *xyz 0 1
|  3> C          3.91385       -1.65829        3.01513
|  4> C          5.03927       -0.90115        2.49282
|  5> C          6.21038       -1.41726        2.17824
|  6> N          6.53591       -2.67712        2.55608
|  7> N          7.07675       -0.70082        1.47891
|  8> H          7.95464       -1.12155        1.20755
|  9> H          6.75616        0.10664        0.96028
| 10> H          4.84217        0.01761        2.11519
| 11> H          5.99388       -3.12692        3.28278
| 12> H          7.49844       -2.97548        2.46878
| 13> C          3.13916       -2.37657        1.91061
| 14> H          3.26723       -0.93940        3.52069
| 15> H          4.24720       -2.35509        3.79006
| 16> C          2.39995       -1.38958        1.00949
| 17> H          2.44075       -3.08712        2.36298
| 18> H          3.84448       -2.97046        1.31868
| 19> C          2.07018       -1.93671       -0.37240
| 20> H          1.48161       -1.06154        1.50991
| 21> H          3.00863       -0.49000        0.89745
| 22> H          1.55578       -1.18868       -0.93874
| 23> H          1.44721       -2.80112       -0.27443
| 24> H          2.97578       -2.20487       -0.87527
| 25> *
| 26> %MaxCore 64000
| 27> %pal nprocs 8
| 28> end
| 29> %scf
| 30>   MaxIter 150
| 31> end
| 32>
| 33>                          ****END OF INPUT****

CARTESIAN COORDINATES (ANGSTROEM)
---------------------------------
  C      3.913850   -1.658290    3.015130
  C      5.039270   -0.901150    2.492820
  C      6.210380   -1.417260    2.178240
  N      6.535910   -2.677120    2.556080
  N      7.076750   -0.700820    1.478910
  H      7.954640   -1.121550    1.207550
  H      6.756160    0.106640    0.960280
  H      4.842170    0.017610    2.115190
  H      5.993880   -3.126920    3.282780
  H      7.498440   -2.975480    2.468780
  C      3.139160   -2.376570    1.910610
  H      3.267230   -0.939400    3.520690
  H      4.247200   -2.355090    3.790060
  C      2.399950   -1.389580    1.009490
  H      2.440750   -3.087120    2.362980
  H      3.844480   -2.970460    1.318680
  C      2.070180   -1.936710   -0.372400
  H      1.481610   -1.061540    1.509910
  H      3.008630   -0.490000    0.897450
  H      1.555780   -1.188680   -0.938740
  H      1.447210   -2.801120   -0.274430
  H      2.975780   -2.204870   -0.875270

 Total Charge           Charge          ....    0
 Multiplicity           Mult            ....    1
 Number of Electrons    NEL             ....   64
 Basis Dimension        Dim             ....  690

ORBITAL ENERGIES
----------------

  NO   OCC          E(Eh)            E(eV)
   0   2.0000     -15.562538      -423.4782
   1   2.0000     -15.560735      -423.4291
   2   2.0000     -11.281845      -306.9946
   3   2.0000     -11.199424      -304.7518
   4   2.0000     -11.195760      -304.6521
   5   2.0000     -11.195119      -304.6347
   6   2.0000     -11.191260      -304.5297
   7   2.0000     -11.138027      -303.0811
   8   2.0000      -1.277280       -34.7566
   9   2.0000      -1.164141       -31.6779
  10   2.0000      -1.072583       -29.1865
  11   2.0000      -1.012769       -27.5589
  12   2.0000      -0.937242       -25.5036
  13   2.0000      -0.853121       -23.2146
  14   2.0000      -0.794180       -21.6107
  15   2.0000      -0.767100       -20.8739
  16   2.0000      -0.720102       -19.5950
  17   2.0000      -0.692224       -18.8364
  18   2.0000      -0.640510       -17.4292
  19   2.0000      -0.620432       -16.8828
  20   2.0000      -0.594189       -16.1687
  21   2.0000      -0.577684       -15.7196
  22   2.0000      -0.563955       -15.3460
  23   2.0000      -0.541413       -14.7326
  24   2.0000      -0.537106       -14.6154
  25   2.0000      -0.494021       -13.4430
  26   2.0000      -0.485831       -13.2201
  27   2.0000      -0.454280       -12.3616
  28   2.0000      -0.446435       -12.1481
  29   2.0000      -0.439805       -11.9677
  30   2.0000      -0.417020       -11.3477
  31   2.0000      -0.261432        -7.1139
  32   0.0000       0.023655         0.6437
  33   0.0000       0.033428         0.9096
  34   0.0000       0.037653         1.0246
  35   0.0000       0.041170         1.1203
  36   0.0000       0.048073         1.3081

MULLIKEN ATOMIC CHARGES
-----------------------
   0 C :   -0.217554
   1 C :   -0.402812
   2 C :    0.616991
   3 N :   -0.480320
   4 N :   -0.618622
   5 H :    0.073992
   6 H :    0.087755
   7 H :    0.307092
   8 H :    0.106552
   9 H :    0.124866
  10 C :   -0.524867
  11 H :    0.234695
  12 H :    0.215432
  13 C :   -0.466175
  14 H :    0.300608
  15 H :    0.267735
  16 C :   -1.028635
  17 H :    0.278601
  18 H :    0.296498
  19 H :    0.303978
  20 H :    0.240198
  21 H :    0.283994
Sum of atomic charges:   -0.0000000

LOEWDIN ATOMIC CHARGES
----------------------
   0 C :    0.225536
   1 C :    0.186793
   2 C :   -0.419778
   3 N :    0.876291
   4 N :    0.851445
   5 H :   -0.283993
   6 H :   -0.266927
   7 H :   -0.270850
   8 H :   -0.302543
   9 H :   -0.283524
  10 C :    0.282750
  11 H :   -0.144988
  12 H :   -0.162747
  13 C :    0.262790
  14 H :   -0.142226
  15 H :   -0.149390
  16 C :    0.599721
  17 H :   -0.138761
  18 H :   -0.168426
  19 H :   -0.185607
  20 H :   -0.181807
  21 H :   -0.183758

  Mayer bond orders larger than 0.100000
B(  0-C ,  1-C ) :   0.6466 B(  0-C , 10-C ) :   0.9767 B(  0-C , 11-H ) :   1.0817
B(  0-C , 12-H ) :   0.9037 B(  1-C ,  2-C ) :   1.1299 B(  1-C ,  3-N ) :  -0.1752
B(  1-C ,  4-N ) :  -0.1450 B(  1-C ,  7-H ) :   0.8766 B(  1-C , 10-C ) :   0.1863
B(  2-C ,  3-N ) :   0.8056 B(  2-C ,  4-N ) :   0.6877 B(  2-C ,  7-H ) :   0.1364
B(  3-N ,  4-N ) :  -0.1383 B(  3-N ,  8-H ) :   1.1247 B(  3-N ,  9-H ) :   1.0376
B(  4-N ,  5-H ) :   1.1447 B(  4-N ,  6-H ) :   1.1355 B( 10-C , 13-C ) :   0.8142
B( 10-C , 14-H ) :   0.9353 B( 10-C , 15-H ) :   0.9284 B( 13-C , 16-C ) :   0.8142
B( 13-C , 17-H ) :   0.9672 B( 13-C , 18-H ) :   0.9466 B( 16-C , 19-H ) :   0.9733
B( 16-C , 20-H ) :   1.0045 B( 16-C , 21-H ) :   0.9673

E(0)                                       ...   -344.347203948
E(0)                                       ...   -344.347203948
E(CORR)(strong-pairs)                      ...     -1.541092127
E(CORR)(weak-pairs)                        ...     -0.002015827
E(CORR)(corrected)                         ...     -1.543107954
E(TOT)                                     ...   -345.890311902
E(CCSD(T))                                 ...   -345.953356798
FINAL SINGLE POINT ENERGY      -345.953356798327

DIPOLE MOMENT
-------------
                                X             Y             Z
Electronic contribution:      7.16273       0.82793       2.82845
Nuclear contribution   :     -6.24213      -1.08224      -3.08485
                        -----------------------------------------
Total Dipole Moment    :      0.92060      -0.25432      -0.25640
                        -----------------------------------------
Magnitude (a.u.)       :      0.98890
Magnitude (Debye)      :      2.51358

Rotational constants in cm-1:     0.112920     0.033692     0.030869
Rotational constants in MHz :  3385.258272  1010.056490   925.433074

                             ****ORCA TERMINATED NORMALLY****
TOTAL RUN TIME: 0 days 1 hours 13 minutes 27 seconds 1 msec
