                         Program Version 5.0.0 -  RELEASE  -
|  1> !DLPNO-CCSD(T) aug-cc-pVTZ aug-cc-pVTZ/C TightSCF TightPNO RIJCOSX def2/J
|  2> *xyz 0 1
|  3> C          4.08422        1.74208       -2.11472
|  4> C          4.26524        2.50052       -0.79589
|  5> H          4.86853        3.39267       -0.98113
|  6> H          3.30764        2.82457       -0.38781
|  7> C          4.98224        1.65026        0.24742
|  8> F          4.36806        1.38927        1.31371
|  9> O          6.12892        1.23351       -0.04562
| 10> C          1.99727        0.43092       -1.39922
| 11> C          3.41275        0.37689       -1.96550
| 12> H          4.04741       -0.24659       -1.32671
| 13> H          3.39077       -0.11872       -2.94284
| 14> H          5.06847        1.59850       -2.56573
| 15> H          3.50336        2.36394       -2.80457
| 16> C          2.39995       -1.38958        1.00949
| 17> C          2.07018       -1.93671       -0.37240
| 18> C          1.32224       -0.93577       -1.25641
| 19> H          1.47275       -2.85090       -0.28400
| 20> H          3.00354       -2.23404       -0.86254
| 21> H          1.37644        1.05892       -2.04742
| 22> H          2.01534        0.92978       -0.42653
| 23> H          0.31665       -0.78721       -0.84828
| 24> H          1.18561       -1.37925       -2.24861
| 25> H          2.98295       -0.49786        0.91024
| 26> H          2.95620       -2.12008        1.55891
| 27> H          1.49248       -1.16626        1.53057
| 28> *
| 29> %MaxCore 64000
| 30> %pal nprocs 8
| 31> end
| 32> %scf
| 33>   MaxIter 150
| 34> end
| 35>
| 36>                          ****END OF INPUT****

CARTESIAN COORDINATES (ANGSTROEM)
---------------------------------
  C      4.084220    1.742080   -2.114720
  C      4.265240    2.500520   -0.795890
  H      4.868530    3.392670   -0.981130
  H      3.307640    2.824570   -0.387810
  C      4.982240    1.650260    0.247420
  F      4.368060    1.389270    1.313710
  O      6.128920    1.233510   -0.045620
  C      1.997270    0.430920   -1.399220
  C      3.412750    0.376890   -1.965500
  H      4.047410   -0.246590   -1.326710
  H      3.390770   -0.118720   -2.942840
  H      5.068470    1.598500   -2.565730
  H      3.503360    2.363940   -2.804570
  C      2.399950   -1.389580    1.009490
  C      2.070180   -1.936710   -0.372400
  C      1.322240   -0.935770   -1.256410
  H      1.472750   -2.850900   -0.284000
  H      3.003540   -2.234040   -0.862540
  H      1.376440    1.058920   -2.047420
  H      2.015340    0.929780   -0.426530
  H      0.316650   -0.787210   -0.848280
  H      1.185610   -1.379250   -2.248610
  H      2.982950   -0.497860    0.910240
  H      2.956200   -2.120080    1.558910
  H      1.492480   -1.166260    1.530570

 Total Charge           Charge          ....    0
 Multiplicity           Mult            ....    1
 Number of Electrons    NEL             ....   80
 Basis Dimension        Dim             ....  805

ORBITAL ENERGIES
----------------

  NO   OCC          E(Eh)            E(eV)
   0   2.0000     -26.375313      -717.7087
   1   2.0000     -20.561017      -559.4937
   2   2.0000     -11.429141      -311.0027
   3   2.0000     -11.257897      -306.3430
   4   2.0000     -11.238538      -305.8162
   5   2.0000     -11.225325      -305.4566
   6   2.0000     -11.222551      -305.3811
   7   2.0000     -11.218791      -305.2788
   8   2.0000     -11.215260      -305.1827
   9   2.0000     -11.200880      -304.7914
  10   2.0000      -1.728964       -47.0475
  11   2.0000      -1.374468       -37.4012
  12   2.0000      -1.110981       -30.2313
  13   2.0000      -1.073417       -29.2092
  14   2.0000      -1.013661       -27.5831
  15   2.0000      -0.957649       -26.0590
  16   2.0000      -0.906036       -24.6545
  17   2.0000      -0.873769       -23.7765
  18   2.0000      -0.820347       -22.3228
  19   2.0000      -0.774204       -21.0672
  20   2.0000      -0.767089       -20.8736
  21   2.0000      -0.756404       -20.5828
  22   2.0000      -0.707271       -19.2458
  23   2.0000      -0.655725       -17.8432
  24   2.0000      -0.643245       -17.5036
  25   2.0000      -0.621094       -16.9008
  26   2.0000      -0.613205       -16.6862
  27   2.0000      -0.579772       -15.7764
  28   2.0000      -0.574159       -15.6237
  29   2.0000      -0.550822       -14.9886
  30   2.0000      -0.539509       -14.6808
  31   2.0000      -0.536092       -14.5878
  32   2.0000      -0.505401       -13.7527
  33   2.0000      -0.495935       -13.4951
  34   2.0000      -0.484729       -13.1901
  35   2.0000      -0.481161       -13.0931
  36   2.0000      -0.465352       -12.6629
  37   2.0000      -0.456338       -12.4176
  38   2.0000      -0.450364       -12.2550
  39   2.0000      -0.448271       -12.1981
  40   0.0000       0.025674         0.6986
  41   0.0000       0.031526         0.8579
  42   0.0000       0.034230         0.9314
  43   0.0000       0.037976         1.0334
  44   0.0000       0.046925         1.2769

MULLIKEN ATOMIC CHARGES
-----------------------
   0 C :   -0.575347
   1 C :   -0.302639
   2 H :    0.401940
   3 H :    0.142275
   4 C :    0.936178
   5 F :   -0.376889
   6 O :   -0.851260
   7 C :   -0.310807
   8 C :   -0.349833
   9 H :    0.102344
  10 H :    0.389137
  11 H :    0.170081
  12 H :    0.254124
  13 C :   -1.005084
  14 C :   -0.385723
  15 C :   -0.629998
  16 H :    0.418089
  17 H :    0.151626
  18 H :    0.447670
  19 H :    0.119135
  20 H :    0.193171
  21 H :    0.175016
  22 H :    0.389437
  23 H :    0.251078
  24 H :    0.246280
Sum of atomic charges:   -0.0000000

LOEWDIN ATOMIC CHARGES
----------------------
   0 C :    0.285162
   1 C :    0.265624
   2 H :   -0.148140
   3 H :   -0.174081
   4 C :   -0.921736
   5 F :    0.605852
   6 O :    0.406020
   7 C :    0.276621
   8 C :    0.277472
   9 H :   -0.167093
  10 H :   -0.124535
  11 H :   -0.145086
  12 H :   -0.135078
  13 C :    0.600429
  14 C :    0.269709
  15 C :    0.294062
  16 H :   -0.140405
  17 H :   -0.152490
  18 H :   -0.132238
  19 H :   -0.171585
  20 H :   -0.141541
  21 H :   -0.141812
  22 H :   -0.242537
  23 H :   -0.172370
  24 H :   -0.170223

  Mayer bond orders larger than 0.100000
B(  0-C ,  1-C ) :   0.9529 B(  0-C ,  4-C ) :   0.1314 B(  0-C ,  8-C ) :   0.8603
B(  0-C , 11-H ) :   1.0544 B(  0-C , 12-H ) :   0.9149 B(  1-C ,  2-H ) :   0.8634
B(  1-C ,  3-H ) :   1.0366 B(  1-C ,  4-C ) :   0.7734 B(  2-H ,  4-C ) :  -0.1019
B(  3-H ,  4-C ) :   0.1175 B(  4-C ,  5-F ) :   0.6579 B(  4-C ,  6-O ) :   1.3766
B(  7-C ,  8-C ) :   0.8258 B(  7-C , 15-C ) :   0.8942 B(  7-C , 18-H ) :   0.7575
B(  7-C , 19-H ) :   1.1258 B(  8-C ,  9-H ) :   1.1009 B(  8-C , 10-H ) :   0.8229
B( 13-C , 14-C ) :   0.7805 B( 13-C , 22-H ) :   0.8439 B( 13-C , 23-H ) :   1.0189
B( 13-C , 24-H ) :   0.9998 B( 14-C , 15-C ) :   0.9251 B( 14-C , 16-H ) :   0.8280
B( 14-C , 17-H ) :   1.0481 B( 15-C , 20-H ) :   1.0381 B( 15-C , 21-H ) :   1.0271

E(0)                                       ...   -486.158610601
E(0)                                       ...   -486.158610601
E(CORR)(strong-pairs)                      ...     -1.964561827
E(CORR)(weak-pairs)                        ...     -0.002765318
E(CORR)(corrected)                         ...     -1.967327145
E(TOT)                                     ...   -488.125937747
E(CCSD(T))                                 ...   -488.204822812
FINAL SINGLE POINT ENERGY      -488.204822812389

DIPOLE MOMENT
-------------
                                X             Y             Z
Electronic contribution:     10.95871       7.93170       7.42797
Nuclear contribution   :    -12.04432      -7.40750      -7.84420
                        -----------------------------------------
Total Dipole Moment    :     -1.08561       0.52420      -0.41623
                        -----------------------------------------
Magnitude (a.u.)       :      1.27537
Magnitude (Debye)      :      3.24174

Rotational constants in cm-1:     0.057868     0.028005     0.022027
Rotational constants in MHz :  1734.835850   839.582138   660.349665

                             ****ORCA TERMINATED NORMALLY****
TOTAL RUN TIME: 0 days 2 hours 32 minutes 38 seconds 391 msec
