                         Program Version 5.0.0 -  RELEASE  -
|  1> !DLPNO-CCSD(T) aug-cc-pVTZ aug-cc-pVTZ/C TightSCF TightPNO RIJCOSX def2/J
|  2> *xyz 0 1
|  3> C          4.26524        2.50052       -0.79589
|  4> C          4.98224        1.65026        0.24742
|  5> F          4.36806        1.38927        1.31371
|  6> O          6.12892        1.23351       -0.04562
|  7> H          4.90412        2.63966       -1.64287
|  8> H          4.02079        3.45265       -0.37328
|  9> H          3.36773        2.00584       -1.10356
| 10> *
| 11> %MaxCore 64000
| 12> %pal nprocs 8
| 13> end
| 14> %scf
| 15>   MaxIter 150
| 16> end
| 17>
| 18>
| 19>                          ****END OF INPUT****

CARTESIAN COORDINATES (ANGSTROEM)
---------------------------------
  C      4.265240    2.500520   -0.795890
  C      4.982240    1.650260    0.247420
  F      4.368060    1.389270    1.313710
  O      6.128920    1.233510   -0.045620
  H      4.904120    2.639660   -1.642870
  H      4.020790    3.452650   -0.373280
  H      3.367730    2.005840   -1.103560

 Total Charge           Charge          ....    0
 Multiplicity           Mult            ....    1
 Number of Electrons    NEL             ....   32
 Basis Dimension        Dim             ....  253

ORBITAL ENERGIES
----------------

  NO   OCC          E(Eh)            E(eV)
   0   2.0000     -26.378409      -717.7930
   1   2.0000     -20.565549      -559.6170
   2   2.0000     -11.434957      -311.1610
   3   2.0000     -11.256362      -306.3012
   4   2.0000      -1.730992       -47.1027
   5   2.0000      -1.377301       -37.4783
   6   2.0000      -1.043039       -28.3825
   7   2.0000      -0.901158       -24.5218
   8   2.0000      -0.778513       -21.1844
   9   2.0000      -0.771902       -21.0045
  10   2.0000      -0.711685       -19.3659
  11   2.0000      -0.614138       -16.7115
  12   2.0000      -0.602112       -16.3843
  13   2.0000      -0.587547       -15.9880
  14   2.0000      -0.499041       -13.5796
  15   2.0000      -0.469683       -12.7807
  16   0.0000       0.025280         0.6879
  17   0.0000       0.041517         1.1297
  18   0.0000       0.048166         1.3107
  19   0.0000       0.063439         1.7263
  20   0.0000       0.097789         2.6610

MULLIKEN ATOMIC CHARGES
-----------------------
   0 C :   -0.738622
   1 C :    0.595081
   2 F :   -0.245169
   3 O :   -0.568416
   4 H :    0.333691
   5 H :    0.312908
   6 H :    0.310526
Sum of atomic charges:   -0.0000000

LOEWDIN ATOMIC CHARGES
----------------------
   0 C :    0.582140
   1 C :   -0.928737
   2 F :    0.568788
   3 O :    0.372801
   4 H :   -0.200035
   5 H :   -0.198300
   6 H :   -0.196658

  Mayer bond orders larger than 0.100000
B(  0-C ,  1-C ) :   0.8484 B(  0-C ,  4-H ) :   0.8986 B(  0-C ,  5-H ) :   0.9099
B(  0-C ,  6-H ) :   0.9108 B(  1-C ,  2-F ) :   0.9247 B(  1-C ,  3-O ) :   1.7150

E(0)                                       ...   -251.881207065
E(0)                                       ...   -251.881207065
E(CORR)(strong-pairs)                      ...     -0.837864212
E(CORR)(weak-pairs)                        ...     -0.000616673
E(CORR)(corrected)                         ...     -0.838480885
E(TOT)                                     ...   -252.719687951
E(CCSD(T))                                 ...   -252.752273509
FINAL SINGLE POINT ENERGY      -252.752273509124

DIPOLE MOMENT
-------------
                                X             Y             Z
Electronic contribution:      0.66207      -2.44381       4.28362
Nuclear contribution   :     -1.76261       3.13449      -4.58927
                        -----------------------------------------
Total Dipole Moment    :     -1.10053       0.69068      -0.30565
                        -----------------------------------------
Magnitude (a.u.)       :      1.33478
Magnitude (Debye)      :      3.39274

Rotational constants in cm-1:     0.370628     0.320375     0.177409
Rotational constants in MHz : 11111.155899  9604.607061  5318.597912

                             ****ORCA TERMINATED NORMALLY****
TOTAL RUN TIME: 0 days 0 hours 2 minutes 21 seconds 598 msec
