                         Program Version 5.0.0 -  RELEASE  -
|  1> !DLPNO-CCSD(T) aug-cc-pVTZ aug-cc-pVTZ/C TightSCF TightPNO RIJCOSX def2/J
|  2> *xyz 0 1
|  3> C          4.08422        1.74208       -2.11472
|  4> C          4.26524        2.50052       -0.79589
|  5> H          4.86853        3.39267       -0.98113
|  6> H          3.30764        2.82457       -0.38781
|  7> C          4.98224        1.65026        0.24742
|  8> F          4.36806        1.38927        1.31371
|  9> O          6.12892        1.23351       -0.04562
| 10> C          1.99727        0.43092       -1.39922
| 11> C          3.41275        0.37689       -1.96550
| 12> H          4.04741       -0.24659       -1.32671
| 13> H          3.39077       -0.11872       -2.94284
| 14> H          5.06847        1.59850       -2.56573
| 15> H          3.50336        2.36394       -2.80457
| 16> C          1.32224       -0.93577       -1.25641
| 17> H          1.37644        1.05892       -2.04742
| 18> H          2.01534        0.92978       -0.42653
| 19> H          1.30366       -1.42552       -2.20757
| 20> H          0.32075       -0.80379       -0.90357
| 21> H          1.87053       -1.53318       -0.55828
| 22> *
| 23> %MaxCore 64000
| 24> %pal nprocs 8
| 25> end
| 26> %scf
| 27>   MaxIter 150
| 28> end
| 29>
| 30>                          ****END OF INPUT****

CARTESIAN COORDINATES (ANGSTROEM)
---------------------------------
  C      4.084220    1.742080   -2.114720
  C      4.265240    2.500520   -0.795890
  H      4.868530    3.392670   -0.981130
  H      3.307640    2.824570   -0.387810
  C      4.982240    1.650260    0.247420
  F      4.368060    1.389270    1.313710
  O      6.128920    1.233510   -0.045620
  C      1.997270    0.430920   -1.399220
  C      3.412750    0.376890   -1.965500
  H      4.047410   -0.246590   -1.326710
  H      3.390770   -0.118720   -2.942840
  H      5.068470    1.598500   -2.565730
  H      3.503360    2.363940   -2.804570
  C      1.322240   -0.935770   -1.256410
  H      1.376440    1.058920   -2.047420
  H      2.015340    0.929780   -0.426530
  H      1.303660   -1.425520   -2.207570
  H      0.320750   -0.803790   -0.903570
  H      1.870530   -1.533180   -0.558280

 Total Charge           Charge          ....    0
 Multiplicity           Mult            ....    1
 Number of Electrons    NEL             ....   64
 Basis Dimension        Dim             ....  621

ORBITAL ENERGIES
----------------

  NO   OCC          E(Eh)            E(eV)
   0   2.0000     -26.374545      -717.6878
   1   2.0000     -20.560283      -559.4737
   2   2.0000     -11.428535      -310.9862
   3   2.0000     -11.257617      -306.3353
   4   2.0000     -11.238659      -305.8195
   5   2.0000     -11.226271      -305.4824
   6   2.0000     -11.224911      -305.4454
   7   2.0000     -11.209591      -305.0285
   8   2.0000      -1.727498       -47.0076
   9   2.0000      -1.373758       -37.3819
  10   2.0000      -1.106811       -30.1179
  11   2.0000      -1.046788       -28.4845
  12   2.0000      -0.969680       -26.3863
  13   2.0000      -0.904732       -24.6190
  14   2.0000      -0.855634       -23.2830
  15   2.0000      -0.800083       -21.7714
  16   2.0000      -0.768651       -20.9161
  17   2.0000      -0.759046       -20.6547
  18   2.0000      -0.707611       -19.2551
  19   2.0000      -0.653567       -17.7845
  20   2.0000      -0.632313       -17.2061
  21   2.0000      -0.608994       -16.5716
  22   2.0000      -0.591156       -16.0862
  23   2.0000      -0.571391       -15.5483
  24   2.0000      -0.548007       -14.9120
  25   2.0000      -0.526520       -14.3273
  26   2.0000      -0.515473       -14.0267
  27   2.0000      -0.493297       -13.4233
  28   2.0000      -0.474122       -12.9015
  29   2.0000      -0.471926       -12.8418
  30   2.0000      -0.463414       -12.6101
  31   2.0000      -0.459580       -12.5058
  32   0.0000       0.026701         0.7266
  33   0.0000       0.033150         0.9021
  34   0.0000       0.035466         0.9651
  35   0.0000       0.041720         1.1353
  36   0.0000       0.051684         1.4064

MULLIKEN ATOMIC CHARGES
-----------------------
   0 C :   -0.436642
   1 C :   -0.310135
   2 H :    0.372211
   3 H :    0.180438
   4 C :    0.851978
   5 F :   -0.363079
   6 O :   -0.780264
   7 C :   -0.465311
   8 C :   -0.417245
   9 H :    0.157410
  10 H :    0.369326
  11 H :    0.190781
  12 H :    0.285942
  13 C :   -0.969524
  14 H :    0.200517
  15 H :    0.297181
  16 H :    0.286181
  17 H :    0.258944
  18 H :    0.291291
Sum of atomic charges:   -0.0000000

LOEWDIN ATOMIC CHARGES
----------------------
   0 C :    0.277315
   1 C :    0.259850
   2 H :   -0.148978
   3 H :   -0.176896
   4 C :   -0.927013
   5 F :    0.589962
   6 O :    0.401276
   7 C :    0.260203
   8 C :    0.272399
   9 H :   -0.153169
  10 H :   -0.133662
  11 H :   -0.146406
  12 H :   -0.136146
  13 C :    0.610246
  14 H :   -0.140200
  15 H :   -0.162543
  16 H :   -0.182500
  17 H :   -0.182967
  18 H :   -0.180772

  Mayer bond orders larger than 0.100000
B(  0-C ,  1-C ) :   0.9289 B(  0-C ,  8-C ) :   0.8307 B(  0-C , 11-H ) :   1.0264
B(  0-C , 12-H ) :   0.8850 B(  1-C ,  2-H ) :   0.8877 B(  1-C ,  3-H ) :   1.0004
B(  1-C ,  4-C ) :   0.7728 B(  3-H ,  4-C ) :   0.1037 B(  4-C ,  5-F ) :   0.6303
B(  4-C ,  6-O ) :   1.5354 B(  7-C ,  8-C ) :   0.8573 B(  7-C , 13-C ) :   0.8115
B(  7-C , 14-H ) :   1.0159 B(  7-C , 15-H ) :   0.9073 B(  8-C ,  9-H ) :   1.0227
B(  8-C , 10-H ) :   0.8590 B( 13-C , 16-H ) :   0.9540 B( 13-C , 17-H ) :   1.0211
B( 13-C , 18-H ) :   0.9481

E(0)                                       ...   -408.069261499
E(0)                                       ...   -408.069261499
E(CORR)(strong-pairs)                      ...     -1.586798478
E(CORR)(weak-pairs)                        ...     -0.001860111
E(CORR)(corrected)                         ...     -1.588658589
E(TOT)                                     ...   -409.657920088
E(CCSD(T))                                 ...   -409.721098324
FINAL SINGLE POINT ENERGY      -409.721098324210

DIPOLE MOMENT
-------------
                                X             Y             Z
Electronic contribution:      9.78970       4.11447      10.46019
Nuclear contribution   :    -10.90432      -3.55765     -10.89527
                        -----------------------------------------
Total Dipole Moment    :     -1.11463       0.55682      -0.43509
                        -----------------------------------------
Magnitude (a.u.)       :      1.31975
Magnitude (Debye)      :      3.35454

Rotational constants in cm-1:     0.100657     0.038787     0.033381
Rotational constants in MHz :  3017.632956  1162.814205  1000.742793

                             ****ORCA TERMINATED NORMALLY****
TOTAL RUN TIME: 0 days 0 hours 52 minutes 58 seconds 378 msec
