                         Program Version 5.0.0 -  RELEASE  -
|  1> !DLPNO-CCSD(T) aug-cc-pVTZ aug-cc-pVTZ/C TightSCF TightPNO RIJCOSX def2/J
|  2> *xyz 0 1
|  3> C          4.08422        1.74208       -2.11472
|  4> C          4.26524        2.50052       -0.79589
|  5> H          4.86853        3.39267       -0.98113
|  6> H          3.30764        2.82457       -0.38781
|  7> C          4.98224        1.65026        0.24742
|  8> F          4.36806        1.38927        1.31371
|  9> O          6.12892        1.23351       -0.04562
| 10> H          3.57911        2.36849       -2.81997
| 11> H          3.50424        0.85965       -1.94198
| 12> H          5.04288        1.46841       -2.50327
| 13> *
| 14> %MaxCore 64000
| 15> %pal nprocs 8
| 16> end
| 17> %scf
| 18>   MaxIter 150
| 19> end
| 20>
| 21>
| 22>                          ****END OF INPUT****

CARTESIAN COORDINATES (ANGSTROEM)
---------------------------------
  C      4.084220    1.742080   -2.114720
  C      4.265240    2.500520   -0.795890
  H      4.868530    3.392670   -0.981130
  H      3.307640    2.824570   -0.387810
  C      4.982240    1.650260    0.247420
  F      4.368060    1.389270    1.313710
  O      6.128920    1.233510   -0.045620
  H      3.579110    2.368490   -2.819970
  H      3.504240    0.859650   -1.941980
  H      5.042880    1.468410   -2.503270

 Total Charge           Charge          ....    0
 Multiplicity           Mult            ....    1
 Number of Electrons    NEL             ....   40
 Basis Dimension        Dim             ....  345

ORBITAL ENERGIES
----------------

  NO   OCC          E(Eh)            E(eV)
   0   2.0000     -26.375626      -717.7173
   1   2.0000     -20.561932      -559.5186
   2   2.0000     -11.429847      -311.0219
   3   2.0000     -11.262191      -306.4598
   4   2.0000     -11.231693      -305.6299
   5   2.0000      -1.728313       -47.0298
   6   2.0000      -1.374952       -37.4143
   7   2.0000      -1.077985       -29.3335
   8   2.0000      -0.939640       -25.5689
   9   2.0000      -0.872168       -23.7329
  10   2.0000      -0.772208       -21.0128
  11   2.0000      -0.764286       -20.7973
  12   2.0000      -0.712733       -19.3944
  13   2.0000      -0.638510       -17.3748
  14   2.0000      -0.615782       -16.7563
  15   2.0000      -0.557611       -15.1734
  16   2.0000      -0.541912       -14.7462
  17   2.0000      -0.527977       -14.3670
  18   2.0000      -0.487950       -13.2778
  19   2.0000      -0.465271       -12.6607
  20   0.0000       0.026252         0.7143
  21   0.0000       0.039334         1.0703
  22   0.0000       0.040777         1.1096
  23   0.0000       0.048693         1.3250
  24   0.0000       0.064196         1.7469

MULLIKEN ATOMIC CHARGES
-----------------------
   0 C :   -0.952837
   1 C :   -0.259878
   2 H :    0.283921
   3 H :    0.269783
   4 C :    0.638706
   5 F :   -0.272399
   6 O :   -0.655549
   7 H :    0.303952
   8 H :    0.306563
   9 H :    0.337737
Sum of atomic charges:   -0.0000000

LOEWDIN ATOMIC CHARGES
----------------------
   0 C :    0.594597
   1 C :    0.242513
   2 H :   -0.157503
   3 H :   -0.174457
   4 C :   -0.922395
   5 F :    0.578616
   6 O :    0.387364
   7 H :   -0.180090
   8 H :   -0.181775
   9 H :   -0.186871

  Mayer bond orders larger than 0.100000
B(  0-C ,  1-C ) :   0.8645 B(  0-C ,  7-H ) :   0.9388 B(  0-C ,  8-H ) :   0.9253
B(  0-C ,  9-H ) :   0.9051 B(  1-C ,  2-H ) :   0.9193 B(  1-C ,  3-H ) :   0.9387
B(  1-C ,  4-C ) :   0.7519 B(  4-C ,  5-F ) :   0.8381 B(  4-C ,  6-O ) :   1.6691

E(0)                                       ...   -290.928341612
E(0)                                       ...   -290.928341612
E(CORR)(strong-pairs)                      ...     -1.024362216
E(CORR)(weak-pairs)                        ...     -0.000884887
E(CORR)(corrected)                         ...     -1.025247103
E(TOT)                                     ...   -291.953588715
E(CCSD(T))                                 ...   -291.993761192
FINAL SINGLE POINT ENERGY      -291.993761191654

DIPOLE MOMENT
-------------
                                X             Y             Z
Electronic contribution:      1.79918      -1.96641       8.08880
Nuclear contribution   :     -2.87511       2.61564      -8.50037
                        -----------------------------------------
Total Dipole Moment    :     -1.07593       0.64923      -0.41157
                        -----------------------------------------
Magnitude (a.u.)       :      1.32231
Magnitude (Debye)      :      3.36105

Rotational constants in cm-1:     0.297822     0.128965     0.102219
Rotational constants in MHz :  8928.481997  3866.271686  3064.463504

                             ****ORCA TERMINATED NORMALLY****
TOTAL RUN TIME: 0 days 0 hours 11 minutes 22 seconds 732 msec
