                         Program Version 5.0.0 -  RELEASE  -
|  1> !DLPNO-CCSD(T) aug-cc-pVTZ aug-cc-pVTZ/C TightSCF TightPNO RIJCOSX def2/J
|  2> *xyz 0 1
|  3> C          3.91385       -1.65829        3.01513
|  4> C          5.03927       -0.90115        2.49282
|  5> C          6.21038       -1.41726        2.17824
|  6> N          6.53591       -2.67712        2.55608
|  7> N          7.07675       -0.70082        1.47891
|  8> H          7.95464       -1.12155        1.20755
|  9> H          6.75616        0.10664        0.96028
| 10> H          4.84217        0.01761        2.11519
| 11> H          5.99388       -3.12692        3.28278
| 12> H          7.49844       -2.97548        2.46878
| 13> C          3.13916       -2.37657        1.91061
| 14> H          3.26723       -0.93940        3.52069
| 15> H          4.24720       -2.35509        3.79006
| 16> C          1.99727        0.43092       -1.39922
| 17> C          2.39995       -1.38958        1.00949
| 18> H          2.44075       -3.08712        2.36298
| 19> H          3.84448       -2.97046        1.31868
| 20> C          2.07018       -1.93671       -0.37240
| 21> H          1.48161       -1.06154        1.50991
| 22> H          3.00863       -0.49000        0.89745
| 23> C          1.32224       -0.93577       -1.25641
| 24> H          1.47275       -2.85090       -0.28400
| 25> H          3.00354       -2.23404       -0.86254
| 26> H          0.31665       -0.78721       -0.84828
| 27> H          1.18561       -1.37925       -2.24861
| 28> H          1.40357        1.05764       -2.03139
| 29> H          2.96811        0.30580       -1.83133
| 30> H          2.09191        0.88450       -0.43475
| 31> *
| 32> %MaxCore 64000
| 33> %pal nprocs 8
| 34> end
| 35> %scf
| 36>   MaxIter 150
| 37> end
| 38>
| 39>                          ****END OF INPUT****

CARTESIAN COORDINATES (ANGSTROEM)
---------------------------------
  C      3.913850   -1.658290    3.015130
  C      5.039270   -0.901150    2.492820
  C      6.210380   -1.417260    2.178240
  N      6.535910   -2.677120    2.556080
  N      7.076750   -0.700820    1.478910
  H      7.954640   -1.121550    1.207550
  H      6.756160    0.106640    0.960280
  H      4.842170    0.017610    2.115190
  H      5.993880   -3.126920    3.282780
  H      7.498440   -2.975480    2.468780
  C      3.139160   -2.376570    1.910610
  H      3.267230   -0.939400    3.520690
  H      4.247200   -2.355090    3.790060
  C      1.997270    0.430920   -1.399220
  C      2.399950   -1.389580    1.009490
  H      2.440750   -3.087120    2.362980
  H      3.844480   -2.970460    1.318680
  C      2.070180   -1.936710   -0.372400
  H      1.481610   -1.061540    1.509910
  H      3.008630   -0.490000    0.897450
  C      1.322240   -0.935770   -1.256410
  H      1.472750   -2.850900   -0.284000
  H      3.003540   -2.234040   -0.862540
  H      0.316650   -0.787210   -0.848280
  H      1.185610   -1.379250   -2.248610
  H      1.403570    1.057640   -2.031390
  H      2.968110    0.305800   -1.831330
  H      2.091910    0.884500   -0.434750

 Total Charge           Charge          ....    0
 Multiplicity           Mult            ....    1
 Number of Electrons    NEL             ....   80
 Basis Dimension        Dim             ....  874

ORBITAL ENERGIES
----------------

  NO   OCC          E(Eh)            E(eV)
   0   2.0000     -15.562612      -423.4802
   1   2.0000     -15.560806      -423.4311
   2   2.0000     -11.281983      -306.9984
   3   2.0000     -11.206859      -304.9541
   4   2.0000     -11.203051      -304.8505
   5   2.0000     -11.197920      -304.7109
   6   2.0000     -11.195879      -304.6554
   7   2.0000     -11.195509      -304.6453
   8   2.0000     -11.195218      -304.6374
   9   2.0000     -11.138168      -303.0849
  10   2.0000      -1.277366       -34.7589
  11   2.0000      -1.164215       -31.6799
  12   2.0000      -1.082085       -29.4450
  13   2.0000      -1.046937       -28.4886
  14   2.0000      -0.987336       -26.8668
  15   2.0000      -0.929730       -25.2992
  16   2.0000      -0.870278       -23.6815
  17   2.0000      -0.811300       -22.0766
  18   2.0000      -0.772676       -21.0256
  19   2.0000      -0.762242       -20.7416
  20   2.0000      -0.720171       -19.5969
  21   2.0000      -0.692468       -18.8430
  22   2.0000      -0.640733       -17.4352
  23   2.0000      -0.629260       -17.1230
  24   2.0000      -0.611200       -16.6316
  25   2.0000      -0.592670       -16.1274
  26   2.0000      -0.585974       -15.9452
  27   2.0000      -0.562759       -15.3135
  28   2.0000      -0.544760       -14.8237
  29   2.0000      -0.538847       -14.6628
  30   2.0000      -0.516086       -14.0434
  31   2.0000      -0.503833       -13.7100
  32   2.0000      -0.496233       -13.5032
  33   2.0000      -0.466960       -12.7066
  34   2.0000      -0.457869       -12.4593
  35   2.0000      -0.444397       -12.0927
  36   2.0000      -0.436892       -11.8884
  37   2.0000      -0.430822       -11.7233
  38   2.0000      -0.416958       -11.3460
  39   2.0000      -0.261538        -7.1168
  40   0.0000       0.023202         0.6314
  41   0.0000       0.032395         0.8815
  42   0.0000       0.035447         0.9646
  43   0.0000       0.038144         1.0380
  44   0.0000       0.044286         1.2051

MULLIKEN ATOMIC CHARGES
-----------------------
   0 C :   -0.249138
   1 C :   -0.420191
   2 C :    0.651926
   3 N :   -0.522172
   4 N :   -0.637362
   5 H :    0.071705
   6 H :    0.097319
   7 H :    0.339475
   8 H :    0.109602
   9 H :    0.128177
  10 C :   -0.568612
  11 H :    0.184816
  12 H :    0.302936
  13 C :   -0.980564
  14 C :   -0.359670
  15 H :    0.258871
  16 H :    0.148364
  17 C :   -0.465763
  18 H :    0.230408
  19 H :    0.339841
  20 C :   -0.471001
  21 H :    0.223745
  22 H :    0.232884
  23 H :    0.213183
  24 H :    0.278527
  25 H :    0.263689
  26 H :    0.265880
  27 H :    0.333123
Sum of atomic charges:    0.0000000

LOEWDIN ATOMIC CHARGES
----------------------
   0 C :    0.229536
   1 C :    0.189427
   2 C :   -0.418864
   3 N :    0.876621
   4 N :    0.851644
   5 H :   -0.283839
   6 H :   -0.267033
   7 H :   -0.269314
   8 H :   -0.302427
   9 H :   -0.283445
  10 C :    0.293338
  11 H :   -0.144192
  12 H :   -0.162154
  13 C :    0.600349
  14 C :    0.271269
  15 H :   -0.140402
  16 H :   -0.147324
  17 C :    0.282801
  18 H :   -0.126650
  19 H :   -0.186161
  20 C :    0.272442
  21 H :   -0.137341
  22 H :   -0.142412
  23 H :   -0.147709
  24 H :   -0.148441
  25 H :   -0.182092
  26 H :   -0.177513
  27 H :   -0.200115

  Mayer bond orders larger than 0.100000
B(  0-C ,  1-C ) :   0.6391 B(  0-C , 10-C ) :   0.9504 B(  0-C , 11-H ) :   1.1554
B(  0-C , 12-H ) :   0.8292 B(  1-C ,  2-C ) :   1.1397 B(  1-C ,  3-N ) :  -0.1544
B(  1-C ,  4-N ) :  -0.1281 B(  1-C ,  7-H ) :   0.8183 B(  1-C , 10-C ) :   0.1602
B(  2-C ,  3-N ) :   0.7391 B(  2-C ,  4-N ) :   0.6631 B(  2-C ,  7-H ) :   0.1323
B(  2-C , 12-H ) :   0.1076 B(  3-N ,  4-N ) :  -0.1249 B(  3-N ,  8-H ) :   1.1255
B(  3-N ,  9-H ) :   1.0354 B(  4-N ,  5-H ) :   1.1425 B(  4-N ,  6-H ) :   1.1265
B( 10-C , 14-C ) :   0.8297 B( 10-C , 15-H ) :   0.9888 B( 10-C , 16-H ) :   0.9879
B( 13-C , 20-C ) :   0.8086 B( 13-C , 25-H ) :   1.0230 B( 13-C , 26-H ) :   0.9662
B( 13-C , 27-H ) :   0.8976 B( 14-C , 17-C ) :   0.7763 B( 14-C , 18-H ) :   0.9941
B( 14-C , 19-H ) :   0.9206 B( 17-C , 20-C ) :   0.9090 B( 17-C , 21-H ) :   0.9676
B( 17-C , 22-H ) :   0.9913 B( 20-C , 23-H ) :   0.9857 B( 20-C , 24-H ) :   0.9584

E(0)                                       ...   -422.440113032
E(0)                                       ...   -422.440113032
E(CORR)(strong-pairs)                      ...     -1.915914394
E(CORR)(weak-pairs)                        ...     -0.002860626
E(CORR)(corrected)                         ...     -1.918775020
E(TOT)                                     ...   -424.358888052
E(CCSD(T))                                 ...   -424.437263718
FINAL SINGLE POINT ENERGY      -424.437263718053

DIPOLE MOMENT
-------------
                                X             Y             Z
Electronic contribution:      8.52409      -1.59298       5.06653
Nuclear contribution   :     -7.60865       1.30440      -5.31569
                        -----------------------------------------
Total Dipole Moment    :      0.91544      -0.28858      -0.24916
                        -----------------------------------------
Magnitude (a.u.)       :      0.99166
Magnitude (Debye)      :      2.52061

Rotational constants in cm-1:     0.068690     0.018715     0.016508
Rotational constants in MHz :  2059.281127   561.055004   494.902234

                             ****ORCA TERMINATED NORMALLY****
TOTAL RUN TIME: 0 days 2 hours 10 minutes 55 seconds 346 msec
