                         Program Version 5.0.0 -  RELEASE  -
|  1> !DLPNO-CCSD(T) aug-cc-pVTZ aug-cc-pVTZ/C TightSCF TightPNO RIJCOSX def2/J
|  2> *xyz 0 1
|  3> C          3.91385       -1.65829        3.01513
|  4> C          5.03927       -0.90115        2.49282
|  5> C          6.21038       -1.41726        2.17824
|  6> N          6.53591       -2.67712        2.55608
|  7> N          7.07675       -0.70082        1.47891
|  8> H          7.95464       -1.12155        1.20755
|  9> H          6.75616        0.10664        0.96028
| 10> H          4.84217        0.01761        2.11519
| 11> H          5.99388       -3.12692        3.28278
| 12> H          7.49844       -2.97548        2.46878
| 13> C          3.13916       -2.37657        1.91061
| 14> H          3.26723       -0.93940        3.52069
| 15> H          4.24720       -2.35509        3.79006
| 16> C          1.99727        0.43092       -1.39922
| 17> C          3.41275        0.37689       -1.96550
| 18> C          2.39995       -1.38958        1.00949
| 19> H          2.44075       -3.08712        2.36298
| 20> H          3.84448       -2.97046        1.31868
| 21> C          2.07018       -1.93671       -0.37240
| 22> H          1.48161       -1.06154        1.50991
| 23> H          3.00863       -0.49000        0.89745
| 24> C          1.32224       -0.93577       -1.25641
| 25> H          1.47275       -2.85090       -0.28400
| 26> H          3.00354       -2.23404       -0.86254
| 27> H          1.37644        1.05892       -2.04742
| 28> H          2.01534        0.92978       -0.42653
| 29> H          0.31665       -0.78721       -0.84828
| 30> H          1.18561       -1.37925       -2.24861
| 31> H          3.39759       -0.11102       -2.91766
| 32> H          4.04439       -0.16810       -1.29548
| 33> H          3.78910        1.37189       -2.08055
| 34> *
| 35> %MaxCore 64000
| 36> %pal nprocs 4
| 37> end
| 38> %scf
| 39>   MaxIter 150
| 40> end
| 41>
| 42>                          ****END OF INPUT****

CARTESIAN COORDINATES (ANGSTROEM)
---------------------------------
  C      3.913850   -1.658290    3.015130
  C      5.039270   -0.901150    2.492820
  C      6.210380   -1.417260    2.178240
  N      6.535910   -2.677120    2.556080
  N      7.076750   -0.700820    1.478910
  H      7.954640   -1.121550    1.207550
  H      6.756160    0.106640    0.960280
  H      4.842170    0.017610    2.115190
  H      5.993880   -3.126920    3.282780
  H      7.498440   -2.975480    2.468780
  C      3.139160   -2.376570    1.910610
  H      3.267230   -0.939400    3.520690
  H      4.247200   -2.355090    3.790060
  C      1.997270    0.430920   -1.399220
  C      3.412750    0.376890   -1.965500
  C      2.399950   -1.389580    1.009490
  H      2.440750   -3.087120    2.362980
  H      3.844480   -2.970460    1.318680
  C      2.070180   -1.936710   -0.372400
  H      1.481610   -1.061540    1.509910
  H      3.008630   -0.490000    0.897450
  C      1.322240   -0.935770   -1.256410
  H      1.472750   -2.850900   -0.284000
  H      3.003540   -2.234040   -0.862540
  H      1.376440    1.058920   -2.047420
  H      2.015340    0.929780   -0.426530
  H      0.316650   -0.787210   -0.848280
  H      1.185610   -1.379250   -2.248610
  H      3.397590   -0.111020   -2.917660
  H      4.044390   -0.168100   -1.295480
  H      3.789100    1.371890   -2.080550

 Total Charge           Charge          ....    0
 Multiplicity           Mult            ....    1
 Number of Electrons    NEL             ....   88
 Basis Dimension        Dim             ....  966

ORBITAL ENERGIES
----------------

  NO   OCC          E(Eh)            E(eV)
   0   2.0000     -15.562820      -423.4859
   1   2.0000     -15.560971      -423.4355
   2   2.0000     -11.282277      -307.0064
   3   2.0000     -11.207346      -304.9674
   4   2.0000     -11.205687      -304.9223
   5   2.0000     -11.202793      -304.8435
   6   2.0000     -11.198231      -304.7193
   7   2.0000     -11.197068      -304.6877
   8   2.0000     -11.196120      -304.6619
   9   2.0000     -11.195453      -304.6438
  10   2.0000     -11.138453      -303.0927
  11   2.0000      -1.277591       -34.7650
  12   2.0000      -1.164413       -31.6853
  13   2.0000      -1.086590       -29.5676
  14   2.0000      -1.056757       -28.7558
  15   2.0000      -1.006362       -27.3845
  16   2.0000      -0.954997       -25.9868
  17   2.0000      -0.901581       -24.5333
  18   2.0000      -0.845784       -23.0150
  19   2.0000      -0.805248       -21.9119
  20   2.0000      -0.770656       -20.9706
  21   2.0000      -0.750097       -20.4112
  22   2.0000      -0.720185       -19.5972
  23   2.0000      -0.692703       -18.8494
  24   2.0000      -0.641244       -17.4491
  25   2.0000      -0.637010       -17.3339
  26   2.0000      -0.621357       -16.9080
  27   2.0000      -0.596885       -16.2421
  28   2.0000      -0.592807       -16.1311
  29   2.0000      -0.562456       -15.3052
  30   2.0000      -0.559132       -15.2148
  31   2.0000      -0.542220       -14.7546
  32   2.0000      -0.532418       -14.4878
  33   2.0000      -0.527648       -14.3580
  34   2.0000      -0.507069       -13.7981
  35   2.0000      -0.488666       -13.2973
  36   2.0000      -0.478775       -13.0281
  37   2.0000      -0.458653       -12.4806
  38   2.0000      -0.453060       -12.3284
  39   2.0000      -0.441064       -12.0020
  40   2.0000      -0.433810       -11.8046
  41   2.0000      -0.428713       -11.6659
  42   2.0000      -0.417062       -11.3488
  43   2.0000      -0.261854        -7.1254
  44   0.0000       0.023382         0.6363
  45   0.0000       0.031946         0.8693
  46   0.0000       0.034505         0.9389
  47   0.0000       0.037628         1.0239
  48   0.0000       0.043536         1.1847

MULLIKEN ATOMIC CHARGES
-----------------------
   0 C :   -0.295391
   1 C :   -0.358916
   2 C :    0.618445
   3 N :   -0.520337
   4 N :   -0.610031
   5 H :    0.065882
   6 H :    0.111116
   7 H :    0.334513
   8 H :    0.113164
   9 H :    0.119499
  10 C :   -0.579727
  11 H :    0.181652
  12 H :    0.269876
  13 C :   -0.390815
  14 C :   -1.054870
  15 C :   -0.347728
  16 H :    0.252583
  17 H :    0.139670
  18 C :   -0.372764
  19 H :    0.233557
  20 H :    0.248946
  21 C :   -0.600584
  22 H :    0.463086
  23 H :    0.077278
  24 H :    0.372235
  25 H :    0.142016
  26 H :    0.197475
  27 H :    0.218662
  28 H :    0.190042
  29 H :    0.550778
  30 H :    0.230690
Sum of atomic charges:    0.0000000

LOEWDIN ATOMIC CHARGES
----------------------
   0 C :    0.230631
   1 C :    0.189487
   2 C :   -0.419159
   3 N :    0.877023
   4 N :    0.852096
   5 H :   -0.283429
   6 H :   -0.267382
   7 H :   -0.268978
   8 H :   -0.302337
   9 H :   -0.283321
  10 C :    0.295806
  11 H :   -0.143881
  12 H :   -0.161999
  13 C :    0.265976
  14 C :    0.600047
  15 C :    0.273651
  16 H :   -0.139952
  17 H :   -0.146239
  18 C :    0.281969
  19 H :   -0.124607
  20 H :   -0.188872
  21 C :    0.287561
  22 H :   -0.133801
  23 H :   -0.148794
  24 H :   -0.144021
  25 H :   -0.158897
  26 H :   -0.143598
  27 H :   -0.144042
  28 H :   -0.175703
  29 H :   -0.195035
  30 H :   -0.180199

  Mayer bond orders larger than 0.100000
B(  0-C ,  1-C ) :   0.6605 B(  0-C , 10-C ) :   0.9586 B(  0-C , 11-H ) :   1.1608
B(  0-C , 12-H ) :   0.8545 B(  1-C ,  2-C ) :   1.0908 B(  1-C ,  3-N ) :  -0.1596
B(  1-C ,  4-N ) :  -0.1383 B(  1-C ,  7-H ) :   0.8001 B(  1-C , 10-C ) :   0.1489
B(  2-C ,  3-N ) :   0.7364 B(  2-C ,  4-N ) :   0.6599 B(  2-C ,  7-H ) :   0.1371
B(  2-C , 12-H ) :   0.1292 B(  3-N ,  4-N ) :  -0.1347 B(  3-N ,  8-H ) :   1.1199
B(  3-N ,  9-H ) :   1.0444 B(  4-N ,  5-H ) :   1.1470 B(  4-N ,  6-H ) :   1.1190
B( 10-C , 15-C ) :   0.8162 B( 10-C , 16-H ) :   0.9853 B( 10-C , 17-H ) :   0.9972
B( 13-C , 14-C ) :   0.7494 B( 13-C , 21-C ) :   0.8699 B( 13-C , 24-H ) :   0.8872
B( 13-C , 25-H ) :   1.0382 B( 14-C , 25-H ) :   0.1061 B( 14-C , 28-H ) :   1.0907
B( 14-C , 29-H ) :   0.7160 B( 14-C , 30-H ) :   1.0392 B( 15-C , 18-C ) :   0.7522
B( 15-C , 19-H ) :   0.9759 B( 15-C , 20-H ) :   0.9998 B( 18-C , 21-C ) :   0.8942
B( 18-C , 22-H ) :   0.7601 B( 18-C , 23-H ) :   1.1359 B( 21-C , 26-H ) :   1.0103
B( 21-C , 27-H ) :   0.9948

E(0)                                       ...   -461.486527730
E(0)                                       ...   -461.486527730
E(CORR)(strong-pairs)                      ...     -2.104303499
E(CORR)(weak-pairs)                        ...     -0.003362682
E(CORR)(corrected)                         ...     -2.107666181
E(TOT)                                     ...   -463.594193911
E(CCSD(T))                                 ...   -463.680350355
FINAL SINGLE POINT ENERGY      -463.680350354984

DIPOLE MOMENT
-------------
                                X             Y             Z
Electronic contribution:      7.53032      -1.98406       6.11687
Nuclear contribution   :     -6.63027       1.70074      -6.35040
                        -----------------------------------------
Total Dipole Moment    :      0.90005      -0.28332      -0.23353
                        -----------------------------------------
Magnitude (a.u.)       :      0.97206
Magnitude (Debye)      :      2.47079

Rotational constants in cm-1:     0.051309     0.017004     0.014160
Rotational constants in MHz :  1538.191643   509.760000   424.518662

                             ****ORCA TERMINATED NORMALLY****
TOTAL RUN TIME: 0 days 5 hours 51 minutes 53 seconds 319 msec
