                         Program Version 5.0.0 -  RELEASE  -
|  1> !DLPNO-CCSD(T) aug-cc-pVTZ aug-cc-pVTZ/C TightSCF TightPNO RIJCOSX def2/J
|  2> *xyz 0 1
|  3> C          4.08422        1.74208       -2.11472
|  4> C          4.26524        2.50052       -0.79589
|  5> H          4.86853        3.39267       -0.98113
|  6> H          3.30764        2.82457       -0.38781
|  7> C          4.98224        1.65026        0.24742
|  8> F          4.36806        1.38927        1.31371
|  9> O          6.12892        1.23351       -0.04562
| 10> C          3.41275        0.37689       -1.96550
| 11> H          5.06847        1.59850       -2.56573
| 12> H          3.50336        2.36394       -2.80457
| 13> H          3.32456       -0.08422       -2.92701
| 14> H          2.43923        0.50287       -1.53972
| 15> H          4.00446       -0.24355       -1.32531
| 16> *
| 17> %MaxCore 64000
| 18> %pal nprocs 8
| 19> end
| 20> %scf
| 21>   MaxIter 150
| 22> end
| 23>
| 24>
| 25>                          ****END OF INPUT****

CARTESIAN COORDINATES (ANGSTROEM)
---------------------------------
  C      4.084220    1.742080   -2.114720
  C      4.265240    2.500520   -0.795890
  H      4.868530    3.392670   -0.981130
  H      3.307640    2.824570   -0.387810
  C      4.982240    1.650260    0.247420
  F      4.368060    1.389270    1.313710
  O      6.128920    1.233510   -0.045620
  C      3.412750    0.376890   -1.965500
  H      5.068470    1.598500   -2.565730
  H      3.503360    2.363940   -2.804570
  H      3.324560   -0.084220   -2.927010
  H      2.439230    0.502870   -1.539720
  H      4.004460   -0.243550   -1.325310

 Total Charge           Charge          ....    0
 Multiplicity           Mult            ....    1
 Number of Electrons    NEL             ....   48
 Basis Dimension        Dim             ....  437

ORBITAL ENERGIES
----------------

  NO   OCC          E(Eh)            E(eV)
   0   2.0000     -26.374854      -717.6963
   1   2.0000     -20.561080      -559.4954
   2   2.0000     -11.429255      -311.0058
   3   2.0000     -11.259182      -306.3779
   4   2.0000     -11.240953      -305.8819
   5   2.0000     -11.217392      -305.2408
   6   2.0000      -1.727668       -47.0122
   7   2.0000      -1.374509       -37.4023
   8   2.0000      -1.094243       -29.7759
   9   2.0000      -0.989253       -26.9189
  10   2.0000      -0.904857       -24.6224
  11   2.0000      -0.836210       -22.7544
  12   2.0000      -0.768952       -20.9242
  13   2.0000      -0.761673       -20.7262
  14   2.0000      -0.712181       -19.3794
  15   2.0000      -0.638013       -17.3612
  16   2.0000      -0.630324       -17.1520
  17   2.0000      -0.582963       -15.8632
  18   2.0000      -0.577618       -15.7178
  19   2.0000      -0.520552       -14.1649
  20   2.0000      -0.508264       -13.8306
  21   2.0000      -0.494267       -13.4497
  22   2.0000      -0.482374       -13.1261
  23   2.0000      -0.463275       -12.6064
  24   0.0000       0.026749         0.7279
  25   0.0000       0.036786         1.0010
  26   0.0000       0.038706         1.0532
  27   0.0000       0.045702         1.2436
  28   0.0000       0.058864         1.6018

MULLIKEN ATOMIC CHARGES
-----------------------
   0 C :   -0.387351
   1 C :   -0.326264
   2 H :    0.297156
   3 H :    0.248149
   4 C :    0.780906
   5 F :   -0.343941
   6 O :   -0.726455
   7 C :   -0.995542
   8 H :    0.283203
   9 H :    0.304417
  10 H :    0.296244
  11 H :    0.270119
  12 H :    0.299358
Sum of atomic charges:    0.0000000

LOEWDIN ATOMIC CHARGES
----------------------
   0 C :    0.256633
   1 C :    0.257419
   2 H :   -0.153145
   3 H :   -0.169476
   4 C :   -0.931464
   5 F :    0.585240
   6 O :    0.397857
   7 C :    0.599378
   8 H :   -0.151569
   9 H :   -0.141313
  10 H :   -0.176275
  11 H :   -0.180753
  12 H :   -0.192533

  Mayer bond orders larger than 0.100000
B(  0-C ,  1-C ) :   0.9062 B(  0-C ,  7-C ) :   0.8118 B(  0-C ,  8-H ) :   0.9348
B(  0-C ,  9-H ) :   0.8918 B(  1-C ,  2-H ) :   0.9259 B(  1-C ,  3-H ) :   0.9526
B(  1-C ,  4-C ) :   0.7563 B(  4-C ,  5-F ) :   0.6938 B(  4-C ,  6-O ) :   1.6164
B(  7-C , 10-H ) :   0.9611 B(  7-C , 11-H ) :   0.9563 B(  7-C , 12-H ) :   0.9180

E(0)                                       ...   -329.975331494
E(0)                                       ...   -329.975331494
E(CORR)(strong-pairs)                      ...     -1.211993081
E(CORR)(weak-pairs)                        ...     -0.001156639
E(CORR)(corrected)                         ...     -1.213149720
E(TOT)                                     ...   -331.188481214
E(CCSD(T))                                 ...   -331.236341100
FINAL SINGLE POINT ENERGY      -331.236341099834

DIPOLE MOMENT
-------------
                                X             Y             Z
Electronic contribution:      3.67278       0.42687       9.76406
Nuclear contribution   :     -4.74589       0.16790     -10.21257
                        -----------------------------------------
Total Dipole Moment    :     -1.07311       0.59477      -0.44851
                        -----------------------------------------
Magnitude (a.u.)       :      1.30632
Magnitude (Debye)      :      3.32040

Rotational constants in cm-1:     0.185977     0.079908     0.076069
Rotational constants in MHz :  5575.451195  2395.576856  2280.481791

                             ****ORCA TERMINATED NORMALLY****
TOTAL RUN TIME: 0 days 0 hours 13 minutes 3 seconds 647 msec
