                         Program Version 5.0.0 -  RELEASE  -
|  1> !DLPNO-CCSD(T) aug-cc-pVTZ aug-cc-pVTZ/C TightSCF TightPNO RIJCOSX def2/J
|  2> *xyz 0 1
|  3> C          3.91385       -1.65829        3.01513
|  4> C          5.03927       -0.90115        2.49282
|  5> C          4.08422        1.74208       -2.11472
|  6> C          4.26524        2.50052       -0.79589
|  7> C          6.21038       -1.41726        2.17824
|  8> N          6.53591       -2.67712        2.55608
|  9> N          7.07675       -0.70082        1.47891
| 10> H          7.95464       -1.12155        1.20755
| 11> H          6.75616        0.10664        0.96028
| 12> H          4.84217        0.01761        2.11519
| 13> H          5.99388       -3.12692        3.28278
| 14> H          7.49844       -2.97548        2.46878
| 15> C          3.13916       -2.37657        1.91061
| 16> H          3.26723       -0.93940        3.52069
| 17> H          4.24720       -2.35509        3.79006
| 18> C          1.99727        0.43092       -1.39922
| 19> C          3.41275        0.37689       -1.96550
| 20> H          4.04741       -0.24659       -1.32671
| 21> H          3.39077       -0.11872       -2.94284
| 22> H          5.06847        1.59850       -2.56573
| 23> H          3.50336        2.36394       -2.80457
| 24> C          2.39995       -1.38958        1.00949
| 25> H          2.44075       -3.08712        2.36298
| 26> H          3.84448       -2.97046        1.31868
| 27> C          2.07018       -1.93671       -0.37240
| 28> H          1.48161       -1.06154        1.50991
| 29> H          3.00863       -0.49000        0.89745
| 30> C          1.32224       -0.93577       -1.25641
| 31> H          1.47275       -2.85090       -0.28400
| 32> H          3.00354       -2.23404       -0.86254
| 33> H          1.37644        1.05892       -2.04742
| 34> H          2.01534        0.92978       -0.42653
| 35> H          0.31665       -0.78721       -0.84828
| 36> H          1.18561       -1.37925       -2.24861
| 37> H          4.73963        3.44035       -0.98715
| 38> H          4.87389        1.92223       -0.13253
| 39> H          3.30865        2.66865       -0.34693
| 40> *
| 41> %MaxCore 64000
| 42> %pal nprocs 4
| 43> end
| 44> %scf
| 45>   MaxIter 150
| 46> end
| 47>
| 48>                          ****END OF INPUT****

CARTESIAN COORDINATES (ANGSTROEM)
---------------------------------
  C      3.913850   -1.658290    3.015130
  C      5.039270   -0.901150    2.492820
  C      4.084220    1.742080   -2.114720
  C      4.265240    2.500520   -0.795890
  C      6.210380   -1.417260    2.178240
  N      6.535910   -2.677120    2.556080
  N      7.076750   -0.700820    1.478910
  H      7.954640   -1.121550    1.207550
  H      6.756160    0.106640    0.960280
  H      4.842170    0.017610    2.115190
  H      5.993880   -3.126920    3.282780
  H      7.498440   -2.975480    2.468780
  C      3.139160   -2.376570    1.910610
  H      3.267230   -0.939400    3.520690
  H      4.247200   -2.355090    3.790060
  C      1.997270    0.430920   -1.399220
  C      3.412750    0.376890   -1.965500
  H      4.047410   -0.246590   -1.326710
  H      3.390770   -0.118720   -2.942840
  H      5.068470    1.598500   -2.565730
  H      3.503360    2.363940   -2.804570
  C      2.399950   -1.389580    1.009490
  H      2.440750   -3.087120    2.362980
  H      3.844480   -2.970460    1.318680
  C      2.070180   -1.936710   -0.372400
  H      1.481610   -1.061540    1.509910
  H      3.008630   -0.490000    0.897450
  C      1.322240   -0.935770   -1.256410
  H      1.472750   -2.850900   -0.284000
  H      3.003540   -2.234040   -0.862540
  H      1.376440    1.058920   -2.047420
  H      2.015340    0.929780   -0.426530
  H      0.316650   -0.787210   -0.848280
  H      1.185610   -1.379250   -2.248610
  H      4.739630    3.440350   -0.987150
  H      4.873890    1.922230   -0.132530
  H      3.308650    2.668650   -0.346930

 Total Charge           Charge          ....    0
 Multiplicity           Mult            ....    1
 Number of Electrons    NEL             ....  104
 Basis Dimension        Dim             .... 1150

ORBITAL ENERGIES
----------------

  NO   OCC          E(Eh)            E(eV)
   0   2.0000     -15.562789      -423.4850
   1   2.0000     -15.561137      -423.4401
   2   2.0000     -11.282236      -307.0052
   3   2.0000     -11.212349      -305.1035
   4   2.0000     -11.208243      -304.9918
   5   2.0000     -11.206608      -304.9473
   6   2.0000     -11.206011      -304.9311
   7   2.0000     -11.202571      -304.8375
   8   2.0000     -11.201387      -304.8052
   9   2.0000     -11.198062      -304.7148
  10   2.0000     -11.196034      -304.6596
  11   2.0000     -11.195371      -304.6415
  12   2.0000     -11.138402      -303.0913
  13   2.0000      -1.277645       -34.7665
  14   2.0000      -1.164479       -31.6871
  15   2.0000      -1.091978       -29.7142
  16   2.0000      -1.068903       -29.0863
  17   2.0000      -1.037515       -28.2322
  18   2.0000      -0.990558       -26.9545
  19   2.0000      -0.946388       -25.7525
  20   2.0000      -0.903873       -24.5956
  21   2.0000      -0.859672       -23.3929
  22   2.0000      -0.813710       -22.1422
  23   2.0000      -0.787936       -21.4408
  24   2.0000      -0.770034       -20.9537
  25   2.0000      -0.746360       -20.3095
  26   2.0000      -0.720155       -19.5964
  27   2.0000      -0.692742       -18.8505
  28   2.0000      -0.641295       -17.4505
  29   2.0000      -0.637352       -17.3432
  30   2.0000      -0.629900       -17.1405
  31   2.0000      -0.610499       -16.6125
  32   2.0000      -0.599517       -16.3137
  33   2.0000      -0.588270       -16.0076
  34   2.0000      -0.577261       -15.7081
  35   2.0000      -0.558816       -15.2062
  36   2.0000      -0.546113       -14.8605
  37   2.0000      -0.539824       -14.6894
  38   2.0000      -0.533970       -14.5301
  39   2.0000      -0.515035       -14.0148
  40   2.0000      -0.509213       -13.8564
  41   2.0000      -0.494670       -13.4607
  42   2.0000      -0.480152       -13.0656
  43   2.0000      -0.475650       -12.9431
  44   2.0000      -0.457547       -12.4505
  45   2.0000      -0.452891       -12.3238
  46   2.0000      -0.446575       -12.1519
  47   2.0000      -0.433448       -11.7947
  48   2.0000      -0.431701       -11.7472
  49   2.0000      -0.428315       -11.6550
  50   2.0000      -0.417097       -11.3498
  51   2.0000      -0.261819        -7.1245
  52   0.0000       0.023116         0.6290
  53   0.0000       0.030591         0.8324
  54   0.0000       0.033420         0.9094
  55   0.0000       0.035795         0.9740
  56   0.0000       0.041980         1.1423

MULLIKEN ATOMIC CHARGES
-----------------------
   0 C :   -0.470300
   1 C :   -0.617777
   2 C :   -0.543829
   3 C :   -1.122822
   4 C :    0.809338
   5 N :   -0.536643
   6 N :   -0.652108
   7 H :    0.062242
   8 H :    0.210195
   9 H :    0.542529
  10 H :    0.109055
  11 H :    0.113826
  12 C :   -0.552608
  13 H :    0.156795
  14 H :    0.272280
  15 C :   -0.308640
  16 C :   -0.452149
  17 H :    0.422182
  18 H :    0.222059
  19 H :    0.239699
  20 H :    0.174317
  21 C :   -0.545251
  22 H :    0.257512
  23 H :    0.119262
  24 C :   -0.361309
  25 H :    0.221373
  26 H :    0.517295
  27 C :   -0.720234
  28 H :    0.521543
  29 H :    0.014348
  30 H :    0.503144
  31 H :    0.134127
  32 H :    0.131203
  33 H :    0.151549
  34 H :    0.256594
  35 H :    0.481271
  36 H :    0.239931
Sum of atomic charges:   -0.0000000

LOEWDIN ATOMIC CHARGES
----------------------
   0 C :    0.231671
   1 C :    0.189273
   2 C :    0.278354
   3 C :    0.603697
   4 C :   -0.418056
   5 N :    0.877443
   6 N :    0.853538
   7 H :   -0.282208
   8 H :   -0.272653
   9 H :   -0.272238
  10 H :   -0.302222
  11 H :   -0.283285
  12 C :    0.297110
  13 H :   -0.143654
  14 H :   -0.161843
  15 C :    0.279209
  16 C :    0.278301
  17 H :   -0.156537
  18 H :   -0.132509
  19 H :   -0.150599
  20 H :   -0.143896
  21 C :    0.276789
  22 H :   -0.139822
  23 H :   -0.145961
  24 C :    0.285903
  25 H :   -0.123873
  26 H :   -0.187091
  27 C :    0.297837
  28 H :   -0.133280
  29 H :   -0.149983
  30 H :   -0.132854
  31 H :   -0.172401
  32 H :   -0.141696
  33 H :   -0.142345
  34 H :   -0.180192
  35 H :   -0.185991
  36 H :   -0.193937

  Mayer bond orders larger than 0.100000
B(  0-C ,  1-C ) :   0.8284 B(  0-C , 12-C ) :   0.9922 B(  0-C , 13-H ) :   1.1627
B(  0-C , 14-H ) :   0.8601 B(  1-C ,  4-C ) :   1.1717 B(  1-C ,  5-N ) :  -0.2221
B(  1-C ,  9-H ) :   0.5558 B(  1-C , 12-C ) :   0.1731 B(  2-C ,  3-C ) :   0.8021
B(  2-C , 16-C ) :   0.8727 B(  2-C , 19-H ) :   1.0098 B(  2-C , 20-H ) :   1.0444
B(  3-C , 34-H ) :   1.0592 B(  3-C , 35-H ) :   0.7644 B(  3-C , 36-H ) :   1.0203
B(  4-C ,  5-N ) :   0.7498 B(  4-C ,  6-N ) :   0.6246 B(  4-C , 14-H ) :   0.1160
B(  5-N ,  6-N ) :  -0.1331 B(  5-N , 10-H ) :   1.1271 B(  5-N , 11-H ) :   1.0565
B(  6-N ,  7-H ) :   1.1407 B(  6-N ,  8-H ) :   1.0154 B( 12-C , 21-C ) :   0.8502
B( 12-C , 22-H ) :   0.9723 B( 12-C , 23-H ) :   1.0036 B( 15-C , 16-C ) :   0.7985
B( 15-C , 27-C ) :   0.9159 B( 15-C , 30-H ) :   0.7643 B( 15-C , 31-H ) :   1.1071
B( 16-C , 17-H ) :   0.8819 B( 16-C , 18-H ) :   1.0500 B( 21-C , 24-C ) :   0.7721
B( 21-C , 25-H ) :   1.0231 B( 21-C , 26-H ) :   0.8543 B( 24-C , 27-C ) :   0.8896
B( 24-C , 28-H ) :   0.7302 B( 24-C , 29-H ) :   1.1822 B( 27-C , 29-H ) :   0.1045
B( 27-C , 32-H ) :   1.1091 B( 27-C , 33-H ) :   1.0634

E(0)                                       ...   -539.579536017
E(0)                                       ...   -539.579536017
E(CORR)(strong-pairs)                      ...     -2.479853327
E(CORR)(weak-pairs)                        ...     -0.004451056
E(CORR)(corrected)                         ...     -2.484304383
E(TOT)                                     ...   -542.063840400
E(CCSD(T))                                 ...   -542.165442804
FINAL SINGLE POINT ENERGY      -542.165442803627

DIPOLE MOMENT
-------------
                                X             Y             Z
Electronic contribution:      6.62178      -4.74162       6.02017
Nuclear contribution   :     -5.74127       4.44818      -6.27908
                        -----------------------------------------
Total Dipole Moment    :      0.88051      -0.29344      -0.25890
                        -----------------------------------------
Magnitude (a.u.)       :      0.96355
Magnitude (Debye)      :      2.44916

Rotational constants in cm-1:     0.028406     0.014217     0.010674
Rotational constants in MHz :   851.592033   426.215445   319.999211

                             ****ORCA TERMINATED NORMALLY****
TOTAL RUN TIME: 0 days 10 hours 27 minutes 34 seconds 262 msec
