                         Program Version 5.0.0 -  RELEASE  -
|  1> !DLPNO-CCSD(T) aug-cc-pVTZ aug-cc-pVTZ/C TightSCF TightPNO RIJCOSX def2/J
|  2> *xyz 0 1
|  3> C          3.91385       -1.65829        3.01513
|  4> C          4.08422        1.74208       -2.11472
|  5> C          4.26524        2.50052       -0.79589
|  6> H          4.86853        3.39267       -0.98113
|  7> H          3.30764        2.82457       -0.38781
|  8> C          4.98224        1.65026        0.24742
|  9> F          4.36806        1.38927        1.31371
| 10> O          6.12892        1.23351       -0.04562
| 11> C          3.13916       -2.37657        1.91061
| 12> C          1.99727        0.43092       -1.39922
| 13> C          3.41275        0.37689       -1.96550
| 14> H          4.04741       -0.24659       -1.32671
| 15> H          3.39077       -0.11872       -2.94284
| 16> H          5.06847        1.59850       -2.56573
| 17> H          3.50336        2.36394       -2.80457
| 18> C          2.39995       -1.38958        1.00949
| 19> H          2.44075       -3.08712        2.36298
| 20> H          3.84448       -2.97046        1.31868
| 21> C          2.07018       -1.93671       -0.37240
| 22> H          1.48161       -1.06154        1.50991
| 23> H          3.00863       -0.49000        0.89745
| 24> C          1.32224       -0.93577       -1.25641
| 25> H          1.47275       -2.85090       -0.28400
| 26> H          3.00354       -2.23404       -0.86254
| 27> H          1.37644        1.05892       -2.04742
| 28> H          2.01534        0.92978       -0.42653
| 29> H          0.31665       -0.78721       -0.84828
| 30> H          1.18561       -1.37925       -2.24861
| 31> H          4.59802       -0.96242        2.57629
| 32> H          4.45705       -2.37561        3.59417
| 33> H          3.22883       -1.13399        3.64819
| 34> *
| 35> %MaxCore 64000
| 36> %pal nprocs 4
| 37> end
| 38> %scf
| 39>   MaxIter 150
| 40> end
| 41>
| 42>                          ****END OF INPUT****

CARTESIAN COORDINATES (ANGSTROEM)
---------------------------------
  C      3.913850   -1.658290    3.015130
  C      4.084220    1.742080   -2.114720
  C      4.265240    2.500520   -0.795890
  H      4.868530    3.392670   -0.981130
  H      3.307640    2.824570   -0.387810
  C      4.982240    1.650260    0.247420
  F      4.368060    1.389270    1.313710
  O      6.128920    1.233510   -0.045620
  C      3.139160   -2.376570    1.910610
  C      1.997270    0.430920   -1.399220
  C      3.412750    0.376890   -1.965500
  H      4.047410   -0.246590   -1.326710
  H      3.390770   -0.118720   -2.942840
  H      5.068470    1.598500   -2.565730
  H      3.503360    2.363940   -2.804570
  C      2.399950   -1.389580    1.009490
  H      2.440750   -3.087120    2.362980
  H      3.844480   -2.970460    1.318680
  C      2.070180   -1.936710   -0.372400
  H      1.481610   -1.061540    1.509910
  H      3.008630   -0.490000    0.897450
  C      1.322240   -0.935770   -1.256410
  H      1.472750   -2.850900   -0.284000
  H      3.003540   -2.234040   -0.862540
  H      1.376440    1.058920   -2.047420
  H      2.015340    0.929780   -0.426530
  H      0.316650   -0.787210   -0.848280
  H      1.185610   -1.379250   -2.248610
  H      4.598020   -0.962420    2.576290
  H      4.457050   -2.375610    3.594170
  H      3.228830   -1.133990    3.648190

 Total Charge           Charge          ....    0
 Multiplicity           Mult            ....    1
 Number of Electrons    NEL             ....   96
 Basis Dimension        Dim             ....  989

ORBITAL ENERGIES
----------------

  NO   OCC          E(Eh)            E(eV)
   0   2.0000     -26.376015      -717.7278
   1   2.0000     -20.561784      -559.5146
   2   2.0000     -11.429825      -311.0214
   3   2.0000     -11.258125      -306.3492
   4   2.0000     -11.238589      -305.8175
   5   2.0000     -11.225141      -305.4516
   6   2.0000     -11.222015      -305.3666
   7   2.0000     -11.218429      -305.2690
   8   2.0000     -11.213622      -305.1382
   9   2.0000     -11.210562      -305.0549
  10   2.0000     -11.209920      -305.0374
  11   2.0000     -11.195478      -304.6444
  12   2.0000      -1.730011       -47.0760
  13   2.0000      -1.375289       -37.4235
  14   2.0000      -1.111875       -30.2557
  15   2.0000      -1.083700       -29.4890
  16   2.0000      -1.044832       -28.4313
  17   2.0000      -0.997118       -27.1330
  18   2.0000      -0.947368       -25.7792
  19   2.0000      -0.906410       -24.6647
  20   2.0000      -0.875148       -23.8140
  21   2.0000      -0.826159       -22.4809
  22   2.0000      -0.799703       -21.7610
  23   2.0000      -0.775249       -21.0956
  24   2.0000      -0.765321       -20.8254
  25   2.0000      -0.756975       -20.5983
  26   2.0000      -0.707824       -19.2609
  27   2.0000      -0.652019       -17.7423
  28   2.0000      -0.649398       -17.6710
  29   2.0000      -0.629456       -17.1284
  30   2.0000      -0.609985       -16.5985
  31   2.0000      -0.605290       -16.4708
  32   2.0000      -0.579172       -15.7601
  33   2.0000      -0.568201       -15.4615
  34   2.0000      -0.564569       -15.3627
  35   2.0000      -0.543268       -14.7831
  36   2.0000      -0.536548       -14.6002
  37   2.0000      -0.522726       -14.2241
  38   2.0000      -0.507303       -13.8044
  39   2.0000      -0.494353       -13.4520
  40   2.0000      -0.488810       -13.3012
  41   2.0000      -0.476877       -12.9765
  42   2.0000      -0.475004       -12.9255
  43   2.0000      -0.465933       -12.6787
  44   2.0000      -0.461422       -12.5559
  45   2.0000      -0.448059       -12.1923
  46   2.0000      -0.446066       -12.1381
  47   2.0000      -0.436653       -11.8819
  48   0.0000       0.024958         0.6792
  49   0.0000       0.031300         0.8517
  50   0.0000       0.032772         0.8918
  51   0.0000       0.035392         0.9631
  52   0.0000       0.044211         1.2030

MULLIKEN ATOMIC CHARGES
-----------------------
   0 C :   -1.143246
   1 C :   -0.580465
   2 C :   -0.330389
   3 H :    0.399277
   4 H :    0.150690
   5 C :    1.047777
   6 F :   -0.384785
   7 O :   -0.911367
   8 C :   -0.560033
   9 C :   -0.283310
  10 C :   -0.350335
  11 H :    0.110936
  12 H :    0.363539
  13 H :    0.173739
  14 H :    0.246904
  15 C :   -0.506602
  16 H :    0.220104
  17 H :    0.218747
  18 C :   -0.331319
  19 H :    0.242049
  20 H :    0.529729
  21 C :   -0.736215
  22 H :    0.570660
  23 H :    0.039420
  24 H :    0.504893
  25 H :    0.072337
  26 H :    0.128067
  27 H :    0.159271
  28 H :    0.333323
  29 H :    0.316803
  30 H :    0.289801
Sum of atomic charges:   -0.0000000

LOEWDIN ATOMIC CHARGES
----------------------
   0 C :    0.598807
   1 C :    0.286279
   2 C :    0.268056
   3 H :   -0.147600
   4 H :   -0.173382
   5 C :   -0.922027
   6 F :    0.613663
   7 O :    0.408937
   8 C :    0.277675
   9 C :    0.279751
  10 C :    0.279678
  11 H :   -0.166444
  12 H :   -0.124160
  13 H :   -0.144937
  14 H :   -0.134890
  15 C :    0.267409
  16 H :   -0.141685
  17 H :   -0.145179
  18 C :    0.284586
  19 H :   -0.124310
  20 H :   -0.216394
  21 C :    0.300677
  22 H :   -0.132181
  23 H :   -0.149877
  24 H :   -0.131954
  25 H :   -0.170893
  26 H :   -0.140395
  27 H :   -0.140580
  28 H :   -0.196803
  29 H :   -0.182808
  30 H :   -0.179018

  Mayer bond orders larger than 0.100000
B(  0-C ,  8-C ) :   0.8296 B(  0-C , 28-H ) :   0.9415 B(  0-C , 29-H ) :   0.9773
B(  0-C , 30-H ) :   0.9540 B(  1-C ,  2-C ) :   0.9483 B(  1-C ,  5-C ) :   0.1246
B(  1-C , 10-C ) :   0.8524 B(  1-C , 13-H ) :   1.0603 B(  1-C , 14-H ) :   0.9230
B(  2-C ,  3-H ) :   0.8674 B(  2-C ,  4-H ) :   1.0417 B(  2-C ,  5-C ) :   0.7913
B(  3-H ,  5-C ) :  -0.1128 B(  4-H ,  5-C ) :   0.1146 B(  5-C ,  6-F ) :   0.5764
B(  5-C ,  7-O ) :   1.2300 B(  8-C , 15-C ) :   0.8211 B(  8-C , 16-H ) :   1.0206
B(  8-C , 17-H ) :   0.9745 B(  9-C , 10-C ) :   0.8102 B(  9-C , 21-C ) :   0.9093
B(  9-C , 24-H ) :   0.7290 B(  9-C , 25-H ) :   1.1530 B( 10-C , 11-H ) :   1.1174
B( 10-C , 12-H ) :   0.8532 B( 15-C , 18-C ) :   0.8154 B( 15-C , 19-H ) :   1.0575
B( 15-C , 20-H ) :   0.8118 B( 18-C , 21-C ) :   0.9346 B( 18-C , 22-H ) :   0.6754
B( 18-C , 23-H ) :   1.1461 B( 21-C , 26-H ) :   1.1045 B( 21-C , 27-H ) :   1.0572

E(0)                                       ...   -564.251924035
E(0)                                       ...   -564.251924035
E(CORR)(strong-pairs)                      ...     -2.339401142
E(CORR)(weak-pairs)                        ...     -0.003900728
E(CORR)(corrected)                         ...     -2.343301869
E(TOT)                                     ...   -566.595225904
E(CCSD(T))                                 ...   -566.689434946
FINAL SINGLE POINT ENERGY      -566.689434945906

DIPOLE MOMENT
-------------
                                X             Y             Z
Electronic contribution:      9.71204      10.75535       2.68008
Nuclear contribution   :    -10.77572     -10.21260      -3.09071
                        -----------------------------------------
Total Dipole Moment    :     -1.06368       0.54274      -0.41062
                        -----------------------------------------
Magnitude (a.u.)       :      1.26278
Magnitude (Debye)      :      3.20972

Rotational constants in cm-1:     0.031919     0.022089     0.014675
Rotational constants in MHz :   956.907177   662.224882   439.952194

                             ****ORCA TERMINATED NORMALLY****
TOTAL RUN TIME: 0 days 8 hours 11 minutes 14 seconds 423 msec
