                         Program Version 5.0.0 -  RELEASE  -
|  1> !DLPNO-CCSD(T) aug-cc-pVTZ aug-cc-pVTZ/C TightSCF TightPNO RIJCOSX def2/J
|  2> *xyz 0 1
|  3> C          3.91385       -1.65829        3.01513
|  4> C          5.03927       -0.90115        2.49282
|  5> C          6.21038       -1.41726        2.17824
|  6> N          6.53591       -2.67712        2.55608
|  7> N          7.07675       -0.70082        1.47891
|  8> H          7.95464       -1.12155        1.20755
|  9> H          6.75616        0.10664        0.96028
| 10> H          4.84217        0.01761        2.11519
| 11> H          5.99388       -3.12692        3.28278
| 12> H          7.49844       -2.97548        2.46878
| 13> C          3.13916       -2.37657        1.91061
| 14> H          3.26723       -0.93940        3.52069
| 15> H          4.24720       -2.35509        3.79006
| 16> C          2.39995       -1.38958        1.00949
| 17> H          2.44075       -3.08712        2.36298
| 18> H          3.84448       -2.97046        1.31868
| 19> C          2.07018       -1.93671       -0.37240
| 20> H          1.48161       -1.06154        1.50991
| 21> H          3.00863       -0.49000        0.89745
| 22> C          1.32224       -0.93577       -1.25641
| 23> H          1.47275       -2.85090       -0.28400
| 24> H          3.00354       -2.23404       -0.86254
| 25> H          1.12209       -1.38090       -2.20862
| 26> H          1.92280       -0.06049       -1.39103
| 27> H          0.39898       -0.66619       -0.78757
| 28> *
| 29> %MaxCore 64000
| 30> %pal nprocs 8
| 31> end
| 32> %scf
| 33>   MaxIter 150
| 34> end
| 35>
| 36>                          ****END OF INPUT****

CARTESIAN COORDINATES (ANGSTROEM)
---------------------------------
  C      3.913850   -1.658290    3.015130
  C      5.039270   -0.901150    2.492820
  C      6.210380   -1.417260    2.178240
  N      6.535910   -2.677120    2.556080
  N      7.076750   -0.700820    1.478910
  H      7.954640   -1.121550    1.207550
  H      6.756160    0.106640    0.960280
  H      4.842170    0.017610    2.115190
  H      5.993880   -3.126920    3.282780
  H      7.498440   -2.975480    2.468780
  C      3.139160   -2.376570    1.910610
  H      3.267230   -0.939400    3.520690
  H      4.247200   -2.355090    3.790060
  C      2.399950   -1.389580    1.009490
  H      2.440750   -3.087120    2.362980
  H      3.844480   -2.970460    1.318680
  C      2.070180   -1.936710   -0.372400
  H      1.481610   -1.061540    1.509910
  H      3.008630   -0.490000    0.897450
  C      1.322240   -0.935770   -1.256410
  H      1.472750   -2.850900   -0.284000
  H      3.003540   -2.234040   -0.862540
  H      1.122090   -1.380900   -2.208620
  H      1.922800   -0.060490   -1.391030
  H      0.398980   -0.666190   -0.787570

 Total Charge           Charge          ....    0
 Multiplicity           Mult            ....    1
 Number of Electrons    NEL             ....   72
 Basis Dimension        Dim             ....  782

ORBITAL ENERGIES
----------------

  NO   OCC          E(Eh)            E(eV)
   0   2.0000     -15.562600      -423.4799
   1   2.0000     -15.560830      -423.4317
   2   2.0000     -11.281958      -306.9977
   3   2.0000     -11.204058      -304.8779
   4   2.0000     -11.198535      -304.7276
   5   2.0000     -11.195884      -304.6555
   6   2.0000     -11.195231      -304.6377
   7   2.0000     -11.194310      -304.6127
   8   2.0000     -11.138130      -303.0839
   9   2.0000      -1.277365       -34.7589
  10   2.0000      -1.164219       -31.6800
  11   2.0000      -1.077557       -29.3218
  12   2.0000      -1.033185       -28.1144
  13   2.0000      -0.966103       -26.2890
  14   2.0000      -0.898081       -24.4380
  15   2.0000      -0.822541       -22.3825
  16   2.0000      -0.785196       -21.3663
  17   2.0000      -0.767659       -20.8891
  18   2.0000      -0.720255       -19.5991
  19   2.0000      -0.692361       -18.8401
  20   2.0000      -0.640672       -17.4336
  21   2.0000      -0.630809       -17.1652
  22   2.0000      -0.601055       -16.3556
  23   2.0000      -0.582515       -15.8510
  24   2.0000      -0.569526       -15.4976
  25   2.0000      -0.555714       -15.1217
  26   2.0000      -0.537819       -14.6348
  27   2.0000      -0.521437       -14.1890
  28   2.0000      -0.514208       -13.9923
  29   2.0000      -0.477383       -12.9902
  30   2.0000      -0.467946       -12.7334
  31   2.0000      -0.448638       -12.2080
  32   2.0000      -0.443166       -12.0592
  33   2.0000      -0.434701       -11.8288
  34   2.0000      -0.417049       -11.3485
  35   2.0000      -0.261524        -7.1164
  36   0.0000       0.023438         0.6378
  37   0.0000       0.032664         0.8888
  38   0.0000       0.036554         0.9947
  39   0.0000       0.039074         1.0633
  40   0.0000       0.046854         1.2750

MULLIKEN ATOMIC CHARGES
-----------------------
   0 C :   -0.206919
   1 C :   -0.442369
   2 C :    0.678364
   3 N :   -0.506506
   4 N :   -0.632841
   5 H :    0.073624
   6 H :    0.090560
   7 H :    0.306661
   8 H :    0.106418
   9 H :    0.127197
  10 C :   -0.544973
  11 H :    0.239915
  12 H :    0.214005
  13 C :   -0.396224
  14 H :    0.302018
  15 H :    0.206740
  16 C :   -0.484800
  17 H :    0.218452
  18 H :    0.343449
  19 C :   -1.004653
  20 H :    0.235547
  21 H :    0.224471
  22 H :    0.280068
  23 H :    0.300752
  24 H :    0.271043
Sum of atomic charges:    0.0000000

LOEWDIN ATOMIC CHARGES
----------------------
   0 C :    0.227521
   1 C :    0.187936
   2 C :   -0.419289
   3 N :    0.876450
   4 N :    0.851544
   5 H :   -0.283930
   6 H :   -0.266957
   7 H :   -0.270477
   8 H :   -0.302477
   9 H :   -0.283482
  10 C :    0.287713
  11 H :   -0.144616
  12 H :   -0.162360
  13 C :    0.271707
  14 H :   -0.140911
  15 H :   -0.148610
  16 C :    0.264064
  17 H :   -0.134858
  18 H :   -0.164649
  19 C :    0.599643
  20 H :   -0.141508
  21 H :   -0.146182
  22 H :   -0.186991
  23 H :   -0.184596
  24 H :   -0.184686

  Mayer bond orders larger than 0.100000
B(  0-C ,  1-C ) :   0.6315 B(  0-C , 10-C ) :   0.9824 B(  0-C , 11-H ) :   1.1063
B(  0-C , 12-H ) :   0.8947 B(  1-C ,  2-C ) :   1.1587 B(  1-C ,  3-N ) :  -0.1705
B(  1-C ,  4-N ) :  -0.1314 B(  1-C ,  7-H ) :   0.8695 B(  1-C , 10-C ) :   0.1920
B(  1-C , 11-H ) :  -0.1010 B(  2-C ,  3-N ) :   0.7727 B(  2-C ,  4-N ) :   0.6707
B(  2-C ,  7-H ) :   0.1370 B(  2-C , 12-H ) :   0.1032 B(  3-N ,  4-N ) :  -0.1347
B(  3-N ,  8-H ) :   1.1272 B(  3-N ,  9-H ) :   1.0373 B(  4-N ,  5-H ) :   1.1438
B(  4-N ,  6-H ) :   1.1333 B( 10-C , 13-C ) :   0.8119 B( 10-C , 14-H ) :   0.9464
B( 10-C , 15-H ) :   0.9656 B( 13-C , 16-C ) :   0.8478 B( 13-C , 17-H ) :   0.9977
B( 13-C , 18-H ) :   0.9307 B( 16-C , 19-C ) :   0.8379 B( 16-C , 20-H ) :   0.9602
B( 16-C , 21-H ) :   0.9952 B( 19-C , 22-H ) :   1.0056 B( 19-C , 23-H ) :   0.9313
B( 19-C , 24-H ) :   0.9693

E(0)                                       ...   -383.395233538
E(0)                                       ...   -383.395233538
E(CORR)(strong-pairs)                      ...     -1.727840069
E(CORR)(weak-pairs)                        ...     -0.002425033
E(CORR)(corrected)                         ...     -1.730265101
E(TOT)                                     ...   -385.125498640
E(CCSD(T))                                 ...   -385.196130673
FINAL SINGLE POINT ENERGY      -385.196130673208

DIPOLE MOMENT
-------------
                                X             Y             Z
Electronic contribution:      8.50894      -0.08702       4.29999
Nuclear contribution   :     -7.57562      -0.20026      -4.55230
                        -----------------------------------------
Total Dipole Moment    :      0.93332      -0.28727      -0.25231
                        -----------------------------------------
Magnitude (a.u.)       :      1.00860
Magnitude (Debye)      :      2.56365

Rotational constants in cm-1:     0.091118     0.023031     0.020811
Rotational constants in MHz :  2731.647612   690.437735   623.884373

                             ****ORCA TERMINATED NORMALLY****
TOTAL RUN TIME: 0 days 1 hours 36 minutes 57 seconds 147 msec
