                         Program Version 5.0.0 -  RELEASE  -
|  1> !DLPNO-CCSD(T) aug-cc-pVTZ aug-cc-pVTZ/C TightSCF TightPNO RIJCOSX def2/J
|  2> *xyz 0 1
|  3> C          4.08422        1.74208       -2.11472
|  4> C          4.26524        2.50052       -0.79589
|  5> H          4.86853        3.39267       -0.98113
|  6> H          3.30764        2.82457       -0.38781
|  7> C          4.98224        1.65026        0.24742
|  8> F          4.36806        1.38927        1.31371
|  9> O          6.12892        1.23351       -0.04562
| 10> C          1.99727        0.43092       -1.39922
| 11> C          3.41275        0.37689       -1.96550
| 12> H          4.04741       -0.24659       -1.32671
| 13> H          3.39077       -0.11872       -2.94284
| 14> H          5.06847        1.59850       -2.56573
| 15> H          3.50336        2.36394       -2.80457
| 16> H          1.38433        1.04154       -2.02878
| 17> H          2.02294        0.84749       -0.41397
| 18> H          1.59172       -0.55838       -1.35771
| 19> *
| 20> %MaxCore 64000
| 21> %pal nprocs 8
| 22> end
| 23> %scf
| 24>   MaxIter 150
| 25> end
| 26>
| 27>                          ****END OF INPUT****

CARTESIAN COORDINATES (ANGSTROEM)
---------------------------------
  C      4.084220    1.742080   -2.114720
  C      4.265240    2.500520   -0.795890
  H      4.868530    3.392670   -0.981130
  H      3.307640    2.824570   -0.387810
  C      4.982240    1.650260    0.247420
  F      4.368060    1.389270    1.313710
  O      6.128920    1.233510   -0.045620
  C      1.997270    0.430920   -1.399220
  C      3.412750    0.376890   -1.965500
  H      4.047410   -0.246590   -1.326710
  H      3.390770   -0.118720   -2.942840
  H      5.068470    1.598500   -2.565730
  H      3.503360    2.363940   -2.804570
  H      1.384330    1.041540   -2.028780
  H      2.022940    0.847490   -0.413970
  H      1.591720   -0.558380   -1.357710

 Total Charge           Charge          ....    0
 Multiplicity           Mult            ....    1
 Number of Electrons    NEL             ....   56
 Basis Dimension        Dim             ....  529

ORBITAL ENERGIES
----------------

  NO   OCC          E(Eh)            E(eV)
   0   2.0000     -26.374939      -717.6986
   1   2.0000     -20.560613      -559.4827
   2   2.0000     -11.428920      -310.9967
   3   2.0000     -11.258268      -306.3531
   4   2.0000     -11.238726      -305.8213
   5   2.0000     -11.227664      -305.5203
   6   2.0000     -11.213811      -305.1433
   7   2.0000      -1.727886       -47.0182
   8   2.0000      -1.374074       -37.3904
   9   2.0000      -1.103367       -30.0241
  10   2.0000      -1.023419       -27.8486
  11   2.0000      -0.935510       -25.4565
  12   2.0000      -0.885186       -24.0871
  13   2.0000      -0.809918       -22.0390
  14   2.0000      -0.768951       -20.9242
  15   2.0000      -0.759191       -20.6586
  16   2.0000      -0.708363       -19.2755
  17   2.0000      -0.648358       -17.6427
  18   2.0000      -0.639576       -17.4037
  19   2.0000      -0.597212       -16.2510
  20   2.0000      -0.570483       -15.5236
  21   2.0000      -0.558009       -15.1842
  22   2.0000      -0.548997       -14.9390
  23   2.0000      -0.501145       -13.6369
  24   2.0000      -0.485731       -13.2174
  25   2.0000      -0.477367       -12.9898
  26   2.0000      -0.474409       -12.9093
  27   2.0000      -0.461216       -12.5503
  28   0.0000       0.027178         0.7396
  29   0.0000       0.034450         0.9374
  30   0.0000       0.037230         1.0131
  31   0.0000       0.043043         1.1713
  32   0.0000       0.053968         1.4685

MULLIKEN ATOMIC CHARGES
-----------------------
   0 C :   -0.361334
   1 C :   -0.332457
   2 H :    0.358100
   3 H :    0.194419
   4 C :    0.829239
   5 F :   -0.356716
   6 O :   -0.763349
   7 C :   -0.986911
   8 C :   -0.505933
   9 H :    0.174349
  10 H :    0.340786
  11 H :    0.231160
  12 H :    0.292031
  13 H :    0.278318
  14 H :    0.335466
  15 H :    0.272831
Sum of atomic charges:   -0.0000000

LOEWDIN ATOMIC CHARGES
----------------------
   0 C :    0.271673
   1 C :    0.257869
   2 H :   -0.149363
   3 H :   -0.175269
   4 C :   -0.928541
   5 F :    0.589118
   6 O :    0.400994
   7 C :    0.600263
   8 C :    0.262199
   9 H :   -0.157005
  10 H :   -0.137547
  11 H :   -0.147533
  12 H :   -0.137396
  13 H :   -0.177142
  14 H :   -0.195013
  15 H :   -0.177307

  Mayer bond orders larger than 0.100000
B(  0-C ,  1-C ) :   0.9157 B(  0-C ,  8-C ) :   0.8297 B(  0-C , 11-H ) :   0.9784
B(  0-C , 12-H ) :   0.8774 B(  1-C ,  2-H ) :   0.8891 B(  1-C ,  3-H ) :   0.9884
B(  1-C ,  4-C ) :   0.7716 B(  4-C ,  5-F ) :   0.6566 B(  4-C ,  6-O ) :   1.5630
B(  7-C ,  8-C ) :   0.8519 B(  7-C , 13-H ) :   0.9533 B(  7-C , 14-H ) :   0.8918
B(  7-C , 15-H ) :   1.0000 B(  8-C ,  9-H ) :   1.0109 B(  8-C , 10-H ) :   0.8839

E(0)                                       ...   -369.021448362
E(0)                                       ...   -369.021448362
E(CORR)(strong-pairs)                      ...     -1.399966622
E(CORR)(weak-pairs)                        ...     -0.001490710
E(CORR)(corrected)                         ...     -1.401457333
E(TOT)                                     ...   -370.422905694
E(CCSD(T))                                 ...   -370.478486681
FINAL SINGLE POINT ENERGY      -370.478486680872

DIPOLE MOMENT
-------------
                                X             Y             Z
Electronic contribution:      6.99259       1.33872      10.10079
Nuclear contribution   :     -8.08251      -0.78397     -10.54713
                        -----------------------------------------
Total Dipole Moment    :     -1.08992       0.55475      -0.44634
                        -----------------------------------------
Magnitude (a.u.)       :      1.30188
Magnitude (Debye)      :      3.30912

Rotational constants in cm-1:     0.130226     0.059358     0.051048
Rotational constants in MHz :  3904.073232  1779.517414  1530.385259

                             ****ORCA TERMINATED NORMALLY****
TOTAL RUN TIME: 0 days 0 hours 31 minutes 48 seconds 142 msec
