                         Program Version 5.0.0 -  RELEASE  -
|  1> !DLPNO-CCSD(T) aug-cc-pVTZ aug-cc-pVTZ/C TightSCF TightPNO RIJCOSX def2/J
|  2> *xyz 0 1
|  3> C          3.91385       -1.65829        3.01513
|  4> C          5.03927       -0.90115        2.49282
|  5> C          4.08422        1.74208       -2.11472
|  6> C          6.21038       -1.41726        2.17824
|  7> N          6.53591       -2.67712        2.55608
|  8> N          7.07675       -0.70082        1.47891
|  9> H          7.95464       -1.12155        1.20755
| 10> H          6.75616        0.10664        0.96028
| 11> H          4.84217        0.01761        2.11519
| 12> H          5.99388       -3.12692        3.28278
| 13> H          7.49844       -2.97548        2.46878
| 14> C          3.13916       -2.37657        1.91061
| 15> H          3.26723       -0.93940        3.52069
| 16> H          4.24720       -2.35509        3.79006
| 17> C          1.99727        0.43092       -1.39922
| 18> C          3.41275        0.37689       -1.96550
| 19> H          4.04741       -0.24659       -1.32671
| 20> H          3.39077       -0.11872       -2.94284
| 21> C          2.39995       -1.38958        1.00949
| 22> H          2.44075       -3.08712        2.36298
| 23> H          3.84448       -2.97046        1.31868
| 24> C          2.07018       -1.93671       -0.37240
| 25> H          1.48161       -1.06154        1.50991
| 26> H          3.00863       -0.49000        0.89745
| 27> C          1.32224       -0.93577       -1.25641
| 28> H          1.47275       -2.85090       -0.28400
| 29> H          3.00354       -2.23404       -0.86254
| 30> H          1.37644        1.05892       -2.04742
| 31> H          2.01534        0.92978       -0.42653
| 32> H          0.31665       -0.78721       -0.84828
| 33> H          1.18561       -1.37925       -2.24861
| 34> H          3.48097        2.37022       -2.73636
| 35> H          5.04852        1.61832       -2.56161
| 36> H          4.19316        2.19326       -1.15063
| 37> *
| 38> %MaxCore 64000
| 39> %pal nprocs 4
| 40> end
| 41> %scf
| 42>   MaxIter 150
| 43> end
| 44>
| 45>                          ****END OF INPUT****

CARTESIAN COORDINATES (ANGSTROEM)
---------------------------------
  C      3.913850   -1.658290    3.015130
  C      5.039270   -0.901150    2.492820
  C      4.084220    1.742080   -2.114720
  C      6.210380   -1.417260    2.178240
  N      6.535910   -2.677120    2.556080
  N      7.076750   -0.700820    1.478910
  H      7.954640   -1.121550    1.207550
  H      6.756160    0.106640    0.960280
  H      4.842170    0.017610    2.115190
  H      5.993880   -3.126920    3.282780
  H      7.498440   -2.975480    2.468780
  C      3.139160   -2.376570    1.910610
  H      3.267230   -0.939400    3.520690
  H      4.247200   -2.355090    3.790060
  C      1.997270    0.430920   -1.399220
  C      3.412750    0.376890   -1.965500
  H      4.047410   -0.246590   -1.326710
  H      3.390770   -0.118720   -2.942840
  C      2.399950   -1.389580    1.009490
  H      2.440750   -3.087120    2.362980
  H      3.844480   -2.970460    1.318680
  C      2.070180   -1.936710   -0.372400
  H      1.481610   -1.061540    1.509910
  H      3.008630   -0.490000    0.897450
  C      1.322240   -0.935770   -1.256410
  H      1.472750   -2.850900   -0.284000
  H      3.003540   -2.234040   -0.862540
  H      1.376440    1.058920   -2.047420
  H      2.015340    0.929780   -0.426530
  H      0.316650   -0.787210   -0.848280
  H      1.185610   -1.379250   -2.248610
  H      3.480970    2.370220   -2.736360
  H      5.048520    1.618320   -2.561610
  H      4.193160    2.193260   -1.150630

 Total Charge           Charge          ....    0
 Multiplicity           Mult            ....    1
 Number of Electrons    NEL             ....   96
 Basis Dimension        Dim             .... 1058

ORBITAL ENERGIES
----------------

  NO   OCC          E(Eh)            E(eV)
   0   2.0000     -15.562898      -423.4880
   1   2.0000     -15.561120      -423.4396
   2   2.0000     -11.282364      -307.0087
   3   2.0000     -11.209365      -305.0223
   4   2.0000     -11.206858      -304.9541
   5   2.0000     -11.206106      -304.9337
   6   2.0000     -11.202540      -304.8366
   7   2.0000     -11.200257      -304.7745
   8   2.0000     -11.198112      -304.7161
   9   2.0000     -11.196106      -304.6615
  10   2.0000     -11.195465      -304.6441
  11   2.0000     -11.138564      -303.0957
  12   2.0000      -1.277701       -34.7680
  13   2.0000      -1.164523       -31.6883
  14   2.0000      -1.089281       -29.6409
  15   2.0000      -1.063159       -28.9300
  16   2.0000      -1.024163       -27.8689
  17   2.0000      -0.976263       -26.5655
  18   2.0000      -0.925980       -25.1972
  19   2.0000      -0.874902       -23.8073
  20   2.0000      -0.824543       -22.4369
  21   2.0000      -0.800542       -21.7839
  22   2.0000      -0.770558       -20.9680
  23   2.0000      -0.749562       -20.3966
  24   2.0000      -0.720286       -19.6000
  25   2.0000      -0.692791       -18.8518
  26   2.0000      -0.641663       -17.4605
  27   2.0000      -0.639144       -17.3920
  28   2.0000      -0.625337       -17.0163
  29   2.0000      -0.598972       -16.2989
  30   2.0000      -0.587532       -15.9876
  31   2.0000      -0.582745       -15.8573
  32   2.0000      -0.571012       -15.5380
  33   2.0000      -0.554988       -15.1020
  34   2.0000      -0.545156       -14.8345
  35   2.0000      -0.526971       -14.3396
  36   2.0000      -0.517808       -14.0903
  37   2.0000      -0.507248       -13.8029
  38   2.0000      -0.491257       -13.3678
  39   2.0000      -0.482867       -13.1395
  40   2.0000      -0.465832       -12.6759
  41   2.0000      -0.455733       -12.4011
  42   2.0000      -0.449492       -12.2313
  43   2.0000      -0.437674       -11.9097
  44   2.0000      -0.432779       -11.7765
  45   2.0000      -0.428326       -11.6553
  46   2.0000      -0.417147       -11.3511
  47   2.0000      -0.261936        -7.1276
  48   0.0000       0.023120         0.6291
  49   0.0000       0.031719         0.8631
  50   0.0000       0.033961         0.9241
  51   0.0000       0.036915         1.0045
  52   0.0000       0.042662         1.1609

MULLIKEN ATOMIC CHARGES
-----------------------
   0 C :   -0.350486
   1 C :   -0.345663
   2 C :   -1.054375
   3 C :    0.627654
   4 N :   -0.527749
   5 N :   -0.625657
   6 H :    0.066932
   7 H :    0.134308
   8 H :    0.359635
   9 H :    0.109041
  10 H :    0.119685
  11 C :   -0.598680
  12 H :    0.164097
  13 H :    0.288435
  14 C :   -0.365653
  15 C :   -0.445812
  16 H :    0.423151
  17 H :    0.223544
  18 C :   -0.363008
  19 H :    0.252567
  20 H :    0.131378
  21 C :   -0.361170
  22 H :    0.229400
  23 H :    0.285614
  24 C :   -0.650835
  25 H :    0.517238
  26 H :    0.032999
  27 H :    0.431786
  28 H :    0.139058
  29 H :    0.169017
  30 H :    0.171470
  31 H :    0.237510
  32 H :    0.233928
  33 H :    0.340638
Sum of atomic charges:    0.0000000

LOEWDIN ATOMIC CHARGES
----------------------
   0 C :    0.230871
   1 C :    0.189613
   2 C :    0.604218
   3 C :   -0.418890
   4 N :    0.877152
   5 N :    0.852322
   6 H :   -0.283330
   7 H :   -0.267693
   8 H :   -0.269265
   9 H :   -0.302304
  10 H :   -0.283303
  11 C :    0.296303
  12 H :   -0.143848
  13 H :   -0.161962
  14 C :    0.277583
  15 C :    0.260508
  16 H :   -0.160355
  17 H :   -0.136163
  18 C :    0.275102
  19 H :   -0.139914
  20 H :   -0.146067
  21 C :    0.283797
  22 H :   -0.124417
  23 H :   -0.187696
  24 C :    0.293218
  25 H :   -0.133473
  26 H :   -0.150581
  27 H :   -0.139659
  28 H :   -0.155229
  29 H :   -0.142489
  30 H :   -0.142790
  31 H :   -0.183305
  32 H :   -0.185111
  33 H :   -0.182843

  Mayer bond orders larger than 0.100000
B(  0-C ,  1-C ) :   0.7040 B(  0-C , 11-C ) :   0.9678 B(  0-C , 12-H ) :   1.1660
B(  0-C , 13-H ) :   0.8488 B(  1-C ,  3-C ) :   1.0859 B(  1-C ,  4-N ) :  -0.2111
B(  1-C ,  5-N ) :  -0.1312 B(  1-C ,  8-H ) :   0.7814 B(  1-C , 11-C ) :   0.1523
B(  2-C , 15-C ) :   0.7034 B(  2-C , 31-H ) :   1.0320 B(  2-C , 32-H ) :   1.0612
B(  2-C , 33-H ) :   0.9123 B(  3-C ,  4-N ) :   0.7600 B(  3-C ,  5-N ) :   0.6424
B(  3-C , 13-H ) :   0.1273 B(  4-N ,  5-N ) :  -0.1305 B(  4-N ,  9-H ) :   1.1277
B(  4-N , 10-H ) :   1.0443 B(  5-N ,  6-H ) :   1.1434 B(  5-N ,  7-H ) :   1.0969
B( 11-C , 18-C ) :   0.8356 B( 11-C , 19-H ) :   0.9830 B( 11-C , 20-H ) :   0.9971
B( 14-C , 15-C ) :   0.7866 B( 14-C , 24-C ) :   0.8486 B( 14-C , 27-H ) :   0.8160
B( 14-C , 28-H ) :   1.0849 B( 15-C , 16-H ) :   0.8478 B( 15-C , 17-H ) :   1.0702
B( 18-C , 21-C ) :   0.7587 B( 18-C , 22-H ) :   0.9729 B( 18-C , 23-H ) :   1.0047
B( 21-C , 24-C ) :   0.8853 B( 21-C , 25-H ) :   0.7165 B( 21-C , 26-H ) :   1.1700
B( 24-C , 29-H ) :   1.0651 B( 24-C , 30-H ) :   1.0361

E(0)                                       ...   -500.534099966
E(0)                                       ...   -500.534099966
E(CORR)(strong-pairs)                      ...     -2.291334538
E(CORR)(weak-pairs)                        ...     -0.003860919
E(CORR)(corrected)                         ...     -2.295195457
E(TOT)                                     ...   -502.829295422
E(CCSD(T))                                 ...   -502.923076150
FINAL SINGLE POINT ENERGY      -502.923076149929

DIPOLE MOMENT
-------------
                                X             Y             Z
Electronic contribution:      6.88511      -3.54416       6.78882
Nuclear contribution   :     -5.98587       3.22816      -7.03138
                        -----------------------------------------
Total Dipole Moment    :      0.89924      -0.31599      -0.24256
                        -----------------------------------------
Magnitude (a.u.)       :      0.98352
Magnitude (Debye)      :      2.49992

Rotational constants in cm-1:     0.036125     0.015379     0.011856
Rotational constants in MHz :  1083.013811   461.048409   355.441304

                             ****ORCA TERMINATED NORMALLY****
TOTAL RUN TIME: 0 days 7 hours 33 minutes 44 seconds 684 msec
