                         Program Version 5.0.0 -  RELEASE  -
|  1> !DLPNO-CCSD(T) aug-cc-pVTZ aug-cc-pVTZ/C TightSCF TightPNO RIJCOSX def2/J
|  2> *xyz 0 1
|  3> C          4.08422        1.74208       -2.11472
|  4> C          4.26524        2.50052       -0.79589
|  5> H          4.86853        3.39267       -0.98113
|  6> H          3.30764        2.82457       -0.38781
|  7> C          4.98224        1.65026        0.24742
|  8> F          4.36806        1.38927        1.31371
|  9> O          6.12892        1.23351       -0.04562
| 10> C          1.99727        0.43092       -1.39922
| 11> C          3.41275        0.37689       -1.96550
| 12> H          4.04741       -0.24659       -1.32671
| 13> H          3.39077       -0.11872       -2.94284
| 14> H          5.06847        1.59850       -2.56573
| 15> H          3.50336        2.36394       -2.80457
| 16> C          2.07018       -1.93671       -0.37240
| 17> C          1.32224       -0.93577       -1.25641
| 18> H          1.37644        1.05892       -2.04742
| 19> H          2.01534        0.92978       -0.42653
| 20> H          0.31665       -0.78721       -0.84828
| 21> H          1.18561       -1.37925       -2.24861
| 22> H          3.05500       -2.09002       -0.76167
| 23> H          1.54206       -2.86723       -0.36163
| 24> H          2.13634       -1.55260        0.62409
| 25> *
| 26> %MaxCore 64000
| 27> %pal nprocs 8
| 28> end
| 29> %scf
| 30>   MaxIter 150
| 31> end
| 32>
| 33>                          ****END OF INPUT****

CARTESIAN COORDINATES (ANGSTROEM)
---------------------------------
  C      4.084220    1.742080   -2.114720
  C      4.265240    2.500520   -0.795890
  H      4.868530    3.392670   -0.981130
  H      3.307640    2.824570   -0.387810
  C      4.982240    1.650260    0.247420
  F      4.368060    1.389270    1.313710
  O      6.128920    1.233510   -0.045620
  C      1.997270    0.430920   -1.399220
  C      3.412750    0.376890   -1.965500
  H      4.047410   -0.246590   -1.326710
  H      3.390770   -0.118720   -2.942840
  H      5.068470    1.598500   -2.565730
  H      3.503360    2.363940   -2.804570
  C      2.070180   -1.936710   -0.372400
  C      1.322240   -0.935770   -1.256410
  H      1.376440    1.058920   -2.047420
  H      2.015340    0.929780   -0.426530
  H      0.316650   -0.787210   -0.848280
  H      1.185610   -1.379250   -2.248610
  H      3.055000   -2.090020   -0.761670
  H      1.542060   -2.867230   -0.361630
  H      2.136340   -1.552600    0.624090

 Total Charge           Charge          ....    0
 Multiplicity           Mult            ....    1
 Number of Electrons    NEL             ....   72
 Basis Dimension        Dim             ....  713

ORBITAL ENERGIES
----------------

  NO   OCC          E(Eh)            E(eV)
   0   2.0000     -26.374402      -717.6840
   1   2.0000     -20.560157      -559.4703
   2   2.0000     -11.428429      -310.9834
   3   2.0000     -11.257480      -306.3316
   4   2.0000     -11.238454      -305.8139
   5   2.0000     -11.225396      -305.4585
   6   2.0000     -11.223485      -305.4066
   7   2.0000     -11.220872      -305.3354
   8   2.0000     -11.204787      -304.8977
   9   2.0000      -1.727371       -47.0042
  10   2.0000      -1.373650       -37.3789
  11   2.0000      -1.108987       -30.1771
  12   2.0000      -1.062008       -28.8987
  13   2.0000      -0.993869       -27.0445
  14   2.0000      -0.930397       -25.3174
  15   2.0000      -0.890805       -24.2400
  16   2.0000      -0.833637       -22.6844
  17   2.0000      -0.784236       -21.3402
  18   2.0000      -0.768537       -20.9130
  19   2.0000      -0.757904       -20.6236
  20   2.0000      -0.707207       -19.2441
  21   2.0000      -0.650838       -17.7102
  22   2.0000      -0.638321       -17.3696
  23   2.0000      -0.614915       -16.7327
  24   2.0000      -0.607211       -16.5231
  25   2.0000      -0.574940       -15.6449
  26   2.0000      -0.560197       -15.2437
  27   2.0000      -0.551508       -15.0073
  28   2.0000      -0.521865       -14.2007
  29   2.0000      -0.509423       -13.8621
  30   2.0000      -0.497524       -13.5383
  31   2.0000      -0.485851       -13.2207
  32   2.0000      -0.467416       -12.7190
  33   2.0000      -0.463699       -12.6179
  34   2.0000      -0.457034       -12.4365
  35   2.0000      -0.453728       -12.3466
  36   0.0000       0.026214         0.7133
  37   0.0000       0.032290         0.8787
  38   0.0000       0.034761         0.9459
  39   0.0000       0.039394         1.0720
  40   0.0000       0.048542         1.3209

MULLIKEN ATOMIC CHARGES
-----------------------
   0 C :   -0.515066
   1 C :   -0.341124
   2 H :    0.375667
   3 H :    0.182829
   4 C :    0.889887
   5 F :   -0.372203
   6 O :   -0.803359
   7 C :   -0.397055
   8 C :   -0.403986
   9 H :    0.153542
  10 H :    0.414327
  11 H :    0.189090
  12 H :    0.265112
  13 C :   -0.982881
  14 C :   -0.456303
  15 H :    0.190153
  16 H :    0.291975
  17 H :    0.281341
  18 H :    0.201511
  19 H :    0.313157
  20 H :    0.268998
  21 H :    0.254390
Sum of atomic charges:   -0.0000000

LOEWDIN ATOMIC CHARGES
----------------------
   0 C :    0.282251
   1 C :    0.261888
   2 H :   -0.148796
   3 H :   -0.176164
   4 C :   -0.926229
   5 F :    0.590987
   6 O :    0.402239
   7 C :    0.277801
   8 C :    0.272961
   9 H :   -0.170423
  10 H :   -0.126202
  11 H :   -0.145505
  12 H :   -0.135679
  13 C :    0.604549
  14 C :    0.278146
  15 H :   -0.136577
  16 H :   -0.159229
  17 H :   -0.146108
  18 H :   -0.145517
  19 H :   -0.197447
  20 H :   -0.179876
  21 H :   -0.177069

  Mayer bond orders larger than 0.100000
B(  0-C ,  1-C ) :   0.9451 B(  0-C ,  4-C ) :   0.1130 B(  0-C ,  8-C ) :   0.8548
B(  0-C , 11-H ) :   1.0269 B(  0-C , 12-H ) :   0.9153 B(  1-C ,  2-H ) :   0.8852
B(  1-C ,  3-H ) :   1.0068 B(  1-C ,  4-C ) :   0.7905 B(  4-C ,  5-F ) :   0.6347
B(  4-C ,  6-O ) :   1.4897 B(  7-C ,  8-C ) :   0.8623 B(  7-C , 14-C ) :   0.9051
B(  7-C , 15-H ) :   1.0098 B(  7-C , 16-H ) :   0.9136 B(  8-C ,  9-H ) :   1.0460
B(  8-C , 10-H ) :   0.8135 B( 13-C , 14-C ) :   0.8173 B( 13-C , 19-H ) :   0.9261
B( 13-C , 20-H ) :   1.0122 B( 13-C , 21-H ) :   0.9740 B( 14-C , 17-H ) :   0.9715
B( 14-C , 18-H ) :   0.9990

E(0)                                       ...   -447.114844760
E(0)                                       ...   -447.114844760
E(CORR)(strong-pairs)                      ...     -1.774703582
E(CORR)(weak-pairs)                        ...     -0.002293311
E(CORR)(corrected)                         ...     -1.776996893
E(TOT)                                     ...   -448.891841653
E(CCSD(T))                                 ...   -448.962744035
FINAL SINGLE POINT ENERGY      -448.962744035190

DIPOLE MOMENT
-------------
                                X             Y             Z
Electronic contribution:     10.47591       6.99733       9.55558
Nuclear contribution   :    -11.59212      -6.46826      -9.98812
                        -----------------------------------------
Total Dipole Moment    :     -1.11621       0.52907      -0.43254
                        -----------------------------------------
Magnitude (a.u.)       :      1.30879
Magnitude (Debye)      :      3.32668

Rotational constants in cm-1:     0.075181     0.030584     0.025903
Rotational constants in MHz :  2253.876389   916.894315   776.546407

                             ****ORCA TERMINATED NORMALLY****
TOTAL RUN TIME: 0 days 1 hours 25 minutes 31 seconds 365 msec
