                         Program Version 5.0.0 -  RELEASE  -
|  1> !DLPNO-CCSD(T) aug-cc-pVTZ aug-cc-pVTZ/C TightSCF TightPNO RIJCOSX def2/J
|  2> *xyz 0 1
|  3> C          3.91385       -1.65829        3.01513
|  4> C          5.03927       -0.90115        2.49282
|  5> C          6.21038       -1.41726        2.17824
|  6> N          6.53591       -2.67712        2.55608
|  7> N          7.07675       -0.70082        1.47891
|  8> H          7.95464       -1.12155        1.20755
|  9> H          6.75616        0.10664        0.96028
| 10> H          4.84217        0.01761        2.11519
| 11> H          5.99388       -3.12692        3.28278
| 12> H          7.49844       -2.97548        2.46878
| 13> H          3.08844       -0.99893        3.18495
| 14> H          4.19412       -2.12366        3.93697
| 15> H          3.63051       -2.40965        2.30798
| 16> *
| 17> %MaxCore 64000
| 18> %pal nprocs 2
| 19> end
| 20> %scf
| 21>   MaxIter 150
| 22> end
| 23>
| 24>
| 25>                          ****END OF INPUT****

CARTESIAN COORDINATES (ANGSTROEM)
---------------------------------
  C      3.913850   -1.658290    3.015130
  C      5.039270   -0.901150    2.492820
  C      6.210380   -1.417260    2.178240
  N      6.535910   -2.677120    2.556080
  N      7.076750   -0.700820    1.478910
  H      7.954640   -1.121550    1.207550
  H      6.756160    0.106640    0.960280
  H      4.842170    0.017610    2.115190
  H      5.993880   -3.126920    3.282780
  H      7.498440   -2.975480    2.468780
  H      3.088440   -0.998930    3.184950
  H      4.194120   -2.123660    3.936970
  H      3.630510   -2.409650    2.307980

 Total Charge           Charge          ....    0
 Multiplicity           Mult            ....    1
 Number of Electrons    NEL             ....   40
 Basis Dimension        Dim             ....  414

ORBITAL ENERGIES
----------------

  NO   OCC          E(Eh)            E(eV)
   0   2.0000     -15.563286      -423.4985
   1   2.0000     -15.558801      -423.3765
   2   2.0000     -11.279402      -306.9281
   3   2.0000     -11.183847      -304.3279
   4   2.0000     -11.138609      -303.0970
   5   2.0000      -1.275850       -34.7177
   6   2.0000      -1.162991       -31.6466
   7   2.0000      -1.025579       -27.9074
   8   2.0000      -0.896561       -24.3967
   9   2.0000      -0.781363       -21.2620
  10   2.0000      -0.718929       -19.5631
  11   2.0000      -0.692257       -18.8373
  12   2.0000      -0.638856       -17.3842
  13   2.0000      -0.589996       -16.0546
  14   2.0000      -0.574615       -15.6361
  15   2.0000      -0.530618       -14.4389
  16   2.0000      -0.512672       -13.9505
  17   2.0000      -0.487717       -13.2715
  18   2.0000      -0.416823       -11.3423
  19   2.0000      -0.259332        -7.0568
  20   0.0000       0.024444         0.6652
  21   0.0000       0.035786         0.9738
  22   0.0000       0.040329         1.0974
  23   0.0000       0.053662         1.4602
  24   0.0000       0.055071         1.4986

MULLIKEN ATOMIC CHARGES
-----------------------
   0 C :   -0.794254
   1 C :   -0.492069
   2 C :    0.632287
   3 N :   -0.411340
   4 N :   -0.511920
   5 H :    0.070367
   6 H :    0.096847
   7 H :    0.342791
   8 H :    0.129548
   9 H :    0.128151
  10 H :    0.233138
  11 H :    0.266011
  12 H :    0.310444
Sum of atomic charges:    0.0000000

LOEWDIN ATOMIC CHARGES
----------------------
   0 C :    0.529335
   1 C :    0.179044
   2 C :   -0.434391
   3 N :    0.869196
   4 N :    0.843825
   5 H :   -0.286265
   6 H :   -0.269883
   7 H :   -0.279806
   8 H :   -0.296046
   9 H :   -0.286437
  10 H :   -0.182676
  11 H :   -0.200492
  12 H :   -0.185404

  Mayer bond orders larger than 0.100000
B(  0-C ,  1-C ) :   0.7873 B(  0-C , 10-H ) :   1.1022 B(  0-C , 11-H ) :   0.9536
B(  0-C , 12-H ) :   0.8588 B(  1-C ,  2-C ) :   1.1906 B(  1-C ,  3-N ) :  -0.1196
B(  1-C ,  4-N ) :  -0.1517 B(  1-C ,  7-H ) :   0.9063 B(  2-C ,  3-N ) :   0.7911
B(  2-C ,  4-N ) :   0.7498 B(  3-N ,  4-N ) :  -0.1303 B(  3-N ,  8-H ) :   1.0903
B(  3-N ,  9-H ) :   1.0337 B(  4-N ,  5-H ) :   1.1543 B(  4-N ,  6-H ) :   1.1200

E(0)                                       ...   -227.207584749
E(0)                                       ...   -227.207584749
E(CORR)(strong-pairs)                      ...     -0.978461785
E(CORR)(weak-pairs)                        ...     -0.000962717
E(CORR)(corrected)                         ...     -0.979424501
E(TOT)                                     ...   -228.187009251
E(CCSD(T))                                 ...   -228.226937792
FINAL SINGLE POINT ENERGY      -228.226937791930

DIPOLE MOMENT
-------------
                                X             Y             Z
Electronic contribution:      3.00079       0.34374      -1.02951
Nuclear contribution   :     -2.16157      -0.63191       0.72436
                        -----------------------------------------
Total Dipole Moment    :      0.83922      -0.28817      -0.30515
                        -----------------------------------------
Magnitude (a.u.)       :      0.93832
Magnitude (Debye)      :      2.38503

Rotational constants in cm-1:     0.318470     0.135474     0.097247
Rotational constants in MHz :  9547.495553  4061.405016  2915.385882

                             ****ORCA TERMINATED NORMALLY****
TOTAL RUN TIME: 0 days 2 hours 10 minutes 19 seconds 329 msec
