                         Program Version 5.0.0 -  RELEASE  -
|  1> !DLPNO-CCSD(T) aug-cc-pVTZ aug-cc-pVTZ/C TightSCF TightPNO RIJCOSX def2/J
|  2> *xyz 0 1
|  3> C          4.08422        1.74208       -2.11472
|  4> C          4.26524        2.50052       -0.79589
|  5> H          4.86853        3.39267       -0.98113
|  6> H          3.30764        2.82457       -0.38781
|  7> C          4.98224        1.65026        0.24742
|  8> F          4.36806        1.38927        1.31371
|  9> O          6.12892        1.23351       -0.04562
| 10> C          3.13916       -2.37657        1.91061
| 11> C          1.99727        0.43092       -1.39922
| 12> C          3.41275        0.37689       -1.96550
| 13> H          4.04741       -0.24659       -1.32671
| 14> H          3.39077       -0.11872       -2.94284
| 15> H          5.06847        1.59850       -2.56573
| 16> H          3.50336        2.36394       -2.80457
| 17> C          2.39995       -1.38958        1.00949
| 18> C          2.07018       -1.93671       -0.37240
| 19> H          1.48161       -1.06154        1.50991
| 20> H          3.00863       -0.49000        0.89745
| 21> C          1.32224       -0.93577       -1.25641
| 22> H          1.47275       -2.85090       -0.28400
| 23> H          3.00354       -2.23404       -0.86254
| 24> H          1.37644        1.05892       -2.04742
| 25> H          2.01534        0.92978       -0.42653
| 26> H          0.31665       -0.78721       -0.84828
| 27> H          1.18561       -1.37925       -2.24861
| 28> H          4.03659       -2.69929        1.42546
| 29> H          2.51297       -3.22286        2.10186
| 30> H          3.38580       -1.89904        2.83583
| 31> *
| 32> %MaxCore 64000
| 33> %pal nprocs 8
| 34> end
| 35> %scf
| 36>   MaxIter 150
| 37> end
| 38>
| 39>                          ****END OF INPUT****

CARTESIAN COORDINATES (ANGSTROEM)
---------------------------------
  C      4.084220    1.742080   -2.114720
  C      4.265240    2.500520   -0.795890
  H      4.868530    3.392670   -0.981130
  H      3.307640    2.824570   -0.387810
  C      4.982240    1.650260    0.247420
  F      4.368060    1.389270    1.313710
  O      6.128920    1.233510   -0.045620
  C      3.139160   -2.376570    1.910610
  C      1.997270    0.430920   -1.399220
  C      3.412750    0.376890   -1.965500
  H      4.047410   -0.246590   -1.326710
  H      3.390770   -0.118720   -2.942840
  H      5.068470    1.598500   -2.565730
  H      3.503360    2.363940   -2.804570
  C      2.399950   -1.389580    1.009490
  C      2.070180   -1.936710   -0.372400
  H      1.481610   -1.061540    1.509910
  H      3.008630   -0.490000    0.897450
  C      1.322240   -0.935770   -1.256410
  H      1.472750   -2.850900   -0.284000
  H      3.003540   -2.234040   -0.862540
  H      1.376440    1.058920   -2.047420
  H      2.015340    0.929780   -0.426530
  H      0.316650   -0.787210   -0.848280
  H      1.185610   -1.379250   -2.248610
  H      4.036590   -2.699290    1.425460
  H      2.512970   -3.222860    2.101860
  H      3.385800   -1.899040    2.835830

 Total Charge           Charge          ....    0
 Multiplicity           Mult            ....    1
 Number of Electrons    NEL             ....   88
 Basis Dimension        Dim             ....  897

ORBITAL ENERGIES
----------------

  NO   OCC          E(Eh)            E(eV)
   0   2.0000     -26.375435      -717.7121
   1   2.0000     -20.561145      -559.4972
   2   2.0000     -11.429258      -311.0059
   3   2.0000     -11.257849      -306.3417
   4   2.0000     -11.238420      -305.8130
   5   2.0000     -11.225053      -305.4492
   6   2.0000     -11.222026      -305.3669
   7   2.0000     -11.218816      -305.2795
   8   2.0000     -11.214064      -305.1502
   9   2.0000     -11.211986      -305.0936
  10   2.0000     -11.199513      -304.7542
  11   2.0000      -1.729148       -47.0525
  12   2.0000      -1.374619       -37.4053
  13   2.0000      -1.111488       -30.2451
  14   2.0000      -1.079569       -29.3766
  15   2.0000      -1.030999       -28.0549
  16   2.0000      -0.979959       -26.6660
  17   2.0000      -0.925681       -25.1891
  18   2.0000      -0.891718       -24.2649
  19   2.0000      -0.846705       -23.0400
  20   2.0000      -0.811641       -22.0859
  21   2.0000      -0.774485       -21.0748
  22   2.0000      -0.765076       -20.8188
  23   2.0000      -0.755878       -20.5685
  24   2.0000      -0.707335       -19.2476
  25   2.0000      -0.652345       -17.7512
  26   2.0000      -0.647136       -17.6095
  27   2.0000      -0.626540       -17.0490
  28   2.0000      -0.604949       -16.4615
  29   2.0000      -0.592853       -16.1323
  30   2.0000      -0.581134       -15.8135
  31   2.0000      -0.567898       -15.4533
  32   2.0000      -0.554889       -15.0993
  33   2.0000      -0.535184       -14.5631
  34   2.0000      -0.515712       -14.0332
  35   2.0000      -0.515063       -14.0156
  36   2.0000      -0.496851       -13.5200
  37   2.0000      -0.485025       -13.1982
  38   2.0000      -0.479714       -13.0537
  39   2.0000      -0.470889       -12.8135
  40   2.0000      -0.464667       -12.6442
  41   2.0000      -0.449615       -12.2346
  42   2.0000      -0.446852       -12.1594
  43   2.0000      -0.445569       -12.1245
  44   0.0000       0.025295         0.6883
  45   0.0000       0.031615         0.8603
  46   0.0000       0.033168         0.9026
  47   0.0000       0.036158         0.9839
  48   0.0000       0.045378         1.2348

MULLIKEN ATOMIC CHARGES
-----------------------
   0 C :   -0.581956
   1 C :   -0.305844
   2 H :    0.403399
   3 H :    0.144485
   4 C :    0.946263
   5 F :   -0.381458
   6 O :   -0.865119
   7 C :   -1.037030
   8 C :   -0.298270
   9 C :   -0.331570
  10 H :    0.093756
  11 H :    0.385346
  12 H :    0.172167
  13 H :    0.249461
  14 C :   -0.488976
  15 C :   -0.389305
  16 H :    0.230694
  17 H :    0.468749
  18 C :   -0.702367
  19 H :    0.509812
  20 H :    0.077462
  21 H :    0.489295
  22 H :    0.079474
  23 H :    0.158520
  24 H :    0.168155
  25 H :    0.294411
  26 H :    0.244968
  27 H :    0.265478
Sum of atomic charges:    0.0000000

LOEWDIN ATOMIC CHARGES
----------------------
   0 C :    0.285803
   1 C :    0.266550
   2 H :   -0.148064
   3 H :   -0.173813
   4 C :   -0.921234
   5 F :    0.608814
   6 O :    0.406754
   7 C :    0.611966
   8 C :    0.278445
   9 C :    0.278791
  10 H :   -0.167176
  11 H :   -0.124303
  12 H :   -0.145048
  13 H :   -0.135019
  14 C :    0.256256
  15 C :    0.280027
  16 H :   -0.130367
  17 H :   -0.214045
  18 C :    0.299244
  19 H :   -0.135528
  20 H :   -0.149060
  21 H :   -0.132078
  22 H :   -0.171772
  23 H :   -0.140559
  24 H :   -0.140738
  25 H :   -0.179747
  26 H :   -0.182289
  27 H :   -0.181810

  Mayer bond orders larger than 0.100000
B(  0-C ,  1-C ) :   0.9522 B(  0-C ,  4-C ) :   0.1236 B(  0-C ,  9-C ) :   0.8560
B(  0-C , 12-H ) :   1.0565 B(  0-C , 13-H ) :   0.9148 B(  1-C ,  2-H ) :   0.8623
B(  1-C ,  3-H ) :   1.0368 B(  1-C ,  4-C ) :   0.7801 B(  2-H ,  4-C ) :  -0.1020
B(  3-H ,  4-C ) :   0.1171 B(  4-C ,  5-F ) :   0.6505 B(  4-C ,  6-O ) :   1.3544
B(  7-C , 14-C ) :   0.6706 B(  7-C , 25-H ) :   0.9590 B(  7-C , 26-H ) :   1.0254
B(  7-C , 27-H ) :   1.0255 B(  8-C ,  9-C ) :   0.8042 B(  8-C , 18-C ) :   0.9039
B(  8-C , 21-H ) :   0.7250 B(  8-C , 22-H ) :   1.1626 B(  9-C , 10-H ) :   1.1224
B(  9-C , 11-H ) :   0.8303 B( 14-C , 15-C ) :   0.8669 B( 14-C , 16-H ) :   1.0183
B( 14-C , 17-H ) :   0.7993 B( 15-C , 18-C ) :   0.9342 B( 15-C , 19-H ) :   0.7206
B( 15-C , 20-H ) :   1.1228 B( 18-C , 23-H ) :   1.0590 B( 18-C , 24-H ) :   1.0487

E(0)                                       ...   -525.206369302
E(0)                                       ...   -525.206369302
E(CORR)(strong-pairs)                      ...     -2.151638281
E(CORR)(weak-pairs)                        ...     -0.003306840
E(CORR)(corrected)                         ...     -2.154945121
E(TOT)                                     ...   -527.361314423
E(CCSD(T))                                 ...   -527.447822695
FINAL SINGLE POINT ENERGY      -527.447822694891

DIPOLE MOMENT
-------------
                                X             Y             Z
Electronic contribution:     10.58322      10.28579       5.30557
Nuclear contribution   :    -11.66304      -9.73483      -5.70731
                        -----------------------------------------
Total Dipole Moment    :     -1.07982       0.55096      -0.40173
                        -----------------------------------------
Magnitude (a.u.)       :      1.27709
Magnitude (Debye)      :      3.24611

Rotational constants in cm-1:     0.041771     0.024453     0.017677
Rotational constants in MHz :  1252.269644   733.092347   529.935712

                             ****ORCA TERMINATED NORMALLY****
TOTAL RUN TIME: 0 days 3 hours 27 minutes 40 seconds 446 msec
