                         Program Version 5.0.0 -  RELEASE  -
|  1> !DLPNO-CCSD(T) aug-cc-pVTZ aug-cc-pVTZ/C TightSCF TightPNO RIJCOSX def2/J
|  2> *xyz 0 1
|  3> C          4.08422        1.74208       -2.11472
|  4> C          4.26524        2.50052       -0.79589
|  5> H          4.86853        3.39267       -0.98113
|  6> H          3.30764        2.82457       -0.38781
|  7> C          4.98224        1.65026        0.24742
|  8> O          4.36806        1.38927        1.31371
|  9> F          6.12892        1.23351       -0.04562
| 10> C          3.13916       -2.37657        1.91061
| 11> C          1.99727        0.43092       -1.39922
| 12> C          3.41275        0.37689       -1.96550
| 13> H          4.04741       -0.24659       -1.32671
| 14> H          3.39077       -0.11872       -2.94284
| 15> H          5.06847        1.59850       -2.56573
| 16> H          3.50336        2.36394       -2.80457
| 17> C          2.39995       -1.38958        1.00949
| 18> C          2.07018       -1.93671       -0.37240
| 19> H          1.48161       -1.06154        1.50991
| 20> H          3.00863       -0.49000        0.89745
| 21> C          1.32224       -0.93577       -1.25641
| 22> H          1.47275       -2.85090       -0.28400
| 23> H          3.00354       -2.23404       -0.86254
| 24> H          1.37644        1.05892       -2.04742
| 25> H          2.01534        0.92978       -0.42653
| 26> H          0.31665       -0.78721       -0.84828
| 27> H          1.18561       -1.37925       -2.24861
| 28> H          4.03659       -2.69929        1.42546
| 29> H          2.51297       -3.22286        2.10186
| 30> H          3.38580       -1.89904        2.83583
| 31> *
| 32> %MaxCore 64000
| 33> %pal nprocs 8
| 34> end
| 35> %scf
| 36>   MaxIter 150
| 37> end
| 38>
| 39>                          ****END OF INPUT****

CARTESIAN COORDINATES (ANGSTROEM)
---------------------------------
  C      4.084220    1.742080   -2.114720
  C      4.265240    2.500520   -0.795890
  H      4.868530    3.392670   -0.981130
  H      3.307640    2.824570   -0.387810
  C      4.982240    1.650260    0.247420
  O      4.368060    1.389270    1.313710
  F      6.128920    1.233510   -0.045620
  C      3.139160   -2.376570    1.910610
  C      1.997270    0.430920   -1.399220
  C      3.412750    0.376890   -1.965500
  H      4.047410   -0.246590   -1.326710
  H      3.390770   -0.118720   -2.942840
  H      5.068470    1.598500   -2.565730
  H      3.503360    2.363940   -2.804570
  C      2.399950   -1.389580    1.009490
  C      2.070180   -1.936710   -0.372400
  H      1.481610   -1.061540    1.509910
  H      3.008630   -0.490000    0.897450
  C      1.322240   -0.935770   -1.256410
  H      1.472750   -2.850900   -0.284000
  H      3.003540   -2.234040   -0.862540
  H      1.376440    1.058920   -2.047420
  H      2.015340    0.929780   -0.426530
  H      0.316650   -0.787210   -0.848280
  H      1.185610   -1.379250   -2.248610
  H      4.036590   -2.699290    1.425460
  H      2.512970   -3.222860    2.101860
  H      3.385800   -1.899040    2.835830

 Total Charge           Charge          ....    0
 Multiplicity           Mult            ....    1
 Number of Electrons    NEL             ....   88
 Basis Dimension        Dim             ....  897

ORBITAL ENERGIES
----------------

  NO   OCC          E(Eh)            E(eV)
   0   2.0000     -26.377582      -717.7705
   1   2.0000     -20.563602      -559.5641
   2   2.0000     -11.430696      -311.0451
   3   2.0000     -11.258683      -306.3643
   4   2.0000     -11.243237      -305.9440
   5   2.0000     -11.227653      -305.5200
   6   2.0000     -11.217450      -305.2423
   7   2.0000     -11.213913      -305.1461
   8   2.0000     -11.207197      -304.9633
   9   2.0000     -11.198021      -304.7137
  10   2.0000     -11.190104      -304.4982
  11   2.0000      -1.732182       -47.1351
  12   2.0000      -1.374775       -37.4095
  13   2.0000      -1.112604       -30.2755
  14   2.0000      -1.075793       -29.2738
  15   2.0000      -1.026177       -27.9237
  16   2.0000      -0.976085       -26.5606
  17   2.0000      -0.920537       -25.0491
  18   2.0000      -0.892969       -24.2989
  19   2.0000      -0.843235       -22.9456
  20   2.0000      -0.808380       -21.9971
  21   2.0000      -0.777949       -21.1691
  22   2.0000      -0.770450       -20.9650
  23   2.0000      -0.752042       -20.4641
  24   2.0000      -0.699052       -19.0222
  25   2.0000      -0.652611       -17.7584
  26   2.0000      -0.643791       -17.5185
  27   2.0000      -0.625153       -17.0113
  28   2.0000      -0.601555       -16.3691
  29   2.0000      -0.588450       -16.0125
  30   2.0000      -0.577173       -15.7057
  31   2.0000      -0.566432       -15.4134
  32   2.0000      -0.551443       -15.0055
  33   2.0000      -0.531374       -14.4594
  34   2.0000      -0.518057       -14.0971
  35   2.0000      -0.511503       -13.9187
  36   2.0000      -0.506164       -13.7734
  37   2.0000      -0.484587       -13.1863
  38   2.0000      -0.473297       -12.8791
  39   2.0000      -0.465385       -12.6638
  40   2.0000      -0.456129       -12.4119
  41   2.0000      -0.443503       -12.0683
  42   2.0000      -0.442744       -12.0477
  43   2.0000      -0.437650       -11.9091
  44   0.0000       0.024433         0.6649
  45   0.0000       0.032069         0.8726
  46   0.0000       0.033572         0.9136
  47   0.0000       0.037414         1.0181
  48   0.0000       0.046201         1.2572

MULLIKEN ATOMIC CHARGES
-----------------------
   0 C :   -0.586863
   1 C :   -0.296704
   2 H :    0.428318
   3 H :    0.151534
   4 C :    0.881260
   5 O :   -0.810154
   6 F :   -0.433058
   7 C :   -1.047553
   8 C :   -0.310001
   9 C :   -0.334724
  10 H :    0.083826
  11 H :    0.373433
  12 H :    0.167508
  13 H :    0.227535
  14 C :   -0.500052
  15 C :   -0.372957
  16 H :    0.222609
  17 H :    0.540814
  18 C :   -0.710148
  19 H :    0.517547
  20 H :    0.068718
  21 H :    0.488999
  22 H :    0.128396
  23 H :    0.161773
  24 H :    0.162121
  25 H :    0.285878
  26 H :    0.241665
  27 H :    0.270280
Sum of atomic charges:    0.0000000

LOEWDIN ATOMIC CHARGES
----------------------
   0 C :    0.283721
   1 C :    0.268482
   2 H :   -0.152209
   3 H :   -0.164248
   4 C :   -0.911709
   5 O :    0.426191
   6 F :    0.599865
   7 C :    0.609949
   8 C :    0.282384
   9 C :    0.278352
  10 H :   -0.164617
  11 H :   -0.125550
  12 H :   -0.147524
  13 H :   -0.134143
  14 C :    0.256548
  15 C :    0.277285
  16 H :   -0.129327
  17 H :   -0.233337
  18 C :    0.298881
  19 H :   -0.136941
  20 H :   -0.151002
  21 H :   -0.132582
  22 H :   -0.169021
  23 H :   -0.140048
  24 H :   -0.142373
  25 H :   -0.181887
  26 H :   -0.184484
  27 H :   -0.180654

  Mayer bond orders larger than 0.100000
B(  0-C ,  1-C ) :   0.9439 B(  0-C ,  4-C ) :   0.1298 B(  0-C ,  9-C ) :   0.8450
B(  0-C , 12-H ) :   1.0495 B(  0-C , 13-H ) :   0.9454 B(  1-C ,  2-H ) :   0.8663
B(  1-C ,  3-H ) :   1.0250 B(  1-C ,  4-C ) :   0.7829 B(  1-C ,  6-F ) :   0.1815
B(  2-H ,  4-C ) :  -0.1196 B(  3-H ,  4-C ) :   0.1179 B(  4-C ,  5-O ) :   1.5866
B(  4-C ,  6-F ) :   0.5207 B(  7-C , 14-C ) :   0.6746 B(  7-C , 25-H ) :   0.9688
B(  7-C , 26-H ) :   1.0278 B(  7-C , 27-H ) :   1.0214 B(  8-C ,  9-C ) :   0.8179
B(  8-C , 18-C ) :   0.8990 B(  8-C , 21-H ) :   0.7286 B(  8-C , 22-H ) :   1.1299
B(  9-C , 10-H ) :   1.1163 B(  9-C , 11-H ) :   0.8374 B( 14-C , 15-C ) :   0.8671
B( 14-C , 16-H ) :   1.0258 B( 14-C , 17-H ) :   0.7550 B( 15-C , 18-C ) :   0.9348
B( 15-C , 19-H ) :   0.7144 B( 15-C , 20-H ) :   1.1293 B( 18-C , 23-H ) :   1.0520
B( 18-C , 24-H ) :   1.0556

E(0)                                       ...   -525.206643464
E(0)                                       ...   -525.206643464
E(CORR)(strong-pairs)                      ...     -2.151859634
E(CORR)(weak-pairs)                        ...     -0.003174108
E(CORR)(corrected)                         ...     -2.155033742
E(TOT)                                     ...   -527.361677206
E(CCSD(T))                                 ...   -527.448214462
FINAL SINGLE POINT ENERGY      -527.448214461652

DIPOLE MOMENT
-------------
                                X             Y             Z
Electronic contribution:     13.84542      10.11442       2.84417
Nuclear contribution   :    -13.81616      -9.54437      -4.04516
                        -----------------------------------------
Total Dipole Moment    :      0.02926       0.57005      -1.20099
                        -----------------------------------------
Magnitude (a.u.)       :      1.32973
Magnitude (Debye)      :      3.37991

Rotational constants in cm-1:     0.042005     0.024018     0.017503
Rotational constants in MHz :  1259.290032   720.027919   524.738270

                             ****ORCA TERMINATED NORMALLY****
TOTAL RUN TIME: 0 days 3 hours 17 minutes 43 seconds 47 msec
