                         Program Version 5.0.0 -  RELEASE  -
|  1> !DLPNO-CCSD(T) aug-cc-pVTZ aug-cc-pVTZ/C TightSCF TightPNO RIJCOSX def2/J
|  2> *xyz 0 1
|  3> C          3.91385       -1.65829        3.01513
|  4> N          5.03927       -0.90115        2.49282
|  5> C          6.21038       -1.41726        2.17824
|  6> C          6.53591       -2.67712        2.55608
|  7> N          7.07675       -0.70082        1.47891
|  8> H          7.95464       -1.12155        1.20755
|  9> H          6.75616        0.10664        0.96028
| 10> H          4.84217        0.01761        2.11519
| 11> H          5.99388       -3.12692        3.28278
| 12> H          7.49844       -2.97548        2.46878
| 13> C          3.13916       -2.37657        1.91061
| 14> H          3.26723       -0.93940        3.52069
| 15> H          4.24720       -2.35509        3.79006
| 16> C          2.39995       -1.38958        1.00949
| 17> H          2.44075       -3.08712        2.36298
| 18> H          3.84448       -2.97046        1.31868
| 19> C          2.07018       -1.93671       -0.37240
| 20> H          1.48161       -1.06154        1.50991
| 21> H          3.00863       -0.49000        0.89745
| 22> C          1.32224       -0.93577       -1.25641
| 23> H          1.47275       -2.85090       -0.28400
| 24> H          3.00354       -2.23404       -0.86254
| 25> H          1.12209       -1.38090       -2.20862
| 26> H          1.92280       -0.06049       -1.39103
| 27> H          0.39898       -0.66619       -0.78757
| 28> *
| 29> %MaxCore 64000
| 30> %pal nprocs 8
| 31> end
| 32> %scf
| 33>   MaxIter 150
| 34> end
| 35>
| 36>                          ****END OF INPUT****

CARTESIAN COORDINATES (ANGSTROEM)
---------------------------------
  C      3.913850   -1.658290    3.015130
  N      5.039270   -0.901150    2.492820
  C      6.210380   -1.417260    2.178240
  C      6.535910   -2.677120    2.556080
  N      7.076750   -0.700820    1.478910
  H      7.954640   -1.121550    1.207550
  H      6.756160    0.106640    0.960280
  H      4.842170    0.017610    2.115190
  H      5.993880   -3.126920    3.282780
  H      7.498440   -2.975480    2.468780
  C      3.139160   -2.376570    1.910610
  H      3.267230   -0.939400    3.520690
  H      4.247200   -2.355090    3.790060
  C      2.399950   -1.389580    1.009490
  H      2.440750   -3.087120    2.362980
  H      3.844480   -2.970460    1.318680
  C      2.070180   -1.936710   -0.372400
  H      1.481610   -1.061540    1.509910
  H      3.008630   -0.490000    0.897450
  C      1.322240   -0.935770   -1.256410
  H      1.472750   -2.850900   -0.284000
  H      3.003540   -2.234040   -0.862540
  H      1.122090   -1.380900   -2.208620
  H      1.922800   -0.060490   -1.391030
  H      0.398980   -0.666190   -0.787570

 Total Charge           Charge          ....    0
 Multiplicity           Mult            ....    1
 Number of Electrons    NEL             ....   72
 Basis Dimension        Dim             ....  782

ORBITAL ENERGIES
----------------

  NO   OCC          E(Eh)            E(eV)
   0   2.0000     -15.564830      -423.5405
   1   2.0000     -15.563358      -423.5005
   2   2.0000     -11.290545      -307.2313
   3   2.0000     -11.257988      -306.3454
   4   2.0000     -11.216501      -305.2165
   5   2.0000     -11.215630      -305.1928
   6   2.0000     -11.212497      -305.1076
   7   2.0000     -11.204112      -304.8794
   8   2.0000     -11.127455      -302.7935
   9   2.0000      -1.293901       -35.2088
  10   2.0000      -1.189298       -32.3624
  11   2.0000      -1.079523       -29.3753
  12   2.0000      -1.015464       -27.6322
  13   2.0000      -0.965925       -26.2841
  14   2.0000      -0.926474       -25.2106
  15   2.0000      -0.840408       -22.8687
  16   2.0000      -0.797013       -21.6878
  17   2.0000      -0.760316       -20.6892
  18   2.0000      -0.733023       -19.9466
  19   2.0000      -0.701696       -19.0941
  20   2.0000      -0.653591       -17.7851
  21   2.0000      -0.619950       -16.8697
  22   2.0000      -0.605178       -16.4677
  23   2.0000      -0.589925       -16.0527
  24   2.0000      -0.574291       -15.6272
  25   2.0000      -0.556303       -15.1378
  26   2.0000      -0.546397       -14.8682
  27   2.0000      -0.535553       -14.5731
  28   2.0000      -0.525492       -14.2994
  29   2.0000      -0.499646       -13.5960
  30   2.0000      -0.491569       -13.3763
  31   2.0000      -0.467560       -12.7230
  32   2.0000      -0.462518       -12.5857
  33   2.0000      -0.455588       -12.3972
  34   2.0000      -0.392671       -10.6851
  35   2.0000      -0.264243        -7.1904
  36   0.0000       0.023578         0.6416
  37   0.0000       0.032335         0.8799
  38   0.0000       0.034638         0.9425
  39   0.0000       0.037087         1.0092
  40   0.0000       0.047073         1.2809

MULLIKEN ATOMIC CHARGES
-----------------------
   0 C :   -0.462569
   1 N :   -0.145796
   2 C :    0.858937
   3 C :   -1.355586
   4 N :   -0.659926
   5 H :    0.069862
   6 H :    0.120378
   7 H :    0.082109
   8 H :    0.594322
   9 H :    0.187883
  10 C :   -0.483047
  11 H :    0.375399
  12 H :    0.260287
  13 C :   -0.401603
  14 H :    0.329950
  15 H :    0.242046
  16 C :   -0.469383
  17 H :    0.266442
  18 H :    0.275444
  19 C :   -1.005841
  20 H :    0.236000
  21 H :    0.224215
  22 H :    0.288732
  23 H :    0.301421
  24 H :    0.270324
Sum of atomic charges:    0.0000000

LOEWDIN ATOMIC CHARGES
----------------------
   0 C :    0.218233
   1 N :    0.567601
   2 C :   -0.451689
   3 C :    0.553208
   4 N :    0.857532
   5 H :   -0.270745
   6 H :   -0.277414
   7 H :   -0.269057
   8 H :   -0.335933
   9 H :   -0.314527
  10 C :    0.300548
  11 H :   -0.135946
  12 H :   -0.154935
  13 C :    0.267868
  14 H :   -0.135299
  15 H :   -0.149622
  16 C :    0.266853
  17 H :   -0.136145
  18 H :   -0.164844
  19 C :    0.601639
  20 H :   -0.139298
  21 H :   -0.144337
  22 H :   -0.184852
  23 H :   -0.184667
  24 H :   -0.184171

  Mayer bond orders larger than 0.100000
B(  0-C ,  1-N ) :   0.9465 B(  0-C ,  2-C ) :  -0.1542 B(  0-C , 10-C ) :   0.9859
B(  0-C , 11-H ) :   0.9182 B(  0-C , 12-H ) :   0.9655 B(  1-N ,  2-C ) :   0.7130
B(  1-N ,  3-C ) :  -0.1221 B(  1-N ,  4-N ) :  -0.1561 B(  1-N ,  7-H ) :   1.0789
B(  2-C ,  3-C ) :   1.0411 B(  2-C ,  4-N ) :   0.7612 B(  2-C ,  7-H ) :  -0.1205
B(  3-C ,  8-H ) :   0.5785 B(  3-C ,  9-H ) :   1.2384 B(  4-N ,  5-H ) :   1.1643
B(  4-N ,  6-H ) :   1.0838 B( 10-C , 13-C ) :   0.8484 B( 10-C , 14-H ) :   0.9081
B( 10-C , 15-H ) :   0.9828 B( 13-C , 16-C ) :   0.8609 B( 13-C , 17-H ) :   0.9676
B( 13-C , 18-H ) :   0.9518 B( 16-C , 19-C ) :   0.8410 B( 16-C , 20-H ) :   0.9506
B( 16-C , 21-H ) :   0.9951 B( 19-C , 22-H ) :   0.9968 B( 19-C , 23-H ) :   0.9296
B( 19-C , 24-H ) :   0.9766

E(0)                                       ...   -383.388640256
E(0)                                       ...   -383.388640256
E(CORR)(strong-pairs)                      ...     -1.724933581
E(CORR)(weak-pairs)                        ...     -0.002387816
E(CORR)(corrected)                         ...     -1.727321397
E(TOT)                                     ...   -385.115961653
E(CCSD(T))                                 ...   -385.186635648
FINAL SINGLE POINT ENERGY      -385.186635647716

DIPOLE MOMENT
-------------
                                X             Y             Z
Electronic contribution:      6.83944       1.55799       4.06052
Nuclear contribution   :     -7.23388      -0.60578      -4.53786
                        -----------------------------------------
Total Dipole Moment    :     -0.39444       0.95221      -0.47733
                        -----------------------------------------
Magnitude (a.u.)       :      1.13584
Magnitude (Debye)      :      2.88707

Rotational constants in cm-1:     0.091550     0.023392     0.021091
Rotational constants in MHz :  2744.589943   701.276225   632.302778

                             ****ORCA TERMINATED NORMALLY****
TOTAL RUN TIME: 0 days 1 hours 42 minutes 10 seconds 143 msec
