                         Program Version 5.0.0 -  RELEASE  -
|  1> !DLPNO-CCSD(T) aug-cc-pVTZ aug-cc-pVTZ/C TightSCF TightPNO RIJCOSX def2/J
|  2> *xyz 0 1
|  3> C          4.26524        2.50052       -0.79589
|  4> C          4.98224        1.65026        0.24742
|  5> O          4.36806        1.38927        1.31371
|  6> F          6.12892        1.23351       -0.04562
|  7> H          4.90412        2.63966       -1.64287
|  8> H          4.02079        3.45265       -0.37328
|  9> H          3.36773        2.00584       -1.10356
| 10> *
| 11> %MaxCore 64000
| 12> %pal nprocs 8
| 13> end
| 14> %scf
| 15>   MaxIter 150
| 16> end
| 17>
| 18>
| 19>                          ****END OF INPUT****

CARTESIAN COORDINATES (ANGSTROEM)
---------------------------------
  C      4.265240    2.500520   -0.795890
  C      4.982240    1.650260    0.247420
  O      4.368060    1.389270    1.313710
  F      6.128920    1.233510   -0.045620
  H      4.904120    2.639660   -1.642870
  H      4.020790    3.452650   -0.373280
  H      3.367730    2.005840   -1.103560

 Total Charge           Charge          ....    0
 Multiplicity           Mult            ....    1
 Number of Electrons    NEL             ....   32
 Basis Dimension        Dim             ....  253

ORBITAL ENERGIES
----------------

  NO   OCC          E(Eh)            E(eV)
   0   2.0000     -26.379330      -717.8181
   1   2.0000     -20.564361      -559.5847
   2   2.0000     -11.436137      -311.1931
   3   2.0000     -11.256661      -306.3093
   4   2.0000      -1.733643       -47.1748
   5   2.0000      -1.374368       -37.3984
   6   2.0000      -1.044025       -28.4094
   7   2.0000      -0.902767       -24.5655
   8   2.0000      -0.780662       -21.2429
   9   2.0000      -0.772458       -21.0196
  10   2.0000      -0.711022       -19.3479
  11   2.0000      -0.615329       -16.7440
  12   2.0000      -0.600920       -16.3519
  13   2.0000      -0.587334       -15.9822
  14   2.0000      -0.495486       -13.4829
  15   2.0000      -0.470454       -12.8017
  16   0.0000       0.025495         0.6938
  17   0.0000       0.044532         1.2118
  18   0.0000       0.044624         1.2143
  19   0.0000       0.062715         1.7066
  20   0.0000       0.097552         2.6545

MULLIKEN ATOMIC CHARGES
-----------------------
   0 C :   -0.697079
   1 C :    0.555561
   2 O :   -0.591589
   3 F :   -0.220921
   4 H :    0.319191
   5 H :    0.319161
   6 H :    0.315675
Sum of atomic charges:   -0.0000000

LOEWDIN ATOMIC CHARGES
----------------------
   0 C :    0.584085
   1 C :   -0.931758
   2 O :    0.365755
   3 F :    0.574771
   4 H :   -0.210179
   5 H :   -0.191832
   6 H :   -0.190842

  Mayer bond orders larger than 0.100000
B(  0-C ,  1-C ) :   0.8000 B(  0-C ,  4-H ) :   0.9070 B(  0-C ,  5-H ) :   0.9017
B(  0-C ,  6-H ) :   0.9033 B(  1-C ,  2-O ) :   1.7300 B(  1-C ,  3-F ) :   0.9407

E(0)                                       ...   -251.879928711
E(0)                                       ...   -251.879928711
E(CORR)(strong-pairs)                      ...     -0.838056922
E(CORR)(weak-pairs)                        ...     -0.000617334
E(CORR)(corrected)                         ...     -0.838674256
E(TOT)                                     ...   -252.718602967
E(CCSD(T))                                 ...   -252.751270083
FINAL SINGLE POINT ENERGY      -252.751270082679

DIPOLE MOMENT
-------------
                                X             Y             Z
Electronic contribution:      3.64527      -2.70517       1.97661
Nuclear contribution   :     -3.58210       3.29544      -3.18468
                        -----------------------------------------
Total Dipole Moment    :      0.06317       0.59027      -1.20807
                        -----------------------------------------
Magnitude (a.u.)       :      1.34604
Magnitude (Debye)      :      3.42137

Rotational constants in cm-1:     0.368075     0.322590     0.177495
Rotational constants in MHz : 11034.605942  9670.991558  5321.154504

                             ****ORCA TERMINATED NORMALLY****
TOTAL RUN TIME: 0 days 0 hours 2 minutes 27 seconds 510 msec
