                         Program Version 5.0.0 -  RELEASE  -
|  1> !DLPNO-CCSD(T) aug-cc-pVTZ aug-cc-pVTZ/C TightSCF TightPNO RIJCOSX def2/J
|  2> *xyz 0 1
|  3> C          3.91385       -1.65829        3.01513
|  4> N          5.03927       -0.90115        2.49282
|  5> C          4.08422        1.74208       -2.11472
|  6> C          4.26524        2.50052       -0.79589
|  7> C          6.21038       -1.41726        2.17824
|  8> C          6.53591       -2.67712        2.55608
|  9> N          7.07675       -0.70082        1.47891
| 10> H          7.95464       -1.12155        1.20755
| 11> H          6.75616        0.10664        0.96028
| 12> H          4.84217        0.01761        2.11519
| 13> H          5.99388       -3.12692        3.28278
| 14> H          7.49844       -2.97548        2.46878
| 15> C          3.13916       -2.37657        1.91061
| 16> H          3.26723       -0.93940        3.52069
| 17> H          4.24720       -2.35509        3.79006
| 18> C          1.99727        0.43092       -1.39922
| 19> C          3.41275        0.37689       -1.96550
| 20> H          4.04741       -0.24659       -1.32671
| 21> H          3.39077       -0.11872       -2.94284
| 22> H          5.06847        1.59850       -2.56573
| 23> H          3.50336        2.36394       -2.80457
| 24> C          2.39995       -1.38958        1.00949
| 25> H          2.44075       -3.08712        2.36298
| 26> H          3.84448       -2.97046        1.31868
| 27> C          2.07018       -1.93671       -0.37240
| 28> H          1.48161       -1.06154        1.50991
| 29> H          3.00863       -0.49000        0.89745
| 30> C          1.32224       -0.93577       -1.25641
| 31> H          1.47275       -2.85090       -0.28400
| 32> H          3.00354       -2.23404       -0.86254
| 33> H          1.37644        1.05892       -2.04742
| 34> H          2.01534        0.92978       -0.42653
| 35> H          0.31665       -0.78721       -0.84828
| 36> H          1.18561       -1.37925       -2.24861
| 37> H          4.73963        3.44035       -0.98715
| 38> H          4.87389        1.92223       -0.13253
| 39> H          3.30865        2.66865       -0.34693
| 40> *
| 41> %MaxCore 64000
| 42> %pal nprocs 8
| 43> end
| 44> %scf
| 45>   MaxIter 150
| 46> end
| 47>
| 48>                          ****END OF INPUT****

CARTESIAN COORDINATES (ANGSTROEM)
---------------------------------
  C      3.913850   -1.658290    3.015130
  N      5.039270   -0.901150    2.492820
  C      4.084220    1.742080   -2.114720
  C      4.265240    2.500520   -0.795890
  C      6.210380   -1.417260    2.178240
  C      6.535910   -2.677120    2.556080
  N      7.076750   -0.700820    1.478910
  H      7.954640   -1.121550    1.207550
  H      6.756160    0.106640    0.960280
  H      4.842170    0.017610    2.115190
  H      5.993880   -3.126920    3.282780
  H      7.498440   -2.975480    2.468780
  C      3.139160   -2.376570    1.910610
  H      3.267230   -0.939400    3.520690
  H      4.247200   -2.355090    3.790060
  C      1.997270    0.430920   -1.399220
  C      3.412750    0.376890   -1.965500
  H      4.047410   -0.246590   -1.326710
  H      3.390770   -0.118720   -2.942840
  H      5.068470    1.598500   -2.565730
  H      3.503360    2.363940   -2.804570
  C      2.399950   -1.389580    1.009490
  H      2.440750   -3.087120    2.362980
  H      3.844480   -2.970460    1.318680
  C      2.070180   -1.936710   -0.372400
  H      1.481610   -1.061540    1.509910
  H      3.008630   -0.490000    0.897450
  C      1.322240   -0.935770   -1.256410
  H      1.472750   -2.850900   -0.284000
  H      3.003540   -2.234040   -0.862540
  H      1.376440    1.058920   -2.047420
  H      2.015340    0.929780   -0.426530
  H      0.316650   -0.787210   -0.848280
  H      1.185610   -1.379250   -2.248610
  H      4.739630    3.440350   -0.987150
  H      4.873890    1.922230   -0.132530
  H      3.308650    2.668650   -0.346930

 Total Charge           Charge          ....    0
 Multiplicity           Mult            ....    1
 Number of Electrons    NEL             ....  104
 Basis Dimension        Dim             .... 1150

ORBITAL ENERGIES
----------------

  NO   OCC          E(Eh)            E(eV)
   0   2.0000     -15.564481      -423.5311
   1   2.0000     -15.562903      -423.4881
   2   2.0000     -11.290215      -307.2224
   3   2.0000     -11.257501      -306.3322
   4   2.0000     -11.220940      -305.3373
   5   2.0000     -11.217343      -305.2394
   6   2.0000     -11.216069      -305.2047
   7   2.0000     -11.215478      -305.1887
   8   2.0000     -11.215131      -305.1792
   9   2.0000     -11.213700      -305.1403
  10   2.0000     -11.212309      -305.1024
  11   2.0000     -11.212018      -305.0945
  12   2.0000     -11.127107      -302.7840
  13   2.0000      -1.293543       -35.1991
  14   2.0000      -1.188938       -32.3527
  15   2.0000      -1.100619       -29.9494
  16   2.0000      -1.069570       -29.1045
  17   2.0000      -1.029419       -28.0119
  18   2.0000      -0.979030       -26.6407
  19   2.0000      -0.961957       -26.1762
  20   2.0000      -0.924457       -25.1558
  21   2.0000      -0.876327       -23.8461
  22   2.0000      -0.827878       -22.5277
  23   2.0000      -0.798544       -21.7295
  24   2.0000      -0.762417       -20.7464
  25   2.0000      -0.755816       -20.5668
  26   2.0000      -0.732080       -19.9209
  27   2.0000      -0.701362       -19.0850
  28   2.0000      -0.654800       -17.8180
  29   2.0000      -0.643760       -17.5176
  30   2.0000      -0.626232       -17.0406
  31   2.0000      -0.616664       -16.7803
  32   2.0000      -0.601946       -16.3798
  33   2.0000      -0.591461       -16.0945
  34   2.0000      -0.582364       -15.8469
  35   2.0000      -0.565711       -15.3938
  36   2.0000      -0.557647       -15.1743
  37   2.0000      -0.543386       -14.7863
  38   2.0000      -0.537482       -14.6256
  39   2.0000      -0.530636       -14.4393
  40   2.0000      -0.522521       -14.2185
  41   2.0000      -0.506981       -13.7956
  42   2.0000      -0.502131       -13.6637
  43   2.0000      -0.490009       -13.3338
  44   2.0000      -0.475615       -12.9421
  45   2.0000      -0.468723       -12.7546
  46   2.0000      -0.463872       -12.6226
  47   2.0000      -0.445692       -12.1279
  48   2.0000      -0.444805       -12.1038
  49   2.0000      -0.442231       -12.0337
  50   2.0000      -0.392064       -10.6686
  51   2.0000      -0.263914        -7.1815
  52   0.0000       0.024162         0.6575
  53   0.0000       0.029099         0.7918
  54   0.0000       0.031975         0.8701
  55   0.0000       0.033797         0.9197
  56   0.0000       0.041894         1.1400

MULLIKEN ATOMIC CHARGES
-----------------------
   0 C :   -0.566492
   1 N :   -0.097105
   2 C :   -0.540008
   3 C :   -1.113571
   4 C :    0.786817
   5 C :   -1.431600
   6 N :   -0.703057
   7 H :    0.040071
   8 H :    0.238470
   9 H :    0.304354
  10 H :    0.596078
  11 H :    0.166727
  12 C :   -0.509765
  13 H :    0.225906
  14 H :    0.301703
  15 C :   -0.296316
  16 C :   -0.461257
  17 H :    0.436228
  18 H :    0.198839
  19 H :    0.245995
  20 H :    0.176382
  21 C :   -0.573649
  22 H :    0.259428
  23 H :    0.193829
  24 C :   -0.330167
  25 H :    0.266971
  26 H :    0.485970
  27 C :   -0.724830
  28 H :    0.527956
  29 H :    0.015590
  30 H :    0.502079
  31 H :    0.125509
  32 H :    0.131774
  33 H :    0.164300
  34 H :    0.268542
  35 H :    0.454137
  36 H :    0.234160
Sum of atomic charges:   -0.0000000

LOEWDIN ATOMIC CHARGES
----------------------
   0 C :    0.221927
   1 N :    0.570216
   2 C :    0.279917
   3 C :    0.602460
   4 C :   -0.451411
   5 C :    0.554737
   6 N :    0.859175
   7 H :   -0.269382
   8 H :   -0.282442
   9 H :   -0.270940
  10 H :   -0.335504
  11 H :   -0.314227
  12 C :    0.309711
  13 H :   -0.135145
  14 H :   -0.154498
  15 C :    0.278754
  16 C :    0.278457
  17 H :   -0.157555
  18 H :   -0.130993
  19 H :   -0.149320
  20 H :   -0.142650
  21 C :    0.273287
  22 H :   -0.134393
  23 H :   -0.147033
  24 C :    0.288771
  25 H :   -0.125127
  26 H :   -0.186728
  27 C :    0.299564
  28 H :   -0.131189
  29 H :   -0.148363
  30 H :   -0.131781
  31 H :   -0.173920
  32 H :   -0.141138
  33 H :   -0.140658
  34 H :   -0.178778
  35 H :   -0.188811
  36 H :   -0.194989

  Mayer bond orders larger than 0.100000
B(  0-C ,  1-N ) :   0.9853 B(  0-C ,  4-C ) :  -0.1738 B(  0-C ,  5-C ) :  -0.1015
B(  0-C , 12-C ) :   0.9723 B(  0-C , 13-H ) :   1.0655 B(  0-C , 14-H ) :   0.9148
B(  0-C , 21-C ) :   0.1318 B(  1-N ,  4-C ) :   0.6843 B(  1-N ,  5-C ) :  -0.1038
B(  1-N ,  6-N ) :  -0.1439 B(  1-N ,  9-H ) :   0.8464 B(  2-C ,  3-C ) :   0.7909
B(  2-C , 16-C ) :   0.8941 B(  2-C , 19-H ) :   1.0065 B(  2-C , 20-H ) :   1.0356
B(  2-C , 35-H ) :   0.1003 B(  3-C , 34-H ) :   1.0425 B(  3-C , 35-H ) :   0.7949
B(  3-C , 36-H ) :   1.0241 B(  4-C ,  5-C ) :   1.0416 B(  4-C ,  6-N ) :   0.7590
B(  4-C ,  9-H ) :  -0.1432 B(  5-C , 10-H ) :   0.5763 B(  5-C , 11-H ) :   1.2764
B(  6-N ,  7-H ) :   1.1977 B(  6-N ,  8-H ) :   0.9516 B( 12-C , 21-C ) :   0.8908
B( 12-C , 22-H ) :   0.9473 B( 12-C , 23-H ) :   1.0220 B( 15-C , 16-C ) :   0.8097
B( 15-C , 27-C ) :   0.9002 B( 15-C , 30-H ) :   0.7590 B( 15-C , 31-H ) :   1.1162
B( 16-C , 17-H ) :   0.8561 B( 16-C , 18-H ) :   1.0690 B( 21-C , 24-C ) :   0.7625
B( 21-C , 25-H ) :   1.0100 B( 21-C , 26-H ) :   0.8544 B( 24-C , 27-C ) :   0.8959
B( 24-C , 28-H ) :   0.7173 B( 24-C , 29-H ) :   1.1876 B( 27-C , 29-H ) :   0.1055
B( 27-C , 32-H ) :   1.1179 B( 27-C , 33-H ) :   1.0563

E(0)                                       ...   -539.572948304
E(0)                                       ...   -539.572948304
E(CORR)(strong-pairs)                      ...     -2.476926278
E(CORR)(weak-pairs)                        ...     -0.004442090
E(CORR)(corrected)                         ...     -2.481368368
E(TOT)                                     ...   -542.054316673
E(CCSD(T))                                 ...   -542.155956410
FINAL SINGLE POINT ENERGY      -542.155956410172

DIPOLE MOMENT
-------------
                                X             Y             Z
Electronic contribution:      4.93655      -3.04828       5.70644
Nuclear contribution   :     -5.38442       4.02473      -6.26399
                        -----------------------------------------
Total Dipole Moment    :     -0.44787       0.97645      -0.55756
                        -----------------------------------------
Magnitude (a.u.)       :      1.21034
Magnitude (Debye)      :      3.07643

Rotational constants in cm-1:     0.028421     0.014451     0.010803
Rotational constants in MHz :   852.030150   433.222823   323.878047

                             ****ORCA TERMINATED NORMALLY****
TOTAL RUN TIME: 0 days 5 hours 7 minutes 35 seconds 969 msec
