                         Program Version 5.0.0 -  RELEASE  -
|  1> !DLPNO-CCSD(T) aug-cc-pVTZ aug-cc-pVTZ/C TightSCF TightPNO RIJCOSX def2/J
|  2> *xyz 0 1
|  3> C          3.91385       -1.65829        3.01513
|  4> C          4.08422        1.74208       -2.11472
|  5> C          4.26524        2.50052       -0.79589
|  6> H          4.86853        3.39267       -0.98113
|  7> H          3.30764        2.82457       -0.38781
|  8> C          4.98224        1.65026        0.24742
|  9> O          4.36806        1.38927        1.31371
| 10> F          6.12892        1.23351       -0.04562
| 11> C          3.13916       -2.37657        1.91061
| 12> C          1.99727        0.43092       -1.39922
| 13> C          3.41275        0.37689       -1.96550
| 14> H          4.04741       -0.24659       -1.32671
| 15> H          3.39077       -0.11872       -2.94284
| 16> H          5.06847        1.59850       -2.56573
| 17> H          3.50336        2.36394       -2.80457
| 18> C          2.39995       -1.38958        1.00949
| 19> H          2.44075       -3.08712        2.36298
| 20> H          3.84448       -2.97046        1.31868
| 21> C          2.07018       -1.93671       -0.37240
| 22> H          1.48161       -1.06154        1.50991
| 23> H          3.00863       -0.49000        0.89745
| 24> C          1.32224       -0.93577       -1.25641
| 25> H          1.47275       -2.85090       -0.28400
| 26> H          3.00354       -2.23404       -0.86254
| 27> H          1.37644        1.05892       -2.04742
| 28> H          2.01534        0.92978       -0.42653
| 29> H          0.31665       -0.78721       -0.84828
| 30> H          1.18561       -1.37925       -2.24861
| 31> H          4.59802       -0.96242        2.57629
| 32> H          4.45705       -2.37561        3.59417
| 33> H          3.22883       -1.13399        3.64819
| 34> *
| 35> %MaxCore 64000
| 36> %pal nprocs 8
| 37> end
| 38> %scf
| 39>   MaxIter 150
| 40> end
| 41>
| 42>                          ****END OF INPUT****

CARTESIAN COORDINATES (ANGSTROEM)
---------------------------------
  C      3.913850   -1.658290    3.015130
  C      4.084220    1.742080   -2.114720
  C      4.265240    2.500520   -0.795890
  H      4.868530    3.392670   -0.981130
  H      3.307640    2.824570   -0.387810
  C      4.982240    1.650260    0.247420
  O      4.368060    1.389270    1.313710
  F      6.128920    1.233510   -0.045620
  C      3.139160   -2.376570    1.910610
  C      1.997270    0.430920   -1.399220
  C      3.412750    0.376890   -1.965500
  H      4.047410   -0.246590   -1.326710
  H      3.390770   -0.118720   -2.942840
  H      5.068470    1.598500   -2.565730
  H      3.503360    2.363940   -2.804570
  C      2.399950   -1.389580    1.009490
  H      2.440750   -3.087120    2.362980
  H      3.844480   -2.970460    1.318680
  C      2.070180   -1.936710   -0.372400
  H      1.481610   -1.061540    1.509910
  H      3.008630   -0.490000    0.897450
  C      1.322240   -0.935770   -1.256410
  H      1.472750   -2.850900   -0.284000
  H      3.003540   -2.234040   -0.862540
  H      1.376440    1.058920   -2.047420
  H      2.015340    0.929780   -0.426530
  H      0.316650   -0.787210   -0.848280
  H      1.185610   -1.379250   -2.248610
  H      4.598020   -0.962420    2.576290
  H      4.457050   -2.375610    3.594170
  H      3.228830   -1.133990    3.648190

 Total Charge           Charge          ....    0
 Multiplicity           Mult            ....    1
 Number of Electrons    NEL             ....   96
 Basis Dimension        Dim             ....  989

ORBITAL ENERGIES
----------------

  NO   OCC          E(Eh)            E(eV)
   0   2.0000     -26.378763      -717.8026
   1   2.0000     -20.564570      -559.5904
   2   2.0000     -11.431894      -311.0777
   3   2.0000     -11.259325      -306.3818
   4   2.0000     -11.243675      -305.9560
   5   2.0000     -11.227972      -305.5286
   6   2.0000     -11.217629      -305.2472
   7   2.0000     -11.213624      -305.1382
   8   2.0000     -11.206837      -304.9535
   9   2.0000     -11.200477      -304.7805
  10   2.0000     -11.196287      -304.6665
  11   2.0000     -11.182476      -304.2907
  12   2.0000      -1.733401       -47.1682
  13   2.0000      -1.376269       -37.4502
  14   2.0000      -1.113092       -30.2888
  15   2.0000      -1.078913       -29.3587
  16   2.0000      -1.039034       -28.2736
  17   2.0000      -0.993009       -27.0212
  18   2.0000      -0.941408       -25.6170
  19   2.0000      -0.904183       -24.6041
  20   2.0000      -0.873115       -23.7587
  21   2.0000      -0.824650       -22.4399
  22   2.0000      -0.791332       -21.5332
  23   2.0000      -0.778832       -21.1931
  24   2.0000      -0.771469       -20.9927
  25   2.0000      -0.753082       -20.4924
  26   2.0000      -0.700432       -19.0597
  27   2.0000      -0.652399       -17.7527
  28   2.0000      -0.644760       -17.5448
  29   2.0000      -0.628229       -17.0950
  30   2.0000      -0.606057       -16.4917
  31   2.0000      -0.598607       -16.2889
  32   2.0000      -0.580700       -15.8017
  33   2.0000      -0.565599       -15.3907
  34   2.0000      -0.556720       -15.1491
  35   2.0000      -0.534190       -14.5361
  36   2.0000      -0.531737       -14.4693
  37   2.0000      -0.523739       -14.2517
  38   2.0000      -0.514943       -14.0123
  39   2.0000      -0.493451       -13.4275
  40   2.0000      -0.488849       -13.3023
  41   2.0000      -0.475323       -12.9342
  42   2.0000      -0.465423       -12.6648
  43   2.0000      -0.459070       -12.4919
  44   2.0000      -0.453507       -12.3405
  45   2.0000      -0.442362       -12.0373
  46   2.0000      -0.438292       -11.9265
  47   2.0000      -0.427918       -11.6442
  48   0.0000       0.024062         0.6548
  49   0.0000       0.031744         0.8638
  50   0.0000       0.033244         0.9046
  51   0.0000       0.036381         0.9900
  52   0.0000       0.044579         1.2130

MULLIKEN ATOMIC CHARGES
-----------------------
   0 C :   -1.147706
   1 C :   -0.587047
   2 C :   -0.324089
   3 H :    0.427678
   4 H :    0.161750
   5 C :    0.946925
   6 O :   -0.806753
   7 F :   -0.464848
   8 C :   -0.575092
   9 C :   -0.295450
  10 C :   -0.342776
  11 H :    0.117066
  12 H :    0.352415
  13 H :    0.156821
  14 H :    0.224373
  15 C :   -0.501933
  16 H :    0.219151
  17 H :    0.206561
  18 C :   -0.323315
  19 H :    0.236391
  20 H :    0.576591
  21 C :   -0.742026
  22 H :    0.572233
  23 H :    0.034383
  24 H :    0.499314
  25 H :    0.136053
  26 H :    0.129430
  27 H :    0.153631
  28 H :    0.363550
  29 H :    0.307096
  30 H :    0.289624
Sum of atomic charges:   -0.0000000

LOEWDIN ATOMIC CHARGES
----------------------
   0 C :    0.596512
   1 C :    0.284313
   2 C :    0.270339
   3 H :   -0.151634
   4 H :   -0.163747
   5 C :   -0.907227
   6 O :    0.437584
   7 F :    0.602077
   8 C :    0.275186
   9 C :    0.283693
  10 C :    0.279316
  11 H :   -0.163914
  12 H :   -0.125342
  13 H :   -0.147370
  14 H :   -0.133965
  15 C :    0.267785
  16 H :   -0.143550
  17 H :   -0.147703
  18 C :    0.281854
  19 H :   -0.123468
  20 H :   -0.234144
  21 C :    0.300296
  22 H :   -0.133473
  23 H :   -0.151825
  24 H :   -0.132446
  25 H :   -0.168186
  26 H :   -0.139882
  27 H :   -0.142201
  28 H :   -0.205641
  29 H :   -0.186139
  30 H :   -0.177096

  Mayer bond orders larger than 0.100000
B(  0-C ,  8-C ) :   0.8310 B(  0-C , 28-H ) :   0.9150 B(  0-C , 29-H ) :   0.9863
B(  0-C , 30-H ) :   0.9560 B(  1-C ,  2-C ) :   0.9458 B(  1-C ,  5-C ) :   0.1323
B(  1-C , 10-C ) :   0.8417 B(  1-C , 13-H ) :   1.0610 B(  1-C , 14-H ) :   0.9551
B(  2-C ,  3-H ) :   0.8630 B(  2-C ,  4-H ) :   1.0263 B(  2-C ,  5-C ) :   0.7858
B(  2-C ,  7-F ) :   0.1843 B(  3-H ,  5-C ) :  -0.1242 B(  4-H ,  5-C ) :   0.1133
B(  5-C ,  6-O ) :   1.5600 B(  5-C ,  7-F ) :   0.4172 B(  8-C , 15-C ) :   0.8185
B(  8-C , 16-H ) :   1.0251 B(  8-C , 17-H ) :   0.9846 B(  9-C , 10-C ) :   0.8242
B(  9-C , 21-C ) :   0.9016 B(  9-C , 24-H ) :   0.7404 B(  9-C , 25-H ) :   1.1116
B( 10-C , 11-H ) :   1.1066 B( 10-C , 12-H ) :   0.8617 B( 15-C , 18-C ) :   0.8165
B( 15-C , 19-H ) :   1.0627 B( 15-C , 20-H ) :   0.7681 B( 18-C , 21-C ) :   0.9391
B( 18-C , 22-H ) :   0.6739 B( 18-C , 23-H ) :   1.1498 B( 21-C , 23-H ) :   0.1008
B( 21-C , 26-H ) :   1.1001 B( 21-C , 27-H ) :   1.0628

E(0)                                       ...   -564.252076416
E(0)                                       ...   -564.252076416
E(CORR)(strong-pairs)                      ...     -2.339788291
E(CORR)(weak-pairs)                        ...     -0.003733196
E(CORR)(corrected)                         ...     -2.343521487
E(TOT)                                     ...   -566.595597903
E(CCSD(T))                                 ...   -566.689874654
FINAL SINGLE POINT ENERGY      -566.689874653754

DIPOLE MOMENT
-------------
                                X             Y             Z
Electronic contribution:     12.98975      10.62569       0.18913
Nuclear contribution   :    -12.94582     -10.02064      -1.41546
                        -----------------------------------------
Total Dipole Moment    :      0.04394       0.60504      -1.22633
                        -----------------------------------------
Magnitude (a.u.)       :      1.36817
Magnitude (Debye)      :      3.47761

Rotational constants in cm-1:     0.031818     0.021788     0.014538
Rotational constants in MHz :   953.892546   653.188980   435.834604

                             ****ORCA TERMINATED NORMALLY****
TOTAL RUN TIME: 0 days 4 hours 19 minutes 42 seconds 189 msec
