                         Program Version 5.0.0 -  RELEASE  -
|  1> !DLPNO-CCSD(T) aug-cc-pVTZ aug-cc-pVTZ/C TightSCF TightPNO RIJCOSX def2/J
|  2> *xyz 0 1
|  3> C          3.91385       -1.65829        3.01513
|  4> N          5.03927       -0.90115        2.49282
|  5> C          6.21038       -1.41726        2.17824
|  6> C          6.53591       -2.67712        2.55608
|  7> N          7.07675       -0.70082        1.47891
|  8> H          7.95464       -1.12155        1.20755
|  9> H          6.75616        0.10664        0.96028
| 10> H          4.84217        0.01761        2.11519
| 11> H          5.99388       -3.12692        3.28278
| 12> H          7.49844       -2.97548        2.46878
| 13> C          3.13916       -2.37657        1.91061
| 14> H          3.26723       -0.93940        3.52069
| 15> H          4.24720       -2.35509        3.79006
| 16> C          2.39995       -1.38958        1.00949
| 17> H          2.44075       -3.08712        2.36298
| 18> H          3.84448       -2.97046        1.31868
| 19> C          2.07018       -1.93671       -0.37240
| 20> H          1.48161       -1.06154        1.50991
| 21> H          3.00863       -0.49000        0.89745
| 22> H          1.55578       -1.18868       -0.93874
| 23> H          1.44721       -2.80112       -0.27443
| 24> H          2.97578       -2.20487       -0.87527
| 25> *
| 26> %MaxCore 64000
| 27> %pal nprocs 8
| 28> end
| 29> %scf
| 30>   MaxIter 150
| 31> end
| 32>
| 33>                          ****END OF INPUT****

CARTESIAN COORDINATES (ANGSTROEM)
---------------------------------
  C      3.913850   -1.658290    3.015130
  N      5.039270   -0.901150    2.492820
  C      6.210380   -1.417260    2.178240
  C      6.535910   -2.677120    2.556080
  N      7.076750   -0.700820    1.478910
  H      7.954640   -1.121550    1.207550
  H      6.756160    0.106640    0.960280
  H      4.842170    0.017610    2.115190
  H      5.993880   -3.126920    3.282780
  H      7.498440   -2.975480    2.468780
  C      3.139160   -2.376570    1.910610
  H      3.267230   -0.939400    3.520690
  H      4.247200   -2.355090    3.790060
  C      2.399950   -1.389580    1.009490
  H      2.440750   -3.087120    2.362980
  H      3.844480   -2.970460    1.318680
  C      2.070180   -1.936710   -0.372400
  H      1.481610   -1.061540    1.509910
  H      3.008630   -0.490000    0.897450
  H      1.555780   -1.188680   -0.938740
  H      1.447210   -2.801120   -0.274430
  H      2.975780   -2.204870   -0.875270

 Total Charge           Charge          ....    0
 Multiplicity           Mult            ....    1
 Number of Electrons    NEL             ....   64
 Basis Dimension        Dim             ....  690

ORBITAL ENERGIES
----------------

  NO   OCC          E(Eh)            E(eV)
   0   2.0000     -15.564854      -423.5412
   1   2.0000     -15.563380      -423.5011
   2   2.0000     -11.290595      -307.2327
   3   2.0000     -11.258046      -306.3470
   4   2.0000     -11.217595      -305.2463
   5   2.0000     -11.212573      -305.1096
   6   2.0000     -11.203539      -304.8638
   7   2.0000     -11.127513      -302.7950
   8   2.0000      -1.293929       -35.2096
   9   2.0000      -1.189315       -32.3629
  10   2.0000      -1.069003       -29.0890
  11   2.0000      -0.987930       -26.8829
  12   2.0000      -0.961254       -26.1570
  13   2.0000      -0.877843       -23.8873
  14   2.0000      -0.807251       -21.9664
  15   2.0000      -0.759872       -20.6772
  16   2.0000      -0.732960       -19.9449
  17   2.0000      -0.701904       -19.0998
  18   2.0000      -0.649380       -17.6705
  19   2.0000      -0.608379       -16.5548
  20   2.0000      -0.603301       -16.4166
  21   2.0000      -0.590433       -16.0665
  22   2.0000      -0.560712       -15.2577
  23   2.0000      -0.551767       -15.0144
  24   2.0000      -0.532379       -14.4868
  25   2.0000      -0.521540       -14.1918
  26   2.0000      -0.510851       -13.9010
  27   2.0000      -0.477408       -12.9909
  28   2.0000      -0.468159       -12.7393
  29   2.0000      -0.463845       -12.6219
  30   2.0000      -0.393023       -10.6947
  31   2.0000      -0.264303        -7.1920
  32   0.0000       0.024122         0.6564
  33   0.0000       0.032905         0.8954
  34   0.0000       0.036649         0.9973
  35   0.0000       0.038100         1.0367
  36   0.0000       0.049048         1.3347

MULLIKEN ATOMIC CHARGES
-----------------------
   0 C :   -0.454802
   1 N :   -0.175166
   2 C :    0.865754
   3 C :   -1.352195
   4 N :   -0.651150
   5 H :    0.070539
   6 H :    0.120267
   7 H :    0.072316
   8 H :    0.599965
   9 H :    0.182647
  10 C :   -0.438939
  11 H :    0.393198
  12 H :    0.272842
  13 C :   -0.501193
  14 H :    0.334142
  15 H :    0.283511
  16 C :   -0.993809
  17 H :    0.278506
  18 H :    0.252283
  19 H :    0.307713
  20 H :    0.245970
  21 H :    0.287600
Sum of atomic charges:   -0.0000000

LOEWDIN ATOMIC CHARGES
----------------------
   0 C :    0.216264
   1 N :    0.566787
   2 C :   -0.451972
   3 C :    0.552919
   4 N :    0.857517
   5 H :   -0.270755
   6 H :   -0.277399
   7 H :   -0.269579
   8 H :   -0.336001
   9 H :   -0.314555
  10 C :    0.295609
  11 H :   -0.136280
  12 H :   -0.155285
  13 C :    0.259053
  14 H :   -0.136587
  15 H :   -0.150422
  16 C :    0.604017
  17 H :   -0.140005
  18 H :   -0.168668
  19 H :   -0.184037
  20 H :   -0.179090
  21 H :   -0.181530

  Mayer bond orders larger than 0.100000
B(  0-C ,  1-N ) :   0.9558 B(  0-C ,  2-C ) :  -0.1538 B(  0-C , 10-C ) :   0.9820
B(  0-C , 11-H ) :   0.8897 B(  0-C , 12-H ) :   0.9516 B(  1-N ,  2-C ) :   0.7183
B(  1-N ,  3-C ) :  -0.1164 B(  1-N ,  4-N ) :  -0.1500 B(  1-N ,  7-H ) :   1.0886
B(  2-C ,  3-C ) :   1.0418 B(  2-C ,  4-N ) :   0.7626 B(  2-C ,  7-H ) :  -0.1184
B(  3-C ,  8-H ) :   0.5591 B(  3-C ,  9-H ) :   1.2497 B(  4-N ,  5-H ) :   1.1645
B(  4-N ,  6-H ) :   1.0839 B( 10-C , 13-C ) :   0.8332 B( 10-C , 14-H ) :   0.8980
B( 10-C , 15-H ) :   0.9563 B( 13-C , 16-C ) :   0.8369 B( 13-C , 17-H ) :   0.9511
B( 13-C , 18-H ) :   0.9550 B( 16-C , 19-H ) :   0.9652 B( 16-C , 20-H ) :   0.9893
B( 16-C , 21-H ) :   0.9608

E(0)                                       ...   -344.340657931
E(0)                                       ...   -344.340657931
E(CORR)(strong-pairs)                      ...     -1.538197020
E(CORR)(weak-pairs)                        ...     -0.001981203
E(CORR)(corrected)                         ...     -1.540178223
E(TOT)                                     ...   -345.880836154
E(CCSD(T))                                 ...   -345.943927328
FINAL SINGLE POINT ENERGY      -345.943927328133

DIPOLE MOMENT
-------------
                                X             Y             Z
Electronic contribution:      5.50908       2.46522       2.60453
Nuclear contribution   :     -5.90648      -1.48054      -3.07066
                        -----------------------------------------
Total Dipole Moment    :     -0.39741       0.98469      -0.46614
                        -----------------------------------------
Magnitude (a.u.)       :      1.15966
Magnitude (Debye)      :      2.94763

Rotational constants in cm-1:     0.114035     0.034248     0.031313
Rotational constants in MHz :  3418.681930  1026.725061   938.749275

                             ****ORCA TERMINATED NORMALLY****
TOTAL RUN TIME: 0 days 1 hours 9 minutes 37 seconds 378 msec
