                         Program Version 5.0.0 -  RELEASE  -
|  1> !DLPNO-CCSD(T) aug-cc-pVTZ aug-cc-pVTZ/C TightSCF TightPNO RIJCOSX def2/J
|  2> *xyz 0 1
|  3> C          3.91385       -1.65829        3.01513
|  4> N          5.03927       -0.90115        2.49282
|  5> C          6.21038       -1.41726        2.17824
|  6> C          6.53591       -2.67712        2.55608
|  7> N          7.07675       -0.70082        1.47891
|  8> H          7.95464       -1.12155        1.20755
|  9> H          6.75616        0.10664        0.96028
| 10> H          4.84217        0.01761        2.11519
| 11> H          5.99388       -3.12692        3.28278
| 12> H          7.49844       -2.97548        2.46878
| 13> C          3.13916       -2.37657        1.91061
| 14> H          3.26723       -0.93940        3.52069
| 15> H          4.24720       -2.35509        3.79006
| 16> C          1.99727        0.43092       -1.39922
| 17> C          3.41275        0.37689       -1.96550
| 18> C          2.39995       -1.38958        1.00949
| 19> H          2.44075       -3.08712        2.36298
| 20> H          3.84448       -2.97046        1.31868
| 21> C          2.07018       -1.93671       -0.37240
| 22> H          1.48161       -1.06154        1.50991
| 23> H          3.00863       -0.49000        0.89745
| 24> C          1.32224       -0.93577       -1.25641
| 25> H          1.47275       -2.85090       -0.28400
| 26> H          3.00354       -2.23404       -0.86254
| 27> H          1.37644        1.05892       -2.04742
| 28> H          2.01534        0.92978       -0.42653
| 29> H          0.31665       -0.78721       -0.84828
| 30> H          1.18561       -1.37925       -2.24861
| 31> H          3.39759       -0.11102       -2.91766
| 32> H          4.04439       -0.16810       -1.29548
| 33> H          3.78910        1.37189       -2.08055
| 34> *
| 35> %MaxCore 64000
| 36> %pal nprocs 4
| 37> end
| 38> %scf
| 39>   MaxIter 150
| 40> end
| 41>
| 42>                          ****END OF INPUT****

CARTESIAN COORDINATES (ANGSTROEM)
---------------------------------
  C      3.913850   -1.658290    3.015130
  N      5.039270   -0.901150    2.492820
  C      6.210380   -1.417260    2.178240
  C      6.535910   -2.677120    2.556080
  N      7.076750   -0.700820    1.478910
  H      7.954640   -1.121550    1.207550
  H      6.756160    0.106640    0.960280
  H      4.842170    0.017610    2.115190
  H      5.993880   -3.126920    3.282780
  H      7.498440   -2.975480    2.468780
  C      3.139160   -2.376570    1.910610
  H      3.267230   -0.939400    3.520690
  H      4.247200   -2.355090    3.790060
  C      1.997270    0.430920   -1.399220
  C      3.412750    0.376890   -1.965500
  C      2.399950   -1.389580    1.009490
  H      2.440750   -3.087120    2.362980
  H      3.844480   -2.970460    1.318680
  C      2.070180   -1.936710   -0.372400
  H      1.481610   -1.061540    1.509910
  H      3.008630   -0.490000    0.897450
  C      1.322240   -0.935770   -1.256410
  H      1.472750   -2.850900   -0.284000
  H      3.003540   -2.234040   -0.862540
  H      1.376440    1.058920   -2.047420
  H      2.015340    0.929780   -0.426530
  H      0.316650   -0.787210   -0.848280
  H      1.185610   -1.379250   -2.248610
  H      3.397590   -0.111020   -2.917660
  H      4.044390   -0.168100   -1.295480
  H      3.789100    1.371890   -2.080550

 Total Charge           Charge          ....    0
 Multiplicity           Mult            ....    1
 Number of Electrons    NEL             ....   88
 Basis Dimension        Dim             ....  966

ORBITAL ENERGIES
----------------

  NO   OCC          E(Eh)            E(eV)
   0   2.0000     -15.564680      -423.5365
   1   2.0000     -15.563421      -423.5022
   2   2.0000     -11.290516      -307.2306
   3   2.0000     -11.257921      -306.3436
   4   2.0000     -11.217056      -305.2316
   5   2.0000     -11.215666      -305.1938
   6   2.0000     -11.215257      -305.1827
   7   2.0000     -11.214115      -305.1516
   8   2.0000     -11.212419      -305.1054
   9   2.0000     -11.206269      -304.9381
  10   2.0000     -11.127427      -302.7927
  11   2.0000      -1.293894       -35.2086
  12   2.0000      -1.189253       -32.3612
  13   2.0000      -1.093930       -29.7674
  14   2.0000      -1.048686       -28.5362
  15   2.0000      -0.992647       -27.0113
  16   2.0000      -0.964222       -26.2378
  17   2.0000      -0.925460       -25.1831
  18   2.0000      -0.862512       -23.4701
  19   2.0000      -0.819175       -22.2909
  20   2.0000      -0.765096       -20.8193
  21   2.0000      -0.758298       -20.6343
  22   2.0000      -0.732405       -19.9298
  23   2.0000      -0.701566       -19.0906
  24   2.0000      -0.656491       -17.8640
  25   2.0000      -0.633726       -17.2446
  26   2.0000      -0.625265       -17.0143
  27   2.0000      -0.599365       -16.3096
  28   2.0000      -0.587844       -15.9960
  29   2.0000      -0.577356       -15.7106
  30   2.0000      -0.561889       -15.2898
  31   2.0000      -0.550397       -14.9771
  32   2.0000      -0.541948       -14.7471
  33   2.0000      -0.531628       -14.4663
  34   2.0000      -0.518392       -14.1062
  35   2.0000      -0.515253       -14.0207
  36   2.0000      -0.494060       -13.4441
  37   2.0000      -0.479371       -13.0444
  38   2.0000      -0.473605       -12.8875
  39   2.0000      -0.453552       -12.3418
  40   2.0000      -0.448840       -12.2136
  41   2.0000      -0.445600       -12.1254
  42   2.0000      -0.392426       -10.6784
  43   2.0000      -0.264226        -7.1900
  44   0.0000       0.023462         0.6384
  45   0.0000       0.030548         0.8312
  46   0.0000       0.033099         0.9007
  47   0.0000       0.035062         0.9541
  48   0.0000       0.044369         1.2074

MULLIKEN ATOMIC CHARGES
-----------------------
   0 C :   -0.507603
   1 N :   -0.043563
   2 C :    0.856699
   3 C :   -1.428548
   4 N :   -0.639133
   5 H :    0.058577
   6 H :    0.131515
   7 H :    0.118043
   8 H :    0.579895
   9 H :    0.200754
  10 C :   -0.511966
  11 H :    0.282167
  12 H :    0.291199
  13 C :   -0.376315
  14 C :   -1.052168
  15 C :   -0.368294
  16 H :    0.260443
  17 H :    0.201215
  18 C :   -0.356807
  19 H :    0.289464
  20 H :    0.175251
  21 C :   -0.612770
  22 H :    0.464936
  23 H :    0.080403
  24 H :    0.384965
  25 H :    0.134380
  26 H :    0.201877
  27 H :    0.217772
  28 H :    0.190110
  29 H :    0.550943
  30 H :    0.226558
Sum of atomic charges:   -0.0000000

LOEWDIN ATOMIC CHARGES
----------------------
   0 C :    0.221025
   1 N :    0.569438
   2 C :   -0.452005
   3 C :    0.554103
   4 N :    0.857822
   5 H :   -0.270481
   6 H :   -0.277360
   7 H :   -0.267450
   8 H :   -0.335692
   9 H :   -0.314261
  10 C :    0.308558
  11 H :   -0.135266
  12 H :   -0.154638
  13 C :    0.265458
  14 C :    0.600327
  15 C :    0.270151
  16 H :   -0.134469
  17 H :   -0.147292
  18 C :    0.284860
  19 H :   -0.125841
  20 H :   -0.188598
  21 C :    0.289329
  22 H :   -0.131687
  23 H :   -0.147147
  24 H :   -0.142786
  25 H :   -0.160575
  26 H :   -0.143043
  27 H :   -0.142290
  28 H :   -0.173914
  29 H :   -0.196407
  30 H :   -0.179871

  Mayer bond orders larger than 0.100000
B(  0-C ,  1-N ) :   0.9561 B(  0-C ,  2-C ) :  -0.1658 B(  0-C , 10-C ) :   0.9620
B(  0-C , 11-H ) :   1.0036 B(  0-C , 12-H ) :   0.9260 B(  1-N ,  2-C ) :   0.6800
B(  1-N ,  3-C ) :  -0.1319 B(  1-N ,  4-N ) :  -0.1645 B(  1-N ,  7-H ) :   1.0202
B(  2-C ,  3-C ) :   1.0289 B(  2-C ,  4-N ) :   0.7447 B(  2-C ,  7-H ) :  -0.1029
B(  3-C ,  8-H ) :   0.6045 B(  3-C ,  9-H ) :   1.2275 B(  4-N ,  5-H ) :   1.1757
B(  4-N ,  6-H ) :   1.0743 B( 10-C , 15-C ) :   0.8631 B( 10-C , 16-H ) :   0.9445
B( 10-C , 17-H ) :   1.0086 B( 13-C , 14-C ) :   0.7532 B( 13-C , 21-C ) :   0.8685
B( 13-C , 24-H ) :   0.8732 B( 13-C , 25-H ) :   1.0501 B( 14-C , 25-H ) :   0.1044
B( 14-C , 28-H ) :   1.0928 B( 14-C , 29-H ) :   0.7070 B( 14-C , 30-H ) :   1.0468
B( 15-C , 18-C ) :   0.7510 B( 15-C , 19-H ) :   0.9412 B( 15-C , 20-H ) :   1.0301
B( 18-C , 21-C ) :   0.9042 B( 18-C , 22-H ) :   0.7594 B( 18-C , 23-H ) :   1.1360
B( 21-C , 26-H ) :   1.0113 B( 21-C , 27-H ) :   1.0052

E(0)                                       ...   -461.479822351
E(0)                                       ...   -461.479822351
E(CORR)(strong-pairs)                      ...     -2.101388606
E(CORR)(weak-pairs)                        ...     -0.003357629
E(CORR)(corrected)                         ...     -2.104746234
E(TOT)                                     ...   -463.584568586
E(CCSD(T))                                 ...   -463.670760285
FINAL SINGLE POINT ENERGY      -463.670760285238

DIPOLE MOMENT
-------------
                                X             Y             Z
Electronic contribution:      5.84757      -0.32156       5.84111
Nuclear contribution   :     -6.27962       1.28465      -6.33558
                        -----------------------------------------
Total Dipole Moment    :     -0.43204       0.96309      -0.49447
                        -----------------------------------------
Magnitude (a.u.)       :      1.16564
Magnitude (Debye)      :      2.96281

Rotational constants in cm-1:     0.051343     0.017277     0.014347
Rotational constants in MHz :  1539.211553   517.960470   430.117570

                             ****ORCA TERMINATED NORMALLY****
TOTAL RUN TIME: 0 days 5 hours 59 minutes 32 seconds 672 msec
