                         Program Version 5.0.0 -  RELEASE  -
|  1> !DLPNO-CCSD(T) aug-cc-pVTZ aug-cc-pVTZ/C TightSCF TightPNO RIJCOSX def2/J
|  2> *xyz 0 1
|  3> C          4.08422        1.74208       -2.11472
|  4> C          4.26524        2.50052       -0.79589
|  5> H          4.86853        3.39267       -0.98113
|  6> H          3.30764        2.82457       -0.38781
|  7> C          4.98224        1.65026        0.24742
|  8> O          4.36806        1.38927        1.31371
|  9> F          6.12892        1.23351       -0.04562
| 10> C          1.99727        0.43092       -1.39922
| 11> C          3.41275        0.37689       -1.96550
| 12> H          4.04741       -0.24659       -1.32671
| 13> H          3.39077       -0.11872       -2.94284
| 14> H          5.06847        1.59850       -2.56573
| 15> H          3.50336        2.36394       -2.80457
| 16> C          2.39995       -1.38958        1.00949
| 17> C          2.07018       -1.93671       -0.37240
| 18> C          1.32224       -0.93577       -1.25641
| 19> H          1.47275       -2.85090       -0.28400
| 20> H          3.00354       -2.23404       -0.86254
| 21> H          1.37644        1.05892       -2.04742
| 22> H          2.01534        0.92978       -0.42653
| 23> H          0.31665       -0.78721       -0.84828
| 24> H          1.18561       -1.37925       -2.24861
| 25> H          2.98295       -0.49786        0.91024
| 26> H          2.95620       -2.12008        1.55891
| 27> H          1.49248       -1.16626        1.53057
| 28> *
| 29> %MaxCore 64000
| 30> %pal nprocs 8
| 31> end
| 32> %scf
| 33>   MaxIter 150
| 34> end
| 35>
| 36>                          ****END OF INPUT****

CARTESIAN COORDINATES (ANGSTROEM)
---------------------------------
  C      4.084220    1.742080   -2.114720
  C      4.265240    2.500520   -0.795890
  H      4.868530    3.392670   -0.981130
  H      3.307640    2.824570   -0.387810
  C      4.982240    1.650260    0.247420
  O      4.368060    1.389270    1.313710
  F      6.128920    1.233510   -0.045620
  C      1.997270    0.430920   -1.399220
  C      3.412750    0.376890   -1.965500
  H      4.047410   -0.246590   -1.326710
  H      3.390770   -0.118720   -2.942840
  H      5.068470    1.598500   -2.565730
  H      3.503360    2.363940   -2.804570
  C      2.399950   -1.389580    1.009490
  C      2.070180   -1.936710   -0.372400
  C      1.322240   -0.935770   -1.256410
  H      1.472750   -2.850900   -0.284000
  H      3.003540   -2.234040   -0.862540
  H      1.376440    1.058920   -2.047420
  H      2.015340    0.929780   -0.426530
  H      0.316650   -0.787210   -0.848280
  H      1.185610   -1.379250   -2.248610
  H      2.982950   -0.497860    0.910240
  H      2.956200   -2.120080    1.558910
  H      1.492480   -1.166260    1.530570

 Total Charge           Charge          ....    0
 Multiplicity           Mult            ....    1
 Number of Electrons    NEL             ....   80
 Basis Dimension        Dim             ....  805

ORBITAL ENERGIES
----------------

  NO   OCC          E(Eh)            E(eV)
   0   2.0000     -26.377205      -717.7603
   1   2.0000     -20.563148      -559.5517
   2   2.0000     -11.430282      -311.0338
   3   2.0000     -11.258505      -306.3595
   4   2.0000     -11.243160      -305.9419
   5   2.0000     -11.227702      -305.5213
   6   2.0000     -11.217722      -305.2497
   7   2.0000     -11.213665      -305.1394
   8   2.0000     -11.208185      -304.9902
   9   2.0000     -11.186608      -304.4031
  10   2.0000      -1.731792       -47.1245
  11   2.0000      -1.374270       -37.3958
  12   2.0000      -1.112262       -30.2662
  13   2.0000      -1.070491       -29.1296
  14   2.0000      -1.010028       -27.4843
  15   2.0000      -0.952203       -25.9108
  16   2.0000      -0.904340       -24.6083
  17   2.0000      -0.871503       -23.7148
  18   2.0000      -0.819851       -22.3093
  19   2.0000      -0.778478       -21.1835
  20   2.0000      -0.770438       -20.9647
  21   2.0000      -0.754253       -20.5243
  22   2.0000      -0.698520       -19.0077
  23   2.0000      -0.655063       -17.8252
  24   2.0000      -0.642516       -17.4837
  25   2.0000      -0.617949       -16.8153
  26   2.0000      -0.607777       -16.5385
  27   2.0000      -0.585072       -15.9206
  28   2.0000      -0.567812       -15.4510
  29   2.0000      -0.541489       -14.7347
  30   2.0000      -0.539044       -14.6681
  31   2.0000      -0.532374       -14.4866
  32   2.0000      -0.516590       -14.0571
  33   2.0000      -0.496001       -13.4969
  34   2.0000      -0.481196       -13.0940
  35   2.0000      -0.475352       -12.9350
  36   2.0000      -0.459368       -12.5000
  37   2.0000      -0.450091       -12.2476
  38   2.0000      -0.446533       -12.1508
  39   2.0000      -0.444265       -12.0891
  40   0.0000       0.024754         0.6736
  41   0.0000       0.032076         0.8728
  42   0.0000       0.034161         0.9296
  43   0.0000       0.038955         1.0600
  44   0.0000       0.048150         1.3102

MULLIKEN ATOMIC CHARGES
-----------------------
   0 C :   -0.574404
   1 C :   -0.298891
   2 H :    0.429493
   3 H :    0.146228
   4 C :    0.877860
   5 O :   -0.803559
   6 F :   -0.420905
   7 C :   -0.315542
   8 C :   -0.352528
   9 H :    0.089325
  10 H :    0.372931
  11 H :    0.163609
  12 H :    0.232814
  13 C :   -0.994973
  14 C :   -0.379597
  15 C :   -0.630324
  16 H :    0.415102
  17 H :    0.148637
  18 H :    0.451183
  19 H :    0.164382
  20 H :    0.195039
  21 H :    0.171937
  22 H :    0.427578
  23 H :    0.238025
  24 H :    0.246578
Sum of atomic charges:    0.0000000

LOEWDIN ATOMIC CHARGES
----------------------
   0 C :    0.283025
   1 C :    0.267447
   2 H :   -0.152333
   3 H :   -0.164519
   4 C :   -0.913125
   5 O :    0.422081
   6 F :    0.599283
   7 C :    0.280506
   8 C :    0.276925
   9 H :   -0.164635
  10 H :   -0.125849
  11 H :   -0.147602
  12 H :   -0.134238
  13 C :    0.599456
  14 C :    0.266409
  15 C :    0.293601
  16 H :   -0.141980
  17 H :   -0.154565
  18 H :   -0.132795
  19 H :   -0.168922
  20 H :   -0.141035
  21 H :   -0.143517
  22 H :   -0.261049
  23 H :   -0.173013
  24 H :   -0.169559

  Mayer bond orders larger than 0.100000
B(  0-C ,  1-C ) :   0.9435 B(  0-C ,  4-C ) :   0.1316 B(  0-C ,  8-C ) :   0.8457
B(  0-C , 11-H ) :   1.0509 B(  0-C , 12-H ) :   0.9429 B(  1-C ,  2-H ) :   0.8662
B(  1-C ,  3-H ) :   1.0257 B(  1-C ,  4-C ) :   0.7810 B(  1-C ,  6-F ) :   0.1789
B(  2-H ,  4-C ) :  -0.1211 B(  3-H ,  4-C ) :   0.1191 B(  4-C ,  5-O ) :   1.5705
B(  4-C ,  6-F ) :   0.5556 B(  7-C ,  8-C ) :   0.8438 B(  7-C , 15-C ) :   0.8890
B(  7-C , 18-H ) :   0.7583 B(  7-C , 19-H ) :   1.0968 B(  8-C ,  9-H ) :   1.0908
B(  8-C , 10-H ) :   0.8360 B( 13-C , 14-C ) :   0.7778 B( 13-C , 22-H ) :   0.8225
B( 13-C , 23-H ) :   1.0397 B( 13-C , 24-H ) :   1.0011 B( 14-C , 15-C ) :   0.9232
B( 14-C , 16-H ) :   0.8297 B( 14-C , 17-H ) :   1.0553 B( 15-C , 20-H ) :   1.0349
B( 15-C , 21-H ) :   1.0315

E(0)                                       ...   -486.158848199
E(0)                                       ...   -486.158848199
E(CORR)(strong-pairs)                      ...     -1.964667728
E(CORR)(weak-pairs)                        ...     -0.002730097
E(CORR)(corrected)                         ...     -1.967397825
E(TOT)                                     ...   -488.126246023
E(CCSD(T))                                 ...   -488.205137260
FINAL SINGLE POINT ENERGY      -488.205137259694

DIPOLE MOMENT
-------------
                                X             Y             Z
Electronic contribution:     14.20764       7.73378       4.98589
Nuclear contribution   :    -14.17722      -7.21883      -6.19767
                        -----------------------------------------
Total Dipole Moment    :      0.03042       0.51495      -1.21178
                        -----------------------------------------
Magnitude (a.u.)       :      1.31701
Magnitude (Debye)      :      3.34757

Rotational constants in cm-1:     0.058683     0.027390     0.021841
Rotational constants in MHz :  1759.272809   821.139052   654.772408

                             ****ORCA TERMINATED NORMALLY****
TOTAL RUN TIME: 0 days 2 hours 24 minutes 54 seconds 35 msec
