                         Program Version 5.0.0 -  RELEASE  -
|  1> !DLPNO-CCSD(T) aug-cc-pVTZ aug-cc-pVTZ/C TightSCF TightPNO RIJCOSX def2/J
|  2> *xyz 0 1
|  3> C          3.91385       -1.65829        3.01513
|  4> N          5.03927       -0.90115        2.49282
|  5> C          6.21038       -1.41726        2.17824
|  6> C          6.53591       -2.67712        2.55608
|  7> N          7.07675       -0.70082        1.47891
|  8> H          7.95464       -1.12155        1.20755
|  9> H          6.75616        0.10664        0.96028
| 10> H          4.84217        0.01761        2.11519
| 11> H          5.99388       -3.12692        3.28278
| 12> H          7.49844       -2.97548        2.46878
| 13> C          3.13916       -2.37657        1.91061
| 14> H          3.26723       -0.93940        3.52069
| 15> H          4.24720       -2.35509        3.79006
| 16> C          1.99727        0.43092       -1.39922
| 17> C          2.39995       -1.38958        1.00949
| 18> H          2.44075       -3.08712        2.36298
| 19> H          3.84448       -2.97046        1.31868
| 20> C          2.07018       -1.93671       -0.37240
| 21> H          1.48161       -1.06154        1.50991
| 22> H          3.00863       -0.49000        0.89745
| 23> C          1.32224       -0.93577       -1.25641
| 24> H          1.47275       -2.85090       -0.28400
| 25> H          3.00354       -2.23404       -0.86254
| 26> H          0.31665       -0.78721       -0.84828
| 27> H          1.18561       -1.37925       -2.24861
| 28> H          1.40357        1.05764       -2.03139
| 29> H          2.96811        0.30580       -1.83133
| 30> H          2.09191        0.88450       -0.43475
| 31> *
| 32> %MaxCore 64000
| 33> %pal nprocs 8
| 34> end
| 35> %scf
| 36>   MaxIter 150
| 37> end
| 38>
| 39>                          ****END OF INPUT****

CARTESIAN COORDINATES (ANGSTROEM)
---------------------------------
  C      3.913850   -1.658290    3.015130
  N      5.039270   -0.901150    2.492820
  C      6.210380   -1.417260    2.178240
  C      6.535910   -2.677120    2.556080
  N      7.076750   -0.700820    1.478910
  H      7.954640   -1.121550    1.207550
  H      6.756160    0.106640    0.960280
  H      4.842170    0.017610    2.115190
  H      5.993880   -3.126920    3.282780
  H      7.498440   -2.975480    2.468780
  C      3.139160   -2.376570    1.910610
  H      3.267230   -0.939400    3.520690
  H      4.247200   -2.355090    3.790060
  C      1.997270    0.430920   -1.399220
  C      2.399950   -1.389580    1.009490
  H      2.440750   -3.087120    2.362980
  H      3.844480   -2.970460    1.318680
  C      2.070180   -1.936710   -0.372400
  H      1.481610   -1.061540    1.509910
  H      3.008630   -0.490000    0.897450
  C      1.322240   -0.935770   -1.256410
  H      1.472750   -2.850900   -0.284000
  H      3.003540   -2.234040   -0.862540
  H      0.316650   -0.787210   -0.848280
  H      1.185610   -1.379250   -2.248610
  H      1.403570    1.057640   -2.031390
  H      2.968110    0.305800   -1.831330
  H      2.091910    0.884500   -0.434750

 Total Charge           Charge          ....    0
 Multiplicity           Mult            ....    1
 Number of Electrons    NEL             ....   80
 Basis Dimension        Dim             ....  874

ORBITAL ENERGIES
----------------

  NO   OCC          E(Eh)            E(eV)
   0   2.0000     -15.564695      -423.5369
   1   2.0000     -15.563262      -423.4979
   2   2.0000     -11.290441      -307.2285
   3   2.0000     -11.257827      -306.3411
   4   2.0000     -11.216555      -305.2180
   5   2.0000     -11.215589      -305.1917
   6   2.0000     -11.214524      -305.1627
   7   2.0000     -11.212329      -305.1030
   8   2.0000     -11.205517      -304.9176
   9   2.0000     -11.127355      -302.7907
  10   2.0000      -1.293785       -35.2057
  11   2.0000      -1.189176       -32.3591
  12   2.0000      -1.087533       -29.5933
  13   2.0000      -1.034387       -28.1471
  14   2.0000      -0.972573       -26.4651
  15   2.0000      -0.955456       -25.9993
  16   2.0000      -0.891565       -24.2607
  17   2.0000      -0.826791       -22.4981
  18   2.0000      -0.778192       -21.1757
  19   2.0000      -0.760097       -20.6833
  20   2.0000      -0.732704       -19.9379
  21   2.0000      -0.701539       -19.0898
  22   2.0000      -0.652485       -17.7550
  23   2.0000      -0.622392       -16.9361
  24   2.0000      -0.619730       -16.8637
  25   2.0000      -0.597263       -16.2524
  26   2.0000      -0.581301       -15.8180
  27   2.0000      -0.574379       -15.6296
  28   2.0000      -0.553935       -15.0733
  29   2.0000      -0.538433       -14.6515
  30   2.0000      -0.526761       -14.3339
  31   2.0000      -0.522482       -14.2175
  32   2.0000      -0.515425       -14.0254
  33   2.0000      -0.489243       -13.3130
  34   2.0000      -0.478680       -13.0255
  35   2.0000      -0.458034       -12.4637
  36   2.0000      -0.455635       -12.3985
  37   2.0000      -0.449405       -12.2289
  38   2.0000      -0.392344       -10.6762
  39   2.0000      -0.264142        -7.1877
  40   0.0000       0.023303         0.6341
  41   0.0000       0.031472         0.8564
  42   0.0000       0.033379         0.9083
  43   0.0000       0.035969         0.9788
  44   0.0000       0.045888         1.2487

MULLIKEN ATOMIC CHARGES
-----------------------
   0 C :   -0.494924
   1 N :   -0.112086
   2 C :    0.794861
   3 C :   -1.358880
   4 N :   -0.643332
   5 H :    0.063828
   6 H :    0.116850
   7 H :    0.151460
   8 H :    0.582503
   9 H :    0.188912
  10 C :   -0.502736
  11 H :    0.300526
  12 H :    0.316919
  13 C :   -0.974220
  14 C :   -0.345881
  15 H :    0.284632
  16 H :    0.212126
  17 C :   -0.453259
  18 H :    0.269501
  19 H :    0.255075
  20 C :   -0.465755
  21 H :    0.219610
  22 H :    0.236763
  23 H :    0.213100
  24 H :    0.283182
  25 H :    0.258648
  26 H :    0.269038
  27 H :    0.333536
Sum of atomic charges:   -0.0000000

LOEWDIN ATOMIC CHARGES
----------------------
   0 C :    0.220113
   1 N :    0.568806
   2 C :   -0.451438
   3 C :    0.553579
   4 N :    0.857599
   5 H :   -0.270701
   6 H :   -0.277406
   7 H :   -0.267682
   8 H :   -0.335853
   9 H :   -0.314494
  10 C :    0.306184
  11 H :   -0.135539
  12 H :   -0.154770
  13 C :    0.600387
  14 C :    0.267687
  15 H :   -0.134847
  16 H :   -0.148314
  17 C :    0.285803
  18 H :   -0.127859
  19 H :   -0.186109
  20 C :    0.274425
  21 H :   -0.135185
  22 H :   -0.140611
  23 H :   -0.147121
  24 H :   -0.146549
  25 H :   -0.180620
  26 H :   -0.177462
  27 H :   -0.202023

  Mayer bond orders larger than 0.100000
B(  0-C ,  1-N ) :   0.9686 B(  0-C ,  2-C ) :  -0.1695 B(  0-C , 10-C ) :   0.9694
B(  0-C , 11-H ) :   0.9888 B(  0-C , 12-H ) :   0.9102 B(  1-N ,  2-C ) :   0.7119
B(  1-N ,  3-C ) :  -0.1116 B(  1-N ,  4-N ) :  -0.1696 B(  1-N ,  7-H ) :   1.0023
B(  2-C ,  3-C ) :   1.0463 B(  2-C ,  4-N ) :   0.7821 B(  2-C ,  7-H ) :  -0.1278
B(  3-C ,  4-N ) :  -0.1137 B(  3-C ,  8-H ) :   0.5997 B(  3-C ,  9-H ) :   1.2354
B(  4-N ,  5-H ) :   1.1661 B(  4-N ,  6-H ) :   1.0909 B( 10-C , 14-C ) :   0.8713
B( 10-C , 15-H ) :   0.9438 B( 10-C , 16-H ) :   0.9929 B( 13-C , 20-C ) :   0.8007
B( 13-C , 25-H ) :   1.0324 B( 13-C , 26-H ) :   0.9601 B( 13-C , 27-H ) :   0.8996
B( 14-C , 17-C ) :   0.7875 B( 14-C , 18-H ) :   0.9759 B( 14-C , 19-H ) :   0.9536
B( 17-C , 20-C ) :   0.9232 B( 17-C , 21-H ) :   0.9642 B( 17-C , 22-H ) :   0.9843
B( 20-C , 23-H ) :   0.9891 B( 20-C , 24-H ) :   0.9519

E(0)                                       ...   -422.433500439
E(0)                                       ...   -422.433500439
E(CORR)(strong-pairs)                      ...     -1.913017614
E(CORR)(weak-pairs)                        ...     -0.002824743
E(CORR)(corrected)                         ...     -1.915842357
E(TOT)                                     ...   -424.349342797
E(CCSD(T))                                 ...   -424.427757715
FINAL SINGLE POINT ENERGY      -424.427757715075

DIPOLE MOMENT
-------------
                                X             Y             Z
Electronic contribution:      6.84370       0.06204       4.81061
Nuclear contribution   :     -7.26201       0.89307      -5.30104
                        -----------------------------------------
Total Dipole Moment    :     -0.41831       0.95511      -0.49043
                        -----------------------------------------
Magnitude (a.u.)       :      1.15228
Magnitude (Debye)      :      2.92886

Rotational constants in cm-1:     0.068783     0.019012     0.016740
Rotational constants in MHz :  2062.054748   569.977685   501.845947

                             ****ORCA TERMINATED NORMALLY****
TOTAL RUN TIME: 0 days 2 hours 23 minutes 46 seconds 639 msec
