                         Program Version 5.0.0 -  RELEASE  -
|  1> !DLPNO-CCSD(T) aug-cc-pVTZ aug-cc-pVTZ/C TightSCF TightPNO RIJCOSX def2/J
|  2> *xyz 0 1
|  3> C          4.08422        1.74208       -2.11472
|  4> C          4.26524        2.50052       -0.79589
|  5> H          4.86853        3.39267       -0.98113
|  6> H          3.30764        2.82457       -0.38781
|  7> C          4.98224        1.65026        0.24742
|  8> O          4.36806        1.38927        1.31371
|  9> F          6.12892        1.23351       -0.04562
| 10> C          1.99727        0.43092       -1.39922
| 11> C          3.41275        0.37689       -1.96550
| 12> H          4.04741       -0.24659       -1.32671
| 13> H          3.39077       -0.11872       -2.94284
| 14> H          5.06847        1.59850       -2.56573
| 15> H          3.50336        2.36394       -2.80457
| 16> C          1.32224       -0.93577       -1.25641
| 17> H          1.37644        1.05892       -2.04742
| 18> H          2.01534        0.92978       -0.42653
| 19> H          1.30366       -1.42552       -2.20757
| 20> H          0.32075       -0.80379       -0.90357
| 21> H          1.87053       -1.53318       -0.55828
| 22> *
| 23> %MaxCore 64000
| 24> %pal nprocs 8
| 25> end
| 26> %scf
| 27>   MaxIter 150
| 28> end
| 29>
| 30>                          ****END OF INPUT****

CARTESIAN COORDINATES (ANGSTROEM)
---------------------------------
  C      4.084220    1.742080   -2.114720
  C      4.265240    2.500520   -0.795890
  H      4.868530    3.392670   -0.981130
  H      3.307640    2.824570   -0.387810
  C      4.982240    1.650260    0.247420
  O      4.368060    1.389270    1.313710
  F      6.128920    1.233510   -0.045620
  C      1.997270    0.430920   -1.399220
  C      3.412750    0.376890   -1.965500
  H      4.047410   -0.246590   -1.326710
  H      3.390770   -0.118720   -2.942840
  H      5.068470    1.598500   -2.565730
  H      3.503360    2.363940   -2.804570
  C      1.322240   -0.935770   -1.256410
  H      1.376440    1.058920   -2.047420
  H      2.015340    0.929780   -0.426530
  H      1.303660   -1.425520   -2.207570
  H      0.320750   -0.803790   -0.903570
  H      1.870530   -1.533180   -0.558280

 Total Charge           Charge          ....    0
 Multiplicity           Mult            ....    1
 Number of Electrons    NEL             ....   64
 Basis Dimension        Dim             ....  621

ORBITAL ENERGIES
----------------

  NO   OCC          E(Eh)            E(eV)
   0   2.0000     -26.375571      -717.7158
   1   2.0000     -20.561369      -559.5033
   2   2.0000     -11.428243      -310.9783
   3   2.0000     -11.257498      -306.3321
   4   2.0000     -11.242834      -305.9331
   5   2.0000     -11.228241      -305.5360
   6   2.0000     -11.219794      -305.3061
   7   2.0000     -11.205197      -304.9089
   8   2.0000      -1.730152       -47.0798
   9   2.0000      -1.371392       -37.3175
  10   2.0000      -1.109121       -30.1807
  11   2.0000      -1.045667       -28.4540
  12   2.0000      -0.967510       -26.3273
  13   2.0000      -0.903530       -24.5863
  14   2.0000      -0.857460       -23.3327
  15   2.0000      -0.799715       -21.7614
  16   2.0000      -0.771654       -20.9978
  17   2.0000      -0.767089       -20.8736
  18   2.0000      -0.696076       -18.9412
  19   2.0000      -0.651896       -17.7390
  20   2.0000      -0.637156       -17.3379
  21   2.0000      -0.604929       -16.4609
  22   2.0000      -0.588343       -16.0096
  23   2.0000      -0.573578       -15.6079
  24   2.0000      -0.547994       -14.9117
  25   2.0000      -0.525630       -14.3031
  26   2.0000      -0.517523       -14.0825
  27   2.0000      -0.496606       -13.5133
  28   2.0000      -0.473590       -12.8871
  29   2.0000      -0.470192       -12.7946
  30   2.0000      -0.465560       -12.6685
  31   2.0000      -0.452087       -12.3019
  32   0.0000       0.025893         0.7046
  33   0.0000       0.033603         0.9144
  34   0.0000       0.035472         0.9652
  35   0.0000       0.041956         1.1417
  36   0.0000       0.051876         1.4116

MULLIKEN ATOMIC CHARGES
-----------------------
   0 C :   -0.454128
   1 C :   -0.309882
   2 H :    0.398197
   3 H :    0.187269
   4 C :    0.837535
   5 O :   -0.777399
   6 F :   -0.374021
   7 C :   -0.446164
   8 C :   -0.396678
   9 H :    0.146923
  10 H :    0.362029
  11 H :    0.181676
  12 H :    0.262740
  13 C :   -0.977520
  14 H :    0.209186
  15 H :    0.313605
  16 H :    0.283810
  17 H :    0.256861
  18 H :    0.295960
Sum of atomic charges:    0.0000000

LOEWDIN ATOMIC CHARGES
----------------------
   0 C :    0.274915
   1 C :    0.259919
   2 H :   -0.153349
   3 H :   -0.167403
   4 C :   -0.930641
   5 O :    0.394967
   6 F :    0.595155
   7 C :    0.263927
   8 C :    0.270975
   9 H :   -0.151726
  10 H :   -0.135387
  11 H :   -0.149020
  12 H :   -0.135418
  13 C :    0.611062
  14 H :   -0.140880
  15 H :   -0.160980
  16 H :   -0.184134
  17 H :   -0.182233
  18 H :   -0.179748

  Mayer bond orders larger than 0.100000
B(  0-C ,  1-C ) :   0.9179 B(  0-C ,  4-C ) :   0.1094 B(  0-C ,  8-C ) :   0.8257
B(  0-C , 11-H ) :   1.0214 B(  0-C , 12-H ) :   0.9063 B(  1-C ,  2-H ) :   0.8883
B(  1-C ,  3-H ) :   0.9975 B(  1-C ,  4-C ) :   0.7915 B(  1-C ,  6-F ) :   0.1356
B(  3-H ,  4-C ) :   0.1022 B(  4-C ,  5-O ) :   1.5163 B(  4-C ,  6-F ) :   0.6859
B(  7-C ,  8-C ) :   0.8637 B(  7-C , 13-C ) :   0.8075 B(  7-C , 14-H ) :   1.0059
B(  7-C , 15-H ) :   0.8992 B(  8-C ,  9-H ) :   1.0163 B(  8-C , 10-H ) :   0.8599
B( 13-C , 16-H ) :   0.9549 B( 13-C , 17-H ) :   1.0247 B( 13-C , 18-H ) :   0.9454

E(0)                                       ...   -408.069383316
E(0)                                       ...   -408.069383316
E(CORR)(strong-pairs)                      ...     -1.586615561
E(CORR)(weak-pairs)                        ...     -0.001853295
E(CORR)(corrected)                         ...     -1.588468856
E(TOT)                                     ...   -409.657852172
E(CCSD(T))                                 ...   -409.720965361
FINAL SINGLE POINT ENERGY      -409.720965361174

DIPOLE MOMENT
-------------
                                X             Y             Z
Electronic contribution:     12.95416       3.85012       8.03003
Nuclear contribution   :    -12.98236      -3.37383      -9.29109
                        -----------------------------------------
Total Dipole Moment    :     -0.02820       0.47629      -1.26106
                        -----------------------------------------
Magnitude (a.u.)       :      1.34830
Magnitude (Debye)      :      3.42711

Rotational constants in cm-1:     0.103537     0.037871     0.033299
Rotational constants in MHz :  3103.957894  1135.332996   998.290247

                             ****ORCA TERMINATED NORMALLY****
TOTAL RUN TIME: 0 days 0 hours 51 minutes 53 seconds 879 msec
