                         Program Version 5.0.0 -  RELEASE  -
|  1> !DLPNO-CCSD(T) aug-cc-pVTZ aug-cc-pVTZ/C TightSCF TightPNO RIJCOSX def2/J
|  2> *xyz 0 1
|  3> C          4.08422        1.74208       -2.11472
|  4> C          4.26524        2.50052       -0.79589
|  5> H          4.86853        3.39267       -0.98113
|  6> H          3.30764        2.82457       -0.38781
|  7> C          4.98224        1.65026        0.24742
|  8> O          4.36806        1.38927        1.31371
|  9> F          6.12892        1.23351       -0.04562
| 10> C          1.99727        0.43092       -1.39922
| 11> C          3.41275        0.37689       -1.96550
| 12> H          4.04741       -0.24659       -1.32671
| 13> H          3.39077       -0.11872       -2.94284
| 14> H          5.06847        1.59850       -2.56573
| 15> H          3.50336        2.36394       -2.80457
| 16> C          2.07018       -1.93671       -0.37240
| 17> C          1.32224       -0.93577       -1.25641
| 18> H          1.37644        1.05892       -2.04742
| 19> H          2.01534        0.92978       -0.42653
| 20> H          0.31665       -0.78721       -0.84828
| 21> H          1.18561       -1.37925       -2.24861
| 22> H          3.05500       -2.09002       -0.76167
| 23> H          1.54206       -2.86723       -0.36163
| 24> H          2.13634       -1.55260        0.62409
| 25> *
| 26> %MaxCore 64000
| 27> %pal nprocs 8
| 28> end
| 29> %scf
| 30>   MaxIter 150
| 31> end
| 32>
| 33>                          ****END OF INPUT****

CARTESIAN COORDINATES (ANGSTROEM)
---------------------------------
  C      4.084220    1.742080   -2.114720
  C      4.265240    2.500520   -0.795890
  H      4.868530    3.392670   -0.981130
  H      3.307640    2.824570   -0.387810
  C      4.982240    1.650260    0.247420
  O      4.368060    1.389270    1.313710
  F      6.128920    1.233510   -0.045620
  C      1.997270    0.430920   -1.399220
  C      3.412750    0.376890   -1.965500
  H      4.047410   -0.246590   -1.326710
  H      3.390770   -0.118720   -2.942840
  H      5.068470    1.598500   -2.565730
  H      3.503360    2.363940   -2.804570
  C      2.070180   -1.936710   -0.372400
  C      1.322240   -0.935770   -1.256410
  H      1.376440    1.058920   -2.047420
  H      2.015340    0.929780   -0.426530
  H      0.316650   -0.787210   -0.848280
  H      1.185610   -1.379250   -2.248610
  H      3.055000   -2.090020   -0.761670
  H      1.542060   -2.867230   -0.361630
  H      2.136340   -1.552600    0.624090

 Total Charge           Charge          ....    0
 Multiplicity           Mult            ....    1
 Number of Electrons    NEL             ....   72
 Basis Dimension        Dim             ....  713

ORBITAL ENERGIES
----------------

  NO   OCC          E(Eh)            E(eV)
   0   2.0000     -26.375567      -717.7157
   1   2.0000     -20.561371      -559.5033
   2   2.0000     -11.428267      -310.9790
   3   2.0000     -11.257433      -306.3303
   4   2.0000     -11.242646      -305.9279
   5   2.0000     -11.227390      -305.5128
   6   2.0000     -11.218395      -305.2681
   7   2.0000     -11.216478      -305.2159
   8   2.0000     -11.199360      -304.7501
   9   2.0000      -1.730156       -47.0799
  10   2.0000      -1.371432       -37.3186
  11   2.0000      -1.110652       -30.2224
  12   2.0000      -1.060486       -28.8573
  13   2.0000      -0.992087       -26.9960
  14   2.0000      -0.925674       -25.1889
  15   2.0000      -0.892729       -24.2924
  16   2.0000      -0.834167       -22.6988
  17   2.0000      -0.784829       -21.3563
  18   2.0000      -0.770407       -20.9638
  19   2.0000      -0.764455       -20.8019
  20   2.0000      -0.696162       -18.9435
  21   2.0000      -0.649908       -17.6849
  22   2.0000      -0.640600       -17.4316
  23   2.0000      -0.611814       -16.6483
  24   2.0000      -0.602784       -16.4026
  25   2.0000      -0.579380       -15.7657
  26   2.0000      -0.554319       -15.0838
  27   2.0000      -0.551598       -15.0097
  28   2.0000      -0.521239       -14.1836
  29   2.0000      -0.510492       -13.8912
  30   2.0000      -0.501048       -13.6342
  31   2.0000      -0.487585       -13.2679
  32   2.0000      -0.464465       -12.6387
  33   2.0000      -0.458751       -12.4832
  34   2.0000      -0.455371       -12.3913
  35   2.0000      -0.449635       -12.2352
  36   0.0000       0.025459         0.6928
  37   0.0000       0.032747         0.8911
  38   0.0000       0.034644         0.9427
  39   0.0000       0.039966         1.0875
  40   0.0000       0.049716         1.3528

MULLIKEN ATOMIC CHARGES
-----------------------
   0 C :   -0.525000
   1 C :   -0.343186
   2 H :    0.401765
   3 H :    0.190714
   4 C :    0.876085
   5 O :   -0.796685
   6 F :   -0.386430
   7 C :   -0.380190
   8 C :   -0.394117
   9 H :    0.136200
  10 H :    0.409028
  11 H :    0.177352
  12 H :    0.246099
  13 C :   -0.988274
  14 C :   -0.471498
  15 H :    0.207056
  16 H :    0.308092
  17 H :    0.280407
  18 H :    0.201300
  19 H :    0.308669
  20 H :    0.274100
  21 H :    0.268513
Sum of atomic charges:   -0.0000000

LOEWDIN ATOMIC CHARGES
----------------------
   0 C :    0.279877
   1 C :    0.261928
   2 H :   -0.153143
   3 H :   -0.166689
   4 C :   -0.929449
   5 O :    0.396370
   6 F :    0.595801
   7 C :    0.281331
   8 C :    0.271503
   9 H :   -0.169016
  10 H :   -0.127800
  11 H :   -0.148105
  12 H :   -0.134938
  13 C :    0.604826
  14 C :    0.278773
  15 H :   -0.137234
  16 H :   -0.157786
  17 H :   -0.145447
  18 H :   -0.147011
  19 H :   -0.198332
  20 H :   -0.180858
  21 H :   -0.174603

  Mayer bond orders larger than 0.100000
B(  0-C ,  1-C ) :   0.9320 B(  0-C ,  4-C ) :   0.1183 B(  0-C ,  8-C ) :   0.8447
B(  0-C , 11-H ) :   1.0295 B(  0-C , 12-H ) :   0.9379 B(  1-C ,  2-H ) :   0.8866
B(  1-C ,  3-H ) :   1.0010 B(  1-C ,  4-C ) :   0.8104 B(  1-C ,  6-F ) :   0.1580
B(  4-C ,  5-O ) :   1.5162 B(  4-C ,  6-F ) :   0.6358 B(  7-C ,  8-C ) :   0.8747
B(  7-C , 14-C ) :   0.9147 B(  7-C , 15-H ) :   0.9832 B(  7-C , 16-H ) :   0.9109
B(  8-C ,  9-H ) :   1.0405 B(  8-C , 10-H ) :   0.8147 B( 13-C , 14-C ) :   0.8216
B( 13-C , 19-H ) :   0.9352 B( 13-C , 20-H ) :   1.0060 B( 13-C , 21-H ) :   0.9667
B( 14-C , 17-H ) :   0.9670 B( 14-C , 18-H ) :   0.9996

E(0)                                       ...   -447.114968623
E(0)                                       ...   -447.114968623
E(CORR)(strong-pairs)                      ...     -1.774564366
E(CORR)(weak-pairs)                        ...     -0.002257018
E(CORR)(corrected)                         ...     -1.776821384
E(TOT)                                     ...   -448.891790008
E(CCSD(T))                                 ...   -448.962634634
FINAL SINGLE POINT ENERGY      -448.962634633975

DIPOLE MOMENT
-------------
                                X             Y             Z
Electronic contribution:     13.66995       6.74395       7.11948
Nuclear contribution   :    -13.70050      -6.28176      -8.36052
                        -----------------------------------------
Total Dipole Moment    :     -0.03055       0.46219      -1.24103
                        -----------------------------------------
Magnitude (a.u.)       :      1.32466
Magnitude (Debye)      :      3.36701

Rotational constants in cm-1:     0.076721     0.029977     0.025728
Rotational constants in MHz :  2300.037836   898.696292   771.310985

                             ****ORCA TERMINATED NORMALLY****
TOTAL RUN TIME: 0 days 1 hours 30 minutes 5 seconds 789 msec
