                         Program Version 5.0.0 -  RELEASE  -
|  1> !DLPNO-CCSD(T) aug-cc-pVTZ aug-cc-pVTZ/C TightSCF TightPNO RIJCOSX def2/J
|  2> *xyz 0 1
|  3> C          4.08422        1.74208       -2.11472
|  4> C          4.26524        2.50052       -0.79589
|  5> H          4.86853        3.39267       -0.98113
|  6> H          3.30764        2.82457       -0.38781
|  7> C          4.98224        1.65026        0.24742
|  8> O          4.36806        1.38927        1.31371
|  9> F          6.12892        1.23351       -0.04562
| 10> C          1.99727        0.43092       -1.39922
| 11> C          3.41275        0.37689       -1.96550
| 12> H          4.04741       -0.24659       -1.32671
| 13> H          3.39077       -0.11872       -2.94284
| 14> H          5.06847        1.59850       -2.56573
| 15> H          3.50336        2.36394       -2.80457
| 16> H          1.38433        1.04154       -2.02878
| 17> H          2.02294        0.84749       -0.41397
| 18> H          1.59172       -0.55838       -1.35771
| 19> *
| 20> %MaxCore 64000
| 21> %pal nprocs 8
| 22> end
| 23> %scf
| 24>   MaxIter 150
| 25> end
| 26>
| 27>                          ****END OF INPUT****

CARTESIAN COORDINATES (ANGSTROEM)
---------------------------------
  C      4.084220    1.742080   -2.114720
  C      4.265240    2.500520   -0.795890
  H      4.868530    3.392670   -0.981130
  H      3.307640    2.824570   -0.387810
  C      4.982240    1.650260    0.247420
  O      4.368060    1.389270    1.313710
  F      6.128920    1.233510   -0.045620
  C      1.997270    0.430920   -1.399220
  C      3.412750    0.376890   -1.965500
  H      4.047410   -0.246590   -1.326710
  H      3.390770   -0.118720   -2.942840
  H      5.068470    1.598500   -2.565730
  H      3.503360    2.363940   -2.804570
  H      1.384330    1.041540   -2.028780
  H      2.022940    0.847490   -0.413970
  H      1.591720   -0.558380   -1.357710

 Total Charge           Charge          ....    0
 Multiplicity           Mult            ....    1
 Number of Electrons    NEL             ....   56
 Basis Dimension        Dim             ....  529

ORBITAL ENERGIES
----------------

  NO   OCC          E(Eh)            E(eV)
   0   2.0000     -26.375808      -717.7222
   1   2.0000     -20.561667      -559.5114
   2   2.0000     -11.428560      -310.9869
   3   2.0000     -11.258035      -306.3467
   4   2.0000     -11.242855      -305.9336
   5   2.0000     -11.229686      -305.5753
   6   2.0000     -11.208605      -305.0016
   7   2.0000      -1.730374       -47.0859
   8   2.0000      -1.371688       -37.3255
   9   2.0000      -1.106437       -30.1077
  10   2.0000      -1.022946       -27.8358
  11   2.0000      -0.931041       -25.3349
  12   2.0000      -0.888832       -24.1864
  13   2.0000      -0.810443       -22.0533
  14   2.0000      -0.772699       -21.0262
  15   2.0000      -0.767829       -20.8937
  16   2.0000      -0.695698       -18.9309
  17   2.0000      -0.648581       -17.6488
  18   2.0000      -0.643352       -17.5065
  19   2.0000      -0.593351       -16.1459
  20   2.0000      -0.570342       -15.5198
  21   2.0000      -0.560886       -15.2625
  22   2.0000      -0.546032       -14.8583
  23   2.0000      -0.504780       -13.7357
  24   2.0000      -0.489649       -13.3240
  25   2.0000      -0.482328       -13.1248
  26   2.0000      -0.473236       -12.8774
  27   2.0000      -0.454183       -12.3590
  28   0.0000       0.025968         0.7066
  29   0.0000       0.034143         0.9291
  30   0.0000       0.037568         1.0223
  31   0.0000       0.043250         1.1769
  32   0.0000       0.055983         1.5234

MULLIKEN ATOMIC CHARGES
-----------------------
   0 C :   -0.385040
   1 C :   -0.322733
   2 H :    0.377824
   3 H :    0.205855
   4 C :    0.826951
   5 O :   -0.768643
   6 F :   -0.366836
   7 C :   -0.992637
   8 C :   -0.475830
   9 H :    0.155831
  10 H :    0.336732
  11 H :    0.223594
  12 H :    0.273794
  13 H :    0.276407
  14 H :    0.360398
  15 H :    0.274331
Sum of atomic charges:   -0.0000000

LOEWDIN ATOMIC CHARGES
----------------------
   0 C :    0.269227
   1 C :    0.257958
   2 H :   -0.153764
   3 H :   -0.165810
   4 C :   -0.932078
   5 O :    0.393683
   6 F :    0.594962
   7 C :    0.604157
   8 C :    0.260776
   9 H :   -0.155510
  10 H :   -0.139287
  11 H :   -0.150167
  12 H :   -0.136687
  13 H :   -0.177784
  14 H :   -0.193195
  15 H :   -0.176481

  Mayer bond orders larger than 0.100000
B(  0-C ,  1-C ) :   0.9010 B(  0-C ,  4-C ) :   0.1135 B(  0-C ,  8-C ) :   0.8174
B(  0-C , 11-H ) :   0.9759 B(  0-C , 12-H ) :   0.8985 B(  1-C ,  2-H ) :   0.8909
B(  1-C ,  3-H ) :   0.9836 B(  1-C ,  4-C ) :   0.7885 B(  1-C ,  6-F ) :   0.1411
B(  4-C ,  5-O ) :   1.5312 B(  4-C ,  6-F ) :   0.7056 B(  7-C ,  8-C ) :   0.8624
B(  7-C , 13-H ) :   0.9547 B(  7-C , 14-H ) :   0.8740 B(  7-C , 15-H ) :   1.0000
B(  8-C ,  9-H ) :   1.0149 B(  8-C , 10-H ) :   0.8842

E(0)                                       ...   -369.021627476
E(0)                                       ...   -369.021627476
E(CORR)(strong-pairs)                      ...     -1.399754868
E(CORR)(weak-pairs)                        ...     -0.001506631
E(CORR)(corrected)                         ...     -1.401261499
E(TOT)                                     ...   -370.422888975
E(CCSD(T))                                 ...   -370.478399394
FINAL SINGLE POINT ENERGY      -370.478399393800

DIPOLE MOMENT
-------------
                                X             Y             Z
Electronic contribution:     10.11632       1.07142       7.68768
Nuclear contribution   :    -10.12204      -0.60356      -8.97268
                        -----------------------------------------
Total Dipole Moment    :     -0.00572       0.46786      -1.28500
                        -----------------------------------------
Magnitude (a.u.)       :      1.36754
Magnitude (Debye)      :      3.47600

Rotational constants in cm-1:     0.132721     0.058385     0.051181
Rotational constants in MHz :  3978.875944  1750.339801  1534.353024

                             ****ORCA TERMINATED NORMALLY****
TOTAL RUN TIME: 0 days 0 hours 30 minutes 32 seconds 413 msec
