                         Program Version 5.0.0 -  RELEASE  -
|  1> !DLPNO-CCSD(T) aug-cc-pVTZ aug-cc-pVTZ/C TightSCF TightPNO RIJCOSX def2/J
|  2> *xyz 0 1
|  3> C          3.91385       -1.65829        3.01513
|  4> N          5.03927       -0.90115        2.49282
|  5> C          4.08422        1.74208       -2.11472
|  6> C          6.21038       -1.41726        2.17824
|  7> C          6.53591       -2.67712        2.55608
|  8> N          7.07675       -0.70082        1.47891
|  9> H          7.95464       -1.12155        1.20755
| 10> H          6.75616        0.10664        0.96028
| 11> H          4.84217        0.01761        2.11519
| 12> H          5.99388       -3.12692        3.28278
| 13> H          7.49844       -2.97548        2.46878
| 14> C          3.13916       -2.37657        1.91061
| 15> H          3.26723       -0.93940        3.52069
| 16> H          4.24720       -2.35509        3.79006
| 17> C          1.99727        0.43092       -1.39922
| 18> C          3.41275        0.37689       -1.96550
| 19> H          4.04741       -0.24659       -1.32671
| 20> H          3.39077       -0.11872       -2.94284
| 21> C          2.39995       -1.38958        1.00949
| 22> H          2.44075       -3.08712        2.36298
| 23> H          3.84448       -2.97046        1.31868
| 24> C          2.07018       -1.93671       -0.37240
| 25> H          1.48161       -1.06154        1.50991
| 26> H          3.00863       -0.49000        0.89745
| 27> C          1.32224       -0.93577       -1.25641
| 28> H          1.47275       -2.85090       -0.28400
| 29> H          3.00354       -2.23404       -0.86254
| 30> H          1.37644        1.05892       -2.04742
| 31> H          2.01534        0.92978       -0.42653
| 32> H          0.31665       -0.78721       -0.84828
| 33> H          1.18561       -1.37925       -2.24861
| 34> H          3.48097        2.37022       -2.73636
| 35> H          5.04852        1.61832       -2.56161
| 36> H          4.19316        2.19326       -1.15063
| 37> *
| 38> %MaxCore 64000
| 39> %pal nprocs 8
| 40> end
| 41> %scf
| 42>   MaxIter 150
| 43> end
| 44>
| 45>                          ****END OF INPUT****

CARTESIAN COORDINATES (ANGSTROEM)
---------------------------------
  C      3.913850   -1.658290    3.015130
  N      5.039270   -0.901150    2.492820
  C      4.084220    1.742080   -2.114720
  C      6.210380   -1.417260    2.178240
  C      6.535910   -2.677120    2.556080
  N      7.076750   -0.700820    1.478910
  H      7.954640   -1.121550    1.207550
  H      6.756160    0.106640    0.960280
  H      4.842170    0.017610    2.115190
  H      5.993880   -3.126920    3.282780
  H      7.498440   -2.975480    2.468780
  C      3.139160   -2.376570    1.910610
  H      3.267230   -0.939400    3.520690
  H      4.247200   -2.355090    3.790060
  C      1.997270    0.430920   -1.399220
  C      3.412750    0.376890   -1.965500
  H      4.047410   -0.246590   -1.326710
  H      3.390770   -0.118720   -2.942840
  C      2.399950   -1.389580    1.009490
  H      2.440750   -3.087120    2.362980
  H      3.844480   -2.970460    1.318680
  C      2.070180   -1.936710   -0.372400
  H      1.481610   -1.061540    1.509910
  H      3.008630   -0.490000    0.897450
  C      1.322240   -0.935770   -1.256410
  H      1.472750   -2.850900   -0.284000
  H      3.003540   -2.234040   -0.862540
  H      1.376440    1.058920   -2.047420
  H      2.015340    0.929780   -0.426530
  H      0.316650   -0.787210   -0.848280
  H      1.185610   -1.379250   -2.248610
  H      3.480970    2.370220   -2.736360
  H      5.048520    1.618320   -2.561610
  H      4.193160    2.193260   -1.150630

 Total Charge           Charge          ....    0
 Multiplicity           Mult            ....    1
 Number of Electrons    NEL             ....   96
 Basis Dimension        Dim             .... 1058

ORBITAL ENERGIES
----------------

  NO   OCC          E(Eh)            E(eV)
   0   2.0000     -15.564754      -423.5385
   1   2.0000     -15.563411      -423.5019
   2   2.0000     -11.290539      -307.2312
   3   2.0000     -11.257854      -306.3418
   4   2.0000     -11.218296      -305.2654
   5   2.0000     -11.216367      -305.2129
   6   2.0000     -11.215565      -305.1910
   7   2.0000     -11.215386      -305.1862
   8   2.0000     -11.213775      -305.1423
   9   2.0000     -11.212282      -305.1017
  10   2.0000     -11.208454      -304.9975
  11   2.0000     -11.127443      -302.7931
  12   2.0000      -1.293908       -35.2090
  13   2.0000      -1.189276       -32.3618
  14   2.0000      -1.097327       -29.8598
  15   2.0000      -1.059559       -28.8321
  16   2.0000      -1.014448       -27.6045
  17   2.0000      -0.968749       -26.3610
  18   2.0000      -0.950242       -25.8574
  19   2.0000      -0.894091       -24.3295
  20   2.0000      -0.838541       -22.8179
  21   2.0000      -0.812610       -22.1122
  22   2.0000      -0.764414       -20.8008
  23   2.0000      -0.757929       -20.6243
  24   2.0000      -0.732439       -19.9307
  25   2.0000      -0.701621       -19.0921
  26   2.0000      -0.656105       -17.8535
  27   2.0000      -0.642649       -17.4874
  28   2.0000      -0.618128       -16.8201
  29   2.0000      -0.605080       -16.4651
  30   2.0000      -0.593014       -16.1367
  31   2.0000      -0.586903       -15.9705
  32   2.0000      -0.574312       -15.6278
  33   2.0000      -0.562757       -15.3134
  34   2.0000      -0.551781       -15.0147
  35   2.0000      -0.536776       -14.6064
  36   2.0000      -0.525674       -14.3043
  37   2.0000      -0.518564       -14.1109
  38   2.0000      -0.509019       -13.8511
  39   2.0000      -0.502194       -13.6654
  40   2.0000      -0.482882       -13.1399
  41   2.0000      -0.472295       -12.8518
  42   2.0000      -0.469401       -12.7730
  43   2.0000      -0.449720       -12.2375
  44   2.0000      -0.446791       -12.1578
  45   2.0000      -0.443687       -12.0733
  46   2.0000      -0.392424       -10.6784
  47   2.0000      -0.264238        -7.1903
  48   0.0000       0.024088         0.6555
  49   0.0000       0.029546         0.8040
  50   0.0000       0.032331         0.8798
  51   0.0000       0.034706         0.9444
  52   0.0000       0.042593         1.1590

MULLIKEN ATOMIC CHARGES
-----------------------
   0 C :   -0.506468
   1 N :   -0.071566
   2 C :   -1.041620
   3 C :    0.888530
   4 C :   -1.427491
   5 N :   -0.663679
   6 H :    0.054578
   7 H :    0.163957
   8 H :    0.114681
   9 H :    0.609693
  10 H :    0.167007
  11 C :   -0.530059
  12 H :    0.272785
  13 H :    0.286726
  14 C :   -0.335613
  15 C :   -0.458130
  16 H :    0.429100
  17 H :    0.212373
  18 C :   -0.387030
  19 H :    0.261216
  20 H :    0.198813
  21 C :   -0.332328
  22 H :    0.279692
  23 H :    0.215579
  24 C :   -0.670088
  25 H :    0.515119
  26 H :    0.031049
  27 H :    0.438727
  28 H :    0.126644
  29 H :    0.169408
  30 H :    0.179671
  31 H :    0.239409
  32 H :    0.237405
  33 H :    0.331909
Sum of atomic charges:   -0.0000000

LOEWDIN ATOMIC CHARGES
----------------------
   0 C :    0.221226
   1 N :    0.569626
   2 C :    0.604551
   3 C :   -0.451808
   4 C :    0.554334
   5 N :    0.858031
   6 H :   -0.270415
   7 H :   -0.277580
   8 H :   -0.267728
   9 H :   -0.335595
  10 H :   -0.314220
  11 C :    0.309037
  12 H :   -0.135249
  13 H :   -0.154621
  14 C :    0.276965
  15 C :    0.260146
  16 H :   -0.161593
  17 H :   -0.134653
  18 C :    0.271611
  19 H :   -0.134449
  20 H :   -0.147121
  21 C :    0.286680
  22 H :   -0.125642
  23 H :   -0.187362
  24 C :    0.294917
  25 H :   -0.131377
  26 H :   -0.148977
  27 H :   -0.138516
  28 H :   -0.156878
  29 H :   -0.141952
  30 H :   -0.141074
  31 H :   -0.182222
  32 H :   -0.183994
  33 H :   -0.184095

  Mayer bond orders larger than 0.100000
B(  0-C ,  1-N ) :   0.9502 B(  0-C ,  3-C ) :  -0.1667 B(  0-C , 11-C ) :   0.9575
B(  0-C , 12-H ) :   1.0149 B(  0-C , 13-H ) :   0.9218 B(  1-N ,  3-C ) :   0.6693
B(  1-N ,  4-C ) :  -0.1404 B(  1-N ,  5-N ) :  -0.1433 B(  1-N ,  8-H ) :   1.0345
B(  2-C , 15-C ) :   0.7185 B(  2-C , 31-H ) :   1.0252 B(  2-C , 32-H ) :   1.0569
B(  2-C , 33-H ) :   0.9194 B(  3-C ,  4-C ) :   1.0318 B(  3-C ,  5-N ) :   0.7204
B(  3-C ,  8-H ) :  -0.1076 B(  4-C ,  9-H ) :   0.5516 B(  4-C , 10-H ) :   1.2839
B(  5-N ,  6-H ) :   1.1812 B(  5-N ,  7-H ) :   1.0403 B( 11-C , 18-C ) :   0.8865
B( 11-C , 19-H ) :   0.9432 B( 11-C , 20-H ) :   1.0116 B( 14-C , 15-C ) :   0.7986
B( 14-C , 24-C ) :   0.8372 B( 14-C , 27-H ) :   0.8023 B( 14-C , 28-H ) :   1.1007
B( 15-C , 16-H ) :   0.8337 B( 15-C , 17-H ) :   1.0769 B( 18-C , 21-C ) :   0.7584
B( 18-C , 22-H ) :   0.9424 B( 18-C , 23-H ) :   1.0296 B( 21-C , 24-C ) :   0.8946
B( 21-C , 25-H ) :   0.7117 B( 21-C , 26-H ) :   1.1756 B( 24-C , 29-H ) :   1.0792
B( 24-C , 30-H ) :   1.0307

E(0)                                       ...   -500.527395308
E(0)                                       ...   -500.527395308
E(CORR)(strong-pairs)                      ...     -2.288397991
E(CORR)(weak-pairs)                        ...     -0.003865167
E(CORR)(corrected)                         ...     -2.292263158
E(TOT)                                     ...   -502.819658467
E(CCSD(T))                                 ...   -502.913470623
FINAL SINGLE POINT ENERGY      -502.913470622777

DIPOLE MOMENT
-------------
                                X             Y             Z
Electronic contribution:      5.20391      -1.87207       6.49902
Nuclear contribution   :     -5.63186       2.80809      -7.01642
                        -----------------------------------------
Total Dipole Moment    :     -0.42795       0.93602      -0.51740
                        -----------------------------------------
Magnitude (a.u.)       :      1.15194
Magnitude (Debye)      :      2.92801

Rotational constants in cm-1:     0.036139     0.015627     0.012002
Rotational constants in MHz :  1083.424678   468.481418   359.819092

                             ****ORCA TERMINATED NORMALLY****
TOTAL RUN TIME: 0 days 3 hours 59 minutes 51 seconds 236 msec
