                         Program Version 5.0.0 -  RELEASE  -
|  1> !DLPNO-CCSD(T) aug-cc-pVTZ aug-cc-pVTZ/C TightSCF TightPNO RIJCOSX def2/J
|  2> *xyz 0 1
|  3> C          3.91385       -1.65829        3.01513
|  4> N          5.03927       -0.90115        2.49282
|  5> C          4.08422        1.74208       -2.11472
|  6> C          6.21038       -1.41726        2.17824
|  7> N          6.53591       -2.67712        2.55608
|  8> C          7.07675       -0.70082        1.47891
|  9> H          7.95464       -1.12155        1.20755
| 10> H          6.75616        0.10664        0.96028
| 11> H          4.84217        0.01761        2.11519
| 12> H          5.99388       -3.12692        3.28278
| 13> H          7.49844       -2.97548        2.46878
| 14> C          3.13916       -2.37657        1.91061
| 15> H          3.26723       -0.93940        3.52069
| 16> H          4.24720       -2.35509        3.79006
| 17> C          1.99727        0.43092       -1.39922
| 18> C          3.41275        0.37689       -1.96550
| 19> H          4.04741       -0.24659       -1.32671
| 20> H          3.39077       -0.11872       -2.94284
| 21> C          2.39995       -1.38958        1.00949
| 22> H          2.44075       -3.08712        2.36298
| 23> H          3.84448       -2.97046        1.31868
| 24> C          2.07018       -1.93671       -0.37240
| 25> H          1.48161       -1.06154        1.50991
| 26> H          3.00863       -0.49000        0.89745
| 27> C          1.32224       -0.93577       -1.25641
| 28> H          1.47275       -2.85090       -0.28400
| 29> H          3.00354       -2.23404       -0.86254
| 30> H          1.37644        1.05892       -2.04742
| 31> H          2.01534        0.92978       -0.42653
| 32> H          0.31665       -0.78721       -0.84828
| 33> H          1.18561       -1.37925       -2.24861
| 34> H          3.48097        2.37022       -2.73636
| 35> H          5.04852        1.61832       -2.56161
| 36> H          4.19316        2.19326       -1.15063
| 37> *
| 38> %MaxCore 64000
| 39> %pal nprocs 8
| 40> end
| 41> %scf
| 42>   MaxIter 150
| 43> end
| 44>
| 45>                          ****END OF INPUT****

CARTESIAN COORDINATES (ANGSTROEM)
---------------------------------
  C      3.913850   -1.658290    3.015130
  N      5.039270   -0.901150    2.492820
  C      4.084220    1.742080   -2.114720
  C      6.210380   -1.417260    2.178240
  N      6.535910   -2.677120    2.556080
  C      7.076750   -0.700820    1.478910
  H      7.954640   -1.121550    1.207550
  H      6.756160    0.106640    0.960280
  H      4.842170    0.017610    2.115190
  H      5.993880   -3.126920    3.282780
  H      7.498440   -2.975480    2.468780
  C      3.139160   -2.376570    1.910610
  H      3.267230   -0.939400    3.520690
  H      4.247200   -2.355090    3.790060
  C      1.997270    0.430920   -1.399220
  C      3.412750    0.376890   -1.965500
  H      4.047410   -0.246590   -1.326710
  H      3.390770   -0.118720   -2.942840
  C      2.399950   -1.389580    1.009490
  H      2.440750   -3.087120    2.362980
  H      3.844480   -2.970460    1.318680
  C      2.070180   -1.936710   -0.372400
  H      1.481610   -1.061540    1.509910
  H      3.008630   -0.490000    0.897450
  C      1.322240   -0.935770   -1.256410
  H      1.472750   -2.850900   -0.284000
  H      3.003540   -2.234040   -0.862540
  H      1.376440    1.058920   -2.047420
  H      2.015340    0.929780   -0.426530
  H      0.316650   -0.787210   -0.848280
  H      1.185610   -1.379250   -2.248610
  H      3.480970    2.370220   -2.736360
  H      5.048520    1.618320   -2.561610
  H      4.193160    2.193260   -1.150630

 Total Charge           Charge          ....    0
 Multiplicity           Mult            ....    1
 Number of Electrons    NEL             ....   96
 Basis Dimension        Dim             .... 1058

ORBITAL ENERGIES
----------------

  NO   OCC          E(Eh)            E(eV)
   0   2.0000     -15.561663      -423.4544
   1   2.0000     -15.558769      -423.3756
   2   2.0000     -11.286853      -307.1309
   3   2.0000     -11.266076      -306.5655
   4   2.0000     -11.220062      -305.3134
   5   2.0000     -11.218089      -305.2597
   6   2.0000     -11.214915      -305.1734
   7   2.0000     -11.214267      -305.1557
   8   2.0000     -11.212576      -305.1097
   9   2.0000     -11.211292      -305.0748
  10   2.0000     -11.199850      -304.7634
  11   2.0000     -11.126896      -302.7782
  12   2.0000      -1.287453       -35.0334
  13   2.0000      -1.180116       -32.1126
  14   2.0000      -1.097074       -29.8529
  15   2.0000      -1.062120       -28.9018
  16   2.0000      -1.021077       -27.7849
  17   2.0000      -0.979538       -26.6546
  18   2.0000      -0.936554       -25.4849
  19   2.0000      -0.885498       -24.0956
  20   2.0000      -0.833343       -22.6764
  21   2.0000      -0.815169       -22.1819
  22   2.0000      -0.791169       -21.5288
  23   2.0000      -0.757832       -20.6217
  24   2.0000      -0.717179       -19.5154
  25   2.0000      -0.676432       -18.4067
  26   2.0000      -0.649903       -17.6848
  27   2.0000      -0.641908       -17.4672
  28   2.0000      -0.632449       -17.2098
  29   2.0000      -0.604500       -16.4493
  30   2.0000      -0.596926       -16.2432
  31   2.0000      -0.582936       -15.8625
  32   2.0000      -0.577959       -15.7271
  33   2.0000      -0.558583       -15.1998
  34   2.0000      -0.550982       -14.9930
  35   2.0000      -0.544828       -14.8255
  36   2.0000      -0.523775       -14.2526
  37   2.0000      -0.513899       -13.9839
  38   2.0000      -0.508900       -13.8479
  39   2.0000      -0.501311       -13.6414
  40   2.0000      -0.483830       -13.1657
  41   2.0000      -0.472674       -12.8621
  42   2.0000      -0.468380       -12.7453
  43   2.0000      -0.448548       -12.2056
  44   2.0000      -0.445273       -12.1165
  45   2.0000      -0.441765       -12.0210
  46   2.0000      -0.398476       -10.8431
  47   2.0000      -0.265081        -7.2132
  48   0.0000       0.024706         0.6723
  49   0.0000       0.030375         0.8265
  50   0.0000       0.032716         0.8902
  51   0.0000       0.034793         0.9468
  52   0.0000       0.042510         1.1568

MULLIKEN ATOMIC CHARGES
-----------------------
   0 C :   -0.586741
   1 N :   -0.040218
   2 C :   -1.054434
   3 C :    0.761041
   4 N :   -0.522738
   5 C :   -1.510644
   6 H :    0.405774
   7 H :    0.461126
   8 H :    0.083207
   9 H :    0.131046
  10 H :    0.063193
  11 C :   -0.483082
  12 H :    0.243279
  13 H :    0.326274
  14 C :   -0.343382
  15 C :   -0.470331
  16 H :    0.451565
  17 H :    0.199352
  18 C :   -0.387756
  19 H :    0.305550
  20 H :    0.150163
  21 C :   -0.356285
  22 H :    0.286279
  23 H :    0.244653
  24 C :   -0.650814
  25 H :    0.511120
  26 H :    0.038342
  27 H :    0.434589
  28 H :    0.126207
  29 H :    0.164812
  30 H :    0.183851
  31 H :    0.249675
  32 H :    0.251373
  33 H :    0.333953
Sum of atomic charges:   -0.0000000

LOEWDIN ATOMIC CHARGES
----------------------
   0 C :    0.217936
   1 N :    0.568316
   2 C :    0.606657
   3 C :   -0.452962
   4 N :    0.872724
   5 C :    0.536401
   6 H :   -0.314624
   7 H :   -0.309050
   8 H :   -0.260669
   9 H :   -0.314989
  10 H :   -0.271820
  11 C :    0.307750
  12 H :   -0.134791
  13 H :   -0.153734
  14 C :    0.276790
  15 C :    0.261472
  16 H :   -0.159740
  17 H :   -0.135286
  18 C :    0.274602
  19 H :   -0.137287
  20 H :   -0.142971
  21 C :    0.286686
  22 H :   -0.124893
  23 H :   -0.183655
  24 C :    0.294869
  25 H :   -0.132454
  26 H :   -0.148669
  27 H :   -0.138711
  28 H :   -0.156638
  29 H :   -0.142433
  30 H :   -0.140946
  31 H :   -0.183550
  32 H :   -0.182066
  33 H :   -0.182263

  Mayer bond orders larger than 0.100000
B(  0-C ,  1-N ) :   0.9236 B(  0-C ,  3-C ) :  -0.1478 B(  0-C , 11-C ) :   0.9665
B(  0-C , 12-H ) :   1.0461 B(  0-C , 13-H ) :   0.9262 B(  1-N ,  3-C ) :   0.6998
B(  1-N ,  4-N ) :  -0.1166 B(  1-N ,  5-C ) :  -0.1963 B(  1-N ,  8-H ) :   1.0818
B(  2-C , 15-C ) :   0.7291 B(  2-C , 31-H ) :   1.0170 B(  2-C , 32-H ) :   1.0415
B(  2-C , 33-H ) :   0.9213 B(  3-C ,  4-N ) :   0.7866 B(  3-C ,  5-C ) :   1.0847
B(  4-N ,  5-C ) :  -0.2270 B(  4-N ,  9-H ) :   1.0741 B(  4-N , 10-H ) :   1.1077
B(  5-C ,  6-H ) :   0.9487 B(  5-C ,  7-H ) :   0.8727 B(  6-H ,  7-H ) :   0.1119
B( 11-C , 18-C ) :   0.8497 B( 11-C , 19-H ) :   0.9260 B( 11-C , 20-H ) :   1.0427
B( 14-C , 15-C ) :   0.7940 B( 14-C , 24-C ) :   0.8431 B( 14-C , 27-H ) :   0.8063
B( 14-C , 28-H ) :   1.0982 B( 15-C , 16-H ) :   0.8179 B( 15-C , 17-H ) :   1.0887
B( 18-C , 21-C ) :   0.7645 B( 18-C , 22-H ) :   0.9285 B( 18-C , 23-H ) :   1.0164
B( 21-C , 24-C ) :   0.8903 B( 21-C , 25-H ) :   0.7130 B( 21-C , 26-H ) :   1.1698
B( 24-C , 29-H ) :   1.0713 B( 24-C , 30-H ) :   1.0254

E(0)                                       ...   -500.528212530
E(0)                                       ...   -500.528212530
E(CORR)(strong-pairs)                      ...     -2.287645173
E(CORR)(weak-pairs)                        ...     -0.003862312
E(CORR)(corrected)                         ...     -2.291507485
E(TOT)                                     ...   -502.819720015
E(CCSD(T))                                 ...   -502.913266993
FINAL SINGLE POINT ENERGY      -502.913266992686

DIPOLE MOMENT
-------------
                                X             Y             Z
Electronic contribution:      4.66913      -3.86700       7.72153
Nuclear contribution   :     -5.50394       3.27555      -7.27120
                        -----------------------------------------
Total Dipole Moment    :     -0.83481      -0.59145       0.45032
                        -----------------------------------------
Magnitude (a.u.)       :      1.11782
Magnitude (Debye)      :      2.84126

Rotational constants in cm-1:     0.036733     0.015415     0.011966
Rotational constants in MHz :  1101.240975   462.141746   358.739344

                             ****ORCA TERMINATED NORMALLY****
TOTAL RUN TIME: 0 days 4 hours 4 minutes 44 seconds 248 msec
