                         Program Version 5.0.0 -  RELEASE  -
|  1> !DLPNO-CCSD(T) aug-cc-pVTZ aug-cc-pVTZ/C TightSCF TightPNO RIJCOSX def2/J
|  2> *xyz 0 1
|  3> C          3.91385       -1.65829        3.01513
|  4> N          5.03927       -0.90115        2.49282
|  5> C          6.21038       -1.41726        2.17824
|  6> N          6.53591       -2.67712        2.55608
|  7> C          7.07675       -0.70082        1.47891
|  8> H          7.95464       -1.12155        1.20755
|  9> H          6.75616        0.10664        0.96028
| 10> H          4.84217        0.01761        2.11519
| 11> H          5.99388       -3.12692        3.28278
| 12> H          7.49844       -2.97548        2.46878
| 13> C          3.13916       -2.37657        1.91061
| 14> H          3.26723       -0.93940        3.52069
| 15> H          4.24720       -2.35509        3.79006
| 16> C          2.39995       -1.38958        1.00949
| 17> H          2.44075       -3.08712        2.36298
| 18> H          3.84448       -2.97046        1.31868
| 19> C          2.07018       -1.93671       -0.37240
| 20> H          1.48161       -1.06154        1.50991
| 21> H          3.00863       -0.49000        0.89745
| 22> C          1.32224       -0.93577       -1.25641
| 23> H          1.47275       -2.85090       -0.28400
| 24> H          3.00354       -2.23404       -0.86254
| 25> H          1.12209       -1.38090       -2.20862
| 26> H          1.92280       -0.06049       -1.39103
| 27> H          0.39898       -0.66619       -0.78757
| 28> *
| 29> %MaxCore 64000
| 30> %pal nprocs 8
| 31> end
| 32> %scf
| 33>   MaxIter 150
| 34> end
| 35>
| 36>                          ****END OF INPUT****

CARTESIAN COORDINATES (ANGSTROEM)
---------------------------------
  C      3.913850   -1.658290    3.015130
  N      5.039270   -0.901150    2.492820
  C      6.210380   -1.417260    2.178240
  N      6.535910   -2.677120    2.556080
  C      7.076750   -0.700820    1.478910
  H      7.954640   -1.121550    1.207550
  H      6.756160    0.106640    0.960280
  H      4.842170    0.017610    2.115190
  H      5.993880   -3.126920    3.282780
  H      7.498440   -2.975480    2.468780
  C      3.139160   -2.376570    1.910610
  H      3.267230   -0.939400    3.520690
  H      4.247200   -2.355090    3.790060
  C      2.399950   -1.389580    1.009490
  H      2.440750   -3.087120    2.362980
  H      3.844480   -2.970460    1.318680
  C      2.070180   -1.936710   -0.372400
  H      1.481610   -1.061540    1.509910
  H      3.008630   -0.490000    0.897450
  C      1.322240   -0.935770   -1.256410
  H      1.472750   -2.850900   -0.284000
  H      3.003540   -2.234040   -0.862540
  H      1.122090   -1.380900   -2.208620
  H      1.922800   -0.060490   -1.391030
  H      0.398980   -0.666190   -0.787570

 Total Charge           Charge          ....    0
 Multiplicity           Mult            ....    1
 Number of Electrons    NEL             ....   72
 Basis Dimension        Dim             ....  782

ORBITAL ENERGIES
----------------

  NO   OCC          E(Eh)            E(eV)
   0   2.0000     -15.561450      -423.4486
   1   2.0000     -15.558457      -423.3671
   2   2.0000     -11.286525      -307.1220
   3   2.0000     -11.266145      -306.5674
   4   2.0000     -11.220385      -305.3222
   5   2.0000     -11.219317      -305.2931
   6   2.0000     -11.217115      -305.2332
   7   2.0000     -11.203957      -304.8752
   8   2.0000     -11.126559      -302.7691
   9   2.0000      -1.287187       -35.0261
  10   2.0000      -1.179893       -32.1065
  11   2.0000      -1.084456       -29.5095
  12   2.0000      -1.028584       -27.9892
  13   2.0000      -0.972837       -26.4722
  14   2.0000      -0.913152       -24.8481
  15   2.0000      -0.835633       -22.7387
  16   2.0000      -0.808161       -21.9912
  17   2.0000      -0.784580       -21.3495
  18   2.0000      -0.717066       -19.5124
  19   2.0000      -0.676707       -18.4141
  20   2.0000      -0.645333       -17.5604
  21   2.0000      -0.639799       -17.4098
  22   2.0000      -0.608463       -16.5571
  23   2.0000      -0.597132       -16.2488
  24   2.0000      -0.575191       -15.6517
  25   2.0000      -0.560612       -15.2550
  26   2.0000      -0.547083       -14.8869
  27   2.0000      -0.541708       -14.7406
  28   2.0000      -0.521792       -14.1987
  29   2.0000      -0.504121       -13.7178
  30   2.0000      -0.494120       -13.4457
  31   2.0000      -0.471128       -12.8200
  32   2.0000      -0.464504       -12.6398
  33   2.0000      -0.458991       -12.4898
  34   2.0000      -0.398460       -10.8427
  35   2.0000      -0.264734        -7.2038
  36   0.0000       0.025948         0.7061
  37   0.0000       0.031594         0.8597
  38   0.0000       0.034194         0.9305
  39   0.0000       0.036751         1.0000
  40   0.0000       0.046696         1.2707

MULLIKEN ATOMIC CHARGES
-----------------------
   0 C :   -0.535254
   1 N :   -0.058238
   2 C :    0.758711
   3 N :   -0.468958
   4 C :   -1.419393
   5 H :    0.478890
   6 H :    0.234559
   7 H :    0.040149
   8 H :    0.150345
   9 H :    0.060200
  10 C :   -0.408226
  11 H :    0.335987
  12 H :    0.274011
  13 C :   -0.384876
  14 H :    0.362592
  15 H :    0.203328
  16 C :   -0.482755
  17 H :    0.262643
  18 H :    0.278435
  19 C :   -1.016812
  20 H :    0.242032
  21 H :    0.226977
  22 H :    0.290184
  23 H :    0.305261
  24 H :    0.270207
Sum of atomic charges:   -0.0000000

LOEWDIN ATOMIC CHARGES
----------------------
   0 C :    0.214879
   1 N :    0.566216
   2 C :   -0.453582
   3 N :    0.872139
   4 C :    0.535597
   5 H :   -0.315077
   6 H :   -0.308602
   7 H :   -0.261684
   8 H :   -0.315122
   9 H :   -0.271988
  10 C :    0.299423
  11 H :   -0.135507
  12 H :   -0.154030
  13 C :    0.271360
  14 H :   -0.138160
  15 H :   -0.145399
  16 C :    0.267607
  17 H :   -0.135343
  18 H :   -0.160712
  19 C :    0.603518
  20 H :   -0.140227
  21 H :   -0.143763
  22 H :   -0.184348
  23 H :   -0.183041
  24 H :   -0.184153

  Mayer bond orders larger than 0.100000
B(  0-C ,  1-N ) :   0.9149 B(  0-C ,  2-C ) :  -0.1264 B(  0-C , 10-C ) :   0.9941
B(  0-C , 11-H ) :   0.9601 B(  0-C , 12-H ) :   0.9632 B(  1-N ,  2-C ) :   0.6792
B(  1-N ,  4-C ) :  -0.2335 B(  1-N ,  7-H ) :   1.1409 B(  2-C ,  3-N ) :   0.8019
B(  2-C ,  4-C ) :   1.1009 B(  2-C ,  7-H ) :  -0.1072 B(  3-N ,  4-C ) :  -0.2198
B(  3-N ,  8-H ) :   1.0411 B(  3-N ,  9-H ) :   1.1156 B(  4-C ,  5-H ) :   0.7796
B(  4-C ,  6-H ) :   1.2273 B( 10-C , 13-C ) :   0.8246 B( 10-C , 14-H ) :   0.8829
B( 10-C , 15-H ) :   1.0038 B( 13-C , 16-C ) :   0.8566 B( 13-C , 17-H ) :   0.9713
B( 13-C , 18-H ) :   0.9508 B( 16-C , 19-C ) :   0.8414 B( 16-C , 20-H ) :   0.9506
B( 16-C , 21-H ) :   0.9913 B( 19-C , 22-H ) :   0.9996 B( 19-C , 23-H ) :   0.9280
B( 19-C , 24-H ) :   0.9778

E(0)                                       ...   -383.389394773
E(0)                                       ...   -383.389394773
E(CORR)(strong-pairs)                      ...     -1.724142238
E(CORR)(weak-pairs)                        ...     -0.002415210
E(CORR)(corrected)                         ...     -1.726557448
E(TOT)                                     ...   -385.115952221
E(CCSD(T))                                 ...   -385.186352927
FINAL SINGLE POINT ENERGY      -385.186352927283

DIPOLE MOMENT
-------------
                                X             Y             Z
Electronic contribution:      6.25273      -0.43228       5.25927
Nuclear contribution   :     -7.11038      -0.15452      -4.78382
                        -----------------------------------------
Total Dipole Moment    :     -0.85765      -0.58679       0.47546
                        -----------------------------------------
Magnitude (a.u.)       :      1.14278
Magnitude (Debye)      :      2.90472

Rotational constants in cm-1:     0.093209     0.023285     0.021200
Rotational constants in MHz :  2794.342658   698.079062   635.557705

                             ****ORCA TERMINATED NORMALLY****
TOTAL RUN TIME: 0 days 1 hours 46 minutes 10 seconds 193 msec
