                         Program Version 5.0.0 -  RELEASE  -
|  1> !DLPNO-CCSD(T) aug-cc-pVTZ aug-cc-pVTZ/C TightSCF TightPNO RIJCOSX def2/J
|  2> *xyz 0 1
|  3> C          3.91385       -1.65829        3.01513
|  4> N          5.03927       -0.90115        2.49282
|  5> C          6.21038       -1.41726        2.17824
|  6> N          6.53591       -2.67712        2.55608
|  7> C          7.07675       -0.70082        1.47891
|  8> H          7.95464       -1.12155        1.20755
|  9> H          6.75616        0.10664        0.96028
| 10> H          4.84217        0.01761        2.11519
| 11> H          5.99388       -3.12692        3.28278
| 12> H          7.49844       -2.97548        2.46878
| 13> C          3.13916       -2.37657        1.91061
| 14> H          3.26723       -0.93940        3.52069
| 15> H          4.24720       -2.35509        3.79006
| 16> C          1.99727        0.43092       -1.39922
| 17> C          3.41275        0.37689       -1.96550
| 18> C          2.39995       -1.38958        1.00949
| 19> H          2.44075       -3.08712        2.36298
| 20> H          3.84448       -2.97046        1.31868
| 21> C          2.07018       -1.93671       -0.37240
| 22> H          1.48161       -1.06154        1.50991
| 23> H          3.00863       -0.49000        0.89745
| 24> C          1.32224       -0.93577       -1.25641
| 25> H          1.47275       -2.85090       -0.28400
| 26> H          3.00354       -2.23404       -0.86254
| 27> H          1.37644        1.05892       -2.04742
| 28> H          2.01534        0.92978       -0.42653
| 29> H          0.31665       -0.78721       -0.84828
| 30> H          1.18561       -1.37925       -2.24861
| 31> H          3.39759       -0.11102       -2.91766
| 32> H          4.04439       -0.16810       -1.29548
| 33> H          3.78910        1.37189       -2.08055
| 34> *
| 35> %MaxCore 64000
| 36> %pal nprocs 8
| 37> end
| 38> %scf
| 39>   MaxIter 150
| 40> end
| 41>
| 42>                          ****END OF INPUT****

CARTESIAN COORDINATES (ANGSTROEM)
---------------------------------
  C      3.913850   -1.658290    3.015130
  N      5.039270   -0.901150    2.492820
  C      6.210380   -1.417260    2.178240
  N      6.535910   -2.677120    2.556080
  C      7.076750   -0.700820    1.478910
  H      7.954640   -1.121550    1.207550
  H      6.756160    0.106640    0.960280
  H      4.842170    0.017610    2.115190
  H      5.993880   -3.126920    3.282780
  H      7.498440   -2.975480    2.468780
  C      3.139160   -2.376570    1.910610
  H      3.267230   -0.939400    3.520690
  H      4.247200   -2.355090    3.790060
  C      1.997270    0.430920   -1.399220
  C      3.412750    0.376890   -1.965500
  C      2.399950   -1.389580    1.009490
  H      2.440750   -3.087120    2.362980
  H      3.844480   -2.970460    1.318680
  C      2.070180   -1.936710   -0.372400
  H      1.481610   -1.061540    1.509910
  H      3.008630   -0.490000    0.897450
  C      1.322240   -0.935770   -1.256410
  H      1.472750   -2.850900   -0.284000
  H      3.003540   -2.234040   -0.862540
  H      1.376440    1.058920   -2.047420
  H      2.015340    0.929780   -0.426530
  H      0.316650   -0.787210   -0.848280
  H      1.185610   -1.379250   -2.248610
  H      3.397590   -0.111020   -2.917660
  H      4.044390   -0.168100   -1.295480
  H      3.789100    1.371890   -2.080550

 Total Charge           Charge          ....    0
 Multiplicity           Mult            ....    1
 Number of Electrons    NEL             ....   88
 Basis Dimension        Dim             ....  966

ORBITAL ENERGIES
----------------

  NO   OCC          E(Eh)            E(eV)
   0   2.0000     -15.561545      -423.4512
   1   2.0000     -15.558668      -423.3729
   2   2.0000     -11.286678      -307.1261
   3   2.0000     -11.266091      -306.5659
   4   2.0000     -11.220186      -305.3168
   5   2.0000     -11.218358      -305.2671
   6   2.0000     -11.215254      -305.1826
   7   2.0000     -11.214197      -305.1538
   8   2.0000     -11.213338      -305.1304
   9   2.0000     -11.199598      -304.7565
  10   2.0000     -11.126710      -302.7732
  11   2.0000      -1.287350       -35.0306
  12   2.0000      -1.180021       -32.1100
  13   2.0000      -1.095017       -29.7969
  14   2.0000      -1.054281       -28.6884
  15   2.0000      -1.004822       -27.3426
  16   2.0000      -0.963109       -26.2075
  17   2.0000      -0.913639       -24.8614
  18   2.0000      -0.856060       -23.2946
  19   2.0000      -0.821732       -22.3605
  20   2.0000      -0.792312       -21.5599
  21   2.0000      -0.759528       -20.6678
  22   2.0000      -0.717065       -19.5123
  23   2.0000      -0.676508       -18.4087
  24   2.0000      -0.649100       -17.6629
  25   2.0000      -0.642226       -17.4759
  26   2.0000      -0.627943       -17.0872
  27   2.0000      -0.609003       -16.5718
  28   2.0000      -0.590602       -16.0711
  29   2.0000      -0.577179       -15.7058
  30   2.0000      -0.560531       -15.2528
  31   2.0000      -0.553396       -15.0587
  32   2.0000      -0.542262       -14.7557
  33   2.0000      -0.531796       -14.4709
  34   2.0000      -0.520653       -14.1677
  35   2.0000      -0.511709       -13.9243
  36   2.0000      -0.493800       -13.4370
  37   2.0000      -0.482608       -13.1324
  38   2.0000      -0.475595       -12.9416
  39   2.0000      -0.453177       -12.3316
  40   2.0000      -0.448327       -12.1996
  41   2.0000      -0.445208       -12.1147
  42   2.0000      -0.398417       -10.8415
  43   2.0000      -0.264913        -7.2086
  44   0.0000       0.024859         0.6764
  45   0.0000       0.030117         0.8195
  46   0.0000       0.033268         0.9053
  47   0.0000       0.035544         0.9672
  48   0.0000       0.043891         1.1943

MULLIKEN ATOMIC CHARGES
-----------------------
   0 C :   -0.580304
   1 N :    0.008307
   2 C :    0.739715
   3 N :   -0.501504
   4 C :   -1.448514
   5 H :    0.462765
   6 H :    0.293812
   7 H :    0.079275
   8 H :    0.139107
   9 H :    0.060853
  10 C :   -0.472261
  11 H :    0.257729
  12 H :    0.323485
  13 C :   -0.375608
  14 C :   -1.063562
  15 C :   -0.382602
  16 H :    0.303722
  17 H :    0.154405
  18 C :   -0.379880
  19 H :    0.297053
  20 H :    0.210584
  21 C :   -0.595038
  22 H :    0.465970
  23 H :    0.080403
  24 H :    0.389334
  25 H :    0.124833
  26 H :    0.195350
  27 H :    0.222688
  28 H :    0.177183
  29 H :    0.590331
  30 H :    0.222369
Sum of atomic charges:    0.0000000

LOEWDIN ATOMIC CHARGES
----------------------
   0 C :    0.217718
   1 N :    0.568086
   2 C :   -0.453435
   3 N :    0.872550
   4 C :    0.536215
   5 H :   -0.314671
   6 H :   -0.308740
   7 H :   -0.260350
   8 H :   -0.315020
   9 H :   -0.271860
  10 C :    0.307272
  11 H :   -0.134827
  12 H :   -0.153746
  13 C :    0.265468
  14 C :    0.602793
  15 C :    0.273153
  16 H :   -0.137319
  17 H :   -0.143134
  18 C :    0.284923
  19 H :   -0.125092
  20 H :   -0.184842
  21 C :    0.289334
  22 H :   -0.132738
  23 H :   -0.146816
  24 H :   -0.142980
  25 H :   -0.160237
  26 H :   -0.143507
  27 H :   -0.142157
  28 H :   -0.174289
  29 H :   -0.193775
  30 H :   -0.177977

  Mayer bond orders larger than 0.100000
B(  0-C ,  1-N ) :   0.9277 B(  0-C ,  2-C ) :  -0.1451 B(  0-C , 10-C ) :   0.9668
B(  0-C , 11-H ) :   1.0344 B(  0-C , 12-H ) :   0.9268 B(  1-N ,  2-C ) :   0.6823
B(  1-N ,  4-C ) :  -0.2210 B(  1-N ,  7-H ) :   1.0838 B(  2-C ,  3-N ) :   0.7932
B(  2-C ,  4-C ) :   1.1233 B(  3-N ,  4-C ) :  -0.2257 B(  3-N ,  8-H ) :   1.0567
B(  3-N ,  9-H ) :   1.1095 B(  4-C ,  5-H ) :   0.8207 B(  4-C ,  6-H ) :   1.1368
B( 10-C , 15-C ) :   0.8383 B( 10-C , 16-H ) :   0.9248 B( 10-C , 17-H ) :   1.0333
B( 13-C , 14-C ) :   0.7484 B( 13-C , 21-C ) :   0.8675 B( 13-C , 24-H ) :   0.8752
B( 13-C , 25-H ) :   1.0460 B( 14-C , 25-H ) :   0.1133 B( 14-C , 28-H ) :   1.1124
B( 14-C , 29-H ) :   0.6631 B( 14-C , 30-H ) :   1.0579 B( 15-C , 18-C ) :   0.7484
B( 15-C , 19-H ) :   0.9260 B( 15-C , 20-H ) :   1.0255 B( 18-C , 21-C ) :   0.9101
B( 18-C , 22-H ) :   0.7533 B( 18-C , 23-H ) :   1.1362 B( 21-C , 26-H ) :   1.0099
B( 21-C , 27-H ) :   0.9939

E(0)                                       ...   -461.480562398
E(0)                                       ...   -461.480562398
E(CORR)(strong-pairs)                      ...     -2.100601206
E(CORR)(weak-pairs)                        ...     -0.003375661
E(CORR)(corrected)                         ...     -2.103976867
E(TOT)                                     ...   -463.584539265
E(CCSD(T))                                 ...   -463.670458942
FINAL SINGLE POINT ENERGY      -463.670458941543

DIPOLE MOMENT
-------------
                                X             Y             Z
Electronic contribution:      5.29681      -2.31150       7.05050
Nuclear contribution   :     -6.15291       1.74768      -6.58795
                        -----------------------------------------
Total Dipole Moment    :     -0.85609      -0.56382       0.46255
                        -----------------------------------------
Magnitude (a.u.)       :      1.12460
Magnitude (Debye)      :      2.85852

Rotational constants in cm-1:     0.052306     0.017095     0.014335
Rotational constants in MHz :  1568.092223   512.489697   429.755880

                             ****ORCA TERMINATED NORMALLY****
TOTAL RUN TIME: 0 days 3 hours 5 minutes 13 seconds 55 msec
