                         Program Version 5.0.0 -  RELEASE  -
|  1> !DLPNO-CCSD(T) aug-cc-pVTZ aug-cc-pVTZ/C TightSCF TightPNO RIJCOSX def2/J
|  2> *xyz 0 1
|  3> C          3.91385       -1.65829        3.01513
|  4> N          5.03927       -0.90115        2.49282
|  5> C          6.21038       -1.41726        2.17824
|  6> N          6.53591       -2.67712        2.55608
|  7> C          7.07675       -0.70082        1.47891
|  8> H          7.95464       -1.12155        1.20755
|  9> H          6.75616        0.10664        0.96028
| 10> H          4.84217        0.01761        2.11519
| 11> H          5.99388       -3.12692        3.28278
| 12> H          7.49844       -2.97548        2.46878
| 13> C          3.13916       -2.37657        1.91061
| 14> H          3.26723       -0.93940        3.52069
| 15> H          4.24720       -2.35509        3.79006
| 16> C          2.39995       -1.38958        1.00949
| 17> H          2.44075       -3.08712        2.36298
| 18> H          3.84448       -2.97046        1.31868
| 19> C          2.07018       -1.93671       -0.37240
| 20> H          1.48161       -1.06154        1.50991
| 21> H          3.00863       -0.49000        0.89745
| 22> H          1.55578       -1.18868       -0.93874
| 23> H          1.44721       -2.80112       -0.27443
| 24> H          2.97578       -2.20487       -0.87527
| 25> *
| 26> %MaxCore 64000
| 27> %pal nprocs 8
| 28> end
| 29> %scf
| 30>   MaxIter 150
| 31> end
| 32>
| 33>                          ****END OF INPUT****

CARTESIAN COORDINATES (ANGSTROEM)
---------------------------------
  C      3.913850   -1.658290    3.015130
  N      5.039270   -0.901150    2.492820
  C      6.210380   -1.417260    2.178240
  N      6.535910   -2.677120    2.556080
  C      7.076750   -0.700820    1.478910
  H      7.954640   -1.121550    1.207550
  H      6.756160    0.106640    0.960280
  H      4.842170    0.017610    2.115190
  H      5.993880   -3.126920    3.282780
  H      7.498440   -2.975480    2.468780
  C      3.139160   -2.376570    1.910610
  H      3.267230   -0.939400    3.520690
  H      4.247200   -2.355090    3.790060
  C      2.399950   -1.389580    1.009490
  H      2.440750   -3.087120    2.362980
  H      3.844480   -2.970460    1.318680
  C      2.070180   -1.936710   -0.372400
  H      1.481610   -1.061540    1.509910
  H      3.008630   -0.490000    0.897450
  H      1.555780   -1.188680   -0.938740
  H      1.447210   -2.801120   -0.274430
  H      2.975780   -2.204870   -0.875270

 Total Charge           Charge          ....    0
 Multiplicity           Mult            ....    1
 Number of Electrons    NEL             ....   64
 Basis Dimension        Dim             ....  690

ORBITAL ENERGIES
----------------

  NO   OCC          E(Eh)            E(eV)
   0   2.0000     -15.561527      -423.4507
   1   2.0000     -15.558501      -423.3683
   2   2.0000     -11.286565      -307.1230
   3   2.0000     -11.266258      -306.5705
   4   2.0000     -11.220929      -305.3370
   5   2.0000     -11.220255      -305.3186
   6   2.0000     -11.205168      -304.9081
   7   2.0000     -11.126600      -302.7702
   8   2.0000      -1.287244       -35.0277
   9   2.0000      -1.179948       -32.1080
  10   2.0000      -1.076377       -29.2897
  11   2.0000      -1.008656       -27.4469
  12   2.0000      -0.950702       -25.8699
  13   2.0000      -0.868374       -23.6297
  14   2.0000      -0.816129       -22.2080
  15   2.0000      -0.785903       -21.3855
  16   2.0000      -0.716965       -19.5096
  17   2.0000      -0.676694       -18.4138
  18   2.0000      -0.643546       -17.5118
  19   2.0000      -0.633651       -17.2425
  20   2.0000      -0.604554       -16.4507
  21   2.0000      -0.590979       -16.0813
  22   2.0000      -0.569369       -15.4933
  23   2.0000      -0.553314       -15.0564
  24   2.0000      -0.533931       -14.5290
  25   2.0000      -0.522418       -14.2157
  26   2.0000      -0.513271       -13.9668
  27   2.0000      -0.481395       -13.0994
  28   2.0000      -0.471706       -12.8358
  29   2.0000      -0.469230       -12.7684
  30   2.0000      -0.398778       -10.8513
  31   2.0000      -0.264785        -7.2052
  32   0.0000       0.026191         0.7127
  33   0.0000       0.032183         0.8757
  34   0.0000       0.035656         0.9703
  35   0.0000       0.037459         1.0193
  36   0.0000       0.049002         1.3334

MULLIKEN ATOMIC CHARGES
-----------------------
   0 C :   -0.528246
   1 N :   -0.089283
   2 C :    0.770769
   3 N :   -0.466921
   4 C :   -1.404077
   5 H :    0.478712
   6 H :    0.240567
   7 H :    0.026930
   8 H :    0.149539
   9 H :    0.059946
  10 C :   -0.370420
  11 H :    0.356377
  12 H :    0.279644
  13 C :   -0.495789
  14 H :    0.362594
  15 H :    0.249991
  16 C :   -1.005049
  17 H :    0.280246
  18 H :    0.259119
  19 H :    0.306838
  20 H :    0.244582
  21 H :    0.293932
Sum of atomic charges:    0.0000000

LOEWDIN ATOMIC CHARGES
----------------------
   0 C :    0.212921
   1 N :    0.565413
   2 C :   -0.453967
   3 N :    0.871985
   4 C :    0.535509
   5 H :   -0.315048
   6 H :   -0.308563
   7 H :   -0.262147
   8 H :   -0.315163
   9 H :   -0.272006
  10 C :    0.294539
  11 H :   -0.135840
  12 H :   -0.154383
  13 C :    0.262859
  14 H :   -0.139460
  15 H :   -0.146133
  16 C :    0.605721
  17 H :   -0.139081
  18 H :   -0.164335
  19 H :   -0.182410
  20 H :   -0.179845
  21 H :   -0.180566

  Mayer bond orders larger than 0.100000
B(  0-C ,  1-N ) :   0.9299 B(  0-C ,  2-C ) :  -0.1229 B(  0-C , 10-C ) :   0.9839
B(  0-C , 11-H ) :   0.9290 B(  0-C , 12-H ) :   0.9526 B(  1-N ,  2-C ) :   0.6852
B(  1-N ,  4-C ) :  -0.2197 B(  1-N ,  7-H ) :   1.1483 B(  2-C ,  3-N ) :   0.8269
B(  2-C ,  4-C ) :   1.0853 B(  3-N ,  4-C ) :  -0.2114 B(  3-N ,  8-H ) :   1.0402
B(  3-N ,  9-H ) :   1.1170 B(  4-C ,  5-H ) :   0.7800 B(  4-C ,  6-H ) :   1.2155
B( 10-C , 13-C ) :   0.8265 B( 10-C , 14-H ) :   0.8725 B( 10-C , 15-H ) :   0.9739
B( 13-C , 16-C ) :   0.8364 B( 13-C , 17-H ) :   0.9481 B( 13-C , 18-H ) :   0.9514
B( 16-C , 19-H ) :   0.9680 B( 16-C , 20-H ) :   0.9911 B( 16-C , 21-H ) :   0.9522

E(0)                                       ...   -344.341374295
E(0)                                       ...   -344.341374295
E(CORR)(strong-pairs)                      ...     -1.537409041
E(CORR)(weak-pairs)                        ...     -0.002000447
E(CORR)(corrected)                         ...     -1.539409488
E(TOT)                                     ...   -345.880783783
E(CCSD(T))                                 ...   -345.943604792
FINAL SINGLE POINT ENERGY      -345.943604792444

DIPOLE MOMENT
-------------
                                X             Y             Z
Electronic contribution:      4.92201       0.47426       3.80492
Nuclear contribution   :     -5.78519      -1.03732      -3.31224
                        -----------------------------------------
Total Dipole Moment    :     -0.86318      -0.56306       0.49268
                        -----------------------------------------
Magnitude (a.u.)       :      1.14230
Magnitude (Debye)      :      2.90350

Rotational constants in cm-1:     0.114714     0.034268     0.031641
Rotational constants in MHz :  3439.036699  1027.334919   948.580404

                             ****ORCA TERMINATED NORMALLY****
TOTAL RUN TIME: 0 days 1 hours 15 minutes 18 seconds 802 msec
