                         Program Version 5.0.0 -  RELEASE  -
|  1> !DLPNO-CCSD(T) aug-cc-pVTZ aug-cc-pVTZ/C TightSCF TightPNO RIJCOSX def2/J
|  2> *xyz 0 1
|  3> C          3.91385       -1.65829        3.01513
|  4> N          5.03927       -0.90115        2.49282
|  5> C          6.21038       -1.41726        2.17824
|  6> N          6.53591       -2.67712        2.55608
|  7> C          7.07675       -0.70082        1.47891
|  8> H          7.95464       -1.12155        1.20755
|  9> H          6.75616        0.10664        0.96028
| 10> H          4.84217        0.01761        2.11519
| 11> H          5.99388       -3.12692        3.28278
| 12> H          7.49844       -2.97548        2.46878
| 13> C          3.13916       -2.37657        1.91061
| 14> H          3.26723       -0.93940        3.52069
| 15> H          4.24720       -2.35509        3.79006
| 16> C          1.99727        0.43092       -1.39922
| 17> C          2.39995       -1.38958        1.00949
| 18> H          2.44075       -3.08712        2.36298
| 19> H          3.84448       -2.97046        1.31868
| 20> C          2.07018       -1.93671       -0.37240
| 21> H          1.48161       -1.06154        1.50991
| 22> H          3.00863       -0.49000        0.89745
| 23> C          1.32224       -0.93577       -1.25641
| 24> H          1.47275       -2.85090       -0.28400
| 25> H          3.00354       -2.23404       -0.86254
| 26> H          0.31665       -0.78721       -0.84828
| 27> H          1.18561       -1.37925       -2.24861
| 28> H          1.40357        1.05764       -2.03139
| 29> H          2.96811        0.30580       -1.83133
| 30> H          2.09191        0.88450       -0.43475
| 31> *
| 32> %MaxCore 64000
| 33> %pal nprocs 8
| 34> end
| 35> %scf
| 36>   MaxIter 150
| 37> end
| 38>
| 39>                          ****END OF INPUT****

CARTESIAN COORDINATES (ANGSTROEM)
---------------------------------
  C      3.913850   -1.658290    3.015130
  N      5.039270   -0.901150    2.492820
  C      6.210380   -1.417260    2.178240
  N      6.535910   -2.677120    2.556080
  C      7.076750   -0.700820    1.478910
  H      7.954640   -1.121550    1.207550
  H      6.756160    0.106640    0.960280
  H      4.842170    0.017610    2.115190
  H      5.993880   -3.126920    3.282780
  H      7.498440   -2.975480    2.468780
  C      3.139160   -2.376570    1.910610
  H      3.267230   -0.939400    3.520690
  H      4.247200   -2.355090    3.790060
  C      1.997270    0.430920   -1.399220
  C      2.399950   -1.389580    1.009490
  H      2.440750   -3.087120    2.362980
  H      3.844480   -2.970460    1.318680
  C      2.070180   -1.936710   -0.372400
  H      1.481610   -1.061540    1.509910
  H      3.008630   -0.490000    0.897450
  C      1.322240   -0.935770   -1.256410
  H      1.472750   -2.850900   -0.284000
  H      3.003540   -2.234040   -0.862540
  H      0.316650   -0.787210   -0.848280
  H      1.185610   -1.379250   -2.248610
  H      1.403570    1.057640   -2.031390
  H      2.968110    0.305800   -1.831330
  H      2.091910    0.884500   -0.434750

 Total Charge           Charge          ....    0
 Multiplicity           Mult            ....    1
 Number of Electrons    NEL             ....   80
 Basis Dimension        Dim             ....  874

ORBITAL ENERGIES
----------------

  NO   OCC          E(Eh)            E(eV)
   0   2.0000     -15.561367      -423.4463
   1   2.0000     -15.558373      -423.3648
   2   2.0000     -11.286441      -307.1197
   3   2.0000     -11.265958      -306.5623
   4   2.0000     -11.220119      -305.3150
   5   2.0000     -11.218373      -305.2675
   6   2.0000     -11.216154      -305.2071
   7   2.0000     -11.215544      -305.1905
   8   2.0000     -11.202701      -304.8410
   9   2.0000     -11.126476      -302.7668
  10   2.0000      -1.287092       -35.0236
  11   2.0000      -1.179802       -32.1040
  12   2.0000      -1.090500       -29.6740
  13   2.0000      -1.043238       -28.3879
  14   2.0000      -0.989042       -26.9132
  15   2.0000      -0.942242       -25.6397
  16   2.0000      -0.883567       -24.0431
  17   2.0000      -0.826285       -22.4844
  18   2.0000      -0.796088       -21.6627
  19   2.0000      -0.774071       -21.0635
  20   2.0000      -0.716963       -19.5096
  21   2.0000      -0.675988       -18.3946
  22   2.0000      -0.644521       -17.5383
  23   2.0000      -0.641250       -17.4493
  24   2.0000      -0.619068       -16.8457
  25   2.0000      -0.601104       -16.3569
  26   2.0000      -0.592683       -16.1277
  27   2.0000      -0.569307       -15.4916
  28   2.0000      -0.555690       -15.1211
  29   2.0000      -0.544125       -14.8064
  30   2.0000      -0.531154       -14.4534
  31   2.0000      -0.519524       -14.1370
  32   2.0000      -0.512178       -13.9371
  33   2.0000      -0.494907       -13.4671
  34   2.0000      -0.481435       -13.1005
  35   2.0000      -0.459549       -12.5050
  36   2.0000      -0.457121       -12.4389
  37   2.0000      -0.450402       -12.2560
  38   2.0000      -0.398187       -10.8352
  39   2.0000      -0.264648        -7.2014
  40   0.0000       0.025208         0.6859
  41   0.0000       0.030801         0.8381
  42   0.0000       0.033541         0.9127
  43   0.0000       0.035913         0.9773
  44   0.0000       0.045235         1.2309

MULLIKEN ATOMIC CHARGES
-----------------------
   0 C :   -0.577323
   1 N :   -0.016982
   2 C :    0.726350
   3 N :   -0.480824
   4 C :   -1.451512
   5 H :    0.475388
   6 H :    0.232817
   7 H :    0.111302
   8 H :    0.144309
   9 H :    0.062931
  10 C :   -0.447197
  11 H :    0.262830
  12 H :    0.350397
  13 C :   -0.971648
  14 C :   -0.344352
  15 H :    0.320085
  16 H :    0.168589
  17 C :   -0.471915
  18 H :    0.271369
  19 H :    0.288951
  20 C :   -0.474340
  21 H :    0.226719
  22 H :    0.234918
  23 H :    0.214563
  24 H :    0.281220
  25 H :    0.270103
  26 H :    0.270824
  27 H :    0.322427
Sum of atomic charges:    0.0000000

LOEWDIN ATOMIC CHARGES
----------------------
   0 C :    0.216727
   1 N :    0.567416
   2 C :   -0.453162
   3 N :    0.872274
   4 C :    0.535809
   5 H :   -0.315030
   6 H :   -0.308700
   7 H :   -0.260474
   8 H :   -0.315101
   9 H :   -0.271958
  10 C :    0.304977
  11 H :   -0.135112
  12 H :   -0.153866
  13 C :    0.602563
  14 C :    0.270835
  15 H :   -0.137705
  16 H :   -0.144149
  17 C :    0.286062
  18 H :   -0.127108
  19 H :   -0.182231
  20 C :    0.274845
  21 H :   -0.136171
  22 H :   -0.140182
  23 H :   -0.147443
  24 H :   -0.146348
  25 H :   -0.180312
  26 H :   -0.175524
  27 H :   -0.200932

  Mayer bond orders larger than 0.100000
B(  0-C ,  1-N ) :   0.9356 B(  0-C ,  2-C ) :  -0.1324 B(  0-C , 10-C ) :   0.9821
B(  0-C , 11-H ) :   1.0395 B(  0-C , 12-H ) :   0.8942 B(  1-N ,  2-C ) :   0.6798
B(  1-N ,  4-C ) :  -0.2596 B(  1-N ,  7-H ) :   1.0711 B(  2-C ,  3-N ) :   0.7696
B(  2-C ,  4-C ) :   1.1254 B(  2-C ,  7-H ) :  -0.1189 B(  3-N ,  4-C ) :  -0.2166
B(  3-N ,  8-H ) :   1.0522 B(  3-N ,  9-H ) :   1.1077 B(  4-C ,  5-H ) :   0.7814
B(  4-C ,  6-H ) :   1.2343 B( 10-C , 14-C ) :   0.8508 B( 10-C , 15-H ) :   0.9202
B( 10-C , 16-H ) :   1.0168 B( 13-C , 20-C ) :   0.8149 B( 13-C , 25-H ) :   1.0134
B( 13-C , 26-H ) :   0.9593 B( 13-C , 27-H ) :   0.9113 B( 14-C , 17-C ) :   0.7731
B( 14-C , 18-H ) :   0.9728 B( 14-C , 19-H ) :   0.9393 B( 17-C , 20-C ) :   0.9255
B( 17-C , 21-H ) :   0.9645 B( 17-C , 22-H ) :   0.9835 B( 20-C , 23-H ) :   0.9822
B( 20-C , 24-H ) :   0.9531

E(0)                                       ...   -422.434238576
E(0)                                       ...   -422.434238576
E(CORR)(strong-pairs)                      ...     -1.912224609
E(CORR)(weak-pairs)                        ...     -0.002843407
E(CORR)(corrected)                         ...     -1.915068016
E(TOT)                                     ...   -424.349306592
E(CCSD(T))                                 ...   -424.427449247
FINAL SINGLE POINT ENERGY      -424.427449247009

DIPOLE MOMENT
-------------
                                X             Y             Z
Electronic contribution:      6.26802      -1.92684       6.01018
Nuclear contribution   :     -7.13675       1.35080      -5.55052
                        -----------------------------------------
Total Dipole Moment    :     -0.86873      -0.57604       0.45966
                        -----------------------------------------
Magnitude (a.u.)       :      1.13921
Magnitude (Debye)      :      2.89564

Rotational constants in cm-1:     0.070257     0.018862     0.016761
Rotational constants in MHz :  2106.264563   565.472744   502.476516

                             ****ORCA TERMINATED NORMALLY****
TOTAL RUN TIME: 0 days 2 hours 32 minutes 11 seconds 591 msec
