                         Program Version 5.0.0 -  RELEASE  -
|  1> !DLPNO-CCSD(T) aug-cc-pVTZ aug-cc-pVTZ/C TightSCF TightPNO RIJCOSX def2/J
|  2> *xyz 0 1
|  3> C          3.91385       -1.65829        3.01513
|  4> N          5.03927       -0.90115        2.49282
|  5> C          6.21038       -1.41726        2.17824
|  6> N          6.53591       -2.67712        2.55608
|  7> C          7.07675       -0.70082        1.47891
|  8> H          7.95464       -1.12155        1.20755
|  9> H          6.75616        0.10664        0.96028
| 10> H          4.84217        0.01761        2.11519
| 11> H          5.99388       -3.12692        3.28278
| 12> C          3.13916       -2.37657        1.91061
| 13> H          3.26723       -0.93940        3.52069
| 14> H          4.24720       -2.35509        3.79006
| 15> H          7.49844       -2.97548        2.46878
| 16> H          2.82969       -1.66654        1.17238
| 17> H          2.27790       -2.85264        2.33072
| 18> H          3.76754       -3.11338        1.45548
| 19> *
| 20> %MaxCore 64000
| 21> %pal nprocs 8
| 22> end
| 23> %scf
| 24>   MaxIter 150
| 25> end
| 26>
| 27>
| 28>                          ****END OF INPUT****

CARTESIAN COORDINATES (ANGSTROEM)
---------------------------------
  C      3.913850   -1.658290    3.015130
  N      5.039270   -0.901150    2.492820
  C      6.210380   -1.417260    2.178240
  N      6.535910   -2.677120    2.556080
  C      7.076750   -0.700820    1.478910
  H      7.954640   -1.121550    1.207550
  H      6.756160    0.106640    0.960280
  H      4.842170    0.017610    2.115190
  H      5.993880   -3.126920    3.282780
  C      3.139160   -2.376570    1.910610
  H      3.267230   -0.939400    3.520690
  H      4.247200   -2.355090    3.790060
  H      7.498440   -2.975480    2.468780
  H      2.829690   -1.666540    1.172380
  H      2.277900   -2.852640    2.330720
  H      3.767540   -3.113380    1.455480

 Total Charge           Charge          ....    0
 Multiplicity           Mult            ....    1
 Number of Electrons    NEL             ....   48
 Basis Dimension        Dim             ....  506

ORBITAL ENERGIES
----------------

  NO   OCC          E(Eh)            E(eV)
   0   2.0000     -15.562005      -423.4637
   1   2.0000     -15.559212      -423.3877
   2   2.0000     -11.286644      -307.1252
   3   2.0000     -11.269078      -306.6472
   4   2.0000     -11.211866      -305.0904
   5   2.0000     -11.126449      -302.7661
   6   2.0000      -1.287371       -35.0311
   7   2.0000      -1.179570       -32.0977
   8   2.0000      -1.038361       -28.2552
   9   2.0000      -0.960175       -26.1277
  10   2.0000      -0.857186       -23.3252
  11   2.0000      -0.800808       -21.7911
  12   2.0000      -0.719204       -19.5705
  13   2.0000      -0.673111       -18.3163
  14   2.0000      -0.645624       -17.5683
  15   2.0000      -0.603714       -16.4279
  16   2.0000      -0.598184       -16.2774
  17   2.0000      -0.567331       -15.4379
  18   2.0000      -0.536482       -14.5984
  19   2.0000      -0.522619       -14.2212
  20   2.0000      -0.509796       -13.8723
  21   2.0000      -0.505181       -13.7467
  22   2.0000      -0.399874       -10.8811
  23   2.0000      -0.264781        -7.2051
  24   0.0000       0.026198         0.7129
  25   0.0000       0.033932         0.9233
  26   0.0000       0.039138         1.0650
  27   0.0000       0.040589         1.1045
  28   0.0000       0.053692         1.4610

MULLIKEN ATOMIC CHARGES
-----------------------
   0 C :   -0.444083
   1 N :   -0.125303
   2 C :    0.557214
   3 N :   -0.412854
   4 C :   -1.265666
   5 H :    0.452035
   6 H :    0.309414
   7 H :    0.045755
   8 H :    0.173422
   9 C :   -0.927154
  10 H :    0.363314
  11 H :    0.303293
  12 H :    0.059952
  13 H :    0.257260
  14 H :    0.319032
  15 H :    0.334368
Sum of atomic charges:    0.0000000

LOEWDIN ATOMIC CHARGES
----------------------
   0 C :    0.197758
   1 N :    0.560299
   2 C :   -0.458610
   3 N :    0.869348
   4 C :    0.532917
   5 H :   -0.315595
   6 H :   -0.309334
   7 H :   -0.254021
   8 H :   -0.316750
   9 C :    0.618179
  10 H :   -0.143149
  11 H :   -0.158383
  12 H :   -0.272357
  13 H :   -0.180537
  14 H :   -0.186621
  15 H :   -0.183144

  Mayer bond orders larger than 0.100000
B(  0-C ,  1-N ) :   0.9283 B(  0-C ,  2-C ) :  -0.1311 B(  0-C ,  9-C ) :   0.8857
B(  0-C , 10-H ) :   0.9144 B(  0-C , 11-H ) :   0.8953 B(  1-N ,  2-C ) :   0.7029
B(  1-N ,  4-C ) :  -0.2336 B(  1-N ,  7-H ) :   1.1295 B(  2-C ,  3-N ) :   0.8521
B(  2-C ,  4-C ) :   1.1097 B(  3-N ,  4-C ) :  -0.1855 B(  3-N ,  8-H ) :   1.0147
B(  3-N , 12-H ) :   1.1169 B(  4-C ,  5-H ) :   0.8296 B(  4-C ,  6-H ) :   1.0712
B(  9-C , 13-H ) :   0.9880 B(  9-C , 14-H ) :   0.9171 B(  9-C , 15-H ) :   0.9127

E(0)                                       ...   -266.248515777
E(0)                                       ...   -266.248515777
E(CORR)(strong-pairs)                      ...     -1.162607723
E(CORR)(weak-pairs)                        ...     -0.001247943
E(CORR)(corrected)                         ...     -1.163855666
E(TOT)                                     ...   -267.412371442
E(CCSD(T))                                 ...   -267.459874299
FINAL SINGLE POINT ENERGY      -267.459874299466

DIPOLE MOMENT
-------------
                                X             Y             Z
Electronic contribution:      2.45301       0.86914       0.99062
Nuclear contribution   :     -3.31079      -1.42658      -0.45147
                        -----------------------------------------
Total Dipole Moment    :     -0.85778      -0.55744       0.53916
                        -----------------------------------------
Magnitude (a.u.)       :      1.15638
Magnitude (Debye)      :      2.93928

Rotational constants in cm-1:     0.225507     0.077571     0.068070
Rotational constants in MHz :  6760.542142  2325.533779  2040.680522

                             ****ORCA TERMINATED NORMALLY****
TOTAL RUN TIME: 0 days 0 hours 27 minutes 8 seconds 990 msec
