                         Program Version 5.0.0 -  RELEASE  -
|  1> !DLPNO-CCSD(T) aug-cc-pVTZ aug-cc-pVTZ/C TightSCF TightPNO RIJCOSX def2/J
|  2> *xyz 0 1
|  3> C          3.91385       -1.65829        3.01513
|  4> N          5.03927       -0.90115        2.49282
|  5> C          4.08422        1.74208       -2.11472
|  6> C          4.26524        2.50052       -0.79589
|  7> C          6.21038       -1.41726        2.17824
|  8> N          6.53591       -2.67712        2.55608
|  9> C          7.07675       -0.70082        1.47891
| 10> H          7.95464       -1.12155        1.20755
| 11> H          6.75616        0.10664        0.96028
| 12> H          4.84217        0.01761        2.11519
| 13> H          5.99388       -3.12692        3.28278
| 14> H          7.49844       -2.97548        2.46878
| 15> C          3.13916       -2.37657        1.91061
| 16> H          3.26723       -0.93940        3.52069
| 17> H          4.24720       -2.35509        3.79006
| 18> C          1.99727        0.43092       -1.39922
| 19> C          3.41275        0.37689       -1.96550
| 20> H          4.04741       -0.24659       -1.32671
| 21> H          3.39077       -0.11872       -2.94284
| 22> H          5.06847        1.59850       -2.56573
| 23> H          3.50336        2.36394       -2.80457
| 24> C          2.39995       -1.38958        1.00949
| 25> H          2.44075       -3.08712        2.36298
| 26> H          3.84448       -2.97046        1.31868
| 27> C          2.07018       -1.93671       -0.37240
| 28> H          1.48161       -1.06154        1.50991
| 29> H          3.00863       -0.49000        0.89745
| 30> C          1.32224       -0.93577       -1.25641
| 31> H          1.47275       -2.85090       -0.28400
| 32> H          3.00354       -2.23404       -0.86254
| 33> H          1.37644        1.05892       -2.04742
| 34> H          2.01534        0.92978       -0.42653
| 35> H          0.31665       -0.78721       -0.84828
| 36> H          1.18561       -1.37925       -2.24861
| 37> H          4.73963        3.44035       -0.98715
| 38> H          4.87389        1.92223       -0.13253
| 39> H          3.30865        2.66865       -0.34693
| 40> *
| 41> %MaxCore 64000
| 42> %pal nprocs 4
| 43> end
| 44> %scf
| 45>   MaxIter 150
| 46> end
| 47>
| 48>                          ****END OF INPUT****

CARTESIAN COORDINATES (ANGSTROEM)
---------------------------------
  C      3.913850   -1.658290    3.015130
  N      5.039270   -0.901150    2.492820
  C      4.084220    1.742080   -2.114720
  C      4.265240    2.500520   -0.795890
  C      6.210380   -1.417260    2.178240
  N      6.535910   -2.677120    2.556080
  C      7.076750   -0.700820    1.478910
  H      7.954640   -1.121550    1.207550
  H      6.756160    0.106640    0.960280
  H      4.842170    0.017610    2.115190
  H      5.993880   -3.126920    3.282780
  H      7.498440   -2.975480    2.468780
  C      3.139160   -2.376570    1.910610
  H      3.267230   -0.939400    3.520690
  H      4.247200   -2.355090    3.790060
  C      1.997270    0.430920   -1.399220
  C      3.412750    0.376890   -1.965500
  H      4.047410   -0.246590   -1.326710
  H      3.390770   -0.118720   -2.942840
  H      5.068470    1.598500   -2.565730
  H      3.503360    2.363940   -2.804570
  C      2.399950   -1.389580    1.009490
  H      2.440750   -3.087120    2.362980
  H      3.844480   -2.970460    1.318680
  C      2.070180   -1.936710   -0.372400
  H      1.481610   -1.061540    1.509910
  H      3.008630   -0.490000    0.897450
  C      1.322240   -0.935770   -1.256410
  H      1.472750   -2.850900   -0.284000
  H      3.003540   -2.234040   -0.862540
  H      1.376440    1.058920   -2.047420
  H      2.015340    0.929780   -0.426530
  H      0.316650   -0.787210   -0.848280
  H      1.185610   -1.379250   -2.248610
  H      4.739630    3.440350   -0.987150
  H      4.873890    1.922230   -0.132530
  H      3.308650    2.668650   -0.346930

 Total Charge           Charge          ....    0
 Multiplicity           Mult            ....    1
 Number of Electrons    NEL             ....  104
 Basis Dimension        Dim             .... 1150

ORBITAL ENERGIES
----------------

  NO   OCC          E(Eh)            E(eV)
   0   2.0000     -15.561696      -423.4553
   1   2.0000     -15.558676      -423.3731
   2   2.0000     -11.286960      -307.1338
   3   2.0000     -11.265940      -306.5618
   4   2.0000     -11.219926      -305.3097
   5   2.0000     -11.217850      -305.2532
   6   2.0000     -11.214790      -305.1699
   7   2.0000     -11.214133      -305.1521
   8   2.0000     -11.211978      -305.0934
   9   2.0000     -11.211816      -305.0890
  10   2.0000     -11.210078      -305.0417
  11   2.0000     -11.200759      -304.7882
  12   2.0000     -11.127051      -302.7824
  13   2.0000      -1.287438       -35.0330
  14   2.0000      -1.180100       -32.1122
  15   2.0000      -1.098800       -29.8999
  16   2.0000      -1.069442       -29.1010
  17   2.0000      -1.033799       -28.1311
  18   2.0000      -0.991124       -26.9698
  19   2.0000      -0.954026       -25.9604
  20   2.0000      -0.913110       -24.8470
  21   2.0000      -0.868548       -23.6344
  22   2.0000      -0.826384       -22.4870
  23   2.0000      -0.800912       -21.7939
  24   2.0000      -0.787098       -21.4180
  25   2.0000      -0.752890       -20.4872
  26   2.0000      -0.717263       -19.5177
  27   2.0000      -0.676421       -18.4064
  28   2.0000      -0.648224       -17.6391
  29   2.0000      -0.641029       -17.4433
  30   2.0000      -0.635655       -17.2970
  31   2.0000      -0.616095       -16.7648
  32   2.0000      -0.600880       -16.3508
  33   2.0000      -0.590762       -16.0754
  34   2.0000      -0.587417       -15.9844
  35   2.0000      -0.565696       -15.3934
  36   2.0000      -0.554569       -15.0906
  37   2.0000      -0.542999       -14.7758
  38   2.0000      -0.538633       -14.6569
  39   2.0000      -0.528624       -14.3846
  40   2.0000      -0.520281       -14.1576
  41   2.0000      -0.503722       -13.7070
  42   2.0000      -0.500583       -13.6215
  43   2.0000      -0.489416       -13.3177
  44   2.0000      -0.474239       -12.9047
  45   2.0000      -0.468959       -12.7610
  46   2.0000      -0.460388       -12.5278
  47   2.0000      -0.443837       -12.0774
  48   2.0000      -0.441919       -12.0252
  49   2.0000      -0.438287       -11.9264
  50   2.0000      -0.398407       -10.8412
  51   2.0000      -0.265193        -7.2163
  52   0.0000       0.024397         0.6639
  53   0.0000       0.030010         0.8166
  54   0.0000       0.032484         0.8839
  55   0.0000       0.033993         0.9250
  56   0.0000       0.041856         1.1390

MULLIKEN ATOMIC CHARGES
-----------------------
   0 C :   -0.652917
   1 N :   -0.096695
   2 C :   -0.544231
   3 C :   -1.117430
   4 C :    0.778808
   5 N :   -0.544589
   6 C :   -1.662242
   7 H :    0.317641
   8 H :    0.673118
   9 H :    0.259565
  10 H :    0.125004
  11 H :    0.062555
  12 C :   -0.440396
  13 H :    0.198507
  14 H :    0.321251
  15 C :   -0.303059
  16 C :   -0.472941
  17 H :    0.453120
  18 H :    0.200690
  19 H :    0.248078
  20 H :    0.176145
  21 C :   -0.576227
  22 H :    0.296002
  23 H :    0.143546
  24 C :   -0.340359
  25 H :    0.265158
  26 H :    0.510520
  27 C :   -0.712775
  28 H :    0.517243
  29 H :    0.020860
  30 H :    0.500881
  31 H :    0.132308
  32 H :    0.130806
  33 H :    0.158741
  34 H :    0.261329
  35 H :    0.479136
  36 H :    0.232847
Sum of atomic charges:   -0.0000000

LOEWDIN ATOMIC CHARGES
----------------------
   0 C :    0.218698
   1 N :    0.569178
   2 C :    0.280921
   3 C :    0.604162
   4 C :   -0.451620
   5 N :    0.873180
   6 C :    0.537211
   7 H :   -0.313749
   8 H :   -0.313304
   9 H :   -0.263632
  10 H :   -0.314893
  11 H :   -0.271749
  12 C :    0.308454
  13 H :   -0.134647
  14 H :   -0.153581
  15 C :    0.278476
  16 C :    0.279322
  17 H :   -0.155989
  18 H :   -0.131701
  19 H :   -0.148000
  20 H :   -0.144073
  21 C :    0.276270
  22 H :   -0.137216
  23 H :   -0.142881
  24 C :    0.288736
  25 H :   -0.124351
  26 H :   -0.183132
  27 C :    0.299450
  28 H :   -0.132290
  29 H :   -0.148094
  30 H :   -0.131917
  31 H :   -0.173870
  32 H :   -0.141630
  33 H :   -0.140560
  34 H :   -0.178656
  35 H :   -0.185784
  36 H :   -0.196737

  Mayer bond orders larger than 0.100000
B(  0-C ,  1-N ) :   0.9512 B(  0-C ,  4-C ) :  -0.1429 B(  0-C , 12-C ) :   0.9677
B(  0-C , 13-H ) :   1.1049 B(  0-C , 14-H ) :   0.9264 B(  0-C , 21-C ) :   0.1512
B(  1-N ,  4-C ) :   0.7796 B(  1-N ,  5-N ) :  -0.1219 B(  1-N ,  6-C ) :  -0.1712
B(  1-N ,  9-H ) :   0.9047 B(  1-N , 21-C ) :  -0.1047 B(  2-C ,  3-C ) :   0.7984
B(  2-C , 16-C ) :   0.8847 B(  2-C , 19-H ) :   1.0003 B(  2-C , 20-H ) :   1.0404
B(  3-C , 34-H ) :   1.0500 B(  3-C , 35-H ) :   0.7713 B(  3-C , 36-H ) :   1.0271
B(  4-C ,  5-N ) :   0.7466 B(  4-C ,  6-C ) :   1.0349 B(  4-C ,  7-H ) :  -0.1051
B(  4-C ,  9-H ) :  -0.1171 B(  4-C , 10-H ) :  -0.1038 B(  5-N ,  6-C ) :  -0.2256
B(  5-N , 10-H ) :   1.0860 B(  5-N , 11-H ) :   1.1190 B(  6-C ,  7-H ) :   1.1502
B(  6-C ,  8-H ) :   0.4960 B( 12-C , 21-C ) :   0.8541 B( 12-C , 22-H ) :   0.9411
B( 12-C , 23-H ) :   1.0519 B( 15-C , 16-C ) :   0.8123 B( 15-C , 27-C ) :   0.9068
B( 15-C , 30-H ) :   0.7635 B( 15-C , 31-H ) :   1.1047 B( 16-C , 17-H ) :   0.8438
B( 16-C , 18-H ) :   1.0746 B( 21-C , 24-C ) :   0.7606 B( 21-C , 25-H ) :   1.0034
B( 21-C , 26-H ) :   0.8419 B( 24-C , 27-C ) :   0.8772 B( 24-C , 28-H ) :   0.7300
B( 24-C , 29-H ) :   1.1796 B( 27-C , 29-H ) :   0.1038 B( 27-C , 32-H ) :   1.1112
B( 27-C , 33-H ) :   1.0606

E(0)                                       ...   -539.573861343
E(0)                                       ...   -539.573861343
E(CORR)(strong-pairs)                      ...     -2.476158636
E(CORR)(weak-pairs)                        ...     -0.004459916
E(CORR)(corrected)                         ...     -2.480618552
E(TOT)                                     ...   -542.054479895
E(CCSD(T))                                 ...   -542.155849558
FINAL SINGLE POINT ENERGY      -542.155849557939

DIPOLE MOMENT
-------------
                                X             Y             Z
Electronic contribution:      4.42894      -5.06476       6.95005
Nuclear contribution   :     -5.25547       4.49594      -6.52082
                        -----------------------------------------
Total Dipole Moment    :     -0.82653      -0.56882       0.42922
                        -----------------------------------------
Magnitude (a.u.)       :      1.09130
Magnitude (Debye)      :      2.77388

Rotational constants in cm-1:     0.028821     0.014236     0.010753
Rotational constants in MHz :   864.025906   426.791991   322.366005

                             ****ORCA TERMINATED NORMALLY****
TOTAL RUN TIME: 0 days 9 hours 2 minutes 11 seconds 334 msec
