                         Program Version 5.0.0 -  RELEASE  -
|  1> !DLPNO-CCSD(T) aug-cc-pVTZ aug-cc-pVTZ/C TightSCF TightPNO RIJCOSX def2/J
|  2> *xyz 0 1
|  3> C          3.91385       -1.65829        3.01513
|  4> N          5.03927       -0.90115        2.49282
|  5> C          6.21038       -1.41726        2.17824
|  6> N          6.53591       -2.67712        2.55608
|  7> C          7.07675       -0.70082        1.47891
|  8> H          7.95464       -1.12155        1.20755
|  9> H          6.75616        0.10664        0.96028
| 10> H          4.84217        0.01761        2.11519
| 11> H          5.99388       -3.12692        3.28278
| 12> H          7.49844       -2.97548        2.46878
| 13> C          3.13916       -2.37657        1.91061
| 14> H          3.26723       -0.93940        3.52069
| 15> H          4.24720       -2.35509        3.79006
| 16> C          2.39995       -1.38958        1.00949
| 17> H          2.44075       -3.08712        2.36298
| 18> H          3.84448       -2.97046        1.31868
| 19> H          1.87065       -1.92698        0.25058
| 20> H          3.10498       -0.72749        0.55181
| 21> H          1.70633       -0.82279        1.59477
| 22> *
| 23> %MaxCore 64000
| 24> %pal nprocs 2
| 25> end
| 26> %scf
| 27>   MaxIter 150
| 28> end
| 29>
| 30>
| 31>                          ****END OF INPUT****

CARTESIAN COORDINATES (ANGSTROEM)
---------------------------------
  C      3.913850   -1.658290    3.015130
  N      5.039270   -0.901150    2.492820
  C      6.210380   -1.417260    2.178240
  N      6.535910   -2.677120    2.556080
  C      7.076750   -0.700820    1.478910
  H      7.954640   -1.121550    1.207550
  H      6.756160    0.106640    0.960280
  H      4.842170    0.017610    2.115190
  H      5.993880   -3.126920    3.282780
  H      7.498440   -2.975480    2.468780
  C      3.139160   -2.376570    1.910610
  H      3.267230   -0.939400    3.520690
  H      4.247200   -2.355090    3.790060
  C      2.399950   -1.389580    1.009490
  H      2.440750   -3.087120    2.362980
  H      3.844480   -2.970460    1.318680
  H      1.870650   -1.926980    0.250580
  H      3.104980   -0.727490    0.551810
  H      1.706330   -0.822790    1.594770

 Total Charge           Charge          ....    0
 Multiplicity           Mult            ....    1
 Number of Electrons    NEL             ....   56
 Basis Dimension        Dim             ....  598

ORBITAL ENERGIES
----------------

  NO   OCC          E(Eh)            E(eV)
   0   2.0000     -15.561634      -423.4536
   1   2.0000     -15.558871      -423.3784
   2   2.0000     -11.286746      -307.1280
   3   2.0000     -11.266152      -306.5676
   4   2.0000     -11.222434      -305.3780
   5   2.0000     -11.210116      -305.0428
   6   2.0000     -11.126745      -302.7741
   7   2.0000      -1.287439       -35.0330
   8   2.0000      -1.179988       -32.1091
   9   2.0000      -1.062130       -28.9020
  10   2.0000      -0.985313       -26.8117
  11   2.0000      -0.915424       -24.9099
  12   2.0000      -0.826048       -22.4779
  13   2.0000      -0.792499       -21.5650
  14   2.0000      -0.717702       -19.5297
  15   2.0000      -0.676032       -18.3958
  16   2.0000      -0.644956       -17.5502
  17   2.0000      -0.627192       -17.0668
  18   2.0000      -0.604631       -16.4529
  19   2.0000      -0.568468       -15.4688
  20   2.0000      -0.554233       -15.0815
  21   2.0000      -0.550705       -14.9854
  22   2.0000      -0.522474       -14.2173
  23   2.0000      -0.496271       -13.5042
  24   2.0000      -0.490123       -13.3369
  25   2.0000      -0.484715       -13.1898
  26   2.0000      -0.398876       -10.8540
  27   2.0000      -0.264895        -7.2082
  28   0.0000       0.026249         0.7143
  29   0.0000       0.033640         0.9154
  30   0.0000       0.037621         1.0237
  31   0.0000       0.038734         1.0540
  32   0.0000       0.051329         1.3967

MULLIKEN ATOMIC CHARGES
-----------------------
   0 C :   -0.449265
   1 N :   -0.125785
   2 C :    0.739030
   3 N :   -0.454117
   4 C :   -1.385213
   5 H :    0.489389
   6 H :    0.239026
   7 H :    0.057753
   8 H :    0.146014
   9 H :    0.067614
  10 C :   -0.422009
  11 H :    0.339769
  12 H :    0.316041
  13 C :   -1.001200
  14 H :    0.362157
  15 H :    0.199980
  16 H :    0.269687
  17 H :    0.363744
  18 H :    0.247385
Sum of atomic charges:   -0.0000000

LOEWDIN ATOMIC CHARGES
----------------------
   0 C :    0.207253
   1 N :    0.562711
   2 C :   -0.456072
   3 N :    0.871423
   4 C :    0.534854
   5 H :   -0.314945
   6 H :   -0.308697
   7 H :   -0.257521
   8 H :   -0.315441
   9 H :   -0.272092
  10 C :    0.281728
  11 H :   -0.140258
  12 H :   -0.155221
  13 C :    0.602321
  14 H :   -0.145620
  15 H :   -0.145545
  16 H :   -0.179957
  17 H :   -0.185914
  18 H :   -0.183006

  Mayer bond orders larger than 0.100000
B(  0-C ,  1-N ) :   0.9408 B(  0-C ,  2-C ) :  -0.1147 B(  0-C , 10-C ) :   0.9345
B(  0-C , 11-H ) :   0.9340 B(  0-C , 12-H ) :   0.9125 B(  1-N ,  2-C ) :   0.7217
B(  1-N ,  4-C ) :  -0.2078 B(  1-N ,  7-H ) :   1.1109 B(  2-C ,  3-N ) :   0.8587
B(  2-C ,  4-C ) :   1.0850 B(  3-N ,  4-C ) :  -0.2063 B(  3-N ,  8-H ) :   1.0428
B(  3-N ,  9-H ) :   1.1013 B(  4-C ,  5-H ) :   0.7597 B(  4-C ,  6-H ) :   1.2096
B( 10-C , 13-C ) :   0.8022 B( 10-C , 14-H ) :   0.8631 B( 10-C , 15-H ) :   1.0207
B( 13-C , 16-H ) :   1.0067 B( 13-C , 17-H ) :   0.8794 B( 13-C , 18-H ) :   0.9931

E(0)                                       ...   -305.295250458
E(0)                                       ...   -305.295250458
E(CORR)(strong-pairs)                      ...     -1.350350410
E(CORR)(weak-pairs)                        ...     -0.001620363
E(CORR)(corrected)                         ...     -1.351970773
E(TOT)                                     ...   -306.647221231
E(CCSD(T))                                 ...   -306.702442362
FINAL SINGLE POINT ENERGY      -306.702442361546

DIPOLE MOMENT
-------------
                                X             Y             Z
Electronic contribution:      3.90171       0.04442       2.07508
Nuclear contribution   :     -4.75859      -0.62546      -1.57128
                        -----------------------------------------
Total Dipole Moment    :     -0.85688      -0.58104       0.50380
                        -----------------------------------------
Magnitude (a.u.)       :      1.15137
Magnitude (Debye)      :      2.92656

Rotational constants in cm-1:     0.161886     0.051080     0.045854
Rotational constants in MHz :  4853.220099  1531.326912  1374.680035

                             ****ORCA TERMINATED NORMALLY****
TOTAL RUN TIME: 0 days 2 hours 8 minutes 22 seconds 163 msec
