                         Program Version 5.0.0 -  RELEASE  -
|  1> !DLPNO-CCSD(T) aug-cc-pVTZ aug-cc-pVTZ/C TightSCF TightPNO RIJCOSX def2/J
|  2>
|  3> *xyzfile 0 1 D4.xyz
|  4>
|  5> %MaxCore 64000
|  6>
|  7> %pal nprocs 18
|  8> end
|  9>
| 10> %scf
| 11>   MaxIter 150
| 12> end
| 13>
| 14>
| 15>                          ****END OF INPUT****

CARTESIAN COORDINATES (ANGSTROEM)
---------------------------------
  C      3.913853   -1.658291    3.015134
  C      5.039266   -0.901154    2.492821
  C      4.084215    1.742081   -2.114724
  C      4.265245    2.500518   -0.795890
  H      4.868534    3.392674   -0.981134
  H      3.307640    2.824571   -0.387809
  C      4.982240    1.650257    0.247422
  C      6.210384   -1.417261    2.178244
  N      6.535913   -2.677122    2.556078
  N      7.076754   -0.700820    1.478906
  H      7.954643   -1.121554    1.207554
  H      6.756161    0.106637    0.960278
  H      4.842168    0.017609    2.115191
  H      5.993876   -3.126918    3.282784
  H      7.498441   -2.975482    2.468776
  O      4.368065    1.389270    1.313706
  F      6.128919    1.233512   -0.045620
  C      3.139159   -2.376572    1.910609
  H      3.267235   -0.939401    3.520693
  H      4.247195   -2.355095    3.790065
  C      1.997274    0.430918   -1.399218
  C      3.412746    0.376886   -1.965497
  H      4.047407   -0.246590   -1.326706
  H      3.390774   -0.118719   -2.942839
  H      5.068475    1.598504   -2.565728
  H      3.503356    2.363939   -2.804565
  C      2.399946   -1.389579    1.009490
  H      2.440750   -3.087118    2.362976
  H      3.844475   -2.970462    1.318677
  C      2.070177   -1.936705   -0.372401
  H      1.481611   -1.061542    1.509912
  H      3.008628   -0.490001    0.897451
  C      1.322238   -0.935775   -1.256413
  H      1.472747   -2.850902   -0.283997
  H      3.003539   -2.234041   -0.862535
  H      1.376444    1.058920   -2.047420
  H      2.015341    0.929780   -0.426535
  H      0.316648   -0.787213   -0.848278
  H      1.185611   -1.379252   -2.248613

 Total Charge           Charge          ....    0
 Multiplicity           Mult            ....    1
 Number of Electrons    NEL             ....  126
 Basis Dimension        Dim             .... 1265

ORBITAL ENERGIES
----------------

  NO   OCC          E(Eh)            E(eV)
   0   2.0000     -26.402673      -718.4533
   1   2.0000     -20.572390      -559.8032
   2   2.0000     -15.542834      -422.9420
   3   2.0000     -15.533573      -422.6900
   4   2.0000     -11.445229      -311.4405
   5   2.0000     -11.265921      -306.5613
   6   2.0000     -11.255417      -306.2755
   7   2.0000     -11.247330      -306.0554
   8   2.0000     -11.228835      -305.5521
   9   2.0000     -11.217121      -305.2334
  10   2.0000     -11.210743      -305.0598
  11   2.0000     -11.201194      -304.8000
  12   2.0000     -11.188647      -304.4586
  13   2.0000     -11.184483      -304.3452
  14   2.0000     -11.177160      -304.1460
  15   2.0000     -11.099802      -302.0410
  16   2.0000      -1.762570       -47.9620
  17   2.0000      -1.392643       -37.8957
  18   2.0000      -1.255596       -34.1665
  19   2.0000      -1.144741       -31.1500
  20   2.0000      -1.116436       -30.3798
  21   2.0000      -1.078033       -29.3348
  22   2.0000      -1.044405       -28.4197
  23   2.0000      -1.007158       -27.4062
  24   2.0000      -0.966082       -26.2884
  25   2.0000      -0.932228       -25.3672
  26   2.0000      -0.910128       -24.7658
  27   2.0000      -0.865738       -23.5579
  28   2.0000      -0.827693       -22.5227
  29   2.0000      -0.816729       -22.2243
  30   2.0000      -0.800707       -21.7883
  31   2.0000      -0.790183       -21.5020
  32   2.0000      -0.755361       -20.5544
  33   2.0000      -0.745999       -20.2997
  34   2.0000      -0.726266       -19.7627
  35   2.0000      -0.692562       -18.8456
  36   2.0000      -0.667528       -18.1644
  37   2.0000      -0.655412       -17.8347
  38   2.0000      -0.648220       -17.6390
  39   2.0000      -0.627422       -17.0730
  40   2.0000      -0.617672       -16.8077
  41   2.0000      -0.603179       -16.4133
  42   2.0000      -0.593740       -16.1565
  43   2.0000      -0.577273       -15.7084
  44   2.0000      -0.566330       -15.4106
  45   2.0000      -0.558238       -15.1904
  46   2.0000      -0.550259       -14.9733
  47   2.0000      -0.537639       -14.6299
  48   2.0000      -0.531063       -14.4510
  49   2.0000      -0.524400       -14.2697
  50   2.0000      -0.513507       -13.9732
  51   2.0000      -0.508071       -13.8253
  52   2.0000      -0.486763       -13.2455
  53   2.0000      -0.478577       -13.0227
  54   2.0000      -0.473214       -12.8768
  55   2.0000      -0.467759       -12.7284
  56   2.0000      -0.446114       -12.1394
  57   2.0000      -0.438698       -11.9376
  58   2.0000      -0.434541       -11.8245
  59   2.0000      -0.425593       -11.5810
  60   2.0000      -0.409620       -11.1463
  61   2.0000      -0.396870       -10.7994
  62   2.0000      -0.235588        -6.4107
  63   0.0000       0.020845         0.5672
  64   0.0000       0.029167         0.7937
  65   0.0000       0.031507         0.8574
  66   0.0000       0.034364         0.9351
  67   0.0000       0.041483         1.1288

MULLIKEN ATOMIC CHARGES
-----------------------
   0 C :   -0.505923
   1 C :   -0.849442
   2 C :   -0.613484
   3 C :   -0.204330
   4 H :    0.421117
   5 H :    0.187330
   6 C :    0.954462
   7 C :    1.064542
   8 N :   -0.629524
   9 N :   -0.672456
  10 H :    0.061012
  11 H :    0.401849
  12 H :    0.630059
  13 H :    0.095848
  14 H :    0.089909
  15 O :   -0.915589
  16 F :   -0.620275
  17 C :   -0.561126
  18 H :    0.161347
  19 H :    0.244677
  20 C :   -0.315709
  21 C :   -0.416872
  22 H :    0.246844
  23 H :    0.336220
  24 H :    0.133507
  25 H :    0.288606
  26 C :   -0.492481
  27 H :    0.225154
  28 H :    0.110806
  29 C :   -0.400398
  30 H :    0.216875
  31 H :    0.681832
  32 C :   -0.751627
  33 H :    0.537468
  34 H :    0.005925
  35 H :    0.460827
  36 H :    0.135906
  37 H :    0.114839
  38 H :    0.142277
Sum of atomic charges:    0.0000000

LOEWDIN ATOMIC CHARGES
----------------------
   0 C :    0.242478
   1 C :    0.193019
   2 C :    0.288844
   3 C :    0.293483
   4 H :   -0.148469
   5 H :   -0.158637
   6 C :   -0.766114
   7 C :   -0.401642
   8 N :    0.871342
   9 N :    0.862723
  10 H :   -0.276853
  11 H :   -0.534896
  12 H :   -0.568503
  13 H :   -0.306129
  14 H :   -0.288741
  15 O :    0.590972
  16 F :    0.740273
  17 C :    0.299609
  18 H :   -0.141075
  19 H :   -0.164310
  20 C :    0.285832
  21 C :    0.283440
  22 H :   -0.161291
  23 H :   -0.124153
  24 H :   -0.146866
  25 H :   -0.132609
  26 C :    0.280152
  27 H :   -0.141829
  28 H :   -0.146892
  29 C :    0.287705
  30 H :   -0.121299
  31 H :   -0.226609
  32 C :    0.301312
  33 H :   -0.132651
  34 H :   -0.149704
  35 H :   -0.132675
  36 H :   -0.166872
  37 H :   -0.139825
  38 H :   -0.142535

  Mayer bond orders larger than 0.100000
B(  0-C ,  1-C ) :   0.7665 B(  0-C , 17-C ) :   0.9696 B(  0-C , 18-H ) :   1.1759
B(  0-C , 19-H ) :   0.9319 B(  1-C ,  7-C ) :   1.2789 B(  1-C ,  8-N ) :  -0.1666
B(  1-C , 12-H ) :   0.5677 B(  1-C , 17-C ) :   0.1542 B(  1-C , 18-H ) :  -0.1707
B(  2-C ,  3-C ) :   0.9607 B(  2-C ,  6-C ) :   0.1293 B(  2-C , 21-C ) :   0.8687
B(  2-C , 24-H ) :   1.0996 B(  2-C , 25-H ) :   0.9082 B(  3-C ,  4-H ) :   0.8886
B(  3-C ,  5-H ) :   1.0104 B(  3-C ,  6-C ) :   0.6254 B(  3-C , 15-O ) :  -0.1598
B(  4-H ,  6-C ) :  -0.1187 B(  6-C , 15-O ) :   1.5992 B(  6-C , 16-F ) :   0.4489
B(  7-C ,  8-N ) :   0.5741 B(  7-C ,  9-N ) :   0.4982 B(  7-C , 14-H ) :  -0.1086
B(  8-N ,  9-N ) :  -0.1231 B(  8-N , 13-H ) :   1.1474 B(  8-N , 14-H ) :   1.0946
B(  9-N , 10-H ) :   1.1664 B(  9-N , 11-H ) :   0.8407 B( 11-H , 16-F ) :  -0.1758
B( 12-H , 15-O ) :  -0.1724 B( 17-C , 26-C ) :   0.7971 B( 17-C , 27-H ) :   1.0031
B( 17-C , 28-H ) :   1.0283 B( 20-C , 21-C ) :   0.8176 B( 20-C , 32-C ) :   0.9158
B( 20-C , 35-H ) :   0.7815 B( 20-C , 36-H ) :   1.0843 B( 21-C , 22-H ) :   1.0040
B( 21-C , 23-H ) :   0.9137 B( 26-C , 29-C ) :   0.7389 B( 26-C , 30-H ) :   1.0572
B( 26-C , 31-H ) :   0.7180 B( 29-C , 32-C ) :   0.9127 B( 29-C , 33-H ) :   0.7083
B( 29-C , 34-H ) :   1.2115 B( 30-H , 31-H ) :  -0.1172 B( 32-C , 34-H ) :   0.1004
B( 32-C , 37-H ) :   1.1320 B( 32-C , 38-H ) :   1.0691

E(0)                                       ...   -751.206444077
E(0)                                       ...   -751.206444077
E(CORR)(strong-pairs)                      ...     -3.113299805
E(CORR)(weak-pairs)                        ...     -0.006100936
E(CORR)(corrected)                         ...     -3.119400741
E(TOT)                                     ...   -754.325844818
E(CCSD(T))                                 ...   -754.456315560
FINAL SINGLE POINT ENERGY      -754.456315560069

DIPOLE MOMENT
-------------
                                X             Y             Z
Electronic contribution:     14.27377       8.84157       3.53650
Nuclear contribution   :    -13.61164      -8.17416      -5.14068
                        -----------------------------------------
Total Dipole Moment    :      0.66212       0.66740      -1.60418
                        -----------------------------------------
Magnitude (a.u.)       :      1.85936
Magnitude (Debye)      :      4.72612

Rotational constants in cm-1:     0.019858     0.013613     0.009401
Rotational constants in MHz :   595.331791   408.100423   281.843625

                             ****ORCA TERMINATED NORMALLY****
TOTAL RUN TIME: 0 days 6 hours 17 minutes 45 seconds 705 msec
