                         Program Version 5.0.0 -  RELEASE  -
|  1> !DLPNO-CCSD(T) aug-cc-pVTZ aug-cc-pVTZ/C TightSCF TightPNO RIJCOSX def2/J
|  2>
|  3> *xyzfile 0 1 D5.xyz
|  4>
|  5> %MaxCore 64000
|  6>
|  7> %pal nprocs 18
|  8> end
|  9>
| 10> %scf
| 11>   MaxIter 150
| 12> end
| 13>
| 14>
| 15>                          ****END OF INPUT****

CARTESIAN COORDINATES (ANGSTROEM)
---------------------------------
  C      3.913853   -1.658291    3.015134
  N      5.039266   -0.901154    2.492821
  C      4.084215    1.742081   -2.114724
  C      4.265245    2.500518   -0.795890
  H      4.868534    3.392674   -0.981134
  H      3.307640    2.824571   -0.387809
  C      4.982240    1.650257    0.247422
  C      6.210384   -1.417261    2.178244
  C      6.535913   -2.677122    2.556078
  N      7.076754   -0.700820    1.478906
  H      7.954643   -1.121554    1.207554
  H      6.756161    0.106637    0.960278
  H      4.842168    0.017609    2.115191
  H      5.993876   -3.126918    3.282784
  H      7.498441   -2.975482    2.468776
  O      4.368065    1.389270    1.313706
  F      6.128919    1.233512   -0.045620
  C      3.139159   -2.376572    1.910609
  H      3.267235   -0.939401    3.520693
  H      4.247195   -2.355095    3.790065
  C      1.997274    0.430918   -1.399218
  C      3.412746    0.376886   -1.965497
  H      4.047407   -0.246590   -1.326706
  H      3.390774   -0.118719   -2.942839
  H      5.068475    1.598504   -2.565728
  H      3.503356    2.363939   -2.804565
  C      2.399946   -1.389579    1.009490
  H      2.440750   -3.087118    2.362976
  H      3.844475   -2.970462    1.318677
  C      2.070177   -1.936705   -0.372401
  H      1.481611   -1.061542    1.509912
  H      3.008628   -0.490001    0.897451
  C      1.322238   -0.935775   -1.256413
  H      1.472747   -2.850902   -0.283997
  H      3.003539   -2.234041   -0.862535
  H      1.376444    1.058920   -2.047420
  H      2.015341    0.929780   -0.426535
  H      0.316648   -0.787213   -0.848278
  H      1.185611   -1.379252   -2.248613

 Total Charge           Charge          ....    0
 Multiplicity           Mult            ....    1
 Number of Electrons    NEL             ....  126
 Basis Dimension        Dim             .... 1265

ORBITAL ENERGIES
----------------

  NO   OCC          E(Eh)            E(eV)
   0   2.0000     -26.419962      -718.9237
   1   2.0000     -20.599487      -560.5405
   2   2.0000     -15.537723      -422.8029
   3   2.0000     -15.521780      -422.3691
   4   2.0000     -11.469054      -312.0888
   5   2.0000     -11.280358      -306.9541
   6   2.0000     -11.266622      -306.5804
   7   2.0000     -11.258700      -306.3648
   8   2.0000     -11.239317      -305.8374
   9   2.0000     -11.236431      -305.7588
  10   2.0000     -11.227318      -305.5108
  11   2.0000     -11.220065      -305.3135
  12   2.0000     -11.211636      -305.0841
  13   2.0000     -11.203534      -304.8637
  14   2.0000     -11.198592      -304.7292
  15   2.0000     -11.105277      -302.1899
  16   2.0000      -1.779854       -48.4323
  17   2.0000      -1.419190       -38.6181
  18   2.0000      -1.267596       -34.4931
  19   2.0000      -1.165053       -31.7027
  20   2.0000      -1.129163       -30.7261
  21   2.0000      -1.087026       -29.5795
  22   2.0000      -1.043077       -28.3836
  23   2.0000      -1.004068       -27.3221
  24   2.0000      -0.958135       -26.0722
  25   2.0000      -0.947410       -25.7803
  26   2.0000      -0.928278       -25.2597
  27   2.0000      -0.884676       -24.0733
  28   2.0000      -0.844544       -22.9812
  29   2.0000      -0.828217       -22.5369
  30   2.0000      -0.816694       -22.2234
  31   2.0000      -0.807823       -21.9820
  32   2.0000      -0.764259       -20.7966
  33   2.0000      -0.757185       -20.6040
  34   2.0000      -0.731185       -19.8965
  35   2.0000      -0.694666       -18.9028
  36   2.0000      -0.680974       -18.5302
  37   2.0000      -0.665726       -18.1153
  38   2.0000      -0.659438       -17.9442
  39   2.0000      -0.637899       -17.3581
  40   2.0000      -0.628842       -17.1117
  41   2.0000      -0.607386       -16.5278
  42   2.0000      -0.597590       -16.2613
  43   2.0000      -0.582324       -15.8459
  44   2.0000      -0.571988       -15.5646
  45   2.0000      -0.571424       -15.5492
  46   2.0000      -0.555162       -15.1067
  47   2.0000      -0.549289       -14.9469
  48   2.0000      -0.542574       -14.7642
  49   2.0000      -0.531043       -14.4504
  50   2.0000      -0.518787       -14.1169
  51   2.0000      -0.510987       -13.9047
  52   2.0000      -0.502896       -13.6845
  53   2.0000      -0.498045       -13.5525
  54   2.0000      -0.489511       -13.3203
  55   2.0000      -0.484928       -13.1956
  56   2.0000      -0.464305       -12.6344
  57   2.0000      -0.461156       -12.5487
  58   2.0000      -0.449312       -12.2264
  59   2.0000      -0.446445       -12.1484
  60   2.0000      -0.439379       -11.9561
  61   2.0000      -0.365313        -9.9407
  62   2.0000      -0.241819        -6.5802
  63   0.0000       0.016272         0.4428
  64   0.0000       0.027252         0.7416
  65   0.0000       0.028476         0.7749
  66   0.0000       0.034029         0.9260
  67   0.0000       0.041624         1.1326

MULLIKEN ATOMIC CHARGES
-----------------------
   0 C :   -0.665909
   1 N :   -0.175341
   2 C :   -0.611148
   3 C :   -0.223029
   4 H :    0.423663
   5 H :    0.191305
   6 C :    0.997765
   7 C :    0.479767
   8 C :   -1.417947
   9 N :   -0.703066
  10 H :    0.038519
  11 H :    0.455891
  12 H :    0.662803
  13 H :    0.532667
  14 H :    0.176244
  15 O :   -0.863273
  16 F :   -0.591272
  17 C :   -0.552965
  18 H :    0.204932
  19 H :    0.267241
  20 C :   -0.307924
  21 C :   -0.400539
  22 H :    0.253299
  23 H :    0.308466
  24 H :    0.134265
  25 H :    0.273771
  26 C :   -0.488144
  27 H :    0.268716
  28 H :    0.163350
  29 C :   -0.390171
  30 H :    0.237697
  31 H :    0.638603
  32 C :   -0.710474
  33 H :    0.540371
  34 H :   -0.008410
  35 H :    0.460604
  36 H :    0.117304
  37 H :    0.117884
  38 H :    0.164487
Sum of atomic charges:   -0.0000000

LOEWDIN ATOMIC CHARGES
----------------------
   0 C :    0.227996
   1 N :    0.584524
   2 C :    0.291707
   3 C :    0.298099
   4 H :   -0.146330
   5 H :   -0.157679
   6 C :   -0.763816
   7 C :   -0.437136
   8 C :    0.546179
   9 N :    0.872282
  10 H :   -0.263149
  11 H :   -0.543650
  12 H :   -0.586628
  13 H :   -0.340413
  14 H :   -0.321660
  15 O :    0.594188
  16 F :    0.743100
  17 C :    0.310641
  18 H :   -0.133845
  19 H :   -0.157490
  20 C :    0.285721
  21 C :    0.284298
  22 H :   -0.161758
  23 H :   -0.122348
  24 H :   -0.145456
  25 H :   -0.130685
  26 C :    0.275834
  27 H :   -0.136657
  28 H :   -0.148508
  29 C :    0.290155
  30 H :   -0.122757
  31 H :   -0.229244
  32 C :    0.303108
  33 H :   -0.130657
  34 H :   -0.148225
  35 H :   -0.131674
  36 H :   -0.167973
  37 H :   -0.139158
  38 H :   -0.140937

  Mayer bond orders larger than 0.100000
B(  0-C ,  1-N ) :   1.1202 B(  0-C ,  7-C ) :  -0.1755 B(  0-C ,  8-C ) :  -0.1028
B(  0-C , 12-H ) :  -0.1724 B(  0-C , 17-C ) :   1.0062 B(  0-C , 18-H ) :   1.0942
B(  0-C , 19-H ) :   0.9036 B(  0-C , 26-C ) :   0.1120 B(  1-N ,  7-C ) :   0.9032
B(  1-N ,  8-C ) :  -0.1033 B(  1-N ,  9-N ) :  -0.1104 B(  1-N , 12-H ) :   0.2538
B(  2-C ,  3-C ) :   0.9537 B(  2-C ,  6-C ) :   0.1330 B(  2-C , 21-C ) :   0.8666
B(  2-C , 24-H ) :   1.0960 B(  2-C , 25-H ) :   0.9160 B(  3-C ,  4-H ) :   0.8809
B(  3-C ,  5-H ) :   1.0131 B(  3-C ,  6-C ) :   0.6478 B(  3-C , 15-O ) :  -0.1320
B(  3-C , 16-F ) :   0.1284 B(  4-H ,  6-C ) :  -0.1173 B(  6-C , 15-O ) :   1.4724
B(  6-C , 16-F ) :   0.4393 B(  7-C ,  8-C ) :   0.9800 B(  7-C ,  9-N ) :   0.6477
B(  7-C , 10-H ) :  -0.1241 B(  7-C , 11-H ) :  -0.1625 B(  7-C , 12-H ) :  -0.2945
B(  7-C , 13-H ) :  -0.1119 B(  7-C , 19-H ) :   0.1055 B(  8-C ,  9-N ) :  -0.1217
B(  8-C , 13-H ) :   0.6981 B(  8-C , 14-H ) :   1.2366 B(  9-N , 10-H ) :   1.2189
B(  9-N , 11-H ) :   0.7772 B(  9-N , 16-F ) :  -0.1254 B( 11-H , 16-F ) :  -0.1729
B( 13-H , 35-H ) :  -0.1169 B( 14-H , 35-H ) :   0.1808 B( 17-C , 26-C ) :   0.8282
B( 17-C , 27-H ) :   0.9429 B( 17-C , 28-H ) :   1.0755 B( 20-C , 21-C ) :   0.8320
B( 20-C , 32-C ) :   0.9120 B( 20-C , 35-H ) :   0.7829 B( 20-C , 36-H ) :   1.0973
B( 21-C , 22-H ) :   0.9835 B( 21-C , 23-H ) :   0.9404 B( 26-C , 29-C ) :   0.7364
B( 26-C , 30-H ) :   1.0675 B( 26-C , 31-H ) :   0.7030 B( 29-C , 32-C ) :   0.9308
B( 29-C , 33-H ) :   0.6926 B( 29-C , 34-H ) :   1.2194 B( 30-H , 31-H ) :  -0.1138
B( 32-C , 34-H ) :   0.1020 B( 32-C , 37-H ) :   1.1126 B( 32-C , 38-H ) :   1.0507

E(0)                                       ...   -751.219304218
E(0)                                       ...   -751.219304218
E(CORR)(strong-pairs)                      ...     -3.108034290
E(CORR)(weak-pairs)                        ...     -0.006076982
E(CORR)(corrected)                         ...     -3.114111272
E(TOT)                                     ...   -754.333415490
E(CCSD(T))                                 ...   -754.463702568
FINAL SINGLE POINT ENERGY      -754.463702567968

DIPOLE MOMENT
-------------
                                X             Y             Z
Electronic contribution:     12.72791      10.54065       3.09875
Nuclear contribution   :    -13.35170      -8.48261      -5.12969
                        -----------------------------------------
Total Dipole Moment    :     -0.62379       2.05804      -2.03094
                        -----------------------------------------
Magnitude (a.u.)       :      2.95793
Magnitude (Debye)      :      7.51846

Rotational constants in cm-1:     0.019886     0.013843     0.009504
Rotational constants in MHz :   596.157485   415.004628   284.931121

                             ****ORCA TERMINATED NORMALLY****
TOTAL RUN TIME: 0 days 6 hours 5 minutes 10 seconds 129 msec
