                         Program Version 5.0.0 -  RELEASE  -
|  1> !DLPNO-CCSD(T) aug-cc-pVTZ aug-cc-pVTZ/C TightSCF TightPNO RIJCOSX def2/J
|  2>
|  3> *xyzfile 0 1 D6.xyz
|  4>
|  5> %MaxCore 64000
|  6>
|  7> %pal nprocs 18
|  8> end
|  9>
| 10> %scf
| 11>   MaxIter 150
| 12> end
| 13>
| 14>
| 15>                          ****END OF INPUT****

CARTESIAN COORDINATES (ANGSTROEM)
---------------------------------
  C      3.913853   -1.658291    3.015134
  N      5.039266   -0.901154    2.492821
  C      4.084215    1.742081   -2.114724
  C      4.265245    2.500518   -0.795890
  H      4.868534    3.392674   -0.981134
  H      3.307640    2.824571   -0.387809
  C      4.982240    1.650257    0.247422
  C      6.210384   -1.417261    2.178244
  N      6.535913   -2.677122    2.556078
  C      7.076754   -0.700820    1.478906
  H      7.954643   -1.121554    1.207554
  H      6.756161    0.106637    0.960278
  H      4.842168    0.017609    2.115191
  H      5.993876   -3.126918    3.282784
  H      7.498441   -2.975482    2.468776
  O      4.368065    1.389270    1.313706
  F      6.128919    1.233512   -0.045620
  C      3.139159   -2.376572    1.910609
  H      3.267235   -0.939401    3.520693
  H      4.247195   -2.355095    3.790065
  C      1.997274    0.430918   -1.399218
  C      3.412746    0.376886   -1.965497
  H      4.047407   -0.246590   -1.326706
  H      3.390774   -0.118719   -2.942839
  H      5.068475    1.598504   -2.565728
  H      3.503356    2.363939   -2.804565
  C      2.399946   -1.389579    1.009490
  H      2.440750   -3.087118    2.362976
  H      3.844475   -2.970462    1.318677
  C      2.070177   -1.936705   -0.372401
  H      1.481611   -1.061542    1.509912
  H      3.008628   -0.490001    0.897451
  C      1.322238   -0.935775   -1.256413
  H      1.472747   -2.850902   -0.283997
  H      3.003539   -2.234041   -0.862535
  H      1.376444    1.058920   -2.047420
  H      2.015341    0.929780   -0.426535
  H      0.316648   -0.787213   -0.848278
  H      1.185611   -1.379252   -2.248613

 Total Charge           Charge          ....    0
 Multiplicity           Mult            ....    1
 Number of Electrons    NEL             ....  126
 Basis Dimension        Dim             .... 1265

ORBITAL ENERGIES
----------------

  NO   OCC          E(Eh)            E(eV)
   0   2.0000     -26.386083      -718.0018
   1   2.0000     -20.580866      -560.0338
   2   2.0000     -15.543185      -422.9516
   3   2.0000     -15.518417      -422.2776
   4   2.0000     -11.450490      -311.5837
   5   2.0000     -11.267312      -306.5991
   6   2.0000     -11.264205      -306.5146
   7   2.0000     -11.248641      -306.0911
   8   2.0000     -11.245124      -305.9954
   9   2.0000     -11.231418      -305.6224
  10   2.0000     -11.222373      -305.3763
  11   2.0000     -11.218106      -305.2602
  12   2.0000     -11.212004      -305.0942
  13   2.0000     -11.206595      -304.9469
  14   2.0000     -11.205550      -304.9185
  15   2.0000     -11.098776      -302.0130
  16   2.0000      -1.747284       -47.5460
  17   2.0000      -1.401118       -38.1264
  18   2.0000      -1.262054       -34.3422
  19   2.0000      -1.157844       -31.5065
  20   2.0000      -1.119481       -30.4626
  21   2.0000      -1.083361       -29.4797
  22   2.0000      -1.045546       -28.4508
  23   2.0000      -1.000114       -27.2145
  24   2.0000      -0.970469       -26.4078
  25   2.0000      -0.928243       -25.2588
  26   2.0000      -0.914055       -24.8727
  27   2.0000      -0.873479       -23.7686
  28   2.0000      -0.832133       -22.6435
  29   2.0000      -0.812327       -22.1045
  30   2.0000      -0.796748       -21.6806
  31   2.0000      -0.785298       -21.3690
  32   2.0000      -0.776749       -21.1364
  33   2.0000      -0.760819       -20.7029
  34   2.0000      -0.720795       -19.6138
  35   2.0000      -0.692479       -18.8433
  36   2.0000      -0.660620       -17.9764
  37   2.0000      -0.657351       -17.8874
  38   2.0000      -0.646118       -17.5818
  39   2.0000      -0.633006       -17.2250
  40   2.0000      -0.622261       -16.9326
  41   2.0000      -0.611124       -16.6295
  42   2.0000      -0.592880       -16.1331
  43   2.0000      -0.585128       -15.9221
  44   2.0000      -0.578792       -15.7497
  45   2.0000      -0.568725       -15.4758
  46   2.0000      -0.548941       -14.9374
  47   2.0000      -0.538002       -14.6398
  48   2.0000      -0.533592       -14.5198
  49   2.0000      -0.531718       -14.4688
  50   2.0000      -0.518429       -14.1072
  51   2.0000      -0.504530       -13.7290
  52   2.0000      -0.499050       -13.5798
  53   2.0000      -0.493955       -13.4412
  54   2.0000      -0.484060       -13.1719
  55   2.0000      -0.479478       -13.0473
  56   2.0000      -0.465587       -12.6693
  57   2.0000      -0.455355       -12.3908
  58   2.0000      -0.449041       -12.2190
  59   2.0000      -0.446656       -12.1541
  60   2.0000      -0.441110       -12.0032
  61   2.0000      -0.373885       -10.1739
  62   2.0000      -0.242361        -6.5950
  63   0.0000       0.022334         0.6077
  64   0.0000       0.029395         0.7999
  65   0.0000       0.032094         0.8733
  66   0.0000       0.032733         0.8907
  67   0.0000       0.041135         1.1193

MULLIKEN ATOMIC CHARGES
-----------------------
   0 C :   -0.742616
   1 N :   -0.123353
   2 C :   -0.629468
   3 C :   -0.223163
   4 H :    0.423594
   5 H :    0.190253
   6 C :    0.959399
   7 C :    0.528142
   8 N :   -0.606301
   9 C :   -1.562339
  10 H :    0.357754
  11 H :    0.794741
  12 H :    0.607076
  13 H :    0.078643
  14 H :    0.050194
  15 O :   -0.892376
  16 F :   -0.634380
  17 C :   -0.490059
  18 H :    0.171808
  19 H :    0.322694
  20 C :   -0.305723
  21 C :   -0.411133
  22 H :    0.281914
  23 H :    0.318508
  24 H :    0.130227
  25 H :    0.276181
  26 C :   -0.477386
  27 H :    0.316814
  28 H :    0.131298
  29 C :   -0.406873
  30 H :    0.249075
  31 H :    0.643196
  32 C :   -0.724667
  33 H :    0.531586
  34 H :    0.000232
  35 H :    0.471787
  36 H :    0.131950
  37 H :    0.103901
  38 H :    0.158870
Sum of atomic charges:   -0.0000000

LOEWDIN ATOMIC CHARGES
----------------------
   0 C :    0.224600
   1 N :    0.583316
   2 C :    0.291768
   3 C :    0.297015
   4 H :   -0.146602
   5 H :   -0.160002
   6 C :   -0.765459
   7 C :   -0.432763
   8 N :    0.870561
   9 C :    0.540205
  10 H :   -0.307212
  11 H :   -0.559018
  12 H :   -0.579296
  13 H :   -0.317675
  14 H :   -0.276341
  15 O :    0.591016
  16 F :    0.737944
  17 C :    0.309366
  18 H :   -0.133138
  19 H :   -0.156688
  20 C :    0.285497
  21 C :    0.284637
  22 H :   -0.160650
  23 H :   -0.123255
  24 H :   -0.144631
  25 H :   -0.132231
  26 C :    0.278781
  27 H :   -0.139609
  28 H :   -0.144102
  29 C :    0.289851
  30 H :   -0.121878
  31 H :   -0.226643
  32 C :    0.302897
  33 H :   -0.131932
  34 H :   -0.148092
  35 H :   -0.131856
  36 H :   -0.167761
  37 H :   -0.139682
  38 H :   -0.140938

  Mayer bond orders larger than 0.100000
B(  0-C ,  1-N ) :   1.0980 B(  0-C ,  7-C ) :  -0.1395 B(  0-C , 12-H ) :  -0.1483
B(  0-C , 17-C ) :   0.9931 B(  0-C , 18-H ) :   1.1449 B(  0-C , 19-H ) :   0.8770
B(  0-C , 26-C ) :   0.1129 B(  1-N ,  7-C ) :   0.9932 B(  1-N ,  8-N ) :  -0.1011
B(  1-N ,  9-C ) :  -0.1028 B(  1-N , 12-H ) :   0.4139 B(  2-C ,  3-C ) :   0.9652
B(  2-C ,  6-C ) :   0.1554 B(  2-C , 21-C ) :   0.8734 B(  2-C , 24-H ) :   1.0916
B(  2-C , 25-H ) :   0.9210 B(  3-C ,  4-H ) :   0.8817 B(  3-C ,  5-H ) :   1.0239
B(  3-C ,  6-C ) :   0.6116 B(  3-C , 15-O ) :  -0.1348 B(  3-C , 16-F ) :   0.1124
B(  4-H ,  6-C ) :  -0.1260 B(  6-C , 15-O ) :   1.4640 B(  6-C , 16-F ) :   0.5457
B(  7-C ,  8-N ) :   0.6800 B(  7-C ,  9-C ) :   1.0348 B(  7-C , 10-H ) :  -0.1139
B(  7-C , 12-H ) :  -0.1745 B(  7-C , 13-H ) :  -0.1351 B(  8-N ,  9-C ) :  -0.2535
B(  8-N , 13-H ) :   1.1608 B(  8-N , 14-H ) :   1.1208 B(  9-C , 10-H ) :   1.0441
B(  9-C , 11-H ) :   0.5797 B( 11-H , 16-F ) :  -0.2662 B( 15-O , 16-F ) :   0.1112
B( 17-C , 26-C ) :   0.8043 B( 17-C , 27-H ) :   0.9153 B( 17-C , 28-H ) :   1.0900
B( 20-C , 21-C ) :   0.8235 B( 20-C , 32-C ) :   0.9096 B( 20-C , 35-H ) :   0.7741
B( 20-C , 36-H ) :   1.0868 B( 21-C , 22-H ) :   0.9649 B( 21-C , 23-H ) :   0.9352
B( 26-C , 29-C ) :   0.7363 B( 26-C , 30-H ) :   1.0511 B( 26-C , 31-H ) :   0.6988
B( 29-C , 32-C ) :   0.9246 B( 29-C , 33-H ) :   0.7019 B( 29-C , 34-H ) :   1.2129
B( 30-H , 31-H ) :  -0.1119 B( 32-C , 34-H ) :   0.1052 B( 32-C , 37-H ) :   1.1314
B( 32-C , 38-H ) :   1.0545

E(0)                                       ...   -751.212762501
E(0)                                       ...   -751.212762501
E(CORR)(strong-pairs)                      ...     -3.107947668
E(CORR)(weak-pairs)                        ...     -0.006080194
E(CORR)(corrected)                         ...     -3.114027862
E(TOT)                                     ...   -754.326790363
E(CCSD(T))                                 ...   -754.456901839
FINAL SINGLE POINT ENERGY      -754.456901838913

DIPOLE MOMENT
-------------
                                X             Y             Z
Electronic contribution:     12.32287       8.55813       4.30100
Nuclear contribution   :    -13.25777      -8.13937      -5.31678
                        -----------------------------------------
Total Dipole Moment    :     -0.93489       0.41876      -1.01577
                        -----------------------------------------
Magnitude (a.u.)       :      1.44263
Magnitude (Debye)      :      3.66688

Rotational constants in cm-1:     0.020021     0.013636     0.009443
Rotational constants in MHz :   600.208195   408.782966   283.102361

                             ****ORCA TERMINATED NORMALLY****
TOTAL RUN TIME: 0 days 5 hours 59 minutes 45 seconds 550 msec
