                         Program Version 5.0.0 -  RELEASE  -
|  1> !LC-BLYP RIJCOSX def2-TZVP def2/J TightSCF
|  2> *xyz -1 1
|  3> C          3.80351        1.37472       -3.26081
|  4> C          3.93993        0.32036       -4.36773
|  5> H          4.10504       -0.65508       -3.90773
|  6> H          3.02280        0.28052       -4.95712
|  7> C          5.10585        0.66802       -5.30546
|  8> O          4.80913        1.15019       -6.41436
|  9> O          6.26737        0.56500       -4.81948
| 10> H          3.64113        2.33595       -3.70189
| 11> H          4.69995        1.39701       -2.67703
| 12> H          2.97435        1.12625       -2.63180
| 13> *
| 14>
| 15> %MaxCore 64000
| 16>
| 17> %pal nprocs 4
| 18> end
| 19>
| 20> %scf
| 21>   MaxIter 150
| 22> end
| 23>
| 24>
| 25>                          ****END OF INPUT****

CARTESIAN COORDINATES (ANGSTROEM)
---------------------------------
  C      3.803510    1.374720   -3.260810
  C      3.939930    0.320360   -4.367730
  H      4.105040   -0.655080   -3.907730
  H      3.022800    0.280520   -4.957120
  C      5.105850    0.668020   -5.305460
  O      4.809130    1.150190   -6.414360
  O      6.267370    0.565000   -4.819480
  H      3.641130    2.335950   -3.701890
  H      4.699950    1.397010   -2.677030
  H      2.974350    1.126250   -2.631800

 Total Charge           Charge          ....   -1
 Multiplicity           Mult            ....    1
 Number of Electrons    NEL             ....   40
 Basis Dimension        Dim             ....  185

ORBITAL ENERGIES
----------------

  NO   OCC          E(Eh)            E(eV)
   0   2.0000     -18.663851      -507.8692
   1   2.0000     -18.659961      -507.7633
   2   2.0000      -9.944831      -270.6126
   3   2.0000      -9.902143      -269.4510
   4   2.0000      -9.888737      -269.0862
   5   2.0000      -0.905493       -24.6397
   6   2.0000      -0.811795       -22.0901
   7   2.0000      -0.711394       -19.3580
   8   2.0000      -0.576517       -15.6878
   9   2.0000      -0.422622       -11.5001
  10   2.0000      -0.394534       -10.7358
  11   2.0000      -0.357759        -9.7351
  12   2.0000      -0.329475        -8.9655
  13   2.0000      -0.309623        -8.4253
  14   2.0000      -0.304546        -8.2871
  15   2.0000      -0.271073        -7.3763
  16   2.0000      -0.262001        -7.1294
  17   2.0000      -0.139695        -3.8013
  18   2.0000      -0.130577        -3.5532
  19   2.0000      -0.119964        -3.2644
  20   0.0000       0.248813         6.7705
  21   0.0000       0.289458         7.8765
  22   0.0000       0.311985         8.4896
  23   0.0000       0.314557         8.5595
  24   0.0000       0.338636         9.2148

MULLIKEN ATOMIC CHARGES
-----------------------
   0 C :   -0.385826
   1 C :   -0.174520
   2 H :    0.051581
   3 H :    0.054796
   4 C :    0.077597
   5 O :   -0.442451
   6 O :   -0.478664
   7 H :    0.110989
   8 H :    0.114208
   9 H :    0.072289
Sum of atomic charges:   -1.0000000

LOEWDIN ATOMIC CHARGES
----------------------
   0 C :   -0.336352
   1 C :   -0.300578
   2 H :    0.120076
   3 H :    0.120318
   4 C :   -0.729098
   5 O :   -0.085390
   6 O :   -0.116594
   7 H :    0.114386
   8 H :    0.115557
   9 H :    0.097676

  Mayer bond orders larger than 0.100000
B(  0-C ,  1-C ) :   0.9380 B(  0-C ,  7-H ) :   0.9843 B(  0-C ,  8-H ) :   0.9724
B(  0-C ,  9-H ) :   0.9800 B(  1-C ,  2-H ) :   0.9607 B(  1-C ,  3-H ) :   0.9619
B(  1-C ,  4-C ) :   0.9136 B(  4-C ,  5-O ) :   1.9768 B(  4-C ,  6-O ) :   1.9146

FINAL SINGLE POINT ENERGY      -267.346840935170

DIPOLE MOMENT
-------------
                                X             Y             Z
Electronic contribution:      3.74726      -0.48316      -4.51797
Nuclear contribution   :     -5.15232       0.33441       5.87398
                        -----------------------------------------
Total Dipole Moment    :     -1.40506      -0.14875       1.35601
                        -----------------------------------------
Magnitude (a.u.)       :      1.95834
Magnitude (Debye)      :      4.97769

Rotational constants in cm-1:     0.295355     0.137164     0.110193
Rotational constants in MHz :  8854.523706  4112.077980  3303.490503

                             ****ORCA TERMINATED NORMALLY****
TOTAL RUN TIME: 0 days 0 hours 0 minutes 17 seconds 87 msec
