                         Program Version 5.0.0 -  RELEASE  -
|  1> !LC-BLYP RIJCOSX def2-TZVP def2/J TightSCF
|  2> *xyz 1 1
|  3> C          3.90595        2.81985       -3.75292
|  4> N          5.29562        3.13151       -4.10533
|  5> C          3.80351        1.37472       -3.26081
|  6> C          5.70862        3.46889       -5.32419
|  7> N          6.90470        3.03895       -5.71708
|  8> N          4.98188        4.29357       -6.09746
|  9> H          5.00055        4.10131       -7.08776
| 10> H          4.08469        4.59690       -5.73965
| 11> H          5.96336        2.52611       -3.64239
| 12> H          7.04716        2.06686       -5.47360
| 13> H          7.19815        3.30799       -6.64523
| 14> H          3.28202        2.94919       -4.64026
| 15> H          3.56525        3.51457       -2.98252
| 16> H          4.14157        0.71142       -4.02935
| 17> H          2.78528        1.15146       -3.01944
| 18> H          4.41205        1.25066       -2.38949
| 19> *
| 20>
| 21> %MaxCore 64000
| 22>
| 23> %pal nprocs 4
| 24> end
| 25>
| 26> %scf
| 27>   MaxIter 150
| 28> end
| 29>
| 30>
| 31>                          ****END OF INPUT****

CARTESIAN COORDINATES (ANGSTROEM)
---------------------------------
  C      3.905950    2.819850   -3.752920
  N      5.295620    3.131510   -4.105330
  C      3.803510    1.374720   -3.260810
  C      5.708620    3.468890   -5.324190
  N      6.904700    3.038950   -5.717080
  N      4.981880    4.293570   -6.097460
  H      5.000550    4.101310   -7.087760
  H      4.084690    4.596900   -5.739650
  H      5.963360    2.526110   -3.642390
  H      7.047160    2.066860   -5.473600
  H      7.198150    3.307990   -6.645230
  H      3.282020    2.949190   -4.640260
  H      3.565250    3.514570   -2.982520
  H      4.141570    0.711420   -4.029350
  H      2.785280    1.151460   -3.019440
  H      4.412050    1.250660   -2.389490

 Total Charge           Charge          ....    1
 Multiplicity           Mult            ....    1
 Number of Electrons    NEL             ....   48
 Basis Dimension        Dim             ....  246

ORBITAL ENERGIES
----------------

  NO   OCC          E(Eh)            E(eV)
   0   2.0000     -14.396858      -391.7584
   1   2.0000     -14.396829      -391.7576
   2   2.0000     -14.395574      -391.7235
   3   2.0000     -10.408736      -283.2361
   4   2.0000     -10.279097      -279.7085
   5   2.0000     -10.211377      -277.8657
   6   2.0000      -1.323951       -36.0265
   7   2.0000      -1.211373       -32.9631
   8   2.0000      -1.202718       -32.7276
   9   2.0000      -1.044154       -28.4129
  10   2.0000      -0.941336       -25.6151
  11   2.0000      -0.917352       -24.9624
  12   2.0000      -0.883789       -24.0491
  13   2.0000      -0.850821       -23.1520
  14   2.0000      -0.807391       -21.9702
  15   2.0000      -0.790274       -21.5044
  16   2.0000      -0.757630       -20.6162
  17   2.0000      -0.730852       -19.8875
  18   2.0000      -0.702478       -19.1154
  19   2.0000      -0.662648       -18.0316
  20   2.0000      -0.637300       -17.3418
  21   2.0000      -0.621121       -16.9016
  22   2.0000      -0.590145       -16.0586
  23   2.0000      -0.556923       -15.1546
  24   0.0000      -0.111546        -3.0353
  25   0.0000      -0.090021        -2.4496
  26   0.0000      -0.055367        -1.5066
  27   0.0000      -0.040487        -1.1017
  28   0.0000      -0.017975        -0.4891

MULLIKEN ATOMIC CHARGES
-----------------------
   0 C :   -0.174772
   1 N :   -0.185320
   2 C :   -0.447579
   3 C :    0.308494
   4 N :   -0.340440
   5 N :   -0.362230
   6 H :    0.280938
   7 H :    0.284664
   8 H :    0.245770
   9 H :    0.277332
  10 H :    0.275098
  11 H :    0.139591
  12 H :    0.194364
  13 H :    0.147817
  14 H :    0.182555
  15 H :    0.173718
Sum of atomic charges:    1.0000000

LOEWDIN ATOMIC CHARGES
----------------------
   0 C :   -0.290970
   1 N :    0.173672
   2 C :   -0.296669
   3 C :   -0.421524
   4 N :    0.062671
   5 N :    0.064790
   6 H :    0.198594
   7 H :    0.198386
   8 H :    0.213382
   9 H :    0.203000
  10 H :    0.199593
  11 H :    0.140843
  12 H :    0.150924
  13 H :    0.126489
  14 H :    0.143925
  15 H :    0.132894

  Mayer bond orders larger than 0.100000
B(  0-C ,  1-N ) :   0.8410 B(  0-C ,  2-C ) :   0.9341 B(  0-C , 11-H ) :   0.9789
B(  0-C , 12-H ) :   0.9507 B(  1-N ,  3-C ) :   1.3977 B(  1-N ,  8-H ) :   0.9092
B(  2-C , 13-H ) :   0.9641 B(  2-C , 14-H ) :   0.9646 B(  2-C , 15-H ) :   0.9640
B(  3-C ,  4-N ) :   1.3087 B(  3-C ,  5-N ) :   1.3165 B(  4-N ,  9-H ) :   0.8949
B(  4-N , 10-H ) :   0.9013 B(  5-N ,  6-H ) :   0.8925 B(  5-N ,  7-H ) :   0.9013

FINAL SINGLE POINT ENERGY      -283.768109842859

DIPOLE MOMENT
-------------
                                X             Y             Z
Electronic contribution:      3.50928       3.39152      -2.68373
Nuclear contribution   :     -3.31456      -3.64300       1.57303
                        -----------------------------------------
Total Dipole Moment    :      0.19471      -0.25147      -1.11070
                        -----------------------------------------
Magnitude (a.u.)       :      1.15534
Magnitude (Debye)      :      2.93663

Rotational constants in cm-1:     0.229487     0.071000     0.059428
Rotational constants in MHz :  6879.840828  2128.520047  1781.605314

                             ****ORCA TERMINATED NORMALLY****
TOTAL RUN TIME: 0 days 0 hours 0 minutes 35 seconds 485 msec
