                         Program Version 5.0.0 -  RELEASE  -
|  1> !LC-BLYP RIJCOSX def2-TZVP def2/J TightSCF xyzfile
|  2>
|  3> *xyzfile 0 1 B.xyz
|  4>
|  5> %MaxCore 64000
|  6>
|  7> %pal nprocs 18
|  8> end
|  9>
| 10> %scf
| 11>   MaxIter 150
| 12> end
| 13>
| 14>
| 15>                          ****END OF INPUT****

CARTESIAN COORDINATES (ANGSTROEM)
---------------------------------
  C      3.905947    2.819855   -3.752920
  N      5.295615    3.131515   -4.105334
  C      3.803511    1.374716   -3.260807
  C      3.939934    0.320362   -4.367729
  H      4.105043   -0.655085   -3.907733
  H      3.022801    0.280517   -4.957117
  C      5.105846    0.668022   -5.305463
  C      5.708619    3.468885   -5.324190
  N      6.904696    3.038954   -5.717084
  N      4.981884    4.293570   -6.097457
  H      5.000546    4.101311   -7.087761
  H      4.084693    4.596899   -5.739652
  H      5.963358    2.526112   -3.642391
  H      7.047164    2.066861   -5.473604
  H      7.198145    3.307994   -6.645225
  H      3.282025    2.949187   -4.640259
  H      3.565254    3.514574   -2.982523
  H      4.574833    1.215157   -2.500443
  H      2.843514    1.260845   -2.751465
  O      4.809132    1.150187   -6.414361
  O      6.267366    0.564999   -4.819481

 Total Charge           Charge          ....    0
 Multiplicity           Mult            ....    1
 Number of Electrons    NEL             ....   78
 Basis Dimension        Dim             ....  376

ORBITAL ENERGIES
----------------

  NO   OCC          E(Eh)            E(eV)
   0   2.0000     -18.852732      -513.0089
   1   2.0000     -18.849456      -512.9198
   2   2.0000     -14.233876      -387.3234
   3   2.0000     -14.226047      -387.1104
   4   2.0000     -14.202640      -386.4735
   5   2.0000     -10.237155      -278.5672
   6   2.0000     -10.130104      -275.6541
   7   2.0000     -10.127713      -275.5891
   8   2.0000     -10.079998      -274.2907
   9   2.0000     -10.046637      -273.3829
  10   2.0000      -1.152676       -31.3659
  11   2.0000      -1.095871       -29.8202
  12   2.0000      -1.045185       -28.4409
  13   2.0000      -1.026031       -27.9197
  14   2.0000      -1.002108       -27.2687
  15   2.0000      -0.905575       -24.6420
  16   2.0000      -0.822840       -22.3906
  17   2.0000      -0.763441       -20.7743
  18   2.0000      -0.732756       -19.9393
  19   2.0000      -0.714126       -19.4323
  20   2.0000      -0.679858       -18.4999
  21   2.0000      -0.642222       -17.4758
  22   2.0000      -0.619539       -16.8585
  23   2.0000      -0.604793       -16.4573
  24   2.0000      -0.583305       -15.8725
  25   2.0000      -0.577046       -15.7022
  26   2.0000      -0.537217       -14.6184
  27   2.0000      -0.526352       -14.3228
  28   2.0000      -0.512745       -13.9525
  29   2.0000      -0.493502       -13.4289
  30   2.0000      -0.482628       -13.1330
  31   2.0000      -0.476502       -12.9663
  32   2.0000      -0.441772       -12.0212
  33   2.0000      -0.434855       -11.8330
  34   2.0000      -0.416697       -11.3389
  35   2.0000      -0.389027       -10.5860
  36   2.0000      -0.330769        -9.0007
  37   2.0000      -0.315365        -8.5815
  38   2.0000      -0.306168        -8.3312
  39   0.0000       0.058195         1.5836
  40   0.0000       0.071381         1.9424
  41   0.0000       0.095974         2.6116
  42   0.0000       0.107809         2.9336
  43   0.0000       0.127993         3.4829

MULLIKEN ATOMIC CHARGES
-----------------------
   0 C :   -0.171552
   1 N :   -0.198433
   2 C :   -0.331028
   3 C :   -0.215125
   4 H :    0.124656
   5 H :    0.119360
   6 C :    0.121194
   7 C :    0.213015
   8 N :   -0.294380
   9 N :   -0.386672
  10 H :    0.271599
  11 H :    0.251966
  12 H :    0.256684
  13 H :    0.273839
  14 H :    0.230294
  15 H :    0.143926
  16 H :    0.153962
  17 H :    0.151155
  18 H :    0.135833
  19 O :   -0.378148
  20 O :   -0.472146
Sum of atomic charges:   -0.0000000

LOEWDIN ATOMIC CHARGES
----------------------
   0 C :   -0.277857
   1 N :    0.167019
   2 C :   -0.275685
   3 C :   -0.251467
   4 H :    0.145446
   5 H :    0.141118
   6 C :   -0.692501
   7 C :   -0.438328
   8 N :    0.055480
   9 N :    0.033919
  10 H :    0.189798
  11 H :    0.182397
  12 H :    0.210004
  13 H :    0.173584
  14 H :    0.179214
  15 H :    0.143578
  16 H :    0.135370
  17 H :    0.146199
  18 H :    0.144923
  19 O :   -0.034340
  20 O :   -0.077872

  Mayer bond orders larger than 0.100000
B(  0-C ,  1-N ) :   0.8850 B(  0-C ,  2-C ) :   0.9235 B(  0-C , 15-H ) :   0.9771
B(  0-C , 16-H ) :   0.9746 B(  1-N ,  7-C ) :   1.3732 B(  1-N , 12-H ) :   0.8912
B(  2-C ,  3-C ) :   0.9262 B(  2-C , 17-H ) :   0.9712 B(  2-C , 18-H ) :   0.9791
B(  3-C ,  4-H ) :   0.9627 B(  3-C ,  5-H ) :   0.9785 B(  3-C ,  6-C ) :   0.9143
B(  6-C , 19-O ) :   1.9355 B(  6-C , 20-O ) :   1.7561 B(  7-C ,  8-N ) :   1.4067
B(  7-C ,  9-N ) :   1.2604 B(  7-C , 19-O ) :   0.1692 B(  8-N , 13-H ) :   0.8019
B(  8-N , 14-H ) :   0.9227 B(  9-N , 10-H ) :   0.9083 B(  9-N , 11-H ) :   0.9206
B( 13-H , 20-O ) :   0.1717

FINAL SINGLE POINT ENERGY      -510.917336138362

DIPOLE MOMENT
-------------
                                X             Y             Z
Electronic contribution:      4.15038       0.40690      -3.45114
Nuclear contribution   :     -4.94498       2.03334       3.78956
                        -----------------------------------------
Total Dipole Moment    :     -0.79460       2.44024       0.33842
                        -----------------------------------------
Magnitude (a.u.)       :      2.58857
Magnitude (Debye)      :      6.57962

Rotational constants in cm-1:     0.062533     0.042832     0.033687
Rotational constants in MHz :  1874.701390  1284.063603  1009.911042

                             ****ORCA TERMINATED NORMALLY****
TOTAL RUN TIME: 0 days 0 hours 0 minutes 30 seconds 318 msec
