                         Program Version 5.0.0 -  RELEASE  -
|  1> !LC-BLYP RIJCOSX def2-TZVP def2/J TightSCF
|  2> *xyz 0 1
|  3> C          3.80351        1.37472       -3.26081
|  4> C          3.93993        0.32036       -4.36773
|  5> H          4.10504       -0.65508       -3.90773
|  6> H          3.02280        0.28052       -4.95712
|  7> C          5.10585        0.66802       -5.30546
|  8> F          4.80913        1.15019       -6.41436
|  9> O          6.26737        0.56500       -4.81948
| 10> H          3.64113        2.33595       -3.70189
| 11> H          4.69995        1.39701       -2.67703
| 12> H          2.97435        1.12625       -2.63180
| 13> *
| 14>
| 15> %MaxCore 64000
| 16>
| 17> %pal nprocs 4
| 18> end
| 19>
| 20> %scf
| 21>   MaxIter 150
| 22> end
| 23>
| 24>
| 25>                          ****END OF INPUT****

CARTESIAN COORDINATES (ANGSTROEM)
---------------------------------
  C      3.803510    1.374720   -3.260810
  C      3.939930    0.320360   -4.367730
  H      4.105040   -0.655080   -3.907730
  H      3.022800    0.280520   -4.957120
  C      5.105850    0.668020   -5.305460
  F      4.809130    1.150190   -6.414360
  O      6.267370    0.565000   -4.819480
  H      3.641130    2.335950   -3.701890
  H      4.699950    1.397010   -2.677030
  H      2.974350    1.126250   -2.631800

 Total Charge           Charge          ....    0
 Multiplicity           Mult            ....    1
 Number of Electrons    NEL             ....   40
 Basis Dimension        Dim             ....  185

ORBITAL ENERGIES
----------------

  NO   OCC          E(Eh)            E(eV)
   0   2.0000     -24.528568      -667.4563
   1   2.0000     -18.943126      -515.4687
   2   2.0000     -10.250430      -278.9284
   3   2.0000     -10.100495      -274.8485
   4   2.0000     -10.074334      -274.1366
   5   2.0000      -1.407139       -38.2902
   6   2.0000      -1.121861       -30.5274
   7   2.0000      -0.911298       -24.7977
   8   2.0000      -0.796375       -21.6705
   9   2.0000      -0.748480       -20.3672
  10   2.0000      -0.661913       -18.0116
  11   2.0000      -0.644268       -17.5314
  12   2.0000      -0.612186       -16.6584
  13   2.0000      -0.570932       -15.5358
  14   2.0000      -0.538232       -14.6460
  15   2.0000      -0.501629       -13.6500
  16   2.0000      -0.479227       -13.0404
  17   2.0000      -0.472886       -12.8679
  18   2.0000      -0.447878       -12.1874
  19   2.0000      -0.390744       -10.6327
  20   0.0000       0.052548         1.4299
  21   0.0000       0.097103         2.6423
  22   0.0000       0.137878         3.7519
  23   0.0000       0.153692         4.1822
  24   0.0000       0.166074         4.5191

MULLIKEN ATOMIC CHARGES
-----------------------
   0 C :   -0.406880
   1 C :   -0.258035
   2 H :    0.149857
   3 H :    0.128613
   4 C :    0.289227
   5 F :   -0.052610
   6 O :   -0.285161
   7 H :    0.136527
   8 H :    0.158021
   9 H :    0.140442
Sum of atomic charges:    0.0000000

LOEWDIN ATOMIC CHARGES
----------------------
   0 C :   -0.300994
   1 C :   -0.268727
   2 H :    0.155357
   3 H :    0.142099
   4 C :   -0.528587
   5 F :    0.356929
   6 O :    0.065673
   7 H :    0.124248
   8 H :    0.129667
   9 H :    0.124334

  Mayer bond orders larger than 0.100000
B(  0-C ,  1-C ) :   0.9344 B(  0-C ,  7-H ) :   0.9709 B(  0-C ,  8-H ) :   0.9675
B(  0-C ,  9-H ) :   0.9755 B(  1-C ,  2-H ) :   0.9547 B(  1-C ,  3-H ) :   0.9613
B(  1-C ,  4-C ) :   0.9585 B(  4-C ,  5-F ) :   1.2206 B(  4-C ,  6-O ) :   2.1012

FINAL SINGLE POINT ENERGY      -291.898609629486

DIPOLE MOMENT
-------------
                                X             Y             Z
Electronic contribution:      3.99251      -0.01679      -7.44193
Nuclear contribution   :     -5.17129      -0.01923       7.59895
                        -----------------------------------------
Total Dipole Moment    :     -1.17878      -0.03602       0.15702
                        -----------------------------------------
Magnitude (a.u.)       :      1.18974
Magnitude (Debye)      :      3.02408

Rotational constants in cm-1:     0.282073     0.131822     0.105134
Rotational constants in MHz :  8456.328792  3951.925810  3151.840112

                             ****ORCA TERMINATED NORMALLY****
TOTAL RUN TIME: 0 days 0 hours 0 minutes 21 seconds 647 msec
