                         Program Version 5.0.0 -  RELEASE  -
|  1> !LC-BLYP RIJCOSX def2-TZVP def2/J TightSCF
|  2> *xyz 0 1
|  3> C          3.90595        2.81985       -3.75292
|  4> C          5.29562        3.13151       -4.10533
|  5> C          3.80351        1.37472       -3.26081
|  6> C          5.70862        3.46889       -5.32419
|  7> N          6.90470        3.03895       -5.71708
|  8> N          4.98188        4.29357       -6.09746
|  9> H          5.00055        4.10131       -7.08776
| 10> H          4.08469        4.59690       -5.73965
| 11> H          5.96336        2.52611       -3.64239
| 12> H          7.04716        2.06686       -5.47360
| 13> H          7.19815        3.30799       -6.64523
| 14> H          3.28202        2.94919       -4.64026
| 15> H          3.56525        3.51457       -2.98252
| 16> H          4.14157        0.71142       -4.02935
| 17> H          2.78528        1.15146       -3.01944
| 18> H          4.41205        1.25066       -2.38949
| 19> *
| 20>
| 21> %MaxCore 64000
| 22>
| 23> %pal nprocs 4
| 24> end
| 25>
| 26> %scf
| 27>   MaxIter 150
| 28> end
| 29>
| 30>
| 31>                          ****END OF INPUT****

CARTESIAN COORDINATES (ANGSTROEM)
---------------------------------
  C      3.905950    2.819850   -3.752920
  C      5.295620    3.131510   -4.105330
  C      3.803510    1.374720   -3.260810
  C      5.708620    3.468890   -5.324190
  N      6.904700    3.038950   -5.717080
  N      4.981880    4.293570   -6.097460
  H      5.000550    4.101310   -7.087760
  H      4.084690    4.596900   -5.739650
  H      5.963360    2.526110   -3.642390
  H      7.047160    2.066860   -5.473600
  H      7.198150    3.307990   -6.645230
  H      3.282020    2.949190   -4.640260
  H      3.565250    3.514570   -2.982520
  H      4.141570    0.711420   -4.029350
  H      2.785280    1.151460   -3.019440
  H      4.412050    1.250660   -2.389490

 Total Charge           Charge          ....    0
 Multiplicity           Mult            ....    1
 Number of Electrons    NEL             ....   48
 Basis Dimension        Dim             ....  246

ORBITAL ENERGIES
----------------

  NO   OCC          E(Eh)            E(eV)
   0   2.0000     -14.171816      -385.6347
   1   2.0000     -14.168170      -385.5355
   2   2.0000     -10.112314      -275.1700
   3   2.0000     -10.045080      -273.3405
   4   2.0000     -10.037239      -273.1272
   5   2.0000      -9.992971      -271.9226
   6   2.0000      -1.067010       -29.0348
   7   2.0000      -0.977751       -26.6060
   8   2.0000      -0.886181       -24.1142
   9   2.0000      -0.802745       -21.8438
  10   2.0000      -0.720297       -19.6003
  11   2.0000      -0.682577       -18.5739
  12   2.0000      -0.639851       -17.4112
  13   2.0000      -0.614890       -16.7320
  14   2.0000      -0.579470       -15.7682
  15   2.0000      -0.552084       -15.0230
  16   2.0000      -0.524704       -14.2779
  17   2.0000      -0.492698       -13.4070
  18   2.0000      -0.471810       -12.8386
  19   2.0000      -0.450802       -12.2670
  20   2.0000      -0.424339       -11.5469
  21   2.0000      -0.421683       -11.4746
  22   2.0000      -0.373991       -10.1768
  23   2.0000      -0.262622        -7.1463
  24   0.0000       0.080489         2.1902
  25   0.0000       0.115788         3.1507
  26   0.0000       0.119912         3.2630
  27   0.0000       0.137985         3.7548
  28   0.0000       0.146068         3.9747

MULLIKEN ATOMIC CHARGES
-----------------------
   0 C :   -0.203908
   1 C :   -0.326579
   2 C :   -0.408966
   3 C :    0.253184
   4 N :   -0.423467
   5 N :   -0.421698
   6 H :    0.206543
   7 H :    0.238469
   8 H :    0.080235
   9 H :    0.242717
  10 H :    0.206298
  11 H :    0.065475
  12 H :    0.120217
  13 H :    0.115391
  14 H :    0.123261
  15 H :    0.132829
Sum of atomic charges:    0.0000000

LOEWDIN ATOMIC CHARGES
----------------------
   0 C :   -0.315958
   1 C :   -0.279096
   2 C :   -0.315264
   3 C :   -0.476100
   4 N :   -0.016505
   5 N :   -0.019769
   6 H :    0.158185
   7 H :    0.176142
   8 H :    0.128994
   9 H :    0.181675
  10 H :    0.161768
  11 H :    0.129073
  12 H :    0.134006
  13 H :    0.116416
  14 H :    0.115925
  15 H :    0.120507

  Mayer bond orders larger than 0.100000
B(  0-C ,  1-C ) :   0.9125 B(  0-C ,  2-C ) :   0.9308 B(  0-C , 11-H ) :   0.9750
B(  0-C , 12-H ) :   0.9793 B(  1-C ,  3-C ) :   1.6369 B(  1-C ,  8-H ) :   1.0477
B(  2-C , 13-H ) :   0.9785 B(  2-C , 14-H ) :   0.9856 B(  2-C , 15-H ) :   0.9819
B(  3-C ,  4-N ) :   1.1208 B(  3-C ,  5-N ) :   1.1443 B(  4-N ,  9-H ) :   0.9236
B(  4-N , 10-H ) :   0.9362 B(  5-N ,  6-H ) :   0.9204 B(  5-N ,  7-H ) :   0.9301

FINAL SINGLE POINT ENERGY      -267.291099606780

DIPOLE MOMENT
-------------
                                X             Y             Z
Electronic contribution:      3.17048       3.24876      -2.89394
Nuclear contribution   :     -3.27358      -3.61654       1.70633
                        -----------------------------------------
Total Dipole Moment    :     -0.10310      -0.36778      -1.18762
                        -----------------------------------------
Magnitude (a.u.)       :      1.24753
Magnitude (Debye)      :      3.17096

Rotational constants in cm-1:     0.231961     0.071249     0.059473
Rotational constants in MHz :  6954.024434  2135.976855  1782.962814

                             ****ORCA TERMINATED NORMALLY****
TOTAL RUN TIME: 0 days 0 hours 0 minutes 39 seconds 92 msec
