                         Program Version 5.0.0 -  RELEASE  -
|  1> !LC-BLYP RIJCOSX def2-TZVP def2/J TightSCF
|  2> *xyz 0 1
|  3> C          3.80351        1.37472       -3.26081
|  4> C          3.93993        0.32036       -4.36773
|  5> H          4.10504       -0.65508       -3.90773
|  6> H          3.02280        0.28052       -4.95712
|  7> C          5.10585        0.66802       -5.30546
|  8> O          4.80913        1.15019       -6.41436
|  9> F          6.26737        0.56500       -4.81948
| 10> H          3.64113        2.33595       -3.70189
| 11> H          4.69995        1.39701       -2.67703
| 12> H          2.97435        1.12625       -2.63180
| 13> *
| 14>
| 15> %MaxCore 64000
| 16>
| 17> %pal nprocs 4
| 18> end
| 19>
| 20> %scf
| 21>   MaxIter 150
| 22> end
| 23>
| 24>
| 25>                          ****END OF INPUT****

CARTESIAN COORDINATES (ANGSTROEM)
---------------------------------
  C      3.803510    1.374720   -3.260810
  C      3.939930    0.320360   -4.367730
  H      4.105040   -0.655080   -3.907730
  H      3.022800    0.280520   -4.957120
  C      5.105850    0.668020   -5.305460
  O      4.809130    1.150190   -6.414360
  F      6.267370    0.565000   -4.819480
  H      3.641130    2.335950   -3.701890
  H      4.699950    1.397010   -2.677030
  H      2.974350    1.126250   -2.631800

 Total Charge           Charge          ....    0
 Multiplicity           Mult            ....    1
 Number of Electrons    NEL             ....   40
 Basis Dimension        Dim             ....  185

ORBITAL ENERGIES
----------------

  NO   OCC          E(Eh)            E(eV)
   0   2.0000     -24.521786      -667.2717
   1   2.0000     -18.945990      -515.5466
   2   2.0000     -10.248430      -278.8740
   3   2.0000     -10.099980      -274.8344
   4   2.0000     -10.077111      -274.2121
   5   2.0000      -1.393831       -37.9281
   6   2.0000      -1.132428       -30.8149
   7   2.0000      -0.913289       -24.8519
   8   2.0000      -0.791396       -21.5350
   9   2.0000      -0.746466       -20.3124
  10   2.0000      -0.656512       -17.8646
  11   2.0000      -0.640504       -17.4290
  12   2.0000      -0.608515       -16.5585
  13   2.0000      -0.570608       -15.5270
  14   2.0000      -0.538824       -14.6622
  15   2.0000      -0.505490       -13.7551
  16   2.0000      -0.485095       -13.2001
  17   2.0000      -0.473334       -12.8801
  18   2.0000      -0.456775       -12.4295
  19   2.0000      -0.391096       -10.6423
  20   0.0000       0.057179         1.5559
  21   0.0000       0.095030         2.5859
  22   0.0000       0.137084         3.7302
  23   0.0000       0.155240         4.2243
  24   0.0000       0.172055         4.6819

MULLIKEN ATOMIC CHARGES
-----------------------
   0 C :   -0.412256
   1 C :   -0.257064
   2 H :    0.135677
   3 H :    0.150035
   4 C :    0.278656
   5 O :   -0.257680
   6 F :   -0.073111
   7 H :    0.149974
   8 H :    0.142163
   9 H :    0.143606
Sum of atomic charges:    0.0000000

LOEWDIN ATOMIC CHARGES
----------------------
   0 C :   -0.304720
   1 C :   -0.266185
   2 H :    0.146216
   3 H :    0.154407
   4 C :   -0.526638
   5 O :    0.090940
   6 F :    0.328291
   7 H :    0.127678
   8 H :    0.124279
   9 H :    0.125734

  Mayer bond orders larger than 0.100000
B(  0-C ,  1-C ) :   0.9248 B(  0-C ,  7-H ) :   0.9687 B(  0-C ,  8-H ) :   0.9704
B(  0-C ,  9-H ) :   0.9749 B(  1-C ,  2-H ) :   0.9504 B(  1-C ,  3-H ) :   0.9671
B(  1-C ,  4-C ) :   0.9714 B(  4-C ,  5-O ) :   2.1412 B(  4-C ,  6-F ) :   1.1903

FINAL SINGLE POINT ENERGY      -291.903954738430

DIPOLE MOMENT
-------------
                                X             Y             Z
Electronic contribution:      6.40825      -0.99445      -4.77222
Nuclear contribution   :     -6.76123       0.61881       5.86003
                        -----------------------------------------
Total Dipole Moment    :     -0.35298      -0.37564       1.08781
                        -----------------------------------------
Magnitude (a.u.)       :      1.20376
Magnitude (Debye)      :      3.05972

Rotational constants in cm-1:     0.275298     0.134631     0.105723
Rotational constants in MHz :  8253.224169  4036.137572  3169.487264

                             ****ORCA TERMINATED NORMALLY****
TOTAL RUN TIME: 0 days 0 hours 0 minutes 22 seconds 182 msec
