                         Program Version 5.0.0 -  RELEASE  -
|  1> !LC-BLYP RIJCOSX def2-TZVP def2/J TightSCF
|  2> *xyz 0 1
|  3> C          3.90595        2.81985       -3.75292
|  4> N          5.29562        3.13151       -4.10533
|  5> C          3.80351        1.37472       -3.26081
|  6> C          5.70862        3.46889       -5.32419
|  7> C          6.90470        3.03895       -5.71708
|  8> N          4.98188        4.29357       -6.09746
|  9> H          5.00055        4.10131       -7.08776
| 10> H          4.08469        4.59690       -5.73965
| 11> H          5.96336        2.52611       -3.64239
| 12> H          7.04716        2.06686       -5.47360
| 13> H          7.19815        3.30799       -6.64523
| 14> H          3.28202        2.94919       -4.64026
| 15> H          3.56525        3.51457       -2.98252
| 16> H          4.14157        0.71142       -4.02935
| 17> H          2.78528        1.15146       -3.01944
| 18> H          4.41205        1.25066       -2.38949
| 19> *
| 20>
| 21> %MaxCore 64000
| 22>
| 23> %pal nprocs 4
| 24> end
| 25>
| 26> %scf
| 27>   MaxIter 150
| 28> end
| 29>
| 30>
| 31>                          ****END OF INPUT****

CARTESIAN COORDINATES (ANGSTROEM)
---------------------------------
  C      3.905950    2.819850   -3.752920
  N      5.295620    3.131510   -4.105330
  C      3.803510    1.374720   -3.260810
  C      5.708620    3.468890   -5.324190
  C      6.904700    3.038950   -5.717080
  N      4.981880    4.293570   -6.097460
  H      5.000550    4.101310   -7.087760
  H      4.084690    4.596900   -5.739650
  H      5.963360    2.526110   -3.642390
  H      7.047160    2.066860   -5.473600
  H      7.198150    3.307990   -6.645230
  H      3.282020    2.949190   -4.640260
  H      3.565250    3.514570   -2.982520
  H      4.141570    0.711420   -4.029350
  H      2.785280    1.151460   -3.019440
  H      4.412050    1.250660   -2.389490

 Total Charge           Charge          ....    0
 Multiplicity           Mult            ....    1
 Number of Electrons    NEL             ....   48
 Basis Dimension        Dim             ....  246

ORBITAL ENERGIES
----------------

  NO   OCC          E(Eh)            E(eV)
   0   2.0000     -14.172058      -385.6413
   1   2.0000     -14.171282      -385.6202
   2   2.0000     -10.117931      -275.3229
   3   2.0000     -10.109381      -275.0902
   4   2.0000     -10.067463      -273.9496
   5   2.0000      -9.978799      -271.5369
   6   2.0000      -1.072935       -29.1961
   7   2.0000      -0.990686       -26.9579
   8   2.0000      -0.883838       -24.0505
   9   2.0000      -0.814736       -22.1701
  10   2.0000      -0.738970       -20.1084
  11   2.0000      -0.703582       -19.1454
  12   2.0000      -0.640096       -17.4179
  13   2.0000      -0.599015       -16.3000
  14   2.0000      -0.592551       -16.1241
  15   2.0000      -0.555599       -15.1186
  16   2.0000      -0.526980       -14.3399
  17   2.0000      -0.505557       -13.7569
  18   2.0000      -0.482619       -13.1327
  19   2.0000      -0.473951       -12.8969
  20   2.0000      -0.471697       -12.8355
  21   2.0000      -0.438864       -11.9421
  22   2.0000      -0.359880        -9.7928
  23   2.0000      -0.268380        -7.3030
  24   0.0000       0.085497         2.3265
  25   0.0000       0.107269         2.9189
  26   0.0000       0.125377         3.4117
  27   0.0000       0.131747         3.5850
  28   0.0000       0.148647         4.0449

MULLIKEN ATOMIC CHARGES
-----------------------
   0 C :   -0.138598
   1 N :   -0.224347
   2 C :   -0.440320
   3 C :    0.259599
   4 C :   -0.511588
   5 N :   -0.428597
   6 H :    0.242777
   7 H :    0.214927
   8 H :    0.215000
   9 H :    0.084510
  10 H :    0.066093
  11 H :    0.104009
  12 H :    0.135738
  13 H :    0.144897
  14 H :    0.134009
  15 H :    0.141892
Sum of atomic charges:   -0.0000000

LOEWDIN ATOMIC CHARGES
----------------------
   0 C :   -0.318496
   1 N :    0.115819
   2 C :   -0.319934
   3 C :   -0.473832
   4 C :   -0.360096
   5 N :   -0.011040
   6 H :    0.176225
   7 H :    0.161863
   8 H :    0.197831
   9 H :    0.105185
  10 H :    0.098953
  11 H :    0.129295
  12 H :    0.128782
  13 H :    0.123757
  14 H :    0.123946
  15 H :    0.121741

  Mayer bond orders larger than 0.100000
B(  0-C ,  1-N ) :   0.9154 B(  0-C ,  2-C ) :   0.9401 B(  0-C , 11-H ) :   0.9795
B(  0-C , 12-H ) :   0.9673 B(  1-N ,  3-C ) :   1.2314 B(  1-N ,  8-H ) :   0.9301
B(  2-C , 13-H ) :   0.9717 B(  2-C , 14-H ) :   0.9773 B(  2-C , 15-H ) :   0.9752
B(  3-C ,  4-C ) :   1.6508 B(  3-C ,  5-N ) :   1.1109 B(  4-C ,  9-H ) :   0.9904
B(  4-C , 10-H ) :   1.0295 B(  5-N ,  6-H ) :   0.9246 B(  5-N ,  7-H ) :   0.9389

FINAL SINGLE POINT ENERGY      -267.280791528570

DIPOLE MOMENT
-------------
                                X             Y             Z
Electronic contribution:      1.47549       3.24078      -1.28083
Nuclear contribution   :     -2.93222      -3.63618       1.36440
                        -----------------------------------------
Total Dipole Moment    :     -1.45673      -0.39540       0.08357
                        -----------------------------------------
Magnitude (a.u.)       :      1.51175
Magnitude (Debye)      :      3.84256

Rotational constants in cm-1:     0.237993     0.072843     0.061284
Rotational constants in MHz :  7134.860770  2183.763760  1837.240960

                             ****ORCA TERMINATED NORMALLY****
TOTAL RUN TIME: 0 days 0 hours 0 minutes 41 seconds 89 msec
