                         Program Version 5.0.0 -  RELEASE  -
|  1> !LC-BLYP RIJCOSX def2-TZVP def2/J TightSCF
|  2> *xyz 0 1
|  3> C          3.90595        2.81985       -3.75292
|  4> N          5.29562        3.13151       -4.10533
|  5> C          3.80351        1.37472       -3.26081
|  6> C          5.70862        3.46889       -5.32419
|  7> N          6.90470        3.03895       -5.71708
|  8> C          4.98188        4.29357       -6.09746
|  9> H          5.00055        4.10131       -7.08776
| 10> H          4.08469        4.59690       -5.73965
| 11> H          5.96336        2.52611       -3.64239
| 12> H          7.04716        2.06686       -5.47360
| 13> H          7.19815        3.30799       -6.64523
| 14> H          3.28202        2.94919       -4.64026
| 15> H          3.56525        3.51457       -2.98252
| 16> H          4.14157        0.71142       -4.02935
| 17> H          2.78528        1.15146       -3.01944
| 18> H          4.41205        1.25066       -2.38949
| 19> *
| 20>
| 21> %MaxCore 64000
| 22>
| 23> %pal nprocs 4
| 24> end
| 25>
| 26> %scf
| 27>   MaxIter 150
| 28> end
| 29>
| 30>
| 31>                          ****END OF INPUT****

CARTESIAN COORDINATES (ANGSTROEM)
---------------------------------
  C      3.905950    2.819850   -3.752920
  N      5.295620    3.131510   -4.105330
  C      3.803510    1.374720   -3.260810
  C      5.708620    3.468890   -5.324190
  N      6.904700    3.038950   -5.717080
  C      4.981880    4.293570   -6.097460
  H      5.000550    4.101310   -7.087760
  H      4.084690    4.596900   -5.739650
  H      5.963360    2.526110   -3.642390
  H      7.047160    2.066860   -5.473600
  H      7.198150    3.307990   -6.645230
  H      3.282020    2.949190   -4.640260
  H      3.565250    3.514570   -2.982520
  H      4.141570    0.711420   -4.029350
  H      2.785280    1.151460   -3.019440
  H      4.412050    1.250660   -2.389490

 Total Charge           Charge          ....    0
 Multiplicity           Mult            ....    1
 Number of Electrons    NEL             ....   48
 Basis Dimension        Dim             ....  246

ORBITAL ENERGIES
----------------

  NO   OCC          E(Eh)            E(eV)
   0   2.0000     -14.173354      -385.6766
   1   2.0000     -14.171130      -385.6160
   2   2.0000     -10.116937      -275.2959
   3   2.0000     -10.102956      -274.9154
   4   2.0000     -10.065183      -273.8875
   5   2.0000      -9.984094      -271.6810
   6   2.0000      -1.077545       -29.3215
   7   2.0000      -0.992764       -27.0145
   8   2.0000      -0.872354       -23.7380
   9   2.0000      -0.815955       -22.2033
  10   2.0000      -0.753044       -20.4914
  11   2.0000      -0.673355       -18.3229
  12   2.0000      -0.642717       -17.4892
  13   2.0000      -0.621404       -16.9093
  14   2.0000      -0.580328       -15.7915
  15   2.0000      -0.561052       -15.2670
  16   2.0000      -0.510251       -13.8846
  17   2.0000      -0.504005       -13.7147
  18   2.0000      -0.494322       -13.4512
  19   2.0000      -0.473192       -12.8762
  20   2.0000      -0.463718       -12.6184
  21   2.0000      -0.440035       -11.9740
  22   2.0000      -0.357099        -9.7172
  23   2.0000      -0.271648        -7.3919
  24   0.0000       0.081880         2.2281
  25   0.0000       0.113289         3.0827
  26   0.0000       0.129390         3.5209
  27   0.0000       0.132427         3.6035
  28   0.0000       0.148478         4.0403

MULLIKEN ATOMIC CHARGES
-----------------------
   0 C :   -0.118383
   1 N :   -0.243368
   2 C :   -0.439504
   3 C :    0.265920
   4 N :   -0.414584
   5 C :   -0.518360
   6 H :    0.096676
   7 H :    0.075160
   8 H :    0.177408
   9 H :    0.204445
  10 H :    0.237663
  11 H :    0.134575
  12 H :    0.133974
  13 H :    0.134422
  14 H :    0.135807
  15 H :    0.138149
Sum of atomic charges:    0.0000000

LOEWDIN ATOMIC CHARGES
----------------------
   0 C :   -0.304162
   1 N :    0.117920
   2 C :   -0.323377
   3 C :   -0.483405
   4 N :   -0.016312
   5 C :   -0.347034
   6 H :    0.100378
   7 H :    0.100016
   8 H :    0.180093
   9 H :    0.162218
  10 H :    0.178331
  11 H :    0.140342
  12 H :    0.130799
  13 H :    0.119944
  14 H :    0.124792
  15 H :    0.119457

  Mayer bond orders larger than 0.100000
B(  0-C ,  1-N ) :   0.9111 B(  0-C ,  2-C ) :   0.9354 B(  0-C , 11-H ) :   0.9746
B(  0-C , 12-H ) :   0.9706 B(  1-N ,  3-C ) :   1.1818 B(  1-N ,  8-H ) :   0.9414
B(  2-C , 13-H ) :   0.9738 B(  2-C , 14-H ) :   0.9780 B(  2-C , 15-H ) :   0.9758
B(  3-C ,  4-N ) :   1.1383 B(  3-C ,  5-C ) :   1.5896 B(  4-N ,  9-H ) :   0.9240
B(  4-N , 10-H ) :   0.9278 B(  5-C ,  6-H ) :   0.9813 B(  5-C ,  7-H ) :   1.0228

FINAL SINGLE POINT ENERGY      -267.285145087124

DIPOLE MOMENT
-------------
                                X             Y             Z
Electronic contribution:      3.40299       2.03016      -0.98607
Nuclear contribution   :     -3.34013      -3.37002       1.28371
                        -----------------------------------------
Total Dipole Moment    :      0.06286      -1.33986       0.29764
                        -----------------------------------------
Magnitude (a.u.)       :      1.37396
Magnitude (Debye)      :      3.49233

Rotational constants in cm-1:     0.239537     0.072280     0.060961
Rotational constants in MHz :  7181.153552  2166.902802  1827.551447

                             ****ORCA TERMINATED NORMALLY****
TOTAL RUN TIME: 0 days 0 hours 0 minutes 41 seconds 934 msec
