                         Program Version 5.0.0 -  RELEASE  -
|  1> !LC-BLYP RIJCOSX def2-TZVP def2/J TightSCF xyzfile
|  2>
|  3> *xyzfile 0 1 D2.xyz
|  4>
|  5> %MaxCore 64000
|  6>
|  7> %pal nprocs 18
|  8> end
|  9>
| 10> %scf
| 11>   MaxIter 150
| 12> end
| 13>
| 14>
| 15>                          ****END OF INPUT****

CARTESIAN COORDINATES (ANGSTROEM)
---------------------------------
  C      3.905947    2.819855   -3.752920
  N      5.295615    3.131515   -4.105334
  C      3.803511    1.374716   -3.260807
  C      3.939934    0.320362   -4.367729
  H      4.105043   -0.655085   -3.907733
  H      3.022801    0.280517   -4.957117
  C      5.105846    0.668022   -5.305463
  C      5.708619    3.468885   -5.324190
  C      6.904696    3.038954   -5.717084
  N      4.981884    4.293570   -6.097457
  H      5.000546    4.101311   -7.087761
  H      4.084693    4.596899   -5.739652
  H      5.963358    2.526112   -3.642391
  H      7.047164    2.066861   -5.473604
  H      7.198145    3.307994   -6.645225
  H      3.282025    2.949187   -4.640259
  H      3.565254    3.514574   -2.982523
  H      4.574833    1.215157   -2.500443
  H      2.843514    1.260845   -2.751465
  F      4.809132    1.150187   -6.414361
  O      6.267366    0.564999   -4.819481

 Total Charge           Charge          ....    0
 Multiplicity           Mult            ....    1
 Number of Electrons    NEL             ....   78
 Basis Dimension        Dim             ....  376

ORBITAL ENERGIES
----------------

  NO   OCC          E(Eh)            E(eV)
   0   2.0000     -24.533594      -667.5930
   1   2.0000     -18.946892      -515.5711
   2   2.0000     -14.170544      -385.6001
   3   2.0000     -14.167184      -385.5087
   4   2.0000     -10.258605      -279.1508
   5   2.0000     -10.117315      -275.3061
   6   2.0000     -10.109300      -275.0880
   7   2.0000     -10.107922      -275.0506
   8   2.0000     -10.099769      -274.8287
   9   2.0000      -9.961735      -271.0726
  10   2.0000      -1.412850       -38.4456
  11   2.0000      -1.133411       -30.8417
  12   2.0000      -1.071775       -29.1645
  13   2.0000      -0.991562       -26.9818
  14   2.0000      -0.929810       -25.3014
  15   2.0000      -0.853217       -23.2172
  16   2.0000      -0.808028       -21.9876
  17   2.0000      -0.770487       -20.9660
  18   2.0000      -0.730385       -19.8748
  19   2.0000      -0.702197       -19.1078
  20   2.0000      -0.673231       -18.3196
  21   2.0000      -0.654422       -17.8077
  22   2.0000      -0.641389       -17.4531
  23   2.0000      -0.615631       -16.7522
  24   2.0000      -0.602005       -16.3814
  25   2.0000      -0.589227       -16.0337
  26   2.0000      -0.571866       -15.5613
  27   2.0000      -0.545815       -14.8524
  28   2.0000      -0.521553       -14.1922
  29   2.0000      -0.509453       -13.8629
  30   2.0000      -0.497965       -13.5503
  31   2.0000      -0.493205       -13.4208
  32   2.0000      -0.468235       -12.7413
  33   2.0000      -0.466175       -12.6853
  34   2.0000      -0.447135       -12.1672
  35   2.0000      -0.437704       -11.9105
  36   2.0000      -0.382028       -10.3955
  37   2.0000      -0.356585        -9.7032
  38   2.0000      -0.259624        -7.0647
  39   0.0000       0.041336         1.1248
  40   0.0000       0.082344         2.2407
  41   0.0000       0.102960         2.8017
  42   0.0000       0.117963         3.2099
  43   0.0000       0.126496         3.4421

MULLIKEN ATOMIC CHARGES
-----------------------
   0 C :   -0.198860
   1 N :   -0.232390
   2 C :   -0.316017
   3 C :   -0.264441
   4 H :    0.163259
   5 H :    0.147958
   6 C :    0.298104
   7 C :    0.133184
   8 C :   -0.452156
   9 N :   -0.425935
  10 H :    0.242214
  11 H :    0.209958
  12 H :    0.237471
  13 H :    0.127780
  14 H :    0.065926
  15 H :    0.133531
  16 H :    0.151158
  17 H :    0.166018
  18 H :    0.142083
  19 F :   -0.037905
  20 O :   -0.290940
Sum of atomic charges:    0.0000000

LOEWDIN ATOMIC CHARGES
----------------------
   0 C :   -0.297243
   1 N :    0.124722
   2 C :   -0.270553
   3 C :   -0.238655
   4 H :    0.160553
   5 H :    0.146795
   6 C :   -0.524130
   7 C :   -0.502547
   8 C :   -0.345418
   9 N :   -0.015209
  10 H :    0.174840
  11 H :    0.158741
  12 H :    0.201851
  13 H :    0.105847
  14 H :    0.096993
  15 H :    0.134575
  16 H :    0.134150
  17 H :    0.150444
  18 H :    0.147664
  19 F :    0.377744
  20 O :    0.078836

  Mayer bond orders larger than 0.100000
B(  0-C ,  1-N ) :   0.9234 B(  0-C ,  2-C ) :   0.9148 B(  0-C , 15-H ) :   0.9817
B(  0-C , 16-H ) :   0.9782 B(  1-N ,  7-C ) :   1.1745 B(  1-N , 12-H ) :   0.9218
B(  2-C ,  3-C ) :   0.9106 B(  2-C , 17-H ) :   0.9721 B(  2-C , 18-H ) :   0.9783
B(  3-C ,  4-H ) :   0.9632 B(  3-C ,  5-H ) :   0.9628 B(  3-C ,  6-C ) :   0.9511
B(  6-C , 19-F ) :   1.2349 B(  6-C , 20-O ) :   2.0470 B(  7-C ,  8-C ) :   1.6943
B(  7-C ,  9-N ) :   1.0768 B(  8-C , 13-H ) :   0.9616 B(  8-C , 14-H ) :   1.0289
B(  9-N , 10-H ) :   0.9256 B(  9-N , 11-H ) :   0.9426

FINAL SINGLE POINT ENERGY      -518.782890852725

DIPOLE MOMENT
-------------
                                X             Y             Z
Electronic contribution:      2.02476      -3.78718      -5.18426
Nuclear contribution   :     -4.40347       3.21582       5.36161
                        -----------------------------------------
Total Dipole Moment    :     -2.37871      -0.57136       0.17735
                        -----------------------------------------
Magnitude (a.u.)       :      2.45279
Magnitude (Debye)      :      6.23449

Rotational constants in cm-1:     0.061226     0.043199     0.033926
Rotational constants in MHz :  1835.503528  1295.087558  1017.061512

                             ****ORCA TERMINATED NORMALLY****
TOTAL RUN TIME: 0 days 0 hours 0 minutes 32 seconds 368 msec
