                         Program Version 5.0.0 -  RELEASE  -
|  1> !LC-BLYP RIJCOSX def2-TZVP def2/J TightSCF xyzfile
|  2>
|  3> *xyzfile 0 1 D3.xyz
|  4>
|  5> %MaxCore 64000
|  6>
|  7> %pal nprocs 18
|  8> end
|  9>
| 10> %scf
| 11>   MaxIter 150
| 12> end
| 13>
| 14>
| 15>                          ****END OF INPUT****

CARTESIAN COORDINATES (ANGSTROEM)
---------------------------------
  C      3.905947    2.819855   -3.752920
  N      5.295615    3.131515   -4.105334
  C      3.803511    1.374716   -3.260807
  C      3.939934    0.320362   -4.367729
  H      4.105043   -0.655085   -3.907733
  H      3.022801    0.280517   -4.957117
  C      5.105846    0.668022   -5.305463
  C      5.708619    3.468885   -5.324190
  N      6.904696    3.038954   -5.717084
  C      4.981884    4.293570   -6.097457
  H      5.000546    4.101311   -7.087761
  H      4.084693    4.596899   -5.739652
  H      5.963358    2.526112   -3.642391
  H      7.047164    2.066861   -5.473604
  H      7.198145    3.307994   -6.645225
  H      3.282025    2.949187   -4.640259
  H      3.565254    3.514574   -2.982523
  H      4.574833    1.215157   -2.500443
  H      2.843514    1.260845   -2.751465
  F      4.809132    1.150187   -6.414361
  O      6.267366    0.564999   -4.819481

 Total Charge           Charge          ....    0
 Multiplicity           Mult            ....    1
 Number of Electrons    NEL             ....   78
 Basis Dimension        Dim             ....  376

ORBITAL ENERGIES
----------------

  NO   OCC          E(Eh)            E(eV)
   0   2.0000     -24.544940      -667.9018
   1   2.0000     -18.965834      -516.0866
   2   2.0000     -14.172882      -385.6637
   3   2.0000     -14.148650      -385.0043
   4   2.0000     -10.274810      -279.5918
   5   2.0000     -10.115073      -275.2451
   6   2.0000     -10.113373      -275.1989
   7   2.0000     -10.110868      -275.1307
   8   2.0000     -10.100986      -274.8618
   9   2.0000      -9.978835      -271.5379
  10   2.0000      -1.424033       -38.7499
  11   2.0000      -1.152504       -31.3612
  12   2.0000      -1.072818       -29.1929
  13   2.0000      -0.990457       -26.9517
  14   2.0000      -0.928663       -25.2702
  15   2.0000      -0.847889       -23.0722
  16   2.0000      -0.811470       -22.0812
  17   2.0000      -0.784998       -21.3609
  18   2.0000      -0.743004       -20.2182
  19   2.0000      -0.684606       -18.6291
  20   2.0000      -0.675830       -18.3903
  21   2.0000      -0.664228       -18.0746
  22   2.0000      -0.647460       -17.6183
  23   2.0000      -0.619870       -16.8675
  24   2.0000      -0.608169       -16.5491
  25   2.0000      -0.590322       -16.0635
  26   2.0000      -0.578416       -15.7395
  27   2.0000      -0.539735       -14.6869
  28   2.0000      -0.530828       -14.4446
  29   2.0000      -0.514162       -13.9911
  30   2.0000      -0.495345       -13.4790
  31   2.0000      -0.491383       -13.3712
  32   2.0000      -0.477756       -13.0004
  33   2.0000      -0.471257       -12.8236
  34   2.0000      -0.458374       -12.4730
  35   2.0000      -0.434666       -11.8279
  36   2.0000      -0.414120       -11.2688
  37   2.0000      -0.350249        -9.5307
  38   2.0000      -0.265968        -7.2374
  39   0.0000       0.027965         0.7610
  40   0.0000       0.087222         2.3734
  41   0.0000       0.114810         3.1241
  42   0.0000       0.125058         3.4030
  43   0.0000       0.127812         3.4779

MULLIKEN ATOMIC CHARGES
-----------------------
   0 C :   -0.177834
   1 N :   -0.233777
   2 C :   -0.317964
   3 C :   -0.264480
   4 H :    0.164373
   5 H :    0.155331
   6 C :    0.296460
   7 C :    0.096808
   8 N :   -0.361392
   9 C :   -0.461918
  10 H :    0.092326
  11 H :    0.067170
  12 H :    0.207991
  13 H :    0.229253
  14 H :    0.228520
  15 H :    0.161055
  16 H :    0.151006
  17 H :    0.164073
  18 H :    0.146775
  19 F :   -0.021434
  20 O :   -0.322342
Sum of atomic charges:    0.0000000

LOEWDIN ATOMIC CHARGES
----------------------
   0 C :   -0.282547
   1 N :    0.130456
   2 C :   -0.270099
   3 C :   -0.235135
   4 H :    0.161087
   5 H :    0.150099
   6 C :   -0.519393
   7 C :   -0.507250
   8 N :   -0.009628
   9 C :   -0.353214
  10 H :    0.098538
  11 H :    0.097222
  12 H :    0.184675
  13 H :    0.153446
  14 H :    0.174585
  15 H :    0.145607
  16 H :    0.136801
  17 H :    0.149064
  18 H :    0.149426
  19 F :    0.388757
  20 O :    0.057503

  Mayer bond orders larger than 0.100000
B(  0-C ,  1-N ) :   0.9208 B(  0-C ,  2-C ) :   0.9141 B(  0-C , 15-H ) :   0.9765
B(  0-C , 16-H ) :   0.9823 B(  1-N ,  7-C ) :   1.1440 B(  1-N , 12-H ) :   0.9304
B(  2-C ,  3-C ) :   0.9085 B(  2-C , 17-H ) :   0.9734 B(  2-C , 18-H ) :   0.9790
B(  3-C ,  4-H ) :   0.9610 B(  3-C ,  5-H ) :   0.9604 B(  3-C ,  6-C ) :   0.9513
B(  6-C , 19-F ) :   1.2618 B(  6-C , 20-O ) :   1.9929 B(  7-C ,  8-N ) :   1.2129
B(  7-C ,  9-C ) :   1.6752 B(  8-N , 13-H ) :   0.8912 B(  8-N , 14-H ) :   0.9293
B(  9-C , 10-H ) :   0.9787 B(  9-C , 11-H ) :   1.0226

FINAL SINGLE POINT ENERGY      -518.802224425955

DIPOLE MOMENT
-------------
                                X             Y             Z
Electronic contribution:      3.55758      -4.89481      -4.88286
Nuclear contribution   :     -4.64021       3.37029       5.31478
                        -----------------------------------------
Total Dipole Moment    :     -1.08263      -1.52453       0.43192
                        -----------------------------------------
Magnitude (a.u.)       :      1.91907
Magnitude (Debye)      :      4.87789

Rotational constants in cm-1:     0.061077     0.043622     0.034103
Rotational constants in MHz :  1831.041375  1307.759852  1022.388536

                             ****ORCA TERMINATED NORMALLY****
TOTAL RUN TIME: 0 days 0 hours 0 minutes 34 seconds 638 msec
