                         Program Version 5.0.0 -  RELEASE  -
|  1> !LC-BLYP RIJCOSX def2-TZVP def2/J TightSCF xyzfile
|  2>
|  3> *xyzfile 0 1 D4.xyz
|  4>
|  5> %MaxCore 64000
|  6>
|  7> %pal nprocs 18
|  8> end
|  9>
| 10> %scf
| 11>   MaxIter 150
| 12> end
| 13>
| 14>
| 15>                          ****END OF INPUT****

CARTESIAN COORDINATES (ANGSTROEM)
---------------------------------
  C      3.905947    2.819855   -3.752920
  C      5.295615    3.131515   -4.105334
  C      3.803511    1.374716   -3.260807
  C      3.939934    0.320362   -4.367729
  H      4.105043   -0.655085   -3.907733
  H      3.022801    0.280517   -4.957117
  C      5.105846    0.668022   -5.305463
  C      5.708619    3.468885   -5.324190
  N      6.904696    3.038954   -5.717084
  N      4.981884    4.293570   -6.097457
  H      5.000546    4.101311   -7.087761
  H      4.084693    4.596899   -5.739652
  H      5.963358    2.526112   -3.642391
  H      7.047164    2.066861   -5.473604
  H      7.198145    3.307994   -6.645225
  H      3.282025    2.949187   -4.640259
  H      3.565254    3.514574   -2.982523
  H      4.574833    1.215157   -2.500443
  H      2.843514    1.260845   -2.751465
  O      4.809132    1.150187   -6.414361
  F      6.267366    0.564999   -4.819481

 Total Charge           Charge          ....    0
 Multiplicity           Mult            ....    1
 Number of Electrons    NEL             ....   78
 Basis Dimension        Dim             ....  376

ORBITAL ENERGIES
----------------

  NO   OCC          E(Eh)            E(eV)
   0   2.0000     -24.531660      -667.5404
   1   2.0000     -18.945833      -515.5423
   2   2.0000     -14.168410      -385.5420
   3   2.0000     -14.157742      -385.2517
   4   2.0000     -10.251600      -278.9602
   5   2.0000     -10.113172      -275.1934
   6   2.0000     -10.094582      -274.6875
   7   2.0000     -10.075438      -274.1666
   8   2.0000     -10.054355      -273.5929
   9   2.0000      -9.994189      -271.9557
  10   2.0000      -1.406598       -38.2755
  11   2.0000      -1.135985       -30.9117
  12   2.0000      -1.062415       -28.9098
  13   2.0000      -0.972911       -26.4743
  14   2.0000      -0.928171       -25.2568
  15   2.0000      -0.859117       -23.3778
  16   2.0000      -0.801038       -21.7974
  17   2.0000      -0.764741       -20.8097
  18   2.0000      -0.716734       -19.5033
  19   2.0000      -0.696958       -18.9652
  20   2.0000      -0.663933       -18.0665
  21   2.0000      -0.649921       -17.6852
  22   2.0000      -0.631773       -17.1914
  23   2.0000      -0.613441       -16.6926
  24   2.0000      -0.605264       -16.4701
  25   2.0000      -0.571113       -15.5408
  26   2.0000      -0.570160       -15.5148
  27   2.0000      -0.545390       -14.8408
  28   2.0000      -0.532025       -14.4771
  29   2.0000      -0.499106       -13.5814
  30   2.0000      -0.489532       -13.3208
  31   2.0000      -0.474456       -12.9106
  32   2.0000      -0.463381       -12.6092
  33   2.0000      -0.444481       -12.0950
  34   2.0000      -0.436711       -11.8835
  35   2.0000      -0.425422       -11.5763
  36   2.0000      -0.391404       -10.6507
  37   2.0000      -0.364027        -9.9057
  38   2.0000      -0.264982        -7.2105
  39   0.0000       0.053132         1.4458
  40   0.0000       0.093283         2.5383
  41   0.0000       0.107409         2.9228
  42   0.0000       0.124394         3.3849
  43   0.0000       0.133193         3.6244

MULLIKEN ATOMIC CHARGES
-----------------------
   0 C :   -0.217883
   1 C :   -0.385578
   2 C :   -0.300718
   3 C :   -0.279193
   4 H :    0.147971
   5 H :    0.155205
   6 C :    0.303685
   7 C :    0.149280
   8 N :   -0.343126
   9 N :   -0.409869
  10 H :    0.219609
  11 H :    0.234289
  12 H :    0.117089
  13 H :    0.223155
  14 H :    0.209781
  15 H :    0.098881
  16 H :    0.135484
  17 H :    0.152666
  18 H :    0.133512
  19 O :   -0.250315
  20 F :   -0.093925
Sum of atomic charges:    0.0000000

LOEWDIN ATOMIC CHARGES
----------------------
   0 C :   -0.292248
   1 C :   -0.283859
   2 C :   -0.264122
   3 C :   -0.235103
   4 H :    0.149547
   5 H :    0.157073
   6 C :   -0.529614
   7 C :   -0.482342
   8 N :   -0.001606
   9 N :   -0.006644
  10 H :    0.163101
  11 H :    0.174978
  12 H :    0.126296
  13 H :    0.164450
  14 H :    0.163358
  15 H :    0.139749
  16 H :    0.139647
  17 H :    0.146145
  18 H :    0.142573
  19 O :    0.097206
  20 F :    0.331416

  Mayer bond orders larger than 0.100000
B(  0-C ,  1-C ) :   0.8896 B(  0-C ,  2-C ) :   0.9086 B(  0-C , 15-H ) :   0.9716
B(  0-C , 16-H ) :   0.9809 B(  1-C ,  7-C ) :   1.5591 B(  1-C , 12-H ) :   1.0731
B(  2-C ,  3-C ) :   0.9150 B(  2-C , 17-H ) :   0.9793 B(  2-C , 18-H ) :   0.9825
B(  3-C ,  4-H ) :   0.9611 B(  3-C ,  5-H ) :   0.9739 B(  3-C ,  6-C ) :   0.9678
B(  6-C , 19-O ) :   2.1283 B(  6-C , 20-F ) :   1.1328 B(  7-C ,  8-N ) :   1.1827
B(  7-C ,  9-N ) :   1.1644 B(  8-N , 13-H ) :   0.9155 B(  8-N , 14-H ) :   0.9341
B(  9-N , 10-H ) :   0.9225 B(  9-N , 11-H ) :   0.9324

FINAL SINGLE POINT ENERGY      -518.812401411277

DIPOLE MOMENT
-------------
                                X             Y             Z
Electronic contribution:      5.81226      -4.54777      -3.96281
Nuclear contribution   :     -6.25608       3.89116       3.75052
                        -----------------------------------------
Total Dipole Moment    :     -0.44382      -0.65662      -0.21228
                        -----------------------------------------
Magnitude (a.u.)       :      0.82048
Magnitude (Debye)      :      2.08549

Rotational constants in cm-1:     0.061229     0.042568     0.033282
Rotational constants in MHz :  1835.590871  1276.154029   997.769927

                             ****ORCA TERMINATED NORMALLY****
TOTAL RUN TIME: 0 days 0 hours 0 minutes 34 seconds 102 msec
