                         Program Version 5.0.0 -  RELEASE  -
|  1> !LC-BLYP RIJCOSX def2-TZVP def2/J TightSCF xyzfile
|  2>
|  3> *xyzfile 0 1 D6.xyz
|  4>
|  5> %MaxCore 64000
|  6>
|  7> %pal nprocs 18
|  8> end
|  9>
| 10> %scf
| 11>   MaxIter 150
| 12> end
| 13>
| 14>
| 15>                          ****END OF INPUT****

CARTESIAN COORDINATES (ANGSTROEM)
---------------------------------
  C      3.905947    2.819855   -3.752920
  N      5.295615    3.131515   -4.105334
  C      3.803511    1.374716   -3.260807
  C      3.939934    0.320362   -4.367729
  H      4.105043   -0.655085   -3.907733
  H      3.022801    0.280517   -4.957117
  C      5.105846    0.668022   -5.305463
  C      5.708619    3.468885   -5.324190
  N      6.904696    3.038954   -5.717084
  C      4.981884    4.293570   -6.097457
  H      5.000546    4.101311   -7.087761
  H      4.084693    4.596899   -5.739652
  H      5.963358    2.526112   -3.642391
  H      7.047164    2.066861   -5.473604
  H      7.198145    3.307994   -6.645225
  H      3.282025    2.949187   -4.640259
  H      3.565254    3.514574   -2.982523
  H      4.574833    1.215157   -2.500443
  H      2.843514    1.260845   -2.751465
  O      4.809132    1.150187   -6.414361
  F      6.267366    0.564999   -4.819481

 Total Charge           Charge          ....    0
 Multiplicity           Mult            ....    1
 Number of Electrons    NEL             ....   78
 Basis Dimension        Dim             ....  376

ORBITAL ENERGIES
----------------

  NO   OCC          E(Eh)            E(eV)
   0   2.0000     -24.545868      -667.9270
   1   2.0000     -18.958572      -515.8890
   2   2.0000     -14.177918      -385.8008
   3   2.0000     -14.156374      -385.2145
   4   2.0000     -10.261364      -279.2259
   5   2.0000     -10.111992      -275.1613
   6   2.0000     -10.110870      -275.1308
   7   2.0000     -10.110547      -275.1220
   8   2.0000     -10.100875      -274.8588
   9   2.0000      -9.977331      -271.4970
  10   2.0000      -1.421324       -38.6762
  11   2.0000      -1.146889       -31.2084
  12   2.0000      -1.076762       -29.3002
  13   2.0000      -0.993746       -27.0412
  14   2.0000      -0.927770       -25.2459
  15   2.0000      -0.847193       -23.0533
  16   2.0000      -0.810682       -22.0598
  17   2.0000      -0.786881       -21.4121
  18   2.0000      -0.744131       -20.2488
  19   2.0000      -0.688406       -18.7325
  20   2.0000      -0.681742       -18.5511
  21   2.0000      -0.669398       -18.2152
  22   2.0000      -0.628512       -17.1027
  23   2.0000      -0.616051       -16.7636
  24   2.0000      -0.606416       -16.5014
  25   2.0000      -0.590536       -16.0693
  26   2.0000      -0.585537       -15.9333
  27   2.0000      -0.534350       -14.5404
  28   2.0000      -0.529010       -14.3951
  29   2.0000      -0.509289       -13.8584
  30   2.0000      -0.497803       -13.5459
  31   2.0000      -0.489635       -13.3236
  32   2.0000      -0.482499       -13.1295
  33   2.0000      -0.467363       -12.7176
  34   2.0000      -0.459765       -12.5108
  35   2.0000      -0.433648       -11.8002
  36   2.0000      -0.400739       -10.9047
  37   2.0000      -0.354658        -9.6507
  38   2.0000      -0.265857        -7.2343
  39   0.0000       0.042429         1.1545
  40   0.0000       0.083635         2.2758
  41   0.0000       0.113509         3.0887
  42   0.0000       0.124980         3.4009
  43   0.0000       0.127752         3.4763

MULLIKEN ATOMIC CHARGES
-----------------------
   0 C :   -0.153806
   1 N :   -0.230765
   2 C :   -0.349391
   3 C :   -0.258832
   4 H :    0.154903
   5 H :    0.167034
   6 C :    0.244876
   7 C :    0.130975
   8 N :   -0.351694
   9 C :   -0.457503
  10 H :    0.105951
  11 H :    0.064980
  12 H :    0.185766
  13 H :    0.198260
  14 H :    0.236313
  15 H :    0.167583
  16 H :    0.149378
  17 H :    0.161007
  18 H :    0.148198
  19 O :   -0.210722
  20 F :   -0.102513
Sum of atomic charges:    0.0000000

LOEWDIN ATOMIC CHARGES
----------------------
   0 C :   -0.279149
   1 N :    0.129478
   2 C :   -0.276824
   3 C :   -0.236623
   4 H :    0.151546
   5 H :    0.160620
   6 C :   -0.541749
   7 C :   -0.503209
   8 N :   -0.007678
   9 C :   -0.334397
  10 H :    0.102555
  11 H :    0.097781
  12 H :    0.176453
  13 H :    0.150581
  14 H :    0.178262
  15 H :    0.150845
  16 H :    0.136249
  17 H :    0.144223
  18 H :    0.149813
  19 O :    0.128279
  20 F :    0.322943

  Mayer bond orders larger than 0.100000
B(  0-C ,  1-N ) :   0.9081 B(  0-C ,  2-C ) :   0.9065 B(  0-C , 15-H ) :   0.9732
B(  0-C , 16-H ) :   0.9810 B(  1-N ,  7-C ) :   1.1379 B(  1-N , 12-H ) :   0.9362
B(  2-C ,  3-C ) :   0.9017 B(  2-C , 17-H ) :   0.9782 B(  2-C , 18-H ) :   0.9783
B(  3-C ,  4-H ) :   0.9625 B(  3-C ,  5-H ) :   0.9706 B(  3-C ,  6-C ) :   0.9548
B(  6-C , 19-O ) :   2.1541 B(  6-C , 20-F ) :   1.1217 B(  7-C ,  8-N ) :   1.1953
B(  7-C ,  9-C ) :   1.6755 B(  8-N , 13-H ) :   0.9307 B(  8-N , 14-H ) :   0.9293
B(  9-C , 10-H ) :   0.9757 B(  9-C , 11-H ) :   1.0207

FINAL SINGLE POINT ENERGY      -518.798873482951

DIPOLE MOMENT
-------------
                                X             Y             Z
Electronic contribution:      5.95115      -5.72348      -2.33942
Nuclear contribution   :     -6.29470       4.03423       3.50525
                        -----------------------------------------
Total Dipole Moment    :     -0.34356      -1.68925       1.16583
                        -----------------------------------------
Magnitude (a.u.)       :      2.08104
Magnitude (Debye)      :      5.28959

Rotational constants in cm-1:     0.061094     0.043661     0.033867
Rotational constants in MHz :  1831.559881  1308.929520  1015.295167

                             ****ORCA TERMINATED NORMALLY****
TOTAL RUN TIME: 0 days 0 hours 0 minutes 33 seconds 685 msec
