                         Program Version 5.0.0 -  RELEASE  -
|  1> !LC-BLYP RIJCOSX def2-TZVPD def2/J TightSCF
|  2> *xyz -1 1
|  3> C          3.80351        1.37472       -3.26081
|  4> C          3.93993        0.32036       -4.36773
|  5> H          4.10504       -0.65508       -3.90773
|  6> H          3.02280        0.28052       -4.95712
|  7> C          5.10585        0.66802       -5.30546
|  8> O          4.80913        1.15019       -6.41436
|  9> O          6.26737        0.56500       -4.81948
| 10> H          3.64113        2.33595       -3.70189
| 11> H          4.69995        1.39701       -2.67703
| 12> H          2.97435        1.12625       -2.63180
| 13> *
| 14>
| 15> %MaxCore 64000
| 16>
| 17> %pal nprocs 4
| 18> end
| 19>
| 20> %scf
| 21>   MaxIter 150
| 22> end
| 23>
| 24>
| 25>                          ****END OF INPUT****

CARTESIAN COORDINATES (ANGSTROEM)
---------------------------------
  C      3.803510    1.374720   -3.260810
  C      3.939930    0.320360   -4.367730
  H      4.105040   -0.655080   -3.907730
  H      3.022800    0.280520   -4.957120
  C      5.105850    0.668020   -5.305460
  O      4.809130    1.150190   -6.414360
  O      6.267370    0.565000   -4.819480
  H      3.641130    2.335950   -3.701890
  H      4.699950    1.397010   -2.677030
  H      2.974350    1.126250   -2.631800

 Total Charge           Charge          ....   -1
 Multiplicity           Mult            ....    1
 Number of Electrons    NEL             ....   40
 Basis Dimension        Dim             ....  236

ORBITAL ENERGIES
----------------

  NO   OCC          E(Eh)            E(eV)
   0   2.0000     -18.678148      -508.2583
   1   2.0000     -18.674473      -508.1582
   2   2.0000      -9.955438      -270.9013
   3   2.0000      -9.905443      -269.5408
   4   2.0000      -9.894426      -269.2410
   5   2.0000      -0.916686       -24.9443
   6   2.0000      -0.823206       -22.4006
   7   2.0000      -0.715828       -19.4787
   8   2.0000      -0.581324       -15.8186
   9   2.0000      -0.428661       -11.6645
  10   2.0000      -0.398666       -10.8483
  11   2.0000      -0.364671        -9.9232
  12   2.0000      -0.336613        -9.1597
  13   2.0000      -0.316238        -8.6053
  14   2.0000      -0.311810        -8.4848
  15   2.0000      -0.278330        -7.5738
  16   2.0000      -0.269763        -7.3406
  17   2.0000      -0.150542        -4.0965
  18   2.0000      -0.140406        -3.8206
  19   2.0000      -0.130736        -3.5575
  20   0.0000       0.177335         4.8255
  21   0.0000       0.199297         5.4231
  22   0.0000       0.206353         5.6151
  23   0.0000       0.218688         5.9508
  24   0.0000       0.249794         6.7973

MULLIKEN ATOMIC CHARGES
-----------------------
   0 C :   -1.279985
   1 C :   -0.445472
   2 H :    0.316965
   3 H :    0.324596
   4 C :    0.320439
   5 O :   -0.647893
   6 O :   -0.673088
   7 H :    0.375853
   8 H :    0.346971
   9 H :    0.361615
Sum of atomic charges:   -1.0000000

LOEWDIN ATOMIC CHARGES
----------------------
   0 C :   -0.140937
   1 C :   -0.227699
   2 H :    0.095560
   3 H :    0.092107
   4 C :   -0.808489
   5 O :   -0.084183
   6 O :   -0.102822
   7 H :    0.067435
   8 H :    0.061347
   9 H :    0.047680

  Mayer bond orders larger than 0.100000
B(  0-C ,  1-C ) :   0.4355 B(  0-C ,  7-H ) :   0.9232 B(  0-C ,  8-H ) :   0.9766
B(  0-C ,  9-H ) :   0.8910 B(  1-C ,  2-H ) :   0.9558 B(  1-C ,  3-H ) :   0.9636
B(  1-C ,  4-C ) :   0.8858 B(  4-C ,  5-O ) :   1.5205 B(  4-C ,  6-O ) :   1.4998

FINAL SINGLE POINT ENERGY      -267.354302863586

DIPOLE MOMENT
-------------
                                X             Y             Z
Electronic contribution:      3.67961      -0.50324      -4.46126
Nuclear contribution   :     -5.15232       0.33441       5.87398
                        -----------------------------------------
Total Dipole Moment    :     -1.47271      -0.16883       1.41272
                        -----------------------------------------
Magnitude (a.u.)       :      2.04772
Magnitude (Debye)      :      5.20489

Rotational constants in cm-1:     0.295355     0.137164     0.110193
Rotational constants in MHz :  8854.523706  4112.077980  3303.490503

                             ****ORCA TERMINATED NORMALLY****
TOTAL RUN TIME: 0 days 0 hours 0 minutes 28 seconds 29 msec
