                         Program Version 5.0.0 -  RELEASE  -
|  1> !LC-BLYP RIJCOSX def2-TZVPD def2/J TightSCF
|  2> *xyz 1 1
|  3> C          3.90595        2.81985       -3.75292
|  4> N          5.29562        3.13151       -4.10533
|  5> C          3.80351        1.37472       -3.26081
|  6> C          5.70862        3.46889       -5.32419
|  7> N          6.90470        3.03895       -5.71708
|  8> N          4.98188        4.29357       -6.09746
|  9> H          5.00055        4.10131       -7.08776
| 10> H          4.08469        4.59690       -5.73965
| 11> H          5.96336        2.52611       -3.64239
| 12> H          7.04716        2.06686       -5.47360
| 13> H          7.19815        3.30799       -6.64523
| 14> H          3.28202        2.94919       -4.64026
| 15> H          3.56525        3.51457       -2.98252
| 16> H          4.14157        0.71142       -4.02935
| 17> H          2.78528        1.15146       -3.01944
| 18> H          4.41205        1.25066       -2.38949
| 19> *
| 20>
| 21> %MaxCore 64000
| 22>
| 23> %pal nprocs 4
| 24> end
| 25>
| 26> %scf
| 27>   MaxIter 150
| 28> end
| 29>
| 30>
| 31>                          ****END OF INPUT****

CARTESIAN COORDINATES (ANGSTROEM)
---------------------------------
  C      3.905950    2.819850   -3.752920
  N      5.295620    3.131510   -4.105330
  C      3.803510    1.374720   -3.260810
  C      5.708620    3.468890   -5.324190
  N      6.904700    3.038950   -5.717080
  N      4.981880    4.293570   -6.097460
  H      5.000550    4.101310   -7.087760
  H      4.084690    4.596900   -5.739650
  H      5.963360    2.526110   -3.642390
  H      7.047160    2.066860   -5.473600
  H      7.198150    3.307990   -6.645230
  H      3.282020    2.949190   -4.640260
  H      3.565250    3.514570   -2.982520
  H      4.141570    0.711420   -4.029350
  H      2.785280    1.151460   -3.019440
  H      4.412050    1.250660   -2.389490

 Total Charge           Charge          ....    1
 Multiplicity           Mult            ....    1
 Number of Electrons    NEL             ....   48
 Basis Dimension        Dim             ....  312

ORBITAL ENERGIES
----------------

  NO   OCC          E(Eh)            E(eV)
   0   2.0000     -14.397332      -391.7713
   1   2.0000     -14.397312      -391.7708
   2   2.0000     -14.396118      -391.7383
   3   2.0000     -10.409238      -283.2498
   4   2.0000     -10.279175      -279.7106
   5   2.0000     -10.211279      -277.8630
   6   2.0000      -1.323972       -36.0271
   7   2.0000      -1.211361       -32.9628
   8   2.0000      -1.202655       -32.7259
   9   2.0000      -1.044229       -28.4149
  10   2.0000      -0.941352       -25.6155
  11   2.0000      -0.917314       -24.9614
  12   2.0000      -0.883664       -24.0457
  13   2.0000      -0.850758       -23.1503
  14   2.0000      -0.807379       -21.9699
  15   2.0000      -0.790161       -21.5014
  16   2.0000      -0.757703       -20.6182
  17   2.0000      -0.730877       -19.8882
  18   2.0000      -0.702578       -19.1181
  19   2.0000      -0.662837       -18.0367
  20   2.0000      -0.637434       -17.3455
  21   2.0000      -0.621339       -16.9075
  22   2.0000      -0.590422       -16.0662
  23   2.0000      -0.557286       -15.1645
  24   0.0000      -0.117176        -3.1885
  25   0.0000      -0.108307        -2.9472
  26   0.0000      -0.077058        -2.0969
  27   0.0000      -0.065485        -1.7819
  28   0.0000      -0.047639        -1.2963

MULLIKEN ATOMIC CHARGES
-----------------------
   0 C :   -0.484035
   1 N :   -0.212555
   2 C :   -1.515443
   3 C :    0.536270
   4 N :   -0.380438
   5 N :   -0.388670
   6 H :    0.246581
   7 H :    0.283627
   8 H :    0.237172
   9 H :    0.266698
  10 H :    0.262282
  11 H :    0.424744
  12 H :    0.383583
  13 H :    0.435242
  14 H :    0.441758
  15 H :    0.463184
Sum of atomic charges:    1.0000000

LOEWDIN ATOMIC CHARGES
----------------------
   0 C :   -0.216389
   1 N :    0.093177
   2 C :   -0.071265
   3 C :   -0.458368
   4 N :    0.214149
   5 N :    0.223800
   6 H :    0.138645
   7 H :    0.128913
   8 H :    0.156280
   9 H :    0.140599
  10 H :    0.137439
  11 H :    0.121767
  12 H :    0.133997
  13 H :    0.082361
  14 H :    0.090139
  15 H :    0.084753

  Mayer bond orders larger than 0.100000
B(  0-C ,  1-N ) :   0.7179 B(  0-C ,  2-C ) :   0.4300 B(  0-C , 11-H ) :   0.8086
B(  0-C , 12-H ) :   0.9437 B(  1-N ,  3-C ) :   1.2966 B(  1-N ,  8-H ) :   0.9311
B(  2-C , 13-H ) :   0.8983 B(  2-C , 14-H ) :   0.8796 B(  2-C , 15-H ) :   0.8715
B(  3-C ,  4-N ) :   1.1506 B(  3-C ,  5-N ) :   1.1028 B(  4-N ,  9-H ) :   0.9306
B(  4-N , 10-H ) :   0.9075 B(  5-N ,  6-H ) :   0.9500 B(  5-N ,  7-H ) :   0.9028

FINAL SINGLE POINT ENERGY      -283.770370164151

DIPOLE MOMENT
-------------
                                X             Y             Z
Electronic contribution:      3.50515       3.40047      -2.65445
Nuclear contribution   :     -3.31456      -3.64300       1.57303
                        -----------------------------------------
Total Dipole Moment    :      0.19059      -0.24253      -1.08141
                        -----------------------------------------
Magnitude (a.u.)       :      1.12454
Magnitude (Debye)      :      2.85837

Rotational constants in cm-1:     0.229487     0.071000     0.059428
Rotational constants in MHz :  6879.840828  2128.520047  1781.605314

                             ****ORCA TERMINATED NORMALLY****
TOTAL RUN TIME: 0 days 0 hours 0 minutes 58 seconds 957 msec
