                         Program Version 5.0.0 -  RELEASE  -
|  1> !LC-BLYP RIJCOSX def2-TZVPD def2/J TightSCF xyzfile
|  2>
|  3> *xyzfile 0 1 B.xyz
|  4>
|  5> %MaxCore 64000
|  6>
|  7> %pal nprocs 4
|  8> end
|  9>
| 10> %scf
| 11>   MaxIter 150
| 12> end
| 13>
| 14>
| 15>                          ****END OF INPUT****

CARTESIAN COORDINATES (ANGSTROEM)
---------------------------------
  C      3.905947    2.819855   -3.752920
  N      5.295615    3.131515   -4.105334
  C      3.803511    1.374716   -3.260807
  C      3.939934    0.320362   -4.367729
  H      4.105043   -0.655085   -3.907733
  H      3.022801    0.280517   -4.957117
  C      5.105846    0.668022   -5.305463
  C      5.708619    3.468885   -5.324190
  N      6.904696    3.038954   -5.717084
  N      4.981884    4.293570   -6.097457
  H      5.000546    4.101311   -7.087761
  H      4.084693    4.596899   -5.739652
  H      5.963358    2.526112   -3.642391
  H      7.047164    2.066861   -5.473604
  H      7.198145    3.307994   -6.645225
  H      3.282025    2.949187   -4.640259
  H      3.565254    3.514574   -2.982523
  H      4.574833    1.215157   -2.500443
  H      2.843514    1.260845   -2.751465
  O      4.809132    1.150187   -6.414361
  O      6.267366    0.564999   -4.819481

 Total Charge           Charge          ....    0
 Multiplicity           Mult            ....    1
 Number of Electrons    NEL             ....   78
 Basis Dimension        Dim             ....  475

ORBITAL ENERGIES
----------------

  NO   OCC          E(Eh)            E(eV)
   0   2.0000     -18.857547      -513.1400
   1   2.0000     -18.855008      -513.0709
   2   2.0000     -14.235420      -387.3655
   3   2.0000     -14.227642      -387.1538
   4   2.0000     -14.204596      -386.5267
   5   2.0000     -10.238911      -278.6149
   6   2.0000     -10.131583      -275.6944
   7   2.0000     -10.131185      -275.6836
   8   2.0000     -10.081350      -274.3275
   9   2.0000     -10.048854      -273.4432
  10   2.0000      -1.154007       -31.4021
  11   2.0000      -1.099791       -29.9268
  12   2.0000      -1.046346       -28.4725
  13   2.0000      -1.027290       -27.9540
  14   2.0000      -1.006170       -27.3793
  15   2.0000      -0.906993       -24.6805
  16   2.0000      -0.824475       -22.4351
  17   2.0000      -0.764443       -20.8016
  18   2.0000      -0.734292       -19.9811
  19   2.0000      -0.715171       -19.4608
  20   2.0000      -0.680926       -18.5289
  21   2.0000      -0.643433       -17.5087
  22   2.0000      -0.620691       -16.8899
  23   2.0000      -0.606377       -16.5003
  24   2.0000      -0.584596       -15.9077
  25   2.0000      -0.579208       -15.7611
  26   2.0000      -0.538652       -14.6575
  27   2.0000      -0.528962       -14.3938
  28   2.0000      -0.514929       -14.0119
  29   2.0000      -0.496060       -13.4985
  30   2.0000      -0.485033       -13.1984
  31   2.0000      -0.479155       -13.0385
  32   2.0000      -0.443870       -12.0783
  33   2.0000      -0.436896       -11.8886
  34   2.0000      -0.418299       -11.3825
  35   2.0000      -0.390692       -10.6313
  36   2.0000      -0.334654        -9.1064
  37   2.0000      -0.318896        -8.6776
  38   2.0000      -0.310095        -8.4381
  39   0.0000       0.030940         0.8419
  40   0.0000       0.047520         1.2931
  41   0.0000       0.054174         1.4742
  42   0.0000       0.062807         1.7091
  43   0.0000       0.080390         2.1875

MULLIKEN ATOMIC CHARGES
-----------------------
   0 C :   -0.655649
   1 N :   -0.258090
   2 C :   -0.922557
   3 C :   -0.617417
   4 H :    0.373457
   5 H :    0.376077
   6 C :    0.600760
   7 C :    0.508656
   8 N :   -0.400776
   9 N :   -0.477722
  10 H :    0.226788
  11 H :    0.260093
  12 H :    0.293123
  13 H :    0.329093
  14 H :    0.218518
  15 H :    0.395104
  16 H :    0.343935
  17 H :    0.370125
  18 H :    0.401695
  19 O :   -0.633587
  20 O :   -0.731626
Sum of atomic charges:   -0.0000000

LOEWDIN ATOMIC CHARGES
----------------------
   0 C :   -0.175594
   1 N :    0.094541
   2 C :   -0.191965
   3 C :   -0.131561
   4 H :    0.119084
   5 H :    0.115619
   6 C :   -0.736290
   7 C :   -0.493009
   8 N :    0.205505
   9 N :    0.202426
  10 H :    0.126470
  11 H :    0.114544
  12 H :    0.143876
  13 H :    0.071534
  14 H :    0.127763
  15 H :    0.125961
  16 H :    0.122273
  17 H :    0.121662
  18 H :    0.117275
  19 O :   -0.019797
  20 O :   -0.060317

  Mayer bond orders larger than 0.100000
B(  0-C ,  1-N ) :   0.7072 B(  0-C ,  2-C ) :   0.6035 B(  0-C , 15-H ) :   0.8305
B(  0-C , 16-H ) :   1.0227 B(  1-N ,  6-C ) :  -0.1189 B(  1-N ,  7-C ) :   1.2732
B(  1-N , 12-H ) :   0.8589 B(  2-C ,  3-C ) :   0.6645 B(  2-C , 17-H ) :   0.9387
B(  2-C , 18-H ) :   0.9244 B(  3-C ,  4-H ) :   0.9398 B(  3-C ,  5-H ) :   0.9767
B(  3-C ,  6-C ) :   0.7986 B(  6-C , 19-O ) :   1.4356 B(  6-C , 20-O ) :   1.2374
B(  7-C ,  8-N ) :   1.0968 B(  7-C ,  9-N ) :   0.8799 B(  7-C , 19-O ) :   0.1457
B(  8-N , 13-H ) :   0.7583 B(  8-N , 14-H ) :   0.9250 B(  9-N , 10-H ) :   0.9572
B(  9-N , 11-H ) :   0.9081 B( 13-H , 20-O ) :   0.1571

FINAL SINGLE POINT ENERGY      -510.922517121218

DIPOLE MOMENT
-------------
                                X             Y             Z
Electronic contribution:      4.13346       0.39171      -3.40530
Nuclear contribution   :     -4.94498       2.03334       3.78956
                        -----------------------------------------
Total Dipole Moment    :     -0.81152       2.42505       0.38426
                        -----------------------------------------
Magnitude (a.u.)       :      2.58594
Magnitude (Debye)      :      6.57294

Rotational constants in cm-1:     0.062533     0.042832     0.033687
Rotational constants in MHz :  1874.701390  1284.063603  1009.911042

                             ****ORCA TERMINATED NORMALLY****
TOTAL RUN TIME: 0 days 0 hours 3 minutes 5 seconds 620 msec
