                         Program Version 5.0.0 -  RELEASE  -
|  1> !LC-BLYP RIJCOSX def2-TZVPD def2/J TightSCF
|  2> *xyz 0 1
|  3> C          3.80351        1.37472       -3.26081
|  4> C          3.93993        0.32036       -4.36773
|  5> H          4.10504       -0.65508       -3.90773
|  6> H          3.02280        0.28052       -4.95712
|  7> C          5.10585        0.66802       -5.30546
|  8> F          4.80913        1.15019       -6.41436
|  9> O          6.26737        0.56500       -4.81948
| 10> H          3.64113        2.33595       -3.70189
| 11> H          4.69995        1.39701       -2.67703
| 12> H          2.97435        1.12625       -2.63180
| 13> *
| 14>
| 15> %MaxCore 64000
| 16>
| 17> %pal nprocs 4
| 18> end
| 19>
| 20> %scf
| 21>   MaxIter 150
| 22> end
| 23>
| 24>
| 25>                          ****END OF INPUT****

CARTESIAN COORDINATES (ANGSTROEM)
---------------------------------
  C      3.803510    1.374720   -3.260810
  C      3.939930    0.320360   -4.367730
  H      4.105040   -0.655080   -3.907730
  H      3.022800    0.280520   -4.957120
  C      5.105850    0.668020   -5.305460
  F      4.809130    1.150190   -6.414360
  O      6.267370    0.565000   -4.819480
  H      3.641130    2.335950   -3.701890
  H      4.699950    1.397010   -2.677030
  H      2.974350    1.126250   -2.631800

 Total Charge           Charge          ....    0
 Multiplicity           Mult            ....    1
 Number of Electrons    NEL             ....   40
 Basis Dimension        Dim             ....  236

ORBITAL ENERGIES
----------------

  NO   OCC          E(Eh)            E(eV)
   0   2.0000     -24.531452      -667.5347
   1   2.0000     -18.946677      -515.5653
   2   2.0000     -10.252741      -278.9913
   3   2.0000     -10.101485      -274.8754
   4   2.0000     -10.074729      -274.1473
   5   2.0000      -1.409340       -38.3501
   6   2.0000      -1.124294       -30.5936
   7   2.0000      -0.912197       -24.8221
   8   2.0000      -0.797713       -21.7069
   9   2.0000      -0.749994       -20.4084
  10   2.0000      -0.663751       -18.0616
  11   2.0000      -0.645967       -17.5777
  12   2.0000      -0.613900       -16.7051
  13   2.0000      -0.571809       -15.5597
  14   2.0000      -0.539594       -14.6831
  15   2.0000      -0.502840       -13.6830
  16   2.0000      -0.480451       -13.0737
  17   2.0000      -0.473832       -12.8936
  18   2.0000      -0.449713       -12.2373
  19   2.0000      -0.392938       -10.6924
  20   0.0000       0.042553         1.1579
  21   0.0000       0.049327         1.3423
  22   0.0000       0.072308         1.9676
  23   0.0000       0.079849         2.1728
  24   0.0000       0.087610         2.3840

MULLIKEN ATOMIC CHARGES
-----------------------
   0 C :   -1.284096
   1 C :   -0.483748
   2 H :    0.337959
   3 H :    0.361465
   4 C :    0.494353
   5 F :   -0.159484
   6 O :   -0.441186
   7 H :    0.405399
   8 H :    0.385953
   9 H :    0.383385
Sum of atomic charges:    0.0000000

LOEWDIN ATOMIC CHARGES
----------------------
   0 C :   -0.099430
   1 C :   -0.169964
   2 H :    0.123585
   3 H :    0.113012
   4 C :   -0.522301
   5 F :    0.237425
   6 O :    0.085488
   7 H :    0.079489
   8 H :    0.078544
   9 H :    0.074153

  Mayer bond orders larger than 0.100000
B(  0-C ,  1-C ) :   0.4894 B(  0-C ,  7-H ) :   0.8784 B(  0-C ,  8-H ) :   0.9498
B(  0-C ,  9-H ) :   0.9021 B(  1-C ,  2-H ) :   0.9523 B(  1-C ,  3-H ) :   0.9166
B(  1-C ,  4-C ) :   0.8742 B(  4-C ,  5-F ) :   1.0628 B(  4-C ,  6-O ) :   1.7785

FINAL SINGLE POINT ENERGY      -291.900695940545

DIPOLE MOMENT
-------------
                                X             Y             Z
Electronic contribution:      3.97222      -0.01866      -7.42917
Nuclear contribution   :     -5.17129      -0.01923       7.59895
                        -----------------------------------------
Total Dipole Moment    :     -1.19907      -0.03789       0.16977
                        -----------------------------------------
Magnitude (a.u.)       :      1.21163
Magnitude (Debye)      :      3.07971

Rotational constants in cm-1:     0.282073     0.131822     0.105134
Rotational constants in MHz :  8456.328792  3951.925810  3151.840112

                             ****ORCA TERMINATED NORMALLY****
TOTAL RUN TIME: 0 days 0 hours 0 minutes 32 seconds 343 msec
