                         Program Version 5.0.0 -  RELEASE  -
|  1> !LC-BLYP RIJCOSX def2-TZVPD def2/J TightSCF
|  2> *xyz 0 1
|  3> C          3.90595        2.81985       -3.75292
|  4> C          5.29562        3.13151       -4.10533
|  5> C          3.80351        1.37472       -3.26081
|  6> C          5.70862        3.46889       -5.32419
|  7> N          6.90470        3.03895       -5.71708
|  8> N          4.98188        4.29357       -6.09746
|  9> H          5.00055        4.10131       -7.08776
| 10> H          4.08469        4.59690       -5.73965
| 11> H          5.96336        2.52611       -3.64239
| 12> H          7.04716        2.06686       -5.47360
| 13> H          7.19815        3.30799       -6.64523
| 14> H          3.28202        2.94919       -4.64026
| 15> H          3.56525        3.51457       -2.98252
| 16> H          4.14157        0.71142       -4.02935
| 17> H          2.78528        1.15146       -3.01944
| 18> H          4.41205        1.25066       -2.38949
| 19> *
| 20>
| 21> %MaxCore 64000
| 22>
| 23> %pal nprocs 4
| 24> end
| 25>
| 26> %scf
| 27>   MaxIter 150
| 28> end
| 29>
| 30>
| 31>                          ****END OF INPUT****

CARTESIAN COORDINATES (ANGSTROEM)
---------------------------------
  C      3.905950    2.819850   -3.752920
  C      5.295620    3.131510   -4.105330
  C      3.803510    1.374720   -3.260810
  C      5.708620    3.468890   -5.324190
  N      6.904700    3.038950   -5.717080
  N      4.981880    4.293570   -6.097460
  H      5.000550    4.101310   -7.087760
  H      4.084690    4.596900   -5.739650
  H      5.963360    2.526110   -3.642390
  H      7.047160    2.066860   -5.473600
  H      7.198150    3.307990   -6.645230
  H      3.282020    2.949190   -4.640260
  H      3.565250    3.514570   -2.982520
  H      4.141570    0.711420   -4.029350
  H      2.785280    1.151460   -3.019440
  H      4.412050    1.250660   -2.389490

 Total Charge           Charge          ....    0
 Multiplicity           Mult            ....    1
 Number of Electrons    NEL             ....   48
 Basis Dimension        Dim             ....  312

ORBITAL ENERGIES
----------------

  NO   OCC          E(Eh)            E(eV)
   0   2.0000     -14.174708      -385.7134
   1   2.0000     -14.171236      -385.6189
   2   2.0000     -10.114276      -275.2234
   3   2.0000     -10.046706      -273.3848
   4   2.0000     -10.038417      -273.1592
   5   2.0000      -9.996032      -272.0059
   6   2.0000      -1.068817       -29.0840
   7   2.0000      -0.979374       -26.6501
   8   2.0000      -0.887926       -24.1617
   9   2.0000      -0.804422       -21.8894
  10   2.0000      -0.721786       -19.6408
  11   2.0000      -0.684123       -18.6159
  12   2.0000      -0.641247       -17.4492
  13   2.0000      -0.616386       -16.7727
  14   2.0000      -0.581050       -15.8112
  15   2.0000      -0.553609       -15.0645
  16   2.0000      -0.526249       -14.3200
  17   2.0000      -0.494436       -13.4543
  18   2.0000      -0.473476       -12.8839
  19   2.0000      -0.452398       -12.3104
  20   2.0000      -0.425931       -11.5902
  21   2.0000      -0.423456       -11.5228
  22   2.0000      -0.376028       -10.2322
  23   2.0000      -0.265010        -7.2113
  24   0.0000       0.044959         1.2234
  25   0.0000       0.071319         1.9407
  26   0.0000       0.072785         1.9806
  27   0.0000       0.089833         2.4445
  28   0.0000       0.101652         2.7661

MULLIKEN ATOMIC CHARGES
-----------------------
   0 C :   -0.406382
   1 C :   -0.481149
   2 C :   -1.505132
   3 C :    0.089129
   4 N :   -0.434665
   5 N :   -0.456039
   6 H :    0.179246
   7 H :    0.227043
   8 H :    0.401456
   9 H :    0.218535
  10 H :    0.221298
  11 H :    0.399296
  12 H :    0.311691
  13 H :    0.404236
  14 H :    0.425918
  15 H :    0.405518
Sum of atomic charges:    0.0000000

LOEWDIN ATOMIC CHARGES
----------------------
   0 C :   -0.297294
   1 C :   -0.144545
   2 C :   -0.122443
   3 C :   -0.570055
   4 N :    0.118717
   5 N :    0.130768
   6 H :    0.096599
   7 H :    0.100174
   8 H :    0.067705
   9 H :    0.108869
  10 H :    0.096454
  11 H :    0.100770
  12 H :    0.105807
  13 H :    0.072414
  14 H :    0.064927
  15 H :    0.071132

  Mayer bond orders larger than 0.100000
B(  0-C ,  1-C ) :   0.4745 B(  0-C ,  2-C ) :   0.4318 B(  0-C , 11-H ) :   0.8246
B(  0-C , 12-H ) :   1.0345 B(  1-C ,  3-C ) :   1.5110 B(  1-C ,  5-N ) :   0.1301
B(  1-C ,  8-H ) :   0.9770 B(  2-C , 13-H ) :   0.9390 B(  2-C , 14-H ) :   0.8982
B(  2-C , 15-H ) :   0.9268 B(  3-C ,  4-N ) :   0.9250 B(  3-C ,  5-N ) :   0.8184
B(  4-N ,  9-H ) :   0.9675 B(  4-N , 10-H ) :   0.9327 B(  5-N ,  6-H ) :   1.0225
B(  5-N ,  7-H ) :   0.9189 B( 11-H , 12-H ) :   0.1017

FINAL SINGLE POINT ENERGY      -267.294375004762

DIPOLE MOMENT
-------------
                                X             Y             Z
Electronic contribution:      3.14630       3.24333      -2.81448
Nuclear contribution   :     -3.27358      -3.61654       1.70633
                        -----------------------------------------
Total Dipole Moment    :     -0.12727      -0.37321      -1.10815
                        -----------------------------------------
Magnitude (a.u.)       :      1.17622
Magnitude (Debye)      :      2.98970

Rotational constants in cm-1:     0.231961     0.071249     0.059473
Rotational constants in MHz :  6954.024434  2135.976855  1782.962814

                             ****ORCA TERMINATED NORMALLY****
TOTAL RUN TIME: 0 days 0 hours 1 minutes 5 seconds 453 msec
