                         Program Version 5.0.0 -  RELEASE  -
|  1> !LC-BLYP RIJCOSX def2-TZVPD def2/J TightSCF
|  2> *xyz 0 1
|  3> C          3.80351        1.37472       -3.26081
|  4> C          3.93993        0.32036       -4.36773
|  5> H          4.10504       -0.65508       -3.90773
|  6> H          3.02280        0.28052       -4.95712
|  7> C          5.10585        0.66802       -5.30546
|  8> O          4.80913        1.15019       -6.41436
|  9> F          6.26737        0.56500       -4.81948
| 10> H          3.64113        2.33595       -3.70189
| 11> H          4.69995        1.39701       -2.67703
| 12> H          2.97435        1.12625       -2.63180
| 13> *
| 14>
| 15> %MaxCore 64000
| 16>
| 17> %pal nprocs 4
| 18> end
| 19>
| 20> %scf
| 21>   MaxIter 150
| 22> end
| 23>
| 24>
| 25>                          ****END OF INPUT****

CARTESIAN COORDINATES (ANGSTROEM)
---------------------------------
  C      3.803510    1.374720   -3.260810
  C      3.939930    0.320360   -4.367730
  H      4.105040   -0.655080   -3.907730
  H      3.022800    0.280520   -4.957120
  C      5.105850    0.668020   -5.305460
  O      4.809130    1.150190   -6.414360
  F      6.267370    0.565000   -4.819480
  H      3.641130    2.335950   -3.701890
  H      4.699950    1.397010   -2.677030
  H      2.974350    1.126250   -2.631800

 Total Charge           Charge          ....    0
 Multiplicity           Mult            ....    1
 Number of Electrons    NEL             ....   40
 Basis Dimension        Dim             ....  236

ORBITAL ENERGIES
----------------

  NO   OCC          E(Eh)            E(eV)
   0   2.0000     -24.524733      -667.3519
   1   2.0000     -18.949427      -515.6401
   2   2.0000     -10.250761      -278.9374
   3   2.0000     -10.100955      -274.8610
   4   2.0000     -10.077473      -274.2220
   5   2.0000      -1.396027       -37.9878
   6   2.0000      -1.134859       -30.8811
   7   2.0000      -0.914143       -24.8751
   8   2.0000      -0.792640       -21.5688
   9   2.0000      -0.748043       -20.3553
  10   2.0000      -0.658251       -17.9119
  11   2.0000      -0.642241       -17.4763
  12   2.0000      -0.610215       -16.6048
  13   2.0000      -0.571588       -15.5537
  14   2.0000      -0.540003       -14.6942
  15   2.0000      -0.506809       -13.7910
  16   2.0000      -0.486332       -13.2338
  17   2.0000      -0.474178       -12.9030
  18   2.0000      -0.458660       -12.4808
  19   2.0000      -0.393210       -10.6998
  20   0.0000       0.043599         1.1864
  21   0.0000       0.051912         1.4126
  22   0.0000       0.071708         1.9513
  23   0.0000       0.079918         2.1747
  24   0.0000       0.087919         2.3924

MULLIKEN ATOMIC CHARGES
-----------------------
   0 C :   -1.289429
   1 C :   -0.485862
   2 H :    0.364485
   3 H :    0.338153
   4 C :    0.499388
   5 O :   -0.427550
   6 F :   -0.176269
   7 H :    0.412410
   8 H :    0.387673
   9 H :    0.377001
Sum of atomic charges:    0.0000000

LOEWDIN ATOMIC CHARGES
----------------------
   0 C :   -0.100518
   1 C :   -0.168416
   2 H :    0.118377
   3 H :    0.121141
   4 C :   -0.522687
   5 O :    0.103049
   6 F :    0.217474
   7 H :    0.081880
   8 H :    0.075133
   9 H :    0.074567

  Mayer bond orders larger than 0.100000
B(  0-C ,  1-C ) :   0.4575 B(  0-C ,  7-H ) :   0.9056 B(  0-C ,  8-H ) :   0.9104
B(  0-C ,  9-H ) :   0.9121 B(  1-C ,  2-H ) :   0.9247 B(  1-C ,  3-H ) :   0.9497
B(  1-C ,  4-C ) :   0.8699 B(  4-C ,  5-O ) :   1.7882 B(  4-C ,  6-F ) :   1.0311

FINAL SINGLE POINT ENERGY      -291.906047141911

DIPOLE MOMENT
-------------
                                X             Y             Z
Electronic contribution:      6.39587      -0.99837      -4.75285
Nuclear contribution   :     -6.76123       0.61881       5.86003
                        -----------------------------------------
Total Dipole Moment    :     -0.36536      -0.37957       1.10718
                        -----------------------------------------
Magnitude (a.u.)       :      1.22613
Magnitude (Debye)      :      3.11658

Rotational constants in cm-1:     0.275298     0.134631     0.105723
Rotational constants in MHz :  8253.224169  4036.137572  3169.487264

                             ****ORCA TERMINATED NORMALLY****
TOTAL RUN TIME: 0 days 0 hours 0 minutes 32 seconds 657 msec
