                         Program Version 5.0.0 -  RELEASE  -
|  1> !LC-BLYP RIJCOSX def2-TZVPD def2/J TightSCF
|  2> *xyz 0 1
|  3> C          3.90595        2.81985       -3.75292
|  4> N          5.29562        3.13151       -4.10533
|  5> C          3.80351        1.37472       -3.26081
|  6> C          5.70862        3.46889       -5.32419
|  7> C          6.90470        3.03895       -5.71708
|  8> N          4.98188        4.29357       -6.09746
|  9> H          5.00055        4.10131       -7.08776
| 10> H          4.08469        4.59690       -5.73965
| 11> H          5.96336        2.52611       -3.64239
| 12> H          7.04716        2.06686       -5.47360
| 13> H          7.19815        3.30799       -6.64523
| 14> H          3.28202        2.94919       -4.64026
| 15> H          3.56525        3.51457       -2.98252
| 16> H          4.14157        0.71142       -4.02935
| 17> H          2.78528        1.15146       -3.01944
| 18> H          4.41205        1.25066       -2.38949
| 19> *
| 20>
| 21> %MaxCore 64000
| 22>
| 23> %pal nprocs 4
| 24> end
| 25>
| 26> %scf
| 27>   MaxIter 150
| 28> end
| 29>
| 30>
| 31>                          ****END OF INPUT****

CARTESIAN COORDINATES (ANGSTROEM)
---------------------------------
  C      3.905950    2.819850   -3.752920
  N      5.295620    3.131510   -4.105330
  C      3.803510    1.374720   -3.260810
  C      5.708620    3.468890   -5.324190
  C      6.904700    3.038950   -5.717080
  N      4.981880    4.293570   -6.097460
  H      5.000550    4.101310   -7.087760
  H      4.084690    4.596900   -5.739650
  H      5.963360    2.526110   -3.642390
  H      7.047160    2.066860   -5.473600
  H      7.198150    3.307990   -6.645230
  H      3.282020    2.949190   -4.640260
  H      3.565250    3.514570   -2.982520
  H      4.141570    0.711420   -4.029350
  H      2.785280    1.151460   -3.019440
  H      4.412050    1.250660   -2.389490

 Total Charge           Charge          ....    0
 Multiplicity           Mult            ....    1
 Number of Electrons    NEL             ....   48
 Basis Dimension        Dim             ....  312

ORBITAL ENERGIES
----------------

  NO   OCC          E(Eh)            E(eV)
   0   2.0000     -14.174433      -385.7059
   1   2.0000     -14.172884      -385.6638
   2   2.0000     -10.119667      -275.3701
   3   2.0000     -10.109667      -275.0980
   4   2.0000     -10.067482      -273.9501
   5   2.0000      -9.981003      -271.5969
   6   2.0000      -1.074106       -29.2279
   7   2.0000      -0.991708       -26.9857
   8   2.0000      -0.884415       -24.0662
   9   2.0000      -0.815863       -22.2008
  10   2.0000      -0.739546       -20.1241
  11   2.0000      -0.704490       -19.1701
  12   2.0000      -0.641067       -17.4443
  13   2.0000      -0.599862       -16.3231
  14   2.0000      -0.593162       -16.1408
  15   2.0000      -0.556257       -15.1365
  16   2.0000      -0.527636       -14.3577
  17   2.0000      -0.506549       -13.7839
  18   2.0000      -0.483428       -13.1547
  19   2.0000      -0.474974       -12.9247
  20   2.0000      -0.472165       -12.8483
  21   2.0000      -0.440010       -11.9733
  22   2.0000      -0.361184        -9.8283
  23   2.0000      -0.270040        -7.3482
  24   0.0000       0.045017         1.2250
  25   0.0000       0.064178         1.7464
  26   0.0000       0.074912         2.0384
  27   0.0000       0.088422         2.4061
  28   0.0000       0.107411         2.9228

MULLIKEN ATOMIC CHARGES
-----------------------
   0 C :   -0.506047
   1 N :   -0.314728
   2 C :   -1.474543
   3 C :    0.387474
   4 C :   -0.939380
   5 N :   -0.431700
   6 H :    0.207514
   7 H :    0.238280
   8 H :    0.209459
   9 H :    0.277287
  10 H :    0.335410
  11 H :    0.399497
  12 H :    0.351459
  13 H :    0.408404
  14 H :    0.432499
  15 H :    0.419116
Sum of atomic charges:   -0.0000000

LOEWDIN ATOMIC CHARGES
----------------------
   0 C :   -0.253171
   1 N :    0.020437
   2 C :   -0.099209
   3 C :   -0.584120
   4 C :   -0.011998
   5 N :    0.132322
   6 H :    0.108252
   7 H :    0.092063
   8 H :    0.129257
   9 H :    0.013847
  10 H :    0.009286
  11 H :    0.109985
  12 H :    0.113002
  13 H :    0.076719
  14 H :    0.070955
  15 H :    0.072374

  Mayer bond orders larger than 0.100000
B(  0-C ,  1-N ) :   0.6830 B(  0-C ,  2-C ) :   0.4045 B(  0-C ,  3-C ) :  -0.1223
B(  0-C , 11-H ) :   0.8557 B(  0-C , 12-H ) :   0.9659 B(  1-N ,  3-C ) :   1.1336
B(  1-N ,  4-C ) :   0.1043 B(  1-N ,  8-H ) :   0.9449 B(  2-C , 13-H ) :   0.9439
B(  2-C , 14-H ) :   0.8845 B(  2-C , 15-H ) :   0.9008 B(  3-C ,  4-C ) :   1.2568
B(  3-C ,  5-N ) :   0.8885 B(  4-C ,  9-H ) :   1.0227 B(  4-C , 10-H ) :   1.0771
B(  5-N ,  6-H ) :   0.9796 B(  5-N ,  7-H ) :   0.9246

FINAL SINGLE POINT ENERGY      -267.283480521047

DIPOLE MOMENT
-------------
                                X             Y             Z
Electronic contribution:      1.50388       3.22140      -1.26655
Nuclear contribution   :     -2.93222      -3.63618       1.36440
                        -----------------------------------------
Total Dipole Moment    :     -1.42834      -0.41478       0.09785
                        -----------------------------------------
Magnitude (a.u.)       :      1.49056
Magnitude (Debye)      :      3.78869

Rotational constants in cm-1:     0.237993     0.072843     0.061284
Rotational constants in MHz :  7134.860770  2183.763760  1837.240960

                             ****ORCA TERMINATED NORMALLY****
TOTAL RUN TIME: 0 days 0 hours 1 minutes 2 seconds 707 msec
