                         Program Version 5.0.0 -  RELEASE  -
|  1> !LC-BLYP RIJCOSX def2-TZVPD def2/J TightSCF
|  2> *xyz 0 1
|  3> C          3.90595        2.81985       -3.75292
|  4> N          5.29562        3.13151       -4.10533
|  5> C          3.80351        1.37472       -3.26081
|  6> C          5.70862        3.46889       -5.32419
|  7> N          6.90470        3.03895       -5.71708
|  8> C          4.98188        4.29357       -6.09746
|  9> H          5.00055        4.10131       -7.08776
| 10> H          4.08469        4.59690       -5.73965
| 11> H          5.96336        2.52611       -3.64239
| 12> H          7.04716        2.06686       -5.47360
| 13> H          7.19815        3.30799       -6.64523
| 14> H          3.28202        2.94919       -4.64026
| 15> H          3.56525        3.51457       -2.98252
| 16> H          4.14157        0.71142       -4.02935
| 17> H          2.78528        1.15146       -3.01944
| 18> H          4.41205        1.25066       -2.38949
| 19> *
| 20>
| 21> %MaxCore 64000
| 22>
| 23> %pal nprocs 4
| 24> end
| 25>
| 26> %scf
| 27>   MaxIter 150
| 28> end
| 29>
| 30>
| 31>                          ****END OF INPUT****

CARTESIAN COORDINATES (ANGSTROEM)
---------------------------------
  C      3.905950    2.819850   -3.752920
  N      5.295620    3.131510   -4.105330
  C      3.803510    1.374720   -3.260810
  C      5.708620    3.468890   -5.324190
  N      6.904700    3.038950   -5.717080
  C      4.981880    4.293570   -6.097460
  H      5.000550    4.101310   -7.087760
  H      4.084690    4.596900   -5.739650
  H      5.963360    2.526110   -3.642390
  H      7.047160    2.066860   -5.473600
  H      7.198150    3.307990   -6.645230
  H      3.282020    2.949190   -4.640260
  H      3.565250    3.514570   -2.982520
  H      4.141570    0.711420   -4.029350
  H      2.785280    1.151460   -3.019440
  H      4.412050    1.250660   -2.389490

 Total Charge           Charge          ....    0
 Multiplicity           Mult            ....    1
 Number of Electrons    NEL             ....   48
 Basis Dimension        Dim             ....  312

ORBITAL ENERGIES
----------------

  NO   OCC          E(Eh)            E(eV)
   0   2.0000     -14.175197      -385.7267
   1   2.0000     -14.173588      -385.6829
   2   2.0000     -10.118685      -275.3434
   3   2.0000     -10.103677      -274.9350
   4   2.0000     -10.065285      -273.8903
   5   2.0000      -9.986324      -271.7417
   6   2.0000      -1.078802       -29.3557
   7   2.0000      -0.993878       -27.0448
   8   2.0000      -0.872977       -23.7549
   9   2.0000      -0.817375       -22.2419
  10   2.0000      -0.753719       -20.5097
  11   2.0000      -0.674320       -18.3492
  12   2.0000      -0.643791       -17.5184
  13   2.0000      -0.622420       -16.9369
  14   2.0000      -0.581115       -15.8130
  15   2.0000      -0.561732       -15.2855
  16   2.0000      -0.511413       -13.9163
  17   2.0000      -0.504629       -13.7316
  18   2.0000      -0.495509       -13.4835
  19   2.0000      -0.474093       -12.9007
  20   2.0000      -0.464581       -12.6419
  21   2.0000      -0.441228       -12.0064
  22   2.0000      -0.358560        -9.7569
  23   2.0000      -0.273366        -7.4387
  24   0.0000       0.045549         1.2394
  25   0.0000       0.067293         1.8311
  26   0.0000       0.074786         2.0350
  27   0.0000       0.089956         2.4478
  28   0.0000       0.101346         2.7578

MULLIKEN ATOMIC CHARGES
-----------------------
   0 C :   -0.444785
   1 N :   -0.298493
   2 C :   -1.467301
   3 C :    0.339751
   4 N :   -0.454736
   5 C :   -0.987777
   6 H :    0.230225
   7 H :    0.428687
   8 H :    0.221845
   9 H :    0.204614
  10 H :    0.229543
  11 H :    0.408748
  12 H :    0.331831
  13 H :    0.409094
  14 H :    0.432421
  15 H :    0.416331
Sum of atomic charges:   -0.0000000

LOEWDIN ATOMIC CHARGES
----------------------
   0 C :   -0.246896
   1 N :    0.021753
   2 C :   -0.101923
   3 C :   -0.591542
   4 N :    0.121636
   5 C :    0.002128
   6 H :    0.011464
   7 H :    0.006520
   8 H :    0.125772
   9 H :    0.100440
  10 H :    0.105915
  11 H :    0.113174
  12 H :    0.117141
  13 H :    0.073380
  14 H :    0.071431
  15 H :    0.069608

  Mayer bond orders larger than 0.100000
B(  0-C ,  1-N ) :   0.7029 B(  0-C ,  2-C ) :   0.3301 B(  0-C , 11-H ) :   0.8582
B(  0-C , 12-H ) :   0.9816 B(  1-N ,  3-C ) :   1.0033 B(  1-N ,  8-H ) :   0.9532
B(  2-C , 13-H ) :   0.9438 B(  2-C , 14-H ) :   0.8833 B(  2-C , 15-H ) :   0.9084
B(  3-C ,  4-N ) :   0.9460 B(  3-C ,  5-C ) :   1.3695 B(  3-C ,  6-H ) :  -0.1028
B(  4-N ,  9-H ) :   0.9830 B(  4-N , 10-H ) :   0.9257 B(  5-C ,  6-H ) :   1.1850
B(  5-C ,  7-H ) :   0.8349

FINAL SINGLE POINT ENERGY      -267.287931236709

DIPOLE MOMENT
-------------
                                X             Y             Z
Electronic contribution:      3.36450       2.05487      -0.98265
Nuclear contribution   :     -3.34013      -3.37002       1.28371
                        -----------------------------------------
Total Dipole Moment    :      0.02437      -1.31515       0.30105
                        -----------------------------------------
Magnitude (a.u.)       :      1.34938
Magnitude (Debye)      :      3.42986

Rotational constants in cm-1:     0.239537     0.072280     0.060961
Rotational constants in MHz :  7181.153552  2166.902802  1827.551447

                             ****ORCA TERMINATED NORMALLY****
TOTAL RUN TIME: 0 days 0 hours 1 minutes 5 seconds 636 msec
