                         Program Version 5.0.0 -  RELEASE  -
|  1> !LC-BLYP RIJCOSX def2-TZVPD def2/J TightSCF xyzfile
|  2>
|  3> *xyzfile 0 1 D1.xyz
|  4>
|  5> %MaxCore 64000
|  6>
|  7> %pal nprocs 4
|  8> end
|  9>
| 10> %scf
| 11>   MaxIter 150
| 12> end
| 13>
| 14>
| 15>                          ****END OF INPUT****

CARTESIAN COORDINATES (ANGSTROEM)
---------------------------------
  C      3.905947    2.819855   -3.752920
  C      5.295615    3.131515   -4.105334
  C      3.803511    1.374716   -3.260807
  C      3.939934    0.320362   -4.367729
  H      4.105043   -0.655085   -3.907733
  H      3.022801    0.280517   -4.957117
  C      5.105846    0.668022   -5.305463
  C      5.708619    3.468885   -5.324190
  N      6.904696    3.038954   -5.717084
  N      4.981884    4.293570   -6.097457
  H      5.000546    4.101311   -7.087761
  H      4.084693    4.596899   -5.739652
  H      5.963358    2.526112   -3.642391
  H      7.047164    2.066861   -5.473604
  H      7.198145    3.307994   -6.645225
  H      3.282025    2.949187   -4.640259
  H      3.565254    3.514574   -2.982523
  H      4.574833    1.215157   -2.500443
  H      2.843514    1.260845   -2.751465
  F      4.809132    1.150187   -6.414361
  O      6.267366    0.564999   -4.819481

 Total Charge           Charge          ....    0
 Multiplicity           Mult            ....    1
 Number of Electrons    NEL             ....   78
 Basis Dimension        Dim             ....  475

ORBITAL ENERGIES
----------------

  NO   OCC          E(Eh)            E(eV)
   0   2.0000     -24.536517      -667.6726
   1   2.0000     -18.950656      -515.6736
   2   2.0000     -14.173328      -385.6758
   3   2.0000     -14.151664      -385.0863
   4   2.0000     -10.260115      -279.1919
   5   2.0000     -10.112090      -275.1640
   6   2.0000     -10.098610      -274.7972
   7   2.0000     -10.076414      -274.1932
   8   2.0000     -10.058438      -273.7040
   9   2.0000      -9.995543      -271.9925
  10   2.0000      -1.415523       -38.5183
  11   2.0000      -1.136024       -30.9128
  12   2.0000      -1.062731       -28.9184
  13   2.0000      -0.972000       -26.4495
  14   2.0000      -0.929973       -25.3059
  15   2.0000      -0.861827       -23.4515
  16   2.0000      -0.803468       -21.8635
  17   2.0000      -0.767973       -20.8976
  18   2.0000      -0.718223       -19.5438
  19   2.0000      -0.688050       -18.7228
  20   2.0000      -0.669982       -18.2311
  21   2.0000      -0.650671       -17.7056
  22   2.0000      -0.640084       -17.4176
  23   2.0000      -0.626252       -17.0412
  24   2.0000      -0.606715       -16.5095
  25   2.0000      -0.571974       -15.5642
  26   2.0000      -0.566335       -15.4108
  27   2.0000      -0.545558       -14.8454
  28   2.0000      -0.535788       -14.5795
  29   2.0000      -0.501287       -13.6407
  30   2.0000      -0.493518       -13.4293
  31   2.0000      -0.469560       -12.7774
  32   2.0000      -0.467644       -12.7252
  33   2.0000      -0.447818       -12.1858
  34   2.0000      -0.434516       -11.8238
  35   2.0000      -0.421972       -11.4824
  36   2.0000      -0.401801       -10.9336
  37   2.0000      -0.365315        -9.9407
  38   2.0000      -0.264861        -7.2072
  39   0.0000       0.039097         1.0639
  40   0.0000       0.042500         1.1565
  41   0.0000       0.061650         1.6776
  42   0.0000       0.068088         1.8528
  43   0.0000       0.074487         2.0269

MULLIKEN ATOMIC CHARGES
-----------------------
   0 C :   -0.595487
   1 C :   -0.634866
   2 C :   -0.871429
   3 C :   -0.715035
   4 H :    0.385885
   5 H :    0.393087
   6 C :    0.761474
   7 C :   -0.222264
   8 N :   -0.404531
   9 N :   -0.491613
  10 H :    0.174770
  11 H :    0.236222
  12 H :    0.680613
  13 H :    0.325379
  14 H :    0.189440
  15 H :    0.450492
  16 H :    0.299995
  17 H :    0.380486
  18 H :    0.420965
  19 F :   -0.230235
  20 O :   -0.533349
Sum of atomic charges:   -0.0000000

LOEWDIN ATOMIC CHARGES
----------------------
   0 C :   -0.230977
   1 C :   -0.138988
   2 C :   -0.200375
   3 C :   -0.098035
   4 H :    0.129063
   5 H :    0.121349
   6 C :   -0.497484
   7 C :   -0.583906
   8 N :    0.139634
   9 N :    0.141495
  10 H :    0.098166
  11 H :    0.100859
  12 H :    0.075149
  13 H :    0.060899
  14 H :    0.104996
  15 H :    0.111784
  16 H :    0.112550
  17 H :    0.126043
  18 H :    0.116777
  19 F :    0.246926
  20 O :    0.064077

  Mayer bond orders larger than 0.100000
B(  0-C ,  1-C ) :   0.3386 B(  0-C ,  2-C ) :   0.5773 B(  0-C ,  7-C ) :  -0.1326
B(  0-C , 15-H ) :   0.7822 B(  0-C , 16-H ) :   1.1215 B(  1-C ,  6-C ) :  -0.1083
B(  1-C ,  7-C ) :   1.6087 B(  1-C , 12-H ) :   0.7302 B(  2-C ,  3-C ) :   0.6669
B(  2-C , 17-H ) :   0.9231 B(  2-C , 18-H ) :   0.9269 B(  3-C ,  4-H ) :   0.9183
B(  3-C ,  5-H ) :   0.9529 B(  3-C ,  6-C ) :   0.8126 B(  6-C , 19-F ) :   0.9543
B(  6-C , 20-O ) :   1.5726 B(  7-C ,  8-N ) :   0.8263 B(  7-C ,  9-N ) :   0.7103
B(  8-N , 13-H ) :   0.7731 B(  8-N , 14-H ) :   0.9477 B(  9-N , 10-H ) :   1.0008
B(  9-N , 11-H ) :   0.9192 B( 15-H , 16-H ) :   0.1382

FINAL SINGLE POINT ENERGY      -518.815409018599

DIPOLE MOMENT
-------------
                                X             Y             Z
Electronic contribution:      3.36350      -3.67203      -6.43874
Nuclear contribution   :     -4.60158       3.22721       5.56005
                        -----------------------------------------
Total Dipole Moment    :     -1.23808      -0.44481      -0.87868
                        -----------------------------------------
Magnitude (a.u.)       :      1.58202
Magnitude (Debye)      :      4.02118

Rotational constants in cm-1:     0.061224     0.042534     0.033552
Rotational constants in MHz :  1835.464095  1275.135177  1005.856966

                             ****ORCA TERMINATED NORMALLY****
TOTAL RUN TIME: 0 days 0 hours 3 minutes 7 seconds 341 msec
