                         Program Version 5.0.0 -  RELEASE  -
|  1> !LC-BLYP RIJCOSX def2-TZVPD def2/J TightSCF xyzfile
|  2>
|  3> *xyzfile 0 1 D2.xyz
|  4>
|  5> %MaxCore 64000
|  6>
|  7> %pal nprocs 4
|  8> end
|  9>
| 10> %scf
| 11>   MaxIter 150
| 12> end
| 13>
| 14>
| 15>                          ****END OF INPUT****

CARTESIAN COORDINATES (ANGSTROEM)
---------------------------------
  C      3.905947    2.819855   -3.752920
  N      5.295615    3.131515   -4.105334
  C      3.803511    1.374716   -3.260807
  C      3.939934    0.320362   -4.367729
  H      4.105043   -0.655085   -3.907733
  H      3.022801    0.280517   -4.957117
  C      5.105846    0.668022   -5.305463
  C      5.708619    3.468885   -5.324190
  C      6.904696    3.038954   -5.717084
  N      4.981884    4.293570   -6.097457
  H      5.000546    4.101311   -7.087761
  H      4.084693    4.596899   -5.739652
  H      5.963358    2.526112   -3.642391
  H      7.047164    2.066861   -5.473604
  H      7.198145    3.307994   -6.645225
  H      3.282025    2.949187   -4.640259
  H      3.565254    3.514574   -2.982523
  H      4.574833    1.215157   -2.500443
  H      2.843514    1.260845   -2.751465
  F      4.809132    1.150187   -6.414361
  O      6.267366    0.564999   -4.819481

 Total Charge           Charge          ....    0
 Multiplicity           Mult            ....    1
 Number of Electrons    NEL             ....   78
 Basis Dimension        Dim             ....  475

ORBITAL ENERGIES
----------------

  NO   OCC          E(Eh)            E(eV)
   0   2.0000     -24.535488      -667.6446
   1   2.0000     -18.949089      -515.6309
   2   2.0000     -14.172125      -385.6431
   3   2.0000     -14.169836      -385.5808
   4   2.0000     -10.260233      -279.1951
   5   2.0000     -10.117815      -275.3197
   6   2.0000     -10.110075      -275.1091
   7   2.0000     -10.109782      -275.1012
   8   2.0000     -10.100296      -274.8430
   9   2.0000      -9.964213      -271.1400
  10   2.0000      -1.414396       -38.4877
  11   2.0000      -1.135072       -30.8869
  12   2.0000      -1.073130       -29.2013
  13   2.0000      -0.992816       -27.0159
  14   2.0000      -0.930624       -25.3236
  15   2.0000      -0.854251       -23.2454
  16   2.0000      -0.809423       -22.0255
  17   2.0000      -0.771839       -21.0028
  18   2.0000      -0.731241       -19.8981
  19   2.0000      -0.703368       -19.1396
  20   2.0000      -0.674569       -18.3560
  21   2.0000      -0.655569       -17.8389
  22   2.0000      -0.642716       -17.4892
  23   2.0000      -0.616912       -16.7870
  24   2.0000      -0.603109       -16.4114
  25   2.0000      -0.590085       -16.0570
  26   2.0000      -0.572868       -15.5885
  27   2.0000      -0.546931       -14.8827
  28   2.0000      -0.522468       -14.2171
  29   2.0000      -0.510532       -13.8923
  30   2.0000      -0.499457       -13.5909
  31   2.0000      -0.494519       -13.4566
  32   2.0000      -0.469461       -12.7747
  33   2.0000      -0.466897       -12.7049
  34   2.0000      -0.448538       -12.2053
  35   2.0000      -0.439187       -11.9509
  36   2.0000      -0.383760       -10.4426
  37   2.0000      -0.358090        -9.7441
  38   2.0000      -0.261596        -7.1184
  39   0.0000       0.032828         0.8933
  40   0.0000       0.041630         1.1328
  41   0.0000       0.057086         1.5534
  42   0.0000       0.062351         1.6967
  43   0.0000       0.071418         1.9434

MULLIKEN ATOMIC CHARGES
-----------------------
   0 C :   -0.784411
   1 N :   -0.330496
   2 C :   -0.848920
   3 C :   -0.638421
   4 H :    0.376604
   5 H :    0.395105
   6 C :    0.670551
   7 C :    0.128261
   8 C :   -0.875933
   9 N :   -0.512242
  10 H :    0.201909
  11 H :    0.239944
  12 H :    0.265653
  13 H :    0.513608
  14 H :    0.319821
  15 H :    0.402403
  16 H :    0.375085
  17 H :    0.380230
  18 H :    0.418183
  19 F :   -0.211037
  20 O :   -0.485897
Sum of atomic charges:   -0.0000000

LOEWDIN ATOMIC CHARGES
----------------------
   0 C :   -0.193974
   1 N :    0.039655
   2 C :   -0.186737
   3 C :   -0.099159
   4 H :    0.129924
   5 H :    0.121904
   6 C :   -0.499758
   7 C :   -0.598954
   8 C :   -0.002033
   9 N :    0.138692
  10 H :    0.107659
  11 H :    0.091689
  12 H :    0.131607
  13 H :   -0.010605
  14 H :    0.025128
  15 H :    0.120138
  16 H :    0.119677
  17 H :    0.126159
  18 H :    0.119999
  19 F :    0.252063
  20 O :    0.066926

  Mayer bond orders larger than 0.100000
B(  0-C ,  1-N ) :   0.6539 B(  0-C ,  2-C ) :   0.5877 B(  0-C ,  7-C ) :  -0.1757
B(  0-C , 15-H ) :   0.8958 B(  0-C , 16-H ) :   0.9898 B(  1-N ,  7-C ) :   0.8982
B(  1-N , 12-H ) :   0.8848 B(  2-C ,  3-C ) :   0.6499 B(  2-C , 17-H ) :   0.9391
B(  2-C , 18-H ) :   0.9319 B(  3-C ,  4-H ) :   0.9385 B(  3-C ,  5-H ) :   0.9522
B(  3-C ,  6-C ) :   0.8145 B(  6-C , 19-F ) :   0.9823 B(  6-C , 20-O ) :   1.6805
B(  7-C ,  8-C ) :   1.4400 B(  7-C ,  9-N ) :   0.6968 B(  7-C , 14-H ) :  -0.1470
B(  8-C , 13-H ) :   0.7049 B(  8-C , 14-H ) :   1.2914 B(  9-N , 10-H ) :   0.9738
B(  9-N , 11-H ) :   0.9221 B( 13-H , 20-O ) :  -0.1030

FINAL SINGLE POINT ENERGY      -518.787034167323

DIPOLE MOMENT
-------------
                                X             Y             Z
Electronic contribution:      2.04729      -3.80074      -5.16991
Nuclear contribution   :     -4.40347       3.21582       5.36161
                        -----------------------------------------
Total Dipole Moment    :     -2.35618      -0.58493       0.19171
                        -----------------------------------------
Magnitude (a.u.)       :      2.43526
Magnitude (Debye)      :      6.18993

Rotational constants in cm-1:     0.061226     0.043199     0.033926
Rotational constants in MHz :  1835.503528  1295.087558  1017.061512

                             ****ORCA TERMINATED NORMALLY****
TOTAL RUN TIME: 0 days 0 hours 3 minutes 22 seconds 319 msec
