                         Program Version 5.0.0 -  RELEASE  -
|  1> !LC-BLYP RIJCOSX def2-TZVPD def2/J TightSCF xyzfile
|  2>
|  3> *xyzfile 0 1 D3.xyz
|  4>
|  5> %MaxCore 64000
|  6>
|  7> %pal nprocs 4
|  8> end
|  9>
| 10> %scf
| 11>   MaxIter 150
| 12> end
| 13>
| 14>
| 15>                          ****END OF INPUT****

CARTESIAN COORDINATES (ANGSTROEM)
---------------------------------
  C      3.905947    2.819855   -3.752920
  N      5.295615    3.131515   -4.105334
  C      3.803511    1.374716   -3.260807
  C      3.939934    0.320362   -4.367729
  H      4.105043   -0.655085   -3.907733
  H      3.022801    0.280517   -4.957117
  C      5.105846    0.668022   -5.305463
  C      5.708619    3.468885   -5.324190
  N      6.904696    3.038954   -5.717084
  C      4.981884    4.293570   -6.097457
  H      5.000546    4.101311   -7.087761
  H      4.084693    4.596899   -5.739652
  H      5.963358    2.526112   -3.642391
  H      7.047164    2.066861   -5.473604
  H      7.198145    3.307994   -6.645225
  H      3.282025    2.949187   -4.640259
  H      3.565254    3.514574   -2.982523
  H      4.574833    1.215157   -2.500443
  H      2.843514    1.260845   -2.751465
  F      4.809132    1.150187   -6.414361
  O      6.267366    0.564999   -4.819481

 Total Charge           Charge          ....    0
 Multiplicity           Mult            ....    1
 Number of Electrons    NEL             ....   78
 Basis Dimension        Dim             ....  475

ORBITAL ENERGIES
----------------

  NO   OCC          E(Eh)            E(eV)
   0   2.0000     -24.546530      -667.9450
   1   2.0000     -18.967580      -516.1341
   2   2.0000     -14.174434      -385.7060
   3   2.0000     -14.151029      -385.0691
   4   2.0000     -10.276138      -279.6279
   5   2.0000     -10.115815      -275.2653
   6   2.0000     -10.114148      -275.2200
   7   2.0000     -10.112650      -275.1792
   8   2.0000     -10.101592      -274.8783
   9   2.0000      -9.980916      -271.5945
  10   2.0000      -1.425332       -38.7852
  11   2.0000      -1.153797       -31.3964
  12   2.0000      -1.074155       -29.2292
  13   2.0000      -0.991675       -26.9849
  14   2.0000      -0.929497       -25.2929
  15   2.0000      -0.848838       -23.0981
  16   2.0000      -0.812918       -22.1206
  17   2.0000      -0.786126       -21.3916
  18   2.0000      -0.743905       -20.2427
  19   2.0000      -0.685780       -18.6610
  20   2.0000      -0.676837       -18.4177
  21   2.0000      -0.665303       -18.1038
  22   2.0000      -0.648687       -17.6517
  23   2.0000      -0.620966       -16.8973
  24   2.0000      -0.609367       -16.5817
  25   2.0000      -0.591116       -16.0851
  26   2.0000      -0.579390       -15.7660
  27   2.0000      -0.540730       -14.7140
  28   2.0000      -0.531885       -14.4733
  29   2.0000      -0.515256       -14.0208
  30   2.0000      -0.496649       -13.5145
  31   2.0000      -0.492380       -13.3983
  32   2.0000      -0.478822       -13.0294
  33   2.0000      -0.472346       -12.8532
  34   2.0000      -0.459314       -12.4986
  35   2.0000      -0.435991       -11.8639
  36   2.0000      -0.415374       -11.3029
  37   2.0000      -0.351749        -9.5716
  38   2.0000      -0.267527        -7.2798
  39   0.0000       0.023483         0.6390
  40   0.0000       0.041621         1.1326
  41   0.0000       0.060601         1.6490
  42   0.0000       0.063183         1.7193
  43   0.0000       0.069618         1.8944

MULLIKEN ATOMIC CHARGES
-----------------------
   0 C :   -0.769503
   1 N :   -0.321895
   2 C :   -0.842419
   3 C :   -0.659719
   4 H :    0.383739
   5 H :    0.400098
   6 C :    0.728821
   7 C :    0.058831
   8 N :   -0.429292
   9 C :   -1.104804
  10 H :    0.334179
  11 H :    0.476471
  12 H :    0.301949
  13 H :    0.353687
  14 H :    0.218063
  15 H :    0.436601
  16 H :    0.369036
  17 H :    0.380721
  18 H :    0.413250
  19 F :   -0.182135
  20 O :   -0.545680
Sum of atomic charges:   -0.0000000

LOEWDIN ATOMIC CHARGES
----------------------
   0 C :   -0.186325
   1 N :    0.039988
   2 C :   -0.185271
   3 C :   -0.096559
   4 H :    0.130732
   5 H :    0.124488
   6 C :   -0.492211
   7 C :   -0.608034
   8 N :    0.139049
   9 C :   -0.002225
  10 H :    0.014303
  11 H :    0.006970
  12 H :    0.128237
  13 H :    0.053909
  14 H :    0.112924
  15 H :    0.123700
  16 H :    0.124068
  17 H :    0.124464
  18 H :    0.121643
  19 F :    0.261538
  20 O :    0.064611

  Mayer bond orders larger than 0.100000
B(  0-C ,  1-N ) :   0.6853 B(  0-C ,  2-C ) :   0.5555 B(  0-C ,  9-C ) :   0.1155
B(  0-C , 15-H ) :   0.8911 B(  0-C , 16-H ) :   0.9705 B(  1-N ,  7-C ) :   0.9046
B(  1-N , 12-H ) :   0.8283 B(  2-C ,  3-C ) :   0.6550 B(  2-C , 17-H ) :   0.9394
B(  2-C , 18-H ) :   0.9292 B(  3-C ,  4-H ) :   0.9320 B(  3-C ,  5-H ) :   0.9485
B(  3-C ,  6-C ) :   0.8212 B(  6-C , 19-F ) :   1.0217 B(  6-C , 20-O ) :   1.5297
B(  7-C ,  8-N ) :   0.7778 B(  7-C ,  9-C ) :   1.5209 B(  7-C , 20-O ) :   0.1076
B(  8-N ,  9-C ) :   0.1047 B(  8-N , 13-H ) :   0.7545 B(  8-N , 14-H ) :   0.9266
B(  9-C , 10-H ) :   1.0159 B(  9-C , 11-H ) :   0.8511

FINAL SINGLE POINT ENERGY      -518.805887404611

DIPOLE MOMENT
-------------
                                X             Y             Z
Electronic contribution:      3.53429      -4.88858      -4.86868
Nuclear contribution   :     -4.64021       3.37029       5.31478
                        -----------------------------------------
Total Dipole Moment    :     -1.10592      -1.51830       0.44610
                        -----------------------------------------
Magnitude (a.u.)       :      1.93062
Magnitude (Debye)      :      4.90724

Rotational constants in cm-1:     0.061077     0.043622     0.034103
Rotational constants in MHz :  1831.041375  1307.759852  1022.388536

                             ****ORCA TERMINATED NORMALLY****
TOTAL RUN TIME: 0 days 0 hours 3 minutes 8 seconds 57 msec
