                         Program Version 5.0.0 -  RELEASE  -
|  1> !LC-BLYP RIJCOSX def2-TZVPD def2/J TightSCF xyzfile
|  2>
|  3> *xyzfile 0 1 D4.xyz
|  4>
|  5> %MaxCore 64000
|  6>
|  7> %pal nprocs 4
|  8> end
|  9>
| 10> %scf
| 11>   MaxIter 150
| 12> end
| 13>
| 14>
| 15>                          ****END OF INPUT****

CARTESIAN COORDINATES (ANGSTROEM)
---------------------------------
  C      3.905947    2.819855   -3.752920
  C      5.295615    3.131515   -4.105334
  C      3.803511    1.374716   -3.260807
  C      3.939934    0.320362   -4.367729
  H      4.105043   -0.655085   -3.907733
  H      3.022801    0.280517   -4.957117
  C      5.105846    0.668022   -5.305463
  C      5.708619    3.468885   -5.324190
  N      6.904696    3.038954   -5.717084
  N      4.981884    4.293570   -6.097457
  H      5.000546    4.101311   -7.087761
  H      4.084693    4.596899   -5.739652
  H      5.963358    2.526112   -3.642391
  H      7.047164    2.066861   -5.473604
  H      7.198145    3.307994   -6.645225
  H      3.282025    2.949187   -4.640259
  H      3.565254    3.514574   -2.982523
  H      4.574833    1.215157   -2.500443
  H      2.843514    1.260845   -2.751465
  O      4.809132    1.150187   -6.414361
  F      6.267366    0.564999   -4.819481

 Total Charge           Charge          ....    0
 Multiplicity           Mult            ....    1
 Number of Electrons    NEL             ....   78
 Basis Dimension        Dim             ....  475

ORBITAL ENERGIES
----------------

  NO   OCC          E(Eh)            E(eV)
   0   2.0000     -24.533373      -667.5870
   1   2.0000     -18.948428      -515.6129
   2   2.0000     -14.171052      -385.6139
   3   2.0000     -14.160296      -385.3212
   4   2.0000     -10.253514      -279.0123
   5   2.0000     -10.115070      -275.2450
   6   2.0000     -10.095860      -274.7223
   7   2.0000     -10.076771      -274.2029
   8   2.0000     -10.055910      -273.6352
   9   2.0000      -9.996698      -272.0240
  10   2.0000      -1.408106       -38.3165
  11   2.0000      -1.137954       -30.9653
  12   2.0000      -1.064070       -28.9548
  13   2.0000      -0.974402       -26.5148
  14   2.0000      -0.929591       -25.2955
  15   2.0000      -0.860715       -23.4213
  16   2.0000      -0.802563       -21.8389
  17   2.0000      -0.766200       -20.8494
  18   2.0000      -0.718128       -19.5413
  19   2.0000      -0.698387       -19.0041
  20   2.0000      -0.665328       -18.1045
  21   2.0000      -0.651407       -17.7257
  22   2.0000      -0.633072       -17.2268
  23   2.0000      -0.614831       -16.7304
  24   2.0000      -0.606875       -16.5139
  25   2.0000      -0.572383       -15.5753
  26   2.0000      -0.571674       -15.5560
  27   2.0000      -0.546754       -14.8779
  28   2.0000      -0.533580       -14.5195
  29   2.0000      -0.500726       -13.6254
  30   2.0000      -0.491137       -13.3645
  31   2.0000      -0.476074       -12.9546
  32   2.0000      -0.464929       -12.6514
  33   2.0000      -0.446046       -12.1375
  34   2.0000      -0.438308       -11.9270
  35   2.0000      -0.427038       -11.6203
  36   2.0000      -0.393147       -10.6981
  37   2.0000      -0.365880        -9.9561
  38   2.0000      -0.267104        -7.2683
  39   0.0000       0.044823         1.2197
  40   0.0000       0.048321         1.3149
  41   0.0000       0.061206         1.6655
  42   0.0000       0.069715         1.8970
  43   0.0000       0.073909         2.0112

MULLIKEN ATOMIC CHARGES
-----------------------
   0 C :   -0.530847
   1 C :   -0.730558
   2 C :   -0.945597
   3 C :   -0.711604
   4 H :    0.414459
   5 H :    0.370839
   6 C :    0.720733
   7 C :   -0.118012
   8 N :   -0.401602
   9 N :   -0.492703
  10 H :    0.175335
  11 H :    0.239498
  12 H :    0.704295
  13 H :    0.298148
  14 H :    0.186951
  15 H :    0.439367
  16 H :    0.303463
  17 H :    0.391200
  18 H :    0.415198
  19 O :   -0.480333
  20 F :   -0.248232
Sum of atomic charges:   -0.0000000

LOEWDIN ATOMIC CHARGES
----------------------
   0 C :   -0.230453
   1 C :   -0.147346
   2 C :   -0.204354
   3 C :   -0.099034
   4 H :    0.123252
   5 H :    0.128404
   6 C :   -0.511296
   7 C :   -0.581326
   8 N :    0.141805
   9 N :    0.153375
  10 H :    0.102884
  11 H :    0.103360
  12 H :    0.071731
  13 H :    0.076910
  14 H :    0.108833
  15 H :    0.114970
  16 H :    0.111944
  17 H :    0.121932
  18 H :    0.116898
  19 O :    0.101902
  20 F :    0.195611

  Mayer bond orders larger than 0.100000
B(  0-C ,  1-C ) :   0.3726 B(  0-C ,  2-C ) :   0.5531 B(  0-C ,  7-C ) :  -0.1214
B(  0-C , 15-H ) :   0.7763 B(  0-C , 16-H ) :   1.1251 B(  1-C ,  7-C ) :   1.5520
B(  1-C ,  9-N ) :   0.1027 B(  1-C , 12-H ) :   0.6712 B(  2-C ,  3-C ) :   0.6567
B(  2-C , 17-H ) :   0.9263 B(  2-C , 18-H ) :   0.9306 B(  3-C ,  4-H ) :   0.9130
B(  3-C ,  5-H ) :   0.9714 B(  3-C ,  6-C ) :   0.7921 B(  6-C , 19-O ) :   1.7000
B(  6-C , 20-F ) :   0.8404 B(  7-C ,  8-N ) :   0.8401 B(  7-C ,  9-N ) :   0.7277
B(  8-N , 13-H ) :   0.8218 B(  8-N , 14-H ) :   0.9366 B(  9-N , 10-H ) :   0.9961
B(  9-N , 11-H ) :   0.9165 B( 15-H , 16-H ) :   0.1393

FINAL SINGLE POINT ENERGY      -518.816741790702

DIPOLE MOMENT
-------------
                                X             Y             Z
Electronic contribution:      5.78654      -4.55743      -3.89104
Nuclear contribution   :     -6.25608       3.89116       3.75052
                        -----------------------------------------
Total Dipole Moment    :     -0.46954      -0.66627      -0.14052
                        -----------------------------------------
Magnitude (a.u.)       :      0.82712
Magnitude (Debye)      :      2.10236

Rotational constants in cm-1:     0.061229     0.042568     0.033282
Rotational constants in MHz :  1835.590871  1276.154029   997.769927

                             ****ORCA TERMINATED NORMALLY****
TOTAL RUN TIME: 0 days 0 hours 3 minutes 25 seconds 884 msec
