                         Program Version 5.0.0 -  RELEASE  -
|  1> !LC-BLYP RIJCOSX def2-TZVPD def2/J TightSCF xyzfile
|  2>
|  3> *xyzfile 0 1 D5.xyz
|  4>
|  5> %MaxCore 64000
|  6>
|  7> %pal nprocs 4
|  8> end
|  9>
| 10> %scf
| 11>   MaxIter 150
| 12> end
| 13>
| 14>
| 15>                          ****END OF INPUT****

CARTESIAN COORDINATES (ANGSTROEM)
---------------------------------
  C      3.905947    2.819855   -3.752920
  N      5.295615    3.131515   -4.105334
  C      3.803511    1.374716   -3.260807
  C      3.939934    0.320362   -4.367729
  H      4.105043   -0.655085   -3.907733
  H      3.022801    0.280517   -4.957117
  C      5.105846    0.668022   -5.305463
  C      5.708619    3.468885   -5.324190
  C      6.904696    3.038954   -5.717084
  N      4.981884    4.293570   -6.097457
  H      5.000546    4.101311   -7.087761
  H      4.084693    4.596899   -5.739652
  H      5.963358    2.526112   -3.642391
  H      7.047164    2.066861   -5.473604
  H      7.198145    3.307994   -6.645225
  H      3.282025    2.949187   -4.640259
  H      3.565254    3.514574   -2.982523
  H      4.574833    1.215157   -2.500443
  H      2.843514    1.260845   -2.751465
  O      4.809132    1.150187   -6.414361
  F      6.267366    0.564999   -4.819481

 Total Charge           Charge          ....    0
 Multiplicity           Mult            ....    1
 Number of Electrons    NEL             ....   78
 Basis Dimension        Dim             ....  475

ORBITAL ENERGIES
----------------

  NO   OCC          E(Eh)            E(eV)
   0   2.0000     -24.528902      -667.4654
   1   2.0000     -18.951313      -515.6915
   2   2.0000     -14.177237      -385.7822
   3   2.0000     -14.166741      -385.4966
   4   2.0000     -10.255243      -279.0594
   5   2.0000     -10.117118      -275.3008
   6   2.0000     -10.111848      -275.1574
   7   2.0000     -10.108553      -275.0677
   8   2.0000     -10.102072      -274.8914
   9   2.0000      -9.969243      -271.2769
  10   2.0000      -1.404474       -38.2177
  11   2.0000      -1.139917       -31.0187
  12   2.0000      -1.074565       -29.2404
  13   2.0000      -0.992353       -27.0033
  14   2.0000      -0.931060       -25.3354
  15   2.0000      -0.854338       -23.2477
  16   2.0000      -0.810593       -22.0574
  17   2.0000      -0.766805       -20.8658
  18   2.0000      -0.732698       -19.9377
  19   2.0000      -0.707838       -19.2612
  20   2.0000      -0.668156       -18.1815
  21   2.0000      -0.662467       -18.0266
  22   2.0000      -0.627766       -17.0824
  23   2.0000      -0.613779       -16.7018
  24   2.0000      -0.605328       -16.4718
  25   2.0000      -0.594368       -16.1736
  26   2.0000      -0.570301       -15.5187
  27   2.0000      -0.545466       -14.8429
  28   2.0000      -0.525991       -14.3129
  29   2.0000      -0.510113       -13.8809
  30   2.0000      -0.496326       -13.5057
  31   2.0000      -0.488566       -13.2946
  32   2.0000      -0.475380       -12.9357
  33   2.0000      -0.466117       -12.6837
  34   2.0000      -0.461596       -12.5607
  35   2.0000      -0.426589       -11.6081
  36   2.0000      -0.395984       -10.7753
  37   2.0000      -0.361125        -9.8267
  38   2.0000      -0.262061        -7.1310
  39   0.0000       0.036664         0.9977
  40   0.0000       0.047885         1.3030
  41   0.0000       0.056064         1.5256
  42   0.0000       0.062476         1.7001
  43   0.0000       0.073262         1.9936

MULLIKEN ATOMIC CHARGES
-----------------------
   0 C :   -0.711785
   1 N :   -0.343430
   2 C :   -0.929750
   3 C :   -0.641609
   4 H :    0.407666
   5 H :    0.374847
   6 C :    0.645420
   7 C :    0.148060
   8 C :   -0.740921
   9 N :   -0.514852
  10 H :    0.200941
  11 H :    0.238124
  12 H :    0.245132
  13 H :    0.395109
  14 H :    0.316960
  15 H :    0.389705
  16 H :    0.378862
  17 H :    0.390694
  18 H :    0.414499
  19 O :   -0.439529
  20 F :   -0.224143
Sum of atomic charges:    0.0000000

LOEWDIN ATOMIC CHARGES
----------------------
   0 C :   -0.192530
   1 N :    0.039971
   2 C :   -0.189766
   3 C :   -0.099256
   4 H :    0.124910
   5 H :    0.128935
   6 C :   -0.512426
   7 C :   -0.596743
   8 C :   -0.007207
   9 N :    0.148235
  10 H :    0.111465
  11 H :    0.093836
  12 H :    0.129449
  13 H :    0.000335
  14 H :    0.027267
  15 H :    0.123387
  16 H :    0.119773
  17 H :    0.122719
  18 H :    0.120281
  19 O :    0.115231
  20 F :    0.192134

  Mayer bond orders larger than 0.100000
B(  0-C ,  1-N ) :   0.6837 B(  0-C ,  2-C ) :   0.5631 B(  0-C ,  3-C ) :  -0.1005
B(  0-C ,  7-C ) :  -0.1500 B(  0-C , 15-H ) :   0.8885 B(  0-C , 16-H ) :   0.9916
B(  1-N ,  7-C ) :   0.8745 B(  1-N , 12-H ) :   0.8929 B(  2-C ,  3-C ) :   0.6307
B(  2-C , 17-H ) :   0.9413 B(  2-C , 18-H ) :   0.9361 B(  3-C ,  4-H ) :   0.9324
B(  3-C ,  5-H ) :   0.9720 B(  3-C ,  6-C ) :   0.7975 B(  6-C , 19-O ) :   1.7527
B(  6-C , 20-F ) :   0.8873 B(  7-C ,  8-C ) :   1.4509 B(  7-C ,  9-N ) :   0.7083
B(  7-C , 14-H ) :  -0.1408 B(  8-C , 13-H ) :   0.7553 B(  8-C , 14-H ) :   1.2477
B(  9-N , 10-H ) :   0.9668 B(  9-N , 11-H ) :   0.9204

FINAL SINGLE POINT ENERGY      -518.792650491626

DIPOLE MOMENT
-------------
                                X             Y             Z
Electronic contribution:      4.38240      -4.69903      -2.58979
Nuclear contribution   :     -6.05797       3.87976       3.55209
                        -----------------------------------------
Total Dipole Moment    :     -1.67556      -0.81927       0.96230
                        -----------------------------------------
Magnitude (a.u.)       :      2.09875
Magnitude (Debye)      :      5.33459

Rotational constants in cm-1:     0.061282     0.043164     0.033679
Rotational constants in MHz :  1837.191639  1294.028651  1009.659886

                             ****ORCA TERMINATED NORMALLY****
TOTAL RUN TIME: 0 days 0 hours 3 minutes 21 seconds 358 msec
