                         Program Version 5.0.0 -  RELEASE  -
|  1> !LC-BLYP RIJCOSX def2-TZVPD def2/J TightSCF xyzfile
|  2>
|  3> *xyzfile 0 1 D6.xyz
|  4>
|  5> %MaxCore 64000
|  6>
|  7> %pal nprocs 4
|  8> end
|  9>
| 10> %scf
| 11>   MaxIter 150
| 12> end
| 13>
| 14>
| 15>                          ****END OF INPUT****

CARTESIAN COORDINATES (ANGSTROEM)
---------------------------------
  C      3.905947    2.819855   -3.752920
  N      5.295615    3.131515   -4.105334
  C      3.803511    1.374716   -3.260807
  C      3.939934    0.320362   -4.367729
  H      4.105043   -0.655085   -3.907733
  H      3.022801    0.280517   -4.957117
  C      5.105846    0.668022   -5.305463
  C      5.708619    3.468885   -5.324190
  N      6.904696    3.038954   -5.717084
  C      4.981884    4.293570   -6.097457
  H      5.000546    4.101311   -7.087761
  H      4.084693    4.596899   -5.739652
  H      5.963358    2.526112   -3.642391
  H      7.047164    2.066861   -5.473604
  H      7.198145    3.307994   -6.645225
  H      3.282025    2.949187   -4.640259
  H      3.565254    3.514574   -2.982523
  H      4.574833    1.215157   -2.500443
  H      2.843514    1.260845   -2.751465
  O      4.809132    1.150187   -6.414361
  F      6.267366    0.564999   -4.819481

 Total Charge           Charge          ....    0
 Multiplicity           Mult            ....    1
 Number of Electrons    NEL             ....   78
 Basis Dimension        Dim             ....  475

ORBITAL ENERGIES
----------------

  NO   OCC          E(Eh)            E(eV)
   0   2.0000     -24.547298      -667.9659
   1   2.0000     -18.960849      -515.9509
   2   2.0000     -14.179491      -385.8436
   3   2.0000     -14.158733      -385.2787
   4   2.0000     -10.262960      -279.2693
   5   2.0000     -10.112845      -275.1845
   6   2.0000     -10.112377      -275.1718
   7   2.0000     -10.111764      -275.1551
   8   2.0000     -10.101565      -274.8776
   9   2.0000      -9.979476      -271.5553
  10   2.0000      -1.422494       -38.7080
  11   2.0000      -1.148585       -31.2546
  12   2.0000      -1.078091       -29.3364
  13   2.0000      -0.994959       -27.0742
  14   2.0000      -0.928683       -25.2708
  15   2.0000      -0.848221       -23.0813
  16   2.0000      -0.812144       -22.0996
  17   2.0000      -0.787944       -21.4410
  18   2.0000      -0.745056       -20.2740
  19   2.0000      -0.689549       -18.7636
  20   2.0000      -0.682743       -18.5784
  21   2.0000      -0.670532       -18.2461
  22   2.0000      -0.629742       -17.1361
  23   2.0000      -0.617289       -16.7973
  24   2.0000      -0.607549       -16.5322
  25   2.0000      -0.591507       -16.0957
  26   2.0000      -0.586507       -15.9597
  27   2.0000      -0.535439       -14.5700
  28   2.0000      -0.530198       -14.4274
  29   2.0000      -0.510486       -13.8910
  30   2.0000      -0.499096       -13.5811
  31   2.0000      -0.490893       -13.3579
  32   2.0000      -0.483532       -13.1576
  33   2.0000      -0.468611       -12.7516
  34   2.0000      -0.460859       -12.5406
  35   2.0000      -0.435087       -11.8393
  36   2.0000      -0.402228       -10.9452
  37   2.0000      -0.356181        -9.6922
  38   2.0000      -0.267479        -7.2785
  39   0.0000       0.034072         0.9271
  40   0.0000       0.041920         1.1407
  41   0.0000       0.061117         1.6631
  42   0.0000       0.063444         1.7264
  43   0.0000       0.070991         1.9318

MULLIKEN ATOMIC CHARGES
-----------------------
   0 C :   -0.693860
   1 N :   -0.327394
   2 C :   -0.928371
   3 C :   -0.661987
   4 H :    0.411838
   5 H :    0.376084
   6 C :    0.671143
   7 C :    0.175095
   8 N :   -0.423738
   9 C :   -1.120302
  10 H :    0.331022
  11 H :    0.475316
  12 H :    0.270283
  13 H :    0.311412
  14 H :    0.220525
  15 H :    0.413050
  16 H :    0.373961
  17 H :    0.397074
  18 H :    0.406300
  19 O :   -0.418393
  20 F :   -0.259057
Sum of atomic charges:    0.0000000

LOEWDIN ATOMIC CHARGES
----------------------
   0 C :   -0.184541
   1 N :    0.039333
   2 C :   -0.189448
   3 C :   -0.098593
   4 H :    0.124646
   5 H :    0.130976
   6 C :   -0.511920
   7 C :   -0.608481
   8 N :    0.139630
   9 C :    0.007808
  10 H :    0.020338
  11 H :    0.010388
  12 H :    0.126254
  13 H :    0.068744
  14 H :    0.115794
  15 H :    0.127351
  16 H :    0.123925
  17 H :    0.120490
  18 H :    0.121433
  19 O :    0.124587
  20 F :    0.191286

  Mayer bond orders larger than 0.100000
B(  0-C ,  1-N ) :   0.7187 B(  0-C ,  2-C ) :   0.5445 B(  0-C ,  3-C ) :  -0.1170
B(  0-C ,  9-C ) :   0.1127 B(  0-C , 15-H ) :   0.8884 B(  0-C , 16-H ) :   0.9691
B(  1-N ,  7-C ) :   0.9046 B(  1-N , 12-H ) :   0.8216 B(  2-C ,  3-C ) :   0.6383
B(  2-C , 17-H ) :   0.9325 B(  2-C , 18-H ) :   0.9416 B(  3-C ,  4-H ) :   0.9310
B(  3-C ,  5-H ) :   0.9664 B(  3-C ,  6-C ) :   0.8002 B(  6-C , 19-O ) :   1.7590
B(  6-C , 20-F ) :   0.8242 B(  7-C ,  8-N ) :   0.7607 B(  7-C ,  9-C ) :   1.4696
B(  7-C , 10-H ) :  -0.1068 B(  7-C , 11-H ) :  -0.1122 B(  8-N ,  9-C ) :   0.1152
B(  8-N , 13-H ) :   0.7947 B(  8-N , 14-H ) :   0.9118 B(  9-C , 10-H ) :   1.0181
B(  9-C , 11-H ) :   0.8523

FINAL SINGLE POINT ENERGY      -518.802735684198

DIPOLE MOMENT
-------------
                                X             Y             Z
Electronic contribution:      5.92113      -5.72226      -2.32333
Nuclear contribution   :     -6.29470       4.03423       3.50525
                        -----------------------------------------
Total Dipole Moment    :     -0.37357      -1.68803       1.18192
                        -----------------------------------------
Magnitude (a.u.)       :      2.09426
Magnitude (Debye)      :      5.32319

Rotational constants in cm-1:     0.061094     0.043661     0.033867
Rotational constants in MHz :  1831.559881  1308.929520  1015.295167

                             ****ORCA TERMINATED NORMALLY****
TOTAL RUN TIME: 0 days 0 hours 3 minutes 32 seconds 322 msec
