                         Program Version 5.0.0 -  RELEASE  -
|  1> !M062X D3Zero RIJCOSX def2-SVPD def2/J TightSCF
|  2> *xyz -1 1
|  3> C         -2.79070       -0.78527        5.70281
|  4> C         -2.45380        0.05510        6.94145
|  5> C         -2.07842        1.48042        6.56410
|  6> H         -1.62558       -0.38216        7.49891
|  7> H         -3.32527        0.08775        7.59917
|  8> O         -0.90125        1.85816        6.82810
|  9> O         -2.93658        2.17731        5.96415
| 10> H         -1.94052       -0.82114        5.05412
| 11> H         -3.61590       -0.34261        5.18514
| 12> H         -3.05063       -1.77815        6.00536
| 13> *
| 14> %MaxCore 64000
| 15>
| 16> %pal nprocs 4
| 17> end
| 18>
| 19> %scf
| 20>   MaxIter 150
| 21> end
| 22>
| 23>
| 24>                          ****END OF INPUT****

CARTESIAN COORDINATES (ANGSTROEM)
---------------------------------
  C     -2.790700   -0.785270    5.702810
  C     -2.453800    0.055100    6.941450
  C     -2.078420    1.480420    6.564100
  H     -1.625580   -0.382160    7.498910
  H     -3.325270    0.087750    7.599170
  O     -0.901250    1.858160    6.828100
  O     -2.936580    2.177310    5.964150
  H     -1.940520   -0.821140    5.054120
  H     -3.615900   -0.342610    5.185140
  H     -3.050630   -1.778150    6.005360

 Total Charge           Charge          ....   -1
 Multiplicity           Mult            ....    1
 Number of Electrons    NEL             ....   40
 Basis Dimension        Dim             ....  146

ORBITAL ENERGIES
----------------

  NO   OCC          E(Eh)            E(eV)
   0   2.0000     -19.372194      -527.1442
   1   2.0000     -19.370918      -527.1095
   2   2.0000     -10.437676      -284.0236
   3   2.0000     -10.390247      -282.7330
   4   2.0000     -10.376429      -282.3570
   5   2.0000      -0.926377       -25.2080
   6   2.0000      -0.825638       -22.4668
   7   2.0000      -0.695767       -18.9328
   8   2.0000      -0.556542       -15.1443
   9   2.0000      -0.396522       -10.7899
  10   2.0000      -0.363459        -9.8902
  11   2.0000      -0.333525        -9.0757
  12   2.0000      -0.301937        -8.2161
  13   2.0000      -0.284730        -7.7479
  14   2.0000      -0.279776        -7.6131
  15   2.0000      -0.244966        -6.6659
  16   2.0000      -0.230125        -6.2620
  17   2.0000      -0.111088        -3.0229
  18   2.0000      -0.109864        -2.9895
  19   2.0000      -0.101348        -2.7578
  20   0.0000       0.172948         4.7061
  21   0.0000       0.206292         5.6135
  22   0.0000       0.216332         5.8867
  23   0.0000       0.243778         6.6335
  24   0.0000       0.263723         7.1763

MULLIKEN ATOMIC CHARGES
-----------------------
   0 C :    0.514506
   1 C :   -0.265337
   2 C :    0.562708
   3 H :   -0.071357
   4 H :   -0.016590
   5 O :   -0.762432
   6 O :   -0.778045
   7 H :   -0.064181
   8 H :   -0.046154
   9 H :   -0.073117
Sum of atomic charges:   -1.0000000

LOEWDIN ATOMIC CHARGES
----------------------
   0 C :    0.104808
   1 C :   -0.040817
   2 C :   -0.295083
   3 H :    0.001037
   4 H :    0.009238
   5 O :   -0.348819
   6 O :   -0.339225
   7 H :   -0.021280
   8 H :   -0.026682
   9 H :   -0.043176

  Mayer bond orders larger than 0.100000
B(  0-C ,  1-C ) :   1.2837 B(  0-C ,  7-H ) :   0.8634 B(  0-C ,  8-H ) :   0.8418
B(  0-C ,  9-H ) :   0.8549 B(  1-C ,  2-C ) :   0.9966 B(  1-C ,  3-H ) :   0.9780
B(  1-C ,  4-H ) :   0.9009 B(  1-C ,  7-H ) :   0.1676 B(  1-C ,  8-H ) :   0.1909
B(  1-C ,  9-H ) :   0.1469 B(  2-C ,  3-H ) :   0.1758 B(  2-C ,  5-O ) :   1.3824
B(  2-C ,  6-O ) :   1.4147

Dispersion correction           -0.000086182
FINAL SINGLE POINT ENERGY      -267.532844885436

DIPOLE MOMENT
-------------
                                X             Y             Z
Electronic contribution:      1.62106       5.50792       0.68188
Nuclear contribution   :     -2.24498      -7.51881      -0.57245
                        -----------------------------------------
Total Dipole Moment    :     -0.62392      -2.01089       0.10943
                        -----------------------------------------
Magnitude (a.u.)       :      2.10830
Magnitude (Debye)      :      5.35887

Rotational constants in cm-1:     0.305589     0.135336     0.107479
Rotational constants in MHz :  9161.317320  4057.276612  3222.126231

                             ****ORCA TERMINATED NORMALLY****
TOTAL RUN TIME: 0 days 0 hours 0 minutes 17 seconds 373 msec
