                         Program Version 5.0.0 -  RELEASE  -
|  1> !M062X D3Zero RIJCOSX def2-SVPD def2/J TightSCF
|  2> *xyz 1 1
|  3> C         -0.69912        3.48945        3.75516
|  4> H         -0.96672        4.34901        3.14049
|  5> N         -1.08067        3.79296        5.15686
|  6> C          0.77696        3.13839        3.61741
|  7> H         -1.33146        2.65651        3.44632
|  8> H         -0.87449        4.76274        5.42734
|  9> H         -0.68079        3.13476        5.83900
| 10> H         -2.05755        3.53169        5.34620
| 11> H          0.99957        2.92898        2.59199
| 12> H          0.99576        2.27685        4.21303
| 13> H          1.37223        3.96279        3.95046
| 14> *
| 15> %MaxCore 64000
| 16>
| 17> %pal nprocs 4
| 18> end
| 19>
| 20> %scf
| 21>   MaxIter 150
| 22> end
| 23>
| 24>
| 25>                          ****END OF INPUT****

CARTESIAN COORDINATES (ANGSTROEM)
---------------------------------
  C     -0.699120    3.489450    3.755160
  H     -0.966720    4.349010    3.140490
  N     -1.080670    3.792960    5.156860
  C      0.776960    3.138390    3.617410
  H     -1.331460    2.656510    3.446320
  H     -0.874490    4.762740    5.427340
  H     -0.680790    3.134760    5.839000
  H     -2.057550    3.531690    5.346200
  H      0.999570    2.928980    2.591990
  H      0.995760    2.276850    4.213030
  H      1.372230    3.962790    3.950460

 Total Charge           Charge          ....    1
 Multiplicity           Mult            ....    1
 Number of Electrons    NEL             ....   26
 Basis Dimension        Dim             ....  124

ORBITAL ENERGIES
----------------

  NO   OCC          E(Eh)            E(eV)
   0   2.0000     -15.097465      -410.8229
   1   2.0000     -10.806391      -294.0568
   2   2.0000     -10.725471      -291.8549
   3   2.0000      -1.315357       -35.7927
   4   2.0000      -1.055311       -28.7165
   5   2.0000      -0.926787       -25.2192
   6   2.0000      -0.891403       -24.2563
   7   2.0000      -0.841478       -22.8978
   8   2.0000      -0.768970       -20.9247
   9   2.0000      -0.712326       -19.3834
  10   2.0000      -0.645657       -17.5692
  11   2.0000      -0.630718       -17.1627
  12   2.0000      -0.613393       -16.6913
  13   0.0000      -0.169986        -4.6255
  14   0.0000      -0.109935        -2.9915
  15   0.0000      -0.107467        -2.9243
  16   0.0000      -0.099797        -2.7156
  17   0.0000      -0.070979        -1.9314

MULLIKEN ATOMIC CHARGES
-----------------------
   0 C :    0.165892
   1 H :   -0.058677
   2 N :   -0.915128
   3 C :    0.545613
   4 H :   -0.015029
   5 H :    0.431626
   6 H :    0.402177
   7 H :    0.383596
   8 H :    0.026092
   9 H :   -0.008901
  10 H :    0.042738
Sum of atomic charges:    1.0000000

LOEWDIN ATOMIC CHARGES
----------------------
   0 C :    0.057250
   1 H :    0.054405
   2 N :    0.314932
   3 C :    0.174396
   4 H :    0.052383
   5 H :    0.115852
   6 H :    0.106078
   7 H :    0.107655
   8 H :    0.015111
   9 H :   -0.000131
  10 H :    0.002069

  Mayer bond orders larger than 0.100000
B(  0-C ,  1-H ) :   0.9484 B(  0-C ,  2-N ) :   0.7085 B(  0-C ,  3-C ) :   1.3213
B(  0-C ,  4-H ) :   0.9355 B(  0-C ,  8-H ) :   0.1721 B(  0-C ,  9-H ) :   0.1637
B(  0-C , 10-H ) :   0.1460 B(  1-H ,  2-N ) :   0.1115 B(  2-N ,  5-H ) :   0.6680
B(  2-N ,  6-H ) :   0.7257 B(  2-N ,  7-H ) :   0.7373 B(  3-C ,  8-H ) :   0.8460
B(  3-C ,  9-H ) :   0.8530 B(  3-C , 10-H ) :   0.8249

Dispersion correction           -0.000055245
FINAL SINGLE POINT ENERGY      -135.354721472723

DIPOLE MOMENT
-------------
                                X             Y             Z
Electronic contribution:     -1.32606       0.56939       1.09168
Nuclear contribution   :      0.33986      -0.24565       0.10678
                        -----------------------------------------
Total Dipole Moment    :     -0.98621       0.32374       1.19846
                        -----------------------------------------
Magnitude (a.u.)       :      1.58547
Magnitude (Debye)      :      4.02994

Rotational constants in cm-1:     1.016237     0.277523     0.247812
Rotational constants in MHz : 30466.024354  8319.937961  7429.230177

                             ****ORCA TERMINATED NORMALLY****
TOTAL RUN TIME: 0 days 0 hours 0 minutes 13 seconds 307 msec
