                         Program Version 5.0.0 -  RELEASE  -
|  1> !M062X D3Zero RIJCOSX def2-SVPD def2/J TightSCF
|  2> *xyz 0 1
|  3> C         -2.79070       -0.78527        5.70281
|  4> C         -2.45380        0.05510        6.94145
|  5> C         -2.07842        1.48042        6.56410
|  6> H         -1.62558       -0.38216        7.49891
|  7> H         -3.32527        0.08775        7.59917
|  8> F         -0.90125        1.85816        6.82810
|  9> O         -2.93658        2.17731        5.96415
| 10> H         -1.94052       -0.82114        5.05412
| 11> H         -3.61590       -0.34261        5.18514
| 12> H         -3.05063       -1.77815        6.00536
| 13> *
| 14> %MaxCore 64000
| 15>
| 16> %pal nprocs 4
| 17> end
| 18>
| 19> %scf
| 20>   MaxIter 150
| 21> end
| 22>
| 23>
| 24>                          ****END OF INPUT****

CARTESIAN COORDINATES (ANGSTROEM)
---------------------------------
  C     -2.790700   -0.785270    5.702810
  C     -2.453800    0.055100    6.941450
  C     -2.078420    1.480420    6.564100
  H     -1.625580   -0.382160    7.498910
  H     -3.325270    0.087750    7.599170
  F     -0.901250    1.858160    6.828100
  O     -2.936580    2.177310    5.964150
  H     -1.940520   -0.821140    5.054120
  H     -3.615900   -0.342610    5.185140
  H     -3.050630   -1.778150    6.005360

 Total Charge           Charge          ....    0
 Multiplicity           Mult            ....    1
 Number of Electrons    NEL             ....   40
 Basis Dimension        Dim             ....  146

ORBITAL ENERGIES
----------------

  NO   OCC          E(Eh)            E(eV)
   0   2.0000     -25.327072      -689.1847
   1   2.0000     -19.650394      -534.7144
   2   2.0000     -10.739654      -292.2408
   3   2.0000     -10.585701      -288.0516
   4   2.0000     -10.559971      -287.3514
   5   2.0000      -1.440313       -39.1929
   6   2.0000      -1.143988       -31.1295
   7   2.0000      -0.895627       -24.3712
   8   2.0000      -0.781549       -21.2670
   9   2.0000      -0.728487       -19.8231
  10   2.0000      -0.642204       -17.4753
  11   2.0000      -0.628454       -17.1011
  12   2.0000      -0.593021       -16.1369
  13   2.0000      -0.539494       -14.6804
  14   2.0000      -0.512815       -13.9544
  15   2.0000      -0.470903       -12.8139
  16   2.0000      -0.451509       -12.2862
  17   2.0000      -0.441653       -12.0180
  18   2.0000      -0.416210       -11.3256
  19   2.0000      -0.373527       -10.1642
  20   0.0000       0.007666         0.2086
  21   0.0000       0.029904         0.8137
  22   0.0000       0.059471         1.6183
  23   0.0000       0.068350         1.8599
  24   0.0000       0.092123         2.5068

MULLIKEN ATOMIC CHARGES
-----------------------
   0 C :    0.507281
   1 C :   -0.374310
   2 C :    0.814047
   3 H :    0.000233
   4 H :    0.070938
   5 F :   -0.409636
   6 O :   -0.550100
   7 H :   -0.031400
   8 H :   -0.011255
   9 H :   -0.015798
Sum of atomic charges:    0.0000000

LOEWDIN ATOMIC CHARGES
----------------------
   0 C :    0.146169
   1 C :    0.004916
   2 C :    0.011692
   3 H :    0.024043
   4 H :    0.041293
   5 F :   -0.056746
   6 O :   -0.144383
   7 H :   -0.007750
   8 H :   -0.007510
   9 H :   -0.011724

  Mayer bond orders larger than 0.100000
B(  0-C ,  1-C ) :   1.3178 B(  0-C ,  7-H ) :   0.8634 B(  0-C ,  8-H ) :   0.8476
B(  0-C ,  9-H ) :   0.8638 B(  1-C ,  2-C ) :   1.0844 B(  1-C ,  3-H ) :   0.9735
B(  1-C ,  4-H ) :   0.8953 B(  1-C ,  7-H ) :   0.1522 B(  1-C ,  8-H ) :   0.1687
B(  1-C ,  9-H ) :   0.1367 B(  2-C ,  5-F ) :   0.6805 B(  2-C ,  6-O ) :   1.7787

Dispersion correction           -0.000089563
FINAL SINGLE POINT ENERGY      -292.066399386482

DIPOLE MOMENT
-------------
                                X             Y             Z
Electronic contribution:      3.95449       7.38452       1.49481
Nuclear contribution   :     -3.69486      -8.49563      -1.04945
                        -----------------------------------------
Total Dipole Moment    :      0.25963      -1.11112       0.44536
                        -----------------------------------------
Magnitude (a.u.)       :      1.22488
Magnitude (Debye)      :      3.11340

Rotational constants in cm-1:     0.293725     0.129218     0.102393
Rotational constants in MHz :  8805.653529  3873.869810  3069.666716

                             ****ORCA TERMINATED NORMALLY****
TOTAL RUN TIME: 0 days 0 hours 0 minutes 18 seconds 45 msec
