                         Program Version 5.0.0 -  RELEASE  -
|  1> !M062X D3Zero RIJCOSX def2-SVPD def2/J TightSCF
|  2> *xyz 0 1
|  3> C         -0.69912        3.48945        3.75516
|  4> H         -0.96672        4.34901        3.14049
|  5> C         -1.08067        3.79296        5.15686
|  6> C          0.77696        3.13839        3.61741
|  7> H         -1.33146        2.65651        3.44632
|  8> H         -0.87449        4.76274        5.42734
|  9> H         -0.68079        3.13476        5.83900
| 10> H         -2.05755        3.53169        5.34620
| 11> H          0.99957        2.92898        2.59199
| 12> H          0.99576        2.27685        4.21303
| 13> H          1.37223        3.96279        3.95046
| 14> *
| 15> %MaxCore 64000
| 16>
| 17> %pal nprocs 4
| 18> end
| 19>
| 20> %scf
| 21>   MaxIter 150
| 22> end
| 23>
| 24>
| 25>                          ****END OF INPUT****

CARTESIAN COORDINATES (ANGSTROEM)
---------------------------------
  C     -0.699120    3.489450    3.755160
  H     -0.966720    4.349010    3.140490
  C     -1.080670    3.792960    5.156860
  C      0.776960    3.138390    3.617410
  H     -1.331460    2.656510    3.446320
  H     -0.874490    4.762740    5.427340
  H     -0.680790    3.134760    5.839000
  H     -2.057550    3.531690    5.346200
  H      0.999570    2.928980    2.591990
  H      0.995760    2.276850    4.213030
  H      1.372230    3.962790    3.950460

 Total Charge           Charge          ....    0
 Multiplicity           Mult            ....    1
 Number of Electrons    NEL             ....   26
 Basis Dimension        Dim             ....  124

ORBITAL ENERGIES
----------------

  NO   OCC          E(Eh)            E(eV)
   0   2.0000     -10.536902      -286.7237
   1   2.0000     -10.528540      -286.4961
   2   2.0000     -10.511561      -286.0341
   3   2.0000      -0.882152       -24.0046
   4   2.0000      -0.775933       -21.1142
   5   2.0000      -0.665141       -18.0994
   6   2.0000      -0.542937       -14.7741
   7   2.0000      -0.507708       -13.8154
   8   2.0000      -0.465508       -12.6671
   9   2.0000      -0.460899       -12.5417
  10   2.0000      -0.400460       -10.8971
  11   2.0000      -0.389040       -10.5863
  12   2.0000      -0.384771       -10.4702
  13   0.0000       0.045041         1.2256
  14   0.0000       0.070861         1.9282
  15   0.0000       0.079049         2.1510
  16   0.0000       0.110524         3.0075
  17   0.0000       0.129509         3.5241

MULLIKEN ATOMIC CHARGES
-----------------------
   0 C :   -0.592890
   1 H :   -0.119660
   2 C :    0.874448
   3 C :    0.600766
   4 H :   -0.038057
   5 H :   -0.196480
   6 H :   -0.228937
   7 H :   -0.171123
   8 H :   -0.065023
   9 H :   -0.019203
  10 H :   -0.043842
Sum of atomic charges:   -0.0000000

LOEWDIN ATOMIC CHARGES
----------------------
   0 C :   -0.117391
   1 H :    0.021343
   2 C :    0.109604
   3 C :    0.116893
   4 H :    0.020564
   5 H :   -0.025723
   6 H :   -0.034762
   7 H :   -0.036198
   8 H :   -0.022262
   9 H :   -0.016721
  10 H :   -0.015347

  Mayer bond orders larger than 0.100000
B(  0-C ,  1-H ) :   0.9847 B(  0-C ,  2-C ) :   1.2940 B(  0-C ,  3-C ) :   1.2509
B(  0-C ,  4-H ) :   0.9307 B(  0-C ,  5-H ) :   0.2222 B(  0-C ,  6-H ) :   0.1980
B(  0-C ,  7-H ) :   0.1937 B(  0-C ,  8-H ) :   0.1832 B(  0-C ,  9-H ) :   0.1507
B(  0-C , 10-H ) :   0.1760 B(  1-H ,  2-C ) :   0.1029 B(  2-C ,  4-H ) :   0.1031
B(  2-C ,  5-H ) :   0.7458 B(  2-C ,  6-H ) :   0.6848 B(  2-C ,  7-H ) :   0.6725
B(  3-C ,  8-H ) :   0.8405 B(  3-C ,  9-H ) :   0.8462 B(  3-C , 10-H ) :   0.8395
B(  6-H ,  7-H ) :   0.2437

Dispersion correction           -0.000053822
FINAL SINGLE POINT ENERGY      -118.959496873263

DIPOLE MOMENT
-------------
                                X             Y             Z
Electronic contribution:     -0.14342       0.11937      -0.39637
Nuclear contribution   :      0.10024      -0.14218       0.41628
                        -----------------------------------------
Total Dipole Moment    :     -0.04318      -0.02281       0.01992
                        -----------------------------------------
Magnitude (a.u.)       :      0.05274
Magnitude (Debye)      :      0.13405

Rotational constants in cm-1:     1.024179     0.291605     0.259489
Rotational constants in MHz : 30704.103454  8742.106283  7779.285909

                             ****ORCA TERMINATED NORMALLY****
TOTAL RUN TIME: 0 days 0 hours 0 minutes 15 seconds 469 msec
