                         Program Version 5.0.0 -  RELEASE  -
|  1> !M062X D3Zero RIJCOSX def2-SVPD def2/J TightSCF
|  2> *xyz 0 1
|  3> C         -2.79070       -0.78527        5.70281
|  4> C         -2.45380        0.05510        6.94145
|  5> C         -2.07842        1.48042        6.56410
|  6> H         -1.62558       -0.38216        7.49891
|  7> H         -3.32527        0.08775        7.59917
|  8> O         -0.90125        1.85816        6.82810
|  9> F         -2.93658        2.17731        5.96415
| 10> H         -1.94052       -0.82114        5.05412
| 11> H         -3.61590       -0.34261        5.18514
| 12> H         -3.05063       -1.77815        6.00536
| 13> *
| 14> %MaxCore 64000
| 15>
| 16> %pal nprocs 4
| 17> end
| 18>
| 19> %scf
| 20>   MaxIter 150
| 21> end
| 22>
| 23>
| 24>                          ****END OF INPUT****

CARTESIAN COORDINATES (ANGSTROEM)
---------------------------------
  C     -2.790700   -0.785270    5.702810
  C     -2.453800    0.055100    6.941450
  C     -2.078420    1.480420    6.564100
  H     -1.625580   -0.382160    7.498910
  H     -3.325270    0.087750    7.599170
  O     -0.901250    1.858160    6.828100
  F     -2.936580    2.177310    5.964150
  H     -1.940520   -0.821140    5.054120
  H     -3.615900   -0.342610    5.185140
  H     -3.050630   -1.778150    6.005360

 Total Charge           Charge          ....    0
 Multiplicity           Mult            ....    1
 Number of Electrons    NEL             ....   40
 Basis Dimension        Dim             ....  146

ORBITAL ENERGIES
----------------

  NO   OCC          E(Eh)            E(eV)
   0   2.0000     -25.330421      -689.2758
   1   2.0000     -19.648565      -534.6646
   2   2.0000     -10.739371      -292.2331
   3   2.0000     -10.585391      -288.0431
   4   2.0000     -10.563997      -287.4610
   5   2.0000      -1.445722       -39.3401
   6   2.0000      -1.139100       -30.9965
   7   2.0000      -0.898866       -24.4594
   8   2.0000      -0.779497       -21.2112
   9   2.0000      -0.735022       -20.0010
  10   2.0000      -0.646731       -17.5985
  11   2.0000      -0.635958       -17.3053
  12   2.0000      -0.585840       -15.9415
  13   2.0000      -0.540204       -14.6997
  14   2.0000      -0.512471       -13.9451
  15   2.0000      -0.474190       -12.9034
  16   2.0000      -0.455922       -12.4063
  17   2.0000      -0.443638       -12.0720
  18   2.0000      -0.418112       -11.3774
  19   2.0000      -0.367297        -9.9947
  20   0.0000       0.010510         0.2860
  21   0.0000       0.028972         0.7884
  22   0.0000       0.060053         1.6341
  23   0.0000       0.066723         1.8156
  24   0.0000       0.092548         2.5184

MULLIKEN ATOMIC CHARGES
-----------------------
   0 C :    0.491433
   1 C :   -0.349101
   2 C :    0.829782
   3 H :   -0.015675
   4 H :    0.061721
   5 O :   -0.538278
   6 F :   -0.422389
   7 H :   -0.027994
   8 H :   -0.017311
   9 H :   -0.012188
Sum of atomic charges:   -0.0000000

LOEWDIN ATOMIC CHARGES
----------------------
   0 C :    0.141213
   1 C :    0.008101
   2 C :    0.007798
   3 H :    0.035206
   4 H :    0.036053
   5 O :   -0.150435
   6 F :   -0.048474
   7 H :   -0.005789
   8 H :   -0.012455
   9 H :   -0.011218

  Mayer bond orders larger than 0.100000
B(  0-C ,  1-C ) :   1.2927 B(  0-C ,  7-H ) :   0.8773 B(  0-C ,  8-H ) :   0.8373
B(  0-C ,  9-H ) :   0.8704 B(  1-C ,  2-C ) :   1.0567 B(  1-C ,  3-H ) :   1.0037
B(  1-C ,  4-H ) :   0.8931 B(  1-C ,  7-H ) :   0.1491 B(  1-C ,  8-H ) :   0.1604
B(  1-C ,  9-H ) :   0.1365 B(  2-C ,  3-H ) :   0.1273 B(  2-C ,  5-O ) :   1.7625
B(  2-C ,  6-F ) :   0.6712

Dispersion correction           -0.000092382
FINAL SINGLE POINT ENERGY      -292.063980426011

DIPOLE MOMENT
-------------
                                X             Y             Z
Electronic contribution:      0.56956       7.89455       0.06141
Nuclear contribution   :     -1.47571      -8.84360      -0.10748
                        -----------------------------------------
Total Dipole Moment    :     -0.90615      -0.94906      -0.04606
                        -----------------------------------------
Magnitude (a.u.)       :      1.31299
Magnitude (Debye)      :      3.33735

Rotational constants in cm-1:     0.283081     0.133379     0.103386
Rotational constants in MHz :  8486.545774  3998.599544  3099.448040

                             ****ORCA TERMINATED NORMALLY****
TOTAL RUN TIME: 0 days 0 hours 0 minutes 17 seconds 984 msec
