                         Program Version 5.0.0 -  RELEASE  -
|  1> !M062X D3Zero RIJCOSX def2-SVPD def2/J TightSCF xyzfile
|  2>
|  3> *xyzfile 0 1 D1.xyz
|  4>
|  5> %MaxCore 64000
|  6>
|  7> %pal nprocs 4
|  8> end
|  9>
| 10> %scf
| 11>   MaxIter 150
| 12> end
| 13>
| 14>
| 15>                          ****END OF INPUT****

CARTESIAN COORDINATES (ANGSTROEM)
---------------------------------
  C     -0.699123    3.489451    3.755163
  H     -0.966716    4.349013    3.140491
  C     -1.080669    3.792957    5.156857
  C      0.776956    3.138391    3.617408
  H     -1.331455    2.656510    3.446323
  H      1.371398    3.888342    4.149744
  H      1.046926    3.232057    2.561331
  C      1.118917    1.731170    4.115155
  H      2.200573    1.654226    4.254882
  C      0.659466    0.635182    3.153306
  H      0.677024    1.576674    5.103150
  H      1.312288    0.638870    2.274207
  H     -0.339563    0.868049    2.772876
  C      0.639957   -0.771175    3.755619
  C     -0.341821   -0.965537    4.915046
  H      1.648266   -1.028665    4.097015
  H      0.398568   -1.482386    2.958453
  H     -0.279892   -2.005646    5.252547
  C     -1.789164   -0.639231    4.557496
  H     -0.032380   -0.352918    5.765118
  H     -2.107151   -1.270102    3.719619
  H     -1.856352    0.391636    4.197604
  C     -2.790700   -0.785275    5.702812
  H     -2.867308   -1.835651    6.001675
  H     -3.774554   -0.486577    5.334807
  C     -2.453797    0.055101    6.941445
  C     -2.078419    1.480421    6.564098
  H     -1.625584   -0.382163    7.498914
  H     -3.325274    0.087746    7.599175
  H     -0.874488    4.762737    5.427344
  H     -0.680793    3.134762    5.839000
  H     -2.057550    3.531691    5.346197
  F     -0.901252    1.858156    6.828104
  O     -2.936582    2.177309    5.964151

 Total Charge           Charge          ....    0
 Multiplicity           Mult            ....    1
 Number of Electrons    NEL             ....  104
 Basis Dimension        Dim             ....  434

ORBITAL ENERGIES
----------------

  NO   OCC          E(Eh)            E(eV)
   0   2.0000     -25.337358      -689.4646
   1   2.0000     -19.656614      -534.8837
   2   2.0000     -10.749877      -292.5190
   3   2.0000     -10.586328      -288.0686
   4   2.0000     -10.569002      -287.5972
   5   2.0000     -10.554136      -287.1926
   6   2.0000     -10.551250      -287.1141
   7   2.0000     -10.545624      -286.9610
   8   2.0000     -10.538477      -286.7665
   9   2.0000     -10.535782      -286.6932
  10   2.0000     -10.528217      -286.4874
  11   2.0000     -10.518608      -286.2259
  12   2.0000     -10.466389      -284.8049
  13   2.0000      -1.456172       -39.6244
  14   2.0000      -1.157484       -31.4967
  15   2.0000      -0.925744       -25.1908
  16   2.0000      -0.900909       -24.5150
  17   2.0000      -0.868803       -23.6413
  18   2.0000      -0.839720       -22.8499
  19   2.0000      -0.796345       -21.6696
  20   2.0000      -0.774030       -21.0624
  21   2.0000      -0.746454       -20.3121
  22   2.0000      -0.706889       -19.2354
  23   2.0000      -0.691510       -18.8169
  24   2.0000      -0.656583       -17.8665
  25   2.0000      -0.645951       -17.5772
  26   2.0000      -0.641095       -17.4451
  27   2.0000      -0.619213       -16.8496
  28   2.0000      -0.598408       -16.2835
  29   2.0000      -0.553966       -15.0742
  30   2.0000      -0.549159       -14.9434
  31   2.0000      -0.531986       -14.4761
  32   2.0000      -0.528823       -14.3900
  33   2.0000      -0.505484       -13.7549
  34   2.0000      -0.502580       -13.6759
  35   2.0000      -0.485137       -13.2012
  36   2.0000      -0.475025       -12.9261
  37   2.0000      -0.466180       -12.6854
  38   2.0000      -0.456440       -12.4204
  39   2.0000      -0.447542       -12.1782
  40   2.0000      -0.432816       -11.7775
  41   2.0000      -0.427031       -11.6201
  42   2.0000      -0.414468       -11.2783
  43   2.0000      -0.406850       -11.0709
  44   2.0000      -0.402443       -10.9510
  45   2.0000      -0.389762       -10.6060
  46   2.0000      -0.384378       -10.4594
  47   2.0000      -0.373165       -10.1543
  48   2.0000      -0.369887       -10.0651
  49   2.0000      -0.357290        -9.7224
  50   2.0000      -0.356572        -9.7028
  51   2.0000      -0.333743        -9.0816
  52   0.0000      -0.003625        -0.0986
  53   0.0000       0.030248         0.8231
  54   0.0000       0.046411         1.2629
  55   0.0000       0.049597         1.3496
  56   0.0000       0.054836         1.4922

MULLIKEN ATOMIC CHARGES
-----------------------
   0 C :    0.063855
   1 H :   -0.343535
   2 C :    2.143333
   3 C :    0.596226
   4 H :   -0.264746
   5 H :   -0.105126
   6 H :   -0.131906
   7 C :    0.768858
   8 H :   -0.017773
   9 C :    0.064006
  10 H :   -0.862643
  11 H :   -0.279023
  12 H :   -0.131154
  13 C :    0.755830
  14 C :    0.032379
  15 H :   -0.150180
  16 H :    0.033823
  17 H :   -0.334742
  18 C :    0.450220
  19 H :   -0.044856
  20 H :   -0.085406
  21 H :   -0.669179
  22 C :    0.480271
  23 H :   -0.190357
  24 H :    0.081525
  25 C :    0.319961
  26 C :    0.606030
  27 H :    0.164792
  28 H :   -0.176004
  29 H :   -0.293477
  30 H :   -0.929616
  31 H :   -0.331067
  32 F :   -0.606261
  33 O :   -0.614055
Sum of atomic charges:    0.0000000

LOEWDIN ATOMIC CHARGES
----------------------
   0 C :   -0.037429
   1 H :    0.022622
   2 C :    0.138551
   3 C :   -0.026732
   4 H :    0.003460
   5 H :    0.024918
   6 H :    0.017796
   7 C :   -0.013502
   8 H :    0.025752
   9 C :   -0.031369
  10 H :   -0.016722
  11 H :    0.025629
  12 H :   -0.000131
  13 C :   -0.027800
  14 C :   -0.027729
  15 H :    0.024177
  16 H :    0.023294
  17 H :    0.027213
  18 C :   -0.021911
  19 H :   -0.005304
  20 H :    0.035073
  21 H :   -0.001753
  22 C :   -0.006505
  23 H :    0.028608
  24 H :    0.031860
  25 C :    0.060718
  26 C :    0.058730
  27 H :    0.025700
  28 H :    0.042876
  29 H :   -0.017497
  30 H :   -0.096375
  31 H :   -0.097378
  32 F :   -0.067295
  33 O :   -0.121545

  Mayer bond orders larger than 0.100000
B(  0-C ,  1-H ) :   0.9087 B(  0-C ,  2-C ) :   0.6944 B(  0-C ,  3-C ) :   1.1602
B(  0-C ,  4-H ) :   0.7310 B(  0-C ,  5-H ) :   0.1337 B(  0-C ,  6-H ) :   0.1656
B(  0-C ,  7-C ) :   0.2284 B(  0-C , 10-H ) :  -0.1927 B(  0-C , 18-C ) :   0.1013
B(  0-C , 29-H ) :   0.1260 B(  0-C , 30-H ) :   0.6940 B(  0-C , 31-H ) :   0.3724
B(  1-H ,  2-C ) :  -0.1011 B(  1-H ,  5-H ) :   0.1239 B(  1-H ,  8-H ) :   0.1136
B(  1-H , 30-H ) :   0.1328 B(  2-C ,  3-C ) :   0.1068 B(  2-C ,  4-H ) :   0.2054
B(  2-C , 29-H ) :   0.5471 B(  2-C , 30-H ) :  -0.7824 B(  2-C , 31-H ) :   0.2215
B(  2-C , 32-F ) :  -0.1769 B(  3-C ,  4-H ) :   0.1128 B(  3-C ,  5-H ) :   0.6912
B(  3-C ,  6-H ) :   0.7430 B(  3-C ,  7-C ) :   1.1776 B(  3-C , 10-H ) :   0.1607
B(  3-C , 13-C ) :   0.1049 B(  3-C , 30-H ) :  -0.1753 B(  4-H ,  7-C ) :  -0.1277
B(  4-H , 10-H ) :   0.1249 B(  4-H , 12-H ) :   0.1221 B(  4-H , 21-H ) :   0.2340
B(  5-H ,  6-H ) :  -0.1773 B(  5-H ,  7-C ) :   0.1557 B(  5-H , 10-H ) :   0.1350
B(  6-H ,  8-H ) :   0.1000 B(  7-C ,  8-H ) :   0.6885 B(  7-C ,  9-C ) :   1.0736
B(  7-C , 10-H ) :   0.3487 B(  7-C , 11-H ) :   0.2079 B(  8-H ,  9-C ) :   0.2012
B(  9-C , 10-H ) :   0.2748 B(  9-C , 11-H ) :   0.9084 B(  9-C , 12-H ) :   0.9225
B(  9-C , 13-C ) :   1.1777 B(  9-C , 14-C ) :   0.1291 B(  9-C , 15-H ) :   0.1186
B(  9-C , 16-H ) :   0.2394 B( 10-H , 12-H ) :   0.1021 B( 10-H , 13-C ) :  -0.1249
B( 10-H , 19-H ) :   0.1503 B( 10-H , 30-H ) :   0.1588 B( 10-H , 32-F ) :   0.1047
B( 12-H , 21-H ) :   0.1058 B( 13-C , 14-C ) :   1.1367 B( 13-C , 15-H ) :   0.6778
B( 13-C , 16-H ) :   0.6875 B( 14-C , 15-H ) :   0.2953 B( 14-C , 17-H ) :   0.9696
B( 14-C , 18-C ) :   1.1151 B( 14-C , 19-H ) :   0.8668 B( 14-C , 20-H ) :   0.1657
B( 14-C , 21-H ) :   0.2743 B( 15-H , 16-H ) :  -0.1716 B( 17-H , 18-C ) :   0.1388
B( 18-C , 20-H ) :   0.7018 B( 18-C , 21-H ) :   0.6327 B( 18-C , 22-C ) :   1.2462
B( 18-C , 23-H ) :   0.1521 B( 18-C , 24-H ) :   0.2478 B( 18-C , 25-C ) :   0.1261
B( 21-H , 22-C ) :   0.1165 B( 22-C , 23-H ) :   0.8194 B( 22-C , 24-H ) :   0.6814
B( 22-C , 25-C ) :   1.1240 B( 22-C , 28-H ) :   0.1597 B( 23-H , 24-H ) :  -0.1842
B( 23-H , 25-C ) :   0.1191 B( 25-C , 26-C ) :   1.2277 B( 25-C , 27-H ) :   0.7851
B( 25-C , 28-H ) :   0.6752 B( 26-C , 27-H ) :   0.1592 B( 26-C , 28-H ) :   0.3049
B( 26-C , 30-H ) :   0.1362 B( 26-C , 32-F ) :   0.5293 B( 26-C , 33-O ) :   1.6011
B( 29-H , 30-H ) :   0.1849 B( 29-H , 31-H ) :  -0.1194 B( 30-H , 31-H ) :   0.3811
B( 30-H , 32-F ) :   0.3121 B( 31-H , 33-O ) :   0.1886

Dispersion correction           -0.002041392
FINAL SINGLE POINT ENERGY      -606.135661306590

DIPOLE MOMENT
-------------
                                X             Y             Z
Electronic contribution:     -5.47135       2.46666      10.83167
Nuclear contribution   :      5.54676      -3.70047     -10.28793
                        -----------------------------------------
Total Dipole Moment    :      0.07540      -1.23381       0.54374
                        -----------------------------------------
Magnitude (a.u.)       :      1.35042
Magnitude (Debye)      :      3.43249

Rotational constants in cm-1:     0.028503     0.023389     0.015214
Rotational constants in MHz :   854.502405   701.197575   456.108322

                             ****ORCA TERMINATED NORMALLY****
TOTAL RUN TIME: 0 days 0 hours 3 minutes 7 seconds 227 msec
