                         Program Version 5.0.0 -  RELEASE  -
|  1> !M062X D3Zero RIJCOSX def2-SVPD def2/J TightSCF xyzfile
|  2>
|  3> *xyzfile 0 1 D2.xyz
|  4>
|  5> %MaxCore 64000
|  6>
|  7> %pal nprocs 4
|  8> end
|  9>
| 10> %scf
| 11>   MaxIter 150
| 12> end
| 13>
| 14>
| 15>                          ****END OF INPUT****

CARTESIAN COORDINATES (ANGSTROEM)
---------------------------------
  C     -0.699123    3.489451    3.755163
  H     -0.966716    4.349013    3.140491
  C     -1.080669    3.792957    5.156857
  C      0.776956    3.138391    3.617408
  H     -1.331455    2.656510    3.446323
  H      1.371398    3.888342    4.149744
  H      1.046926    3.232057    2.561331
  C      1.118917    1.731170    4.115155
  H      2.200573    1.654226    4.254882
  C      0.659466    0.635182    3.153306
  H      0.677024    1.576674    5.103150
  H      1.312288    0.638870    2.274207
  H     -0.339563    0.868049    2.772876
  C      0.639957   -0.771175    3.755619
  C     -0.341821   -0.965537    4.915046
  H      1.648266   -1.028665    4.097015
  H      0.398568   -1.482386    2.958453
  H     -0.279892   -2.005646    5.252547
  C     -1.789164   -0.639231    4.557496
  H     -0.032380   -0.352918    5.765118
  H     -2.107151   -1.270102    3.719619
  H     -1.856352    0.391636    4.197604
  C     -2.790700   -0.785275    5.702812
  H     -2.867308   -1.835651    6.001675
  H     -3.774554   -0.486577    5.334807
  C     -2.453797    0.055101    6.941445
  C     -2.078419    1.480421    6.564098
  H     -1.625584   -0.382163    7.498914
  H     -3.325274    0.087746    7.599175
  H     -0.874488    4.762737    5.427344
  H     -0.680793    3.134762    5.839000
  H     -2.057550    3.531691    5.346197
  O     -0.901252    1.858156    6.828104
  F     -2.936582    2.177309    5.964151

 Total Charge           Charge          ....    0
 Multiplicity           Mult            ....    1
 Number of Electrons    NEL             ....  104
 Basis Dimension        Dim             ....  434

ORBITAL ENERGIES
----------------

  NO   OCC          E(Eh)            E(eV)
   0   2.0000     -25.340866      -689.5600
   1   2.0000     -19.656668      -534.8851
   2   2.0000     -10.751520      -292.5637
   3   2.0000     -10.586862      -288.0832
   4   2.0000     -10.572408      -287.6898
   5   2.0000     -10.556543      -287.2581
   6   2.0000     -10.545794      -286.9657
   7   2.0000     -10.541586      -286.8511
   8   2.0000     -10.534364      -286.6546
   9   2.0000     -10.527482      -286.4674
  10   2.0000     -10.524774      -286.3937
  11   2.0000     -10.518413      -286.2206
  12   2.0000     -10.465061      -284.7688
  13   2.0000      -1.459841       -39.7243
  14   2.0000      -1.157078       -31.4857
  15   2.0000      -0.927119       -25.2282
  16   2.0000      -0.897996       -24.4357
  17   2.0000      -0.867100       -23.5950
  18   2.0000      -0.838127       -22.8066
  19   2.0000      -0.792417       -21.5628
  20   2.0000      -0.772863       -21.0307
  21   2.0000      -0.748092       -20.3566
  22   2.0000      -0.702704       -19.1216
  23   2.0000      -0.691067       -18.8049
  24   2.0000      -0.659064       -17.9341
  25   2.0000      -0.651409       -17.7257
  26   2.0000      -0.639998       -17.4152
  27   2.0000      -0.615356       -16.7447
  28   2.0000      -0.594546       -16.1784
  29   2.0000      -0.556849       -15.1526
  30   2.0000      -0.550024       -14.9669
  31   2.0000      -0.530528       -14.4364
  32   2.0000      -0.524272       -14.2662
  33   2.0000      -0.500287       -13.6135
  34   2.0000      -0.495381       -13.4800
  35   2.0000      -0.491086       -13.3631
  36   2.0000      -0.474722       -12.9178
  37   2.0000      -0.468804       -12.7568
  38   2.0000      -0.455983       -12.4079
  39   2.0000      -0.442170       -12.0321
  40   2.0000      -0.439076       -11.9479
  41   2.0000      -0.430997       -11.7280
  42   2.0000      -0.414690       -11.2843
  43   2.0000      -0.405587       -11.0366
  44   2.0000      -0.399327       -10.8663
  45   2.0000      -0.388953       -10.5839
  46   2.0000      -0.381227       -10.3737
  47   2.0000      -0.371367       -10.1054
  48   2.0000      -0.364767        -9.9258
  49   2.0000      -0.353977        -9.6322
  50   2.0000      -0.353276        -9.6131
  51   2.0000      -0.325132        -8.8473
  52   0.0000      -0.001665        -0.0453
  53   0.0000       0.027155         0.7389
  54   0.0000       0.046674         1.2701
  55   0.0000       0.049958         1.3594
  56   0.0000       0.054452         1.4817

MULLIKEN ATOMIC CHARGES
-----------------------
   0 C :    0.030797
   1 H :   -0.330098
   2 C :    2.145886
   3 C :    0.586279
   4 H :   -0.247240
   5 H :   -0.101649
   6 H :   -0.137709
   7 C :    0.831748
   8 H :   -0.001597
   9 C :    0.055370
  10 H :   -0.922592
  11 H :   -0.285309
  12 H :   -0.131013
  13 C :    0.766760
  14 C :    0.037042
  15 H :   -0.147978
  16 H :    0.028633
  17 H :   -0.327941
  18 C :    0.463561
  19 H :   -0.036763
  20 H :   -0.105478
  21 H :   -0.665525
  22 C :    0.469884
  23 H :   -0.190538
  24 H :    0.050036
  25 C :    0.340029
  26 C :    0.670632
  27 H :    0.138514
  28 H :   -0.148165
  29 H :   -0.284056
  30 H :   -0.839203
  31 H :   -0.464046
  32 O :   -0.727361
  33 F :   -0.520912
Sum of atomic charges:   -0.0000000

LOEWDIN ATOMIC CHARGES
----------------------
   0 C :   -0.041439
   1 H :    0.019780
   2 C :    0.138272
   3 C :   -0.024349
   4 H :   -0.000105
   5 H :    0.026021
   6 H :    0.016823
   7 C :   -0.008211
   8 H :    0.026088
   9 C :   -0.032407
  10 H :   -0.016654
  11 H :    0.024450
  12 H :   -0.002116
  13 C :   -0.027640
  14 C :   -0.022815
  15 H :    0.024689
  16 H :    0.021721
  17 H :    0.027002
  18 C :   -0.023370
  19 H :   -0.002066
  20 H :    0.034152
  21 H :   -0.002512
  22 C :   -0.013916
  23 H :    0.028970
  24 H :    0.026494
  25 C :    0.065036
  26 C :    0.063309
  27 H :    0.036293
  28 H :    0.038588
  29 H :   -0.016736
  30 H :   -0.125508
  31 H :   -0.074876
  32 O :   -0.138718
  33 F :   -0.044254

  Mayer bond orders larger than 0.100000
B(  0-C ,  1-H ) :   0.9080 B(  0-C ,  2-C ) :   0.6712 B(  0-C ,  3-C ) :   1.1750
B(  0-C ,  4-H ) :   0.7339 B(  0-C ,  5-H ) :   0.1511 B(  0-C ,  6-H ) :   0.1656
B(  0-C ,  7-C ) :   0.2320 B(  0-C , 10-H ) :  -0.1876 B(  0-C , 29-H ) :   0.1186
B(  0-C , 30-H ) :   0.6969 B(  0-C , 31-H ) :   0.3974 B(  1-H ,  5-H ) :   0.1285
B(  1-H ,  8-H ) :   0.1105 B(  1-H , 30-H ) :   0.1130 B(  2-C ,  3-C ) :   0.1095
B(  2-C ,  4-H ) :   0.1918 B(  2-C , 29-H ) :   0.5522 B(  2-C , 30-H ) :  -0.5604
B(  2-C , 32-O ) :  -0.1084 B(  3-C ,  4-H ) :   0.1176 B(  3-C ,  5-H ) :   0.6862
B(  3-C ,  6-H ) :   0.7331 B(  3-C ,  7-C ) :   1.1748 B(  3-C , 10-H ) :   0.1745
B(  3-C , 13-C ) :   0.1018 B(  3-C , 30-H ) :  -0.1927 B(  4-H ,  7-C ) :  -0.1330
B(  4-H , 10-H ) :   0.1266 B(  4-H , 12-H ) :   0.1186 B(  4-H , 21-H ) :   0.2314
B(  5-H ,  6-H ) :  -0.1785 B(  5-H ,  7-C ) :   0.1543 B(  5-H , 10-H ) :   0.1321
B(  6-H ,  7-C ) :   0.1120 B(  6-H ,  8-H ) :   0.1040 B(  7-C ,  8-H ) :   0.6764
B(  7-C ,  9-C ) :   1.0589 B(  7-C , 10-H ) :   0.2741 B(  7-C , 11-H ) :   0.1955
B(  8-H ,  9-C ) :   0.1947 B(  9-C , 10-H ) :   0.2890 B(  9-C , 11-H ) :   0.9151
B(  9-C , 12-H ) :   0.9210 B(  9-C , 13-C ) :   1.1796 B(  9-C , 14-C ) :   0.1270
B(  9-C , 15-H ) :   0.1178 B(  9-C , 16-H ) :   0.2389 B( 10-H , 12-H ) :   0.1099
B( 10-H , 13-C ) :  -0.1403 B( 10-H , 19-H ) :   0.1655 B( 10-H , 30-H ) :   0.1572
B( 10-H , 32-O ) :   0.1153 B( 12-H , 21-H ) :   0.1069 B( 13-C , 14-C ) :   1.1320
B( 13-C , 15-H ) :   0.6789 B( 13-C , 16-H ) :   0.6867 B( 14-C , 15-H ) :   0.2948
B( 14-C , 17-H ) :   0.9569 B( 14-C , 18-C ) :   1.1206 B( 14-C , 19-H ) :   0.8745
B( 14-C , 20-H ) :   0.1654 B( 14-C , 21-H ) :   0.2853 B( 15-H , 16-H ) :  -0.1734
B( 17-H , 18-C ) :   0.1436 B( 18-C , 19-H ) :   0.1039 B( 18-C , 20-H ) :   0.7044
B( 18-C , 21-H ) :   0.6041 B( 18-C , 22-C ) :   1.2312 B( 18-C , 23-H ) :   0.1488
B( 18-C , 24-H ) :   0.2507 B( 18-C , 25-C ) :   0.1091 B( 20-H , 21-H ) :   0.1162
B( 21-H , 22-C ) :   0.1100 B( 22-C , 23-H ) :   0.8250 B( 22-C , 24-H ) :   0.6801
B( 22-C , 25-C ) :   1.1218 B( 22-C , 28-H ) :   0.1575 B( 23-H , 24-H ) :  -0.1855
B( 23-H , 25-C ) :   0.1179 B( 25-C , 26-C ) :   1.1767 B( 25-C , 27-H ) :   0.8121
B( 25-C , 28-H ) :   0.6765 B( 26-C , 27-H ) :   0.1430 B( 26-C , 28-H ) :   0.2915
B( 26-C , 31-H ) :   0.1029 B( 26-C , 32-O ) :   1.6170 B( 26-C , 33-F ) :   0.4520
B( 29-H , 30-H ) :   0.1999 B( 29-H , 31-H ) :  -0.1220 B( 30-H , 31-H ) :   0.4505
B( 30-H , 32-O ) :   0.1784 B( 31-H , 33-F ) :   0.2254 B( 32-O , 33-F ) :   0.1127

Dispersion correction           -0.002042385
FINAL SINGLE POINT ENERGY      -606.134054666297

DIPOLE MOMENT
-------------
                                X             Y             Z
Electronic contribution:     -8.94358       2.99470       9.45573
Nuclear contribution   :      8.07181      -4.09641      -9.21610
                        -----------------------------------------
Total Dipole Moment    :     -0.87177      -1.10171       0.23963
                        -----------------------------------------
Magnitude (a.u.)       :      1.42520
Magnitude (Debye)      :      3.62256

Rotational constants in cm-1:     0.028400     0.023377     0.015073
Rotational constants in MHz :   851.414727   700.831775   451.871218

                             ****ORCA TERMINATED NORMALLY****
TOTAL RUN TIME: 0 days 0 hours 3 minutes 7 seconds 520 msec
