                         Program Version 5.0.0 -  RELEASE  -
|  1> !LC-PBE RIJCOSX def2-TZVPD def2/J TightSCF
|  2> *xyz -1 1
|  3> C          0.84888        2.66797       -4.30235
|  4> C          2.09343        1.86104       -4.65684
|  5> H          2.44481        2.04157       -5.67499
|  6> H          2.90175        2.13786       -3.98034
|  7> S          1.87964        0.07859       -4.46297
|  8> O          3.20757       -0.46611       -4.42026
|  9> O          1.07506       -0.05616       -3.26876
| 10> O          1.13166       -0.31996       -5.67903
| 11> H          0.05064        2.40112       -4.96303
| 12> H          1.06043        3.71210       -4.40203
| 13> H          0.56237        2.45684       -3.29327
| 14> *
| 15>
| 16> %MaxCore 64000
| 17>
| 18> %pal nprocs 4
| 19> end
| 20>
| 21> %scf
| 22>   MaxIter 150
| 23> end
| 24>
| 25>
| 26>                          ****END OF INPUT****

CARTESIAN COORDINATES (ANGSTROEM)
---------------------------------
  C      0.848880    2.667970   -4.302350
  C      2.093430    1.861040   -4.656840
  H      2.444810    2.041570   -5.674990
  H      2.901750    2.137860   -3.980340
  S      1.879640    0.078590   -4.462970
  O      3.207570   -0.466110   -4.420260
  O      1.075060   -0.056160   -3.268760
  O      1.131660   -0.319960   -5.679030
  H      0.050640    2.401120   -4.963030
  H      1.060430    3.712100   -4.402030
  H      0.562370    2.456840   -3.293270

 Total Charge           Charge          ....   -1
 Multiplicity           Mult            ....    1
 Number of Electrons    NEL             ....   58
 Basis Dimension        Dim             ....  285

ORBITAL ENERGIES
----------------

  NO   OCC          E(Eh)            E(eV)
   0   2.0000     -88.270507     -2401.9626
   1   2.0000     -18.761856      -510.5361
   2   2.0000     -18.758253      -510.4380
   3   2.0000     -18.745329      -510.0863
   4   2.0000      -9.975611      -271.4502
   5   2.0000      -9.965653      -271.1792
   6   2.0000      -7.881460      -214.4654
   7   2.0000      -5.898457      -160.5052
   8   2.0000      -5.896830      -160.4609
   9   2.0000      -5.896487      -160.4516
  10   2.0000      -1.102817       -30.0092
  11   2.0000      -0.960896       -26.1473
  12   2.0000      -0.935116       -25.4458
  13   2.0000      -0.808651       -22.0045
  14   2.0000      -0.668517       -18.1913
  15   2.0000      -0.532995       -14.5035
  16   2.0000      -0.468035       -12.7359
  17   2.0000      -0.462495       -12.5851
  18   2.0000      -0.421421       -11.4675
  19   2.0000      -0.409150       -11.1335
  20   2.0000      -0.395482       -10.7616
  21   2.0000      -0.363414        -9.8890
  22   2.0000      -0.343799        -9.3552
  23   2.0000      -0.296484        -8.0677
  24   2.0000      -0.295177        -8.0322
  25   2.0000      -0.256429        -6.9778
  26   2.0000      -0.243211        -6.6181
  27   2.0000      -0.231173        -6.2905
  28   2.0000      -0.200206        -5.4479
  29   0.0000       0.171888         4.6773
  30   0.0000       0.181532         4.9397
  31   0.0000       0.182560         4.9677
  32   0.0000       0.190080         5.1723
  33   0.0000       0.217686         5.9235

MULLIKEN ATOMIC CHARGES
-----------------------
   0 C :   -1.162049
   1 C :   -0.642487
   2 H :    0.371588
   3 H :    0.361766
   4 S :    1.066141
   5 O :   -0.659576
   6 O :   -0.677673
   7 O :   -0.713726
   8 H :    0.319786
   9 H :    0.371684
  10 H :    0.364547
Sum of atomic charges:   -1.0000000

LOEWDIN ATOMIC CHARGES
----------------------
   0 C :   -0.173329
   1 C :   -0.342947
   2 H :    0.094389
   3 H :    0.088799
   4 S :    0.319669
   5 O :   -0.380812
   6 O :   -0.382800
   7 O :   -0.417286
   8 H :    0.072154
   9 H :    0.058134
  10 H :    0.064031

  Mayer bond orders larger than 0.100000
B(  0-C ,  1-C ) :   0.5902 B(  0-C ,  8-H ) :   0.9669 B(  0-C ,  9-H ) :   0.8969
B(  0-C , 10-H ) :   0.9351 B(  1-C ,  2-H ) :   0.9044 B(  1-C ,  3-H ) :   0.9105
B(  1-C ,  4-S ) :   0.9290 B(  1-C ,  5-O ) :   0.1105 B(  1-C ,  7-O ) :   0.1096
B(  4-S ,  5-O ) :   1.5257 B(  4-S ,  6-O ) :   1.5085 B(  4-S ,  7-O ) :   1.4726

FINAL SINGLE POINT ENERGY      -702.107744196131

DIPOLE MOMENT
-------------
                                X             Y             Z
Electronic contribution:      1.62288      -7.61159       0.05791
Nuclear contribution   :     -1.55288       9.51857       0.00420
                        -----------------------------------------
Total Dipole Moment    :      0.07000       1.90698       0.06212
                        -----------------------------------------
Magnitude (a.u.)       :      1.90928
Magnitude (Debye)      :      4.85299

Rotational constants in cm-1:     0.163401     0.083833     0.082462
Rotational constants in MHz :  4898.624208  2513.264548  2472.149188

                             ****ORCA TERMINATED NORMALLY****
TOTAL RUN TIME: 0 days 0 hours 0 minutes 53 seconds 507 msec
