                         Program Version 5.0.0 -  RELEASE  -
|  1> !LC-PBE RIJCOSX def2-TZVPD def2/J TightSCF
|  2> *xyz 1 1
|  3> C         -0.46129        2.23469       -4.98962
|  4> C          0.84888        2.66797       -4.30235
|  5> C         -0.42384        2.39877       -6.47432
|  6> N         -0.95947        3.49265       -7.00740
|  7> N          0.14558        1.48689       -7.20399
|  8> H          0.56537        0.69681       -6.72386
|  9> H          0.22068        1.58177       -8.20752
| 10> H         -1.40624        4.18151       -6.40326
| 11> H         -0.93421        3.68160       -7.99947
| 12> H         -1.28888        2.82674       -4.59500
| 13> H         -0.65170        1.18634       -4.75655
| 14> H          1.66208        2.08894       -4.68750
| 15> H          0.76716        2.51042       -3.24717
| 16> H          1.02677        3.70527       -4.49537
| 17> *
| 18>
| 19> %MaxCore 64000
| 20>
| 21> %pal nprocs 4
| 22> end
| 23>
| 24> %scf
| 25>   MaxIter 150
| 26> end
| 27>
| 28>
| 29>                          ****END OF INPUT****

CARTESIAN COORDINATES (ANGSTROEM)
---------------------------------
  C     -0.461290    2.234690   -4.989620
  C      0.848880    2.667970   -4.302350
  C     -0.423840    2.398770   -6.474320
  N     -0.959470    3.492650   -7.007400
  N      0.145580    1.486890   -7.203990
  H      0.565370    0.696810   -6.723860
  H      0.220680    1.581770   -8.207520
  H     -1.406240    4.181510   -6.403260
  H     -0.934210    3.681600   -7.999470
  H     -1.288880    2.826740   -4.595000
  H     -0.651700    1.186340   -4.756550
  H      1.662080    2.088940   -4.687500
  H      0.767160    2.510420   -3.247170
  H      1.026770    3.705270   -4.495370

 Total Charge           Charge          ....    1
 Multiplicity           Mult            ....    1
 Number of Electrons    NEL             ....   40
 Basis Dimension        Dim             ....  266

ORBITAL ENERGIES
----------------

  NO   OCC          E(Eh)            E(eV)
   0   2.0000     -14.462199      -393.5364
   1   2.0000     -14.457888      -393.4191
   2   2.0000     -10.447096      -284.2799
   3   2.0000     -10.314959      -280.6843
   4   2.0000     -10.268405      -279.4175
   5   2.0000      -1.383400       -37.6442
   6   2.0000      -1.278540       -34.7908
   7   2.0000      -1.146851       -31.2074
   8   2.0000      -1.023981       -27.8639
   9   2.0000      -0.974153       -26.5080
  10   2.0000      -0.926911       -25.2225
  11   2.0000      -0.901445       -24.5296
  12   2.0000      -0.839783       -22.8517
  13   2.0000      -0.799686       -21.7606
  14   2.0000      -0.766676       -20.8623
  15   2.0000      -0.757248       -20.6058
  16   2.0000      -0.678482       -18.4624
  17   2.0000      -0.667428       -18.1616
  18   2.0000      -0.659742       -17.9525
  19   2.0000      -0.622973       -16.9520
  20   0.0000      -0.117859        -3.2071
  21   0.0000      -0.093576        -2.5463
  22   0.0000      -0.055739        -1.5167
  23   0.0000      -0.052255        -1.4219
  24   0.0000      -0.035604        -0.9688

MULLIKEN ATOMIC CHARGES
-----------------------
   0 C :   -0.924526
   1 C :   -1.085644
   2 C :    0.910917
   3 N :   -0.419557
   4 N :   -0.377480
   5 H :    0.275563
   6 H :    0.240500
   7 H :    0.262985
   8 H :    0.222548
   9 H :    0.391634
  10 H :    0.391294
  11 H :    0.364863
  12 H :    0.382693
  13 H :    0.364209
Sum of atomic charges:    1.0000000

LOEWDIN ATOMIC CHARGES
----------------------
   0 C :   -0.166819
   1 C :   -0.074503
   2 C :   -0.367573
   3 N :    0.215540
   4 N :    0.227854
   5 H :    0.161001
   6 H :    0.157510
   7 H :    0.156069
   8 H :    0.148546
   9 H :    0.135258
  10 H :    0.139973
  11 H :    0.084479
  12 H :    0.093219
  13 H :    0.089446

  Mayer bond orders larger than 0.100000
B(  0-C ,  1-C ) :   0.6616 B(  0-C ,  2-C ) :   0.6228 B(  0-C ,  4-N ) :   0.1036
B(  0-C ,  9-H ) :   0.8991 B(  0-C , 10-H ) :   0.9157 B(  1-C , 11-H ) :   0.8918
B(  1-C , 12-H ) :   0.9403 B(  1-C , 13-H ) :   0.9304 B(  2-C ,  3-N ) :   1.0129
B(  2-C ,  4-N ) :   1.1035 B(  3-N ,  7-H ) :   0.9413 B(  3-N ,  8-H ) :   1.0476
B(  4-N ,  5-H ) :   0.9275 B(  4-N ,  6-H ) :   1.0160

FINAL SINGLE POINT ENERGY      -228.369697003890

DIPOLE MOMENT
-------------
                                X             Y             Z
Electronic contribution:     -1.55717      -0.27295      -3.86870
Nuclear contribution   :      1.33202       0.27544       2.83701
                        -----------------------------------------
Total Dipole Moment    :     -0.22515       0.00249      -1.03169
                        -----------------------------------------
Magnitude (a.u.)       :      1.05597
Magnitude (Debye)      :      2.68407

Rotational constants in cm-1:     0.258570     0.126296     0.098869
Rotational constants in MHz :  7751.748523  3786.267300  2964.011691

                             ****ORCA TERMINATED NORMALLY****
TOTAL RUN TIME: 0 days 0 hours 0 minutes 40 seconds 168 msec
