                         Program Version 5.0.0 -  RELEASE  -
|  1> !LC-PBE RIJCOSX def2-TZVPD def2/J TightSCF xyzfile
|  2>
|  3> *xyzfile 0 1 B.xyz
|  4>
|  5> %MaxCore 64000
|  6>
|  7> %pal nprocs 4
|  8> end
|  9>
| 10> %scf
| 11>   MaxIter 150
| 12> end
| 13>
| 14>
| 15>                          ****END OF INPUT****

CARTESIAN COORDINATES (ANGSTROEM)
---------------------------------
  C     -0.461293    2.234686   -4.989619
  C      0.848883    2.667967   -4.302351
  C      2.093434    1.861037   -4.656845
  H      2.444814    2.041567   -5.674990
  H      2.901748    2.137864   -3.980338
  S      1.879644    0.078594   -4.462965
  C     -0.423841    2.398772   -6.474317
  N     -0.959467    3.492647   -7.007401
  N      0.145585    1.486891   -7.203987
  H      0.565371    0.696807   -6.723858
  H      0.220682    1.581768   -8.207520
  H     -1.406243    4.181507   -6.403261
  H     -0.934215    3.681601   -7.999468
  O      3.207574   -0.466111   -4.420259
  O      1.075064   -0.056160   -3.268758
  O      1.131661   -0.319960   -5.679031
  H      0.668432    2.559427   -3.232850
  H      1.034074    3.729426   -4.497081
  H     -1.288884    2.826737   -4.594997
  H     -0.651696    1.186343   -4.756552

 Total Charge           Charge          ....    0
 Multiplicity           Mult            ....    1
 Number of Electrons    NEL             ....   88
 Basis Dimension        Dim             ....  478

ORBITAL ENERGIES
----------------

  NO   OCC          E(Eh)            E(eV)
   0   2.0000     -88.423472     -2406.1250
   1   2.0000     -18.917909      -514.7825
   2   2.0000     -18.903616      -514.3935
   3   2.0000     -18.901666      -514.3405
   4   2.0000     -14.325043      -389.8042
   5   2.0000     -14.292999      -388.9323
   6   2.0000     -10.300500      -280.2909
   7   2.0000     -10.168647      -276.7030
   8   2.0000     -10.148604      -276.1575
   9   2.0000     -10.125193      -275.5205
  10   2.0000      -8.034445      -218.6284
  11   2.0000      -6.051693      -164.6749
  12   2.0000      -6.050299      -164.6370
  13   2.0000      -6.048716      -164.5939
  14   2.0000      -1.256295       -34.1855
  15   2.0000      -1.237448       -33.6727
  16   2.0000      -1.135192       -30.8901
  17   2.0000      -1.103937       -30.0396
  18   2.0000      -1.102173       -29.9917
  19   2.0000      -1.015912       -27.6444
  20   2.0000      -0.929905       -25.3040
  21   2.0000      -0.854295       -23.2466
  22   2.0000      -0.811530       -22.0829
  23   2.0000      -0.782331       -21.2883
  24   2.0000      -0.758925       -20.6514
  25   2.0000      -0.709590       -19.3089
  26   2.0000      -0.672195       -18.2914
  27   2.0000      -0.667281       -18.1576
  28   2.0000      -0.632894       -17.2219
  29   2.0000      -0.618409       -16.8278
  30   2.0000      -0.591252       -16.0888
  31   2.0000      -0.582167       -15.8416
  32   2.0000      -0.559922       -15.2363
  33   2.0000      -0.552495       -15.0342
  34   2.0000      -0.526051       -14.3146
  35   2.0000      -0.509872       -13.8743
  36   2.0000      -0.490818       -13.3558
  37   2.0000      -0.477576       -12.9955
  38   2.0000      -0.448881       -12.2147
  39   2.0000      -0.444053       -12.0833
  40   2.0000      -0.407360       -11.0848
  41   2.0000      -0.398620       -10.8470
  42   2.0000      -0.382996       -10.4218
  43   2.0000      -0.355622        -9.6770
  44   0.0000       0.014942         0.4066
  45   0.0000       0.022969         0.6250
  46   0.0000       0.049492         1.3467
  47   0.0000       0.065991         1.7957
  48   0.0000       0.070269         1.9121

MULLIKEN ATOMIC CHARGES
-----------------------
   0 C :   -1.059922
   1 C :   -0.597771
   2 C :   -0.996633
   3 H :    0.426484
   4 H :    0.392747
   5 S :    1.170328
   6 C :    0.812203
   7 N :   -0.447299
   8 N :   -0.283674
   9 H :    0.322504
  10 H :    0.194227
  11 H :    0.255098
  12 H :    0.203555
  13 O :   -0.637726
  14 O :   -0.646556
  15 O :   -0.809776
  16 H :    0.460061
  17 H :    0.327288
  18 H :    0.421257
  19 H :    0.493606
Sum of atomic charges:   -0.0000000

LOEWDIN ATOMIC CHARGES
----------------------
   0 C :   -0.126801
   1 C :   -0.220850
   2 C :   -0.261421
   3 H :    0.106023
   4 H :    0.111480
   5 S :    0.399262
   6 C :   -0.360447
   7 N :    0.181388
   8 N :    0.227980
   9 H :    0.037104
  10 H :    0.151339
  11 H :    0.141573
  12 H :    0.134425
  13 O :   -0.322835
  14 O :   -0.330303
  15 O :   -0.379000
  16 H :    0.125080
  17 H :    0.122781
  18 H :    0.132348
  19 H :    0.130873

  Mayer bond orders larger than 0.100000
B(  0-C ,  1-C ) :   0.7027 B(  0-C ,  6-C ) :   0.6139 B(  0-C ,  7-N ) :   0.1093
B(  0-C , 18-H ) :   0.8465 B(  0-C , 19-H ) :   0.8968 B(  1-C ,  2-C ) :   0.7127
B(  1-C , 16-H ) :   0.8275 B(  1-C , 17-H ) :   0.9255 B(  2-C ,  3-H ) :   0.8526
B(  2-C ,  4-H ) :   0.9404 B(  2-C ,  5-S ) :   0.9103 B(  2-C , 13-O ) :   0.1404
B(  2-C , 15-O ) :   0.1469 B(  5-S , 13-O ) :   1.5077 B(  5-S , 14-O ) :   1.5423
B(  5-S , 15-O ) :   1.2692 B(  6-C ,  7-N ) :   0.9188 B(  6-C ,  8-N ) :   1.1810
B(  7-N , 11-H ) :   0.9589 B(  7-N , 12-H ) :   1.0574 B(  8-N ,  9-H ) :   0.7868
B(  8-N , 10-H ) :   1.0585 B(  8-N , 15-O ) :  -0.1116

FINAL SINGLE POINT ENERGY      -890.250424603354

DIPOLE MOMENT
-------------
                                X             Y             Z
Electronic contribution:      3.06916      -7.55945       1.05952
Nuclear contribution   :     -5.91573      12.15027      -4.18945
                        -----------------------------------------
Total Dipole Moment    :     -2.84657       4.59082      -3.12993
                        -----------------------------------------
Magnitude (a.u.)       :      6.24300
Magnitude (Debye)      :     15.86846

Rotational constants in cm-1:     0.082044     0.024757     0.022371
Rotational constants in MHz :  2459.631375   742.181961   670.660570

                             ****ORCA TERMINATED NORMALLY****
TOTAL RUN TIME: 0 days 0 hours 3 minutes 2 seconds 575 msec
