                         Program Version 5.0.0 -  RELEASE  -
|  1> !LC-PBE RIJCOSX def2-TZVPD def2/J TightSCF
|  2> *xyz 0 1
|  3> C          0.84888        2.66797       -4.30235
|  4> C          2.09343        1.86104       -4.65684
|  5> H          2.44481        2.04157       -5.67499
|  6> H          2.90175        2.13786       -3.98034
|  7> S          1.87964        0.07859       -4.46297
|  8> F          3.20757       -0.46611       -4.42026
|  9> O          1.07506       -0.05616       -3.26876
| 10> O          1.13166       -0.31996       -5.67903
| 11> H          0.05064        2.40112       -4.96303
| 12> H          1.06043        3.71210       -4.40203
| 13> H          0.56237        2.45684       -3.29327
| 14> *
| 15>
| 16> %MaxCore 64000
| 17>
| 18> %pal nprocs 4
| 19> end
| 20>
| 21> %scf
| 22>   MaxIter 150
| 23> end
| 24>
| 25>
| 26>                          ****END OF INPUT****

CARTESIAN COORDINATES (ANGSTROEM)
---------------------------------
  C      0.848880    2.667970   -4.302350
  C      2.093430    1.861040   -4.656840
  H      2.444810    2.041570   -5.674990
  H      2.901750    2.137860   -3.980340
  S      1.879640    0.078590   -4.462970
  F      3.207570   -0.466110   -4.420260
  O      1.075060   -0.056160   -3.268760
  O      1.131660   -0.319960   -5.679030
  H      0.050640    2.401120   -4.963030
  H      1.060430    3.712100   -4.402030
  H      0.562370    2.456840   -3.293270

 Total Charge           Charge          ....    0
 Multiplicity           Mult            ....    1
 Number of Electrons    NEL             ....   58
 Basis Dimension        Dim             ....  285

ORBITAL ENERGIES
----------------

  NO   OCC          E(Eh)            E(eV)
   0   2.0000     -88.535766     -2409.1807
   1   2.0000     -24.622083      -670.0010
   2   2.0000     -18.994153      -516.8572
   3   2.0000     -18.981367      -516.5093
   4   2.0000     -10.178721      -276.9771
   5   2.0000     -10.129208      -275.6298
   6   2.0000      -8.147202      -221.6966
   7   2.0000      -6.167451      -167.8249
   8   2.0000      -6.160655      -167.6400
   9   2.0000      -6.160043      -167.6233
  10   2.0000      -1.554925       -42.3117
  11   2.0000      -1.278293       -34.7841
  12   2.0000      -1.170473       -31.8502
  13   2.0000      -0.999406       -27.1952
  14   2.0000      -0.903183       -24.5769
  15   2.0000      -0.839180       -22.8353
  16   2.0000      -0.751197       -20.4411
  17   2.0000      -0.749567       -20.3967
  18   2.0000      -0.708712       -19.2850
  19   2.0000      -0.641227       -17.4487
  20   2.0000      -0.633019       -17.2253
  21   2.0000      -0.586338       -15.9551
  22   2.0000      -0.570808       -15.5325
  23   2.0000      -0.543762       -14.7965
  24   2.0000      -0.528880       -14.3916
  25   2.0000      -0.518198       -14.1009
  26   2.0000      -0.473246       -12.8777
  27   2.0000      -0.454692       -12.3728
  28   2.0000      -0.444517       -12.0959
  29   0.0000       0.044656         1.2152
  30   0.0000       0.059490         1.6188
  31   0.0000       0.063828         1.7369
  32   0.0000       0.069500         1.8912
  33   0.0000       0.098693         2.6856

MULLIKEN ATOMIC CHARGES
-----------------------
   0 C :   -1.219262
   1 C :   -0.640029
   2 H :    0.426015
   3 H :    0.423667
   4 S :    1.046272
   5 F :   -0.072714
   6 O :   -0.543575
   7 O :   -0.569782
   8 H :    0.360686
   9 H :    0.383969
  10 H :    0.404754
Sum of atomic charges:    0.0000000

LOEWDIN ATOMIC CHARGES
----------------------
   0 C :   -0.129708
   1 C :   -0.299574
   2 H :    0.112027
   3 H :    0.104851
   4 S :    0.566540
   5 F :   -0.030397
   6 O :   -0.272454
   7 O :   -0.300696
   8 H :    0.087263
   9 H :    0.083251
  10 H :    0.078897

  Mayer bond orders larger than 0.100000
B(  0-C ,  1-C ) :   0.6665 B(  0-C ,  8-H ) :   0.9278 B(  0-C ,  9-H ) :   0.8966
B(  0-C , 10-H ) :   0.8903 B(  1-C ,  2-H ) :   0.8436 B(  1-C ,  3-H ) :   0.8239
B(  1-C ,  4-S ) :   0.9081 B(  4-S ,  5-F ) :   1.0404 B(  4-S ,  6-O ) :   1.7032
B(  4-S ,  7-O ) :   1.6648

FINAL SINGLE POINT ENERGY      -726.590487266583

DIPOLE MOMENT
-------------
                                X             Y             Z
Electronic contribution:      4.20954      -9.28848       0.10613
Nuclear contribution   :     -3.08754      10.54185      -0.04092
                        -----------------------------------------
Total Dipole Moment    :      1.12200       1.25337       0.06521
                        -----------------------------------------
Magnitude (a.u.)       :      1.68347
Magnitude (Debye)      :      4.27903

Rotational constants in cm-1:     0.158925     0.081210     0.079022
Rotational constants in MHz :  4764.450166  2434.603461  2369.014434

                             ****ORCA TERMINATED NORMALLY****
TOTAL RUN TIME: 0 days 0 hours 0 minutes 48 seconds 250 msec
