                         Program Version 5.0.0 -  RELEASE  -
|  1> !LC-PBE RIJCOSX def2-TZVPD def2/J TightSCF
|  2> *xyz 0 1
|  3> C         -0.46129        2.23469       -4.98962
|  4> C          0.84888        2.66797       -4.30235
|  5> C         -0.42384        2.39877       -6.47432
|  6> C         -0.95947        3.49265       -7.00740
|  7> N          0.14558        1.48689       -7.20399
|  8> H          0.56537        0.69681       -6.72386
|  9> H          0.22068        1.58177       -8.20752
| 10> H         -1.40624        4.18151       -6.40326
| 11> H         -0.93421        3.68160       -7.99947
| 12> H         -1.28888        2.82674       -4.59500
| 13> H         -0.65170        1.18634       -4.75655
| 14> H          1.66208        2.08894       -4.68750
| 15> H          0.76716        2.51042       -3.24717
| 16> H          1.02677        3.70527       -4.49537
| 17> *
| 18>
| 19> %MaxCore 64000
| 20>
| 21> %pal nprocs 4
| 22> end
| 23>
| 24> %scf
| 25>   MaxIter 150
| 26> end
| 27>
| 28>
| 29>                          ****END OF INPUT****

CARTESIAN COORDINATES (ANGSTROEM)
---------------------------------
  C     -0.461290    2.234690   -4.989620
  C      0.848880    2.667970   -4.302350
  C     -0.423840    2.398770   -6.474320
  C     -0.959470    3.492650   -7.007400
  N      0.145580    1.486890   -7.203990
  H      0.565370    0.696810   -6.723860
  H      0.220680    1.581770   -8.207520
  H     -1.406240    4.181510   -6.403260
  H     -0.934210    3.681600   -7.999470
  H     -1.288880    2.826740   -4.595000
  H     -0.651700    1.186340   -4.756550
  H      1.662080    2.088940   -4.687500
  H      0.767160    2.510420   -3.247170
  H      1.026770    3.705270   -4.495370

 Total Charge           Charge          ....    0
 Multiplicity           Mult            ....    1
 Number of Electrons    NEL             ....   40
 Basis Dimension        Dim             ....  266

ORBITAL ENERGIES
----------------

  NO   OCC          E(Eh)            E(eV)
   0   2.0000     -14.215126      -386.8133
   1   2.0000     -10.139439      -275.9082
   2   2.0000     -10.114849      -275.2390
   3   2.0000     -10.098378      -274.7908
   4   2.0000     -10.043054      -273.2854
   5   2.0000      -1.111347       -30.2413
   6   2.0000      -0.955810       -26.0089
   7   2.0000      -0.884287       -24.0627
   8   2.0000      -0.800386       -21.7796
   9   2.0000      -0.722268       -19.6539
  10   2.0000      -0.676896       -18.4193
  11   2.0000      -0.628360       -17.0985
  12   2.0000      -0.580026       -15.7833
  13   2.0000      -0.562288       -15.3006
  14   2.0000      -0.530240       -14.4286
  15   2.0000      -0.518479       -14.1085
  16   2.0000      -0.482286       -13.1237
  17   2.0000      -0.468251       -12.7418
  18   2.0000      -0.462416       -12.5830
  19   2.0000      -0.306231        -8.3330
  20   0.0000       0.065351         1.7783
  21   0.0000       0.089096         2.4244
  22   0.0000       0.093705         2.5498
  23   0.0000       0.095309         2.5935
  24   0.0000       0.125773         3.4224

MULLIKEN ATOMIC CHARGES
-----------------------
   0 C :   -0.926790
   1 C :   -1.014498
   2 C :    0.886286
   3 C :   -1.297250
   4 N :   -0.461246
   5 H :    0.224599
   6 H :    0.198516
   7 H :    0.296188
   8 H :    0.325520
   9 H :    0.360857
  10 H :    0.389750
  11 H :    0.331936
  12 H :    0.352466
  13 H :    0.333667
Sum of atomic charges:   -0.0000000

LOEWDIN ATOMIC CHARGES
----------------------
   0 C :   -0.219580
   1 C :   -0.111069
   2 C :   -0.520293
   3 C :    0.000661
   4 N :    0.095631
   5 H :    0.119439
   6 H :    0.123607
   7 H :    0.031359
   8 H :    0.024520
   9 H :    0.118698
  10 H :    0.117206
  11 H :    0.070777
  12 H :    0.070256
  13 H :    0.078789

  Mayer bond orders larger than 0.100000
B(  0-C ,  1-C ) :   0.6198 B(  0-C ,  2-C ) :   0.5572 B(  0-C ,  3-C ) :   0.1607
B(  0-C ,  4-N ) :   0.1415 B(  0-C ,  9-H ) :   0.9160 B(  0-C , 10-H ) :   0.9549
B(  1-C , 11-H ) :   0.9238 B(  1-C , 12-H ) :   0.9392 B(  1-C , 13-H ) :   0.9726
B(  2-C ,  3-C ) :   1.1049 B(  2-C ,  4-N ) :   0.7905 B(  2-C ,  8-H ) :  -0.1463
B(  3-C ,  4-N ) :   0.1250 B(  3-C ,  7-H ) :   0.9952 B(  3-C ,  8-H ) :   1.0330
B(  4-N ,  5-H ) :   0.9996 B(  4-N ,  6-H ) :   1.0309

FINAL SINGLE POINT ENERGY      -211.914671067174

DIPOLE MOMENT
-------------
                                X             Y             Z
Electronic contribution:     -0.72066      -1.16474      -2.55980
Nuclear contribution   :      1.14741       0.51394       2.60761
                        -----------------------------------------
Total Dipole Moment    :      0.42675      -0.65080       0.04780
                        -----------------------------------------
Magnitude (a.u.)       :      0.77970
Magnitude (Debye)      :      1.98185

Rotational constants in cm-1:     0.269157     0.129188     0.102123
Rotational constants in MHz :  8069.118715  3872.945231  3061.580645

                             ****ORCA TERMINATED NORMALLY****
TOTAL RUN TIME: 0 days 0 hours 0 minutes 52 seconds 136 msec
