                         Program Version 5.0.0 -  RELEASE  -
|  1> !LC-PBE RIJCOSX def2-TZVPD def2/J TightSCF
|  2> *xyz 0 1
|  3> C          0.84888        2.66797       -4.30235
|  4> C          2.09343        1.86104       -4.65684
|  5> H          2.44481        2.04157       -5.67499
|  6> H          2.90175        2.13786       -3.98034
|  7> S          1.87964        0.07859       -4.46297
|  8> O          3.20757       -0.46611       -4.42026
|  9> F          1.07506       -0.05616       -3.26876
| 10> O          1.13166       -0.31996       -5.67903
| 11> H          0.05064        2.40112       -4.96303
| 12> H          1.06043        3.71210       -4.40203
| 13> H          0.56237        2.45684       -3.29327
| 14> *
| 15>
| 16> %MaxCore 64000
| 17>
| 18> %pal nprocs 4
| 19> end
| 20>
| 21> %scf
| 22>   MaxIter 150
| 23> end
| 24>
| 25>
| 26>                          ****END OF INPUT****

CARTESIAN COORDINATES (ANGSTROEM)
---------------------------------
  C      0.848880    2.667970   -4.302350
  C      2.093430    1.861040   -4.656840
  H      2.444810    2.041570   -5.674990
  H      2.901750    2.137860   -3.980340
  S      1.879640    0.078590   -4.462970
  O      3.207570   -0.466110   -4.420260
  F      1.075060   -0.056160   -3.268760
  O      1.131660   -0.319960   -5.679030
  H      0.050640    2.401120   -4.963030
  H      1.060430    3.712100   -4.402030
  H      0.562370    2.456840   -3.293270

 Total Charge           Charge          ....    0
 Multiplicity           Mult            ....    1
 Number of Electrons    NEL             ....   58
 Basis Dimension        Dim             ....  285

ORBITAL ENERGIES
----------------

  NO   OCC          E(Eh)            E(eV)
   0   2.0000     -88.535033     -2409.1607
   1   2.0000     -24.615989      -669.8351
   2   2.0000     -18.997939      -516.9602
   3   2.0000     -18.981297      -516.5074
   4   2.0000     -10.178552      -276.9725
   5   2.0000     -10.136607      -275.8311
   6   2.0000      -8.146442      -221.6760
   7   2.0000      -6.166922      -167.8105
   8   2.0000      -6.159797      -167.6166
   9   2.0000      -6.159226      -167.6011
  10   2.0000      -1.545911       -42.0664
  11   2.0000      -1.282105       -34.8879
  12   2.0000      -1.173641       -31.9364
  13   2.0000      -1.005165       -27.3519
  14   2.0000      -0.895504       -24.3679
  15   2.0000      -0.842871       -22.9357
  16   2.0000      -0.758424       -20.6378
  17   2.0000      -0.743752       -20.2385
  18   2.0000      -0.698410       -19.0047
  19   2.0000      -0.643404       -17.5079
  20   2.0000      -0.624104       -16.9827
  21   2.0000      -0.597031       -16.2460
  22   2.0000      -0.581379       -15.8201
  23   2.0000      -0.551772       -15.0145
  24   2.0000      -0.534812       -14.5530
  25   2.0000      -0.521985       -14.2039
  26   2.0000      -0.473305       -12.8793
  27   2.0000      -0.455719       -12.4007
  28   2.0000      -0.447887       -12.1876
  29   0.0000       0.048071         1.3081
  30   0.0000       0.057992         1.5780
  31   0.0000       0.065351         1.7783
  32   0.0000       0.068575         1.8660
  33   0.0000       0.097290         2.6474

MULLIKEN ATOMIC CHARGES
-----------------------
   0 C :   -1.236818
   1 C :   -0.589266
   2 H :    0.409636
   3 H :    0.416856
   4 S :    1.039678
   5 O :   -0.525331
   6 F :   -0.100758
   7 O :   -0.572734
   8 H :    0.367720
   9 H :    0.375707
  10 H :    0.415308
Sum of atomic charges:    0.0000000

LOEWDIN ATOMIC CHARGES
----------------------
   0 C :   -0.139619
   1 C :   -0.290366
   2 H :    0.121489
   3 H :    0.107941
   4 S :    0.562812
   5 O :   -0.265611
   6 F :   -0.038142
   7 O :   -0.300295
   8 H :    0.084235
   9 H :    0.082605
  10 H :    0.074951

  Mayer bond orders larger than 0.100000
B(  0-C ,  1-C ) :   0.5813 B(  0-C ,  8-H ) :   0.9444 B(  0-C ,  9-H ) :   0.9189
B(  0-C , 10-H ) :   0.8598 B(  1-C ,  2-H ) :   0.8585 B(  1-C ,  3-H ) :   0.8627
B(  1-C ,  4-S ) :   0.9129 B(  4-S ,  5-O ) :   1.7228 B(  4-S ,  6-F ) :   1.0328
B(  4-S ,  7-O ) :   1.6699

FINAL SINGLE POINT ENERGY      -726.595272795585

DIPOLE MOMENT
-------------
                                X             Y             Z
Electronic contribution:      0.55611      -8.55575       2.06267
Nuclear contribution   :     -0.86540      10.11467      -1.24082
                        -----------------------------------------
Total Dipole Moment    :     -0.30929       1.55892       0.82185
                        -----------------------------------------
Magnitude (a.u.)       :      1.78923
Magnitude (Debye)      :      4.54786

Rotational constants in cm-1:     0.154065     0.083345     0.080357
Rotational constants in MHz :  4618.752213  2498.631937  2409.037217

                             ****ORCA TERMINATED NORMALLY****
TOTAL RUN TIME: 0 days 0 hours 0 minutes 45 seconds 771 msec
