                         Program Version 5.0.0 -  RELEASE  -
|  1> !LC-PBE RIJCOSX def2-TZVPD def2/J TightSCF
|  2> *xyz 0 1
|  3> C         -0.46129        2.23469       -4.98962
|  4> C          0.84888        2.66797       -4.30235
|  5> C         -0.42384        2.39877       -6.47432
|  6> N         -0.95947        3.49265       -7.00740
|  7> C          0.14558        1.48689       -7.20399
|  8> H          0.56537        0.69681       -6.72386
|  9> H          0.22068        1.58177       -8.20752
| 10> H         -1.40624        4.18151       -6.40326
| 11> H         -0.93421        3.68160       -7.99947
| 12> H         -1.28888        2.82674       -4.59500
| 13> H         -0.65170        1.18634       -4.75655
| 14> H          1.66208        2.08894       -4.68750
| 15> H          0.76716        2.51042       -3.24717
| 16> H          1.02677        3.70527       -4.49537
| 17> *
| 18>
| 19> %MaxCore 64000
| 20>
| 21> %pal nprocs 4
| 22> end
| 23>
| 24> %scf
| 25>   MaxIter 150
| 26> end
| 27>
| 28>
| 29>                          ****END OF INPUT****

CARTESIAN COORDINATES (ANGSTROEM)
---------------------------------
  C     -0.461290    2.234690   -4.989620
  C      0.848880    2.667970   -4.302350
  C     -0.423840    2.398770   -6.474320
  N     -0.959470    3.492650   -7.007400
  C      0.145580    1.486890   -7.203990
  H      0.565370    0.696810   -6.723860
  H      0.220680    1.581770   -8.207520
  H     -1.406240    4.181510   -6.403260
  H     -0.934210    3.681600   -7.999470
  H     -1.288880    2.826740   -4.595000
  H     -0.651700    1.186340   -4.756550
  H      1.662080    2.088940   -4.687500
  H      0.767160    2.510420   -3.247170
  H      1.026770    3.705270   -4.495370

 Total Charge           Charge          ....    0
 Multiplicity           Mult            ....    1
 Number of Electrons    NEL             ....   40
 Basis Dimension        Dim             ....  266

ORBITAL ENERGIES
----------------

  NO   OCC          E(Eh)            E(eV)
   0   2.0000     -14.211894      -386.7253
   1   2.0000     -10.136842      -275.8375
   2   2.0000     -10.114372      -275.2261
   3   2.0000     -10.096825      -274.7486
   4   2.0000     -10.041909      -273.2542
   5   2.0000      -1.099260       -29.9124
   6   2.0000      -0.957007       -26.0415
   7   2.0000      -0.887933       -24.1619
   8   2.0000      -0.801510       -21.8102
   9   2.0000      -0.716424       -19.4949
  10   2.0000      -0.666651       -18.1405
  11   2.0000      -0.630775       -17.1643
  12   2.0000      -0.582350       -15.8465
  13   2.0000      -0.555801       -15.1241
  14   2.0000      -0.530244       -14.4287
  15   2.0000      -0.519892       -14.1470
  16   2.0000      -0.479275       -13.0417
  17   2.0000      -0.466060       -12.6821
  18   2.0000      -0.464366       -12.6361
  19   2.0000      -0.311491        -8.4761
  20   0.0000       0.066149         1.8000
  21   0.0000       0.089394         2.4325
  22   0.0000       0.091669         2.4944
  23   0.0000       0.096847         2.6353
  24   0.0000       0.126818         3.4509

MULLIKEN ATOMIC CHARGES
-----------------------
   0 C :   -0.927913
   1 C :   -1.025250
   2 C :    0.877122
   3 N :   -0.495209
   4 C :   -1.233949
   5 H :    0.324417
   6 H :    0.334203
   7 H :    0.217537
   8 H :    0.175995
   9 H :    0.383953
  10 H :    0.352044
  11 H :    0.347044
  12 H :    0.345434
  13 H :    0.324573
Sum of atomic charges:   -0.0000000

LOEWDIN ATOMIC CHARGES
----------------------
   0 C :   -0.218574
   1 C :   -0.110357
   2 C :   -0.510829
   3 N :    0.086400
   4 C :   -0.003764
   5 H :    0.040330
   6 H :    0.034200
   7 H :    0.112861
   8 H :    0.113972
   9 H :    0.113315
  10 H :    0.121289
  11 H :    0.075270
  12 H :    0.069888
  13 H :    0.075998

  Mayer bond orders larger than 0.100000
B(  0-C ,  1-C ) :   0.6242 B(  0-C ,  2-C ) :   0.4983 B(  0-C ,  3-N ) :   0.1169
B(  0-C ,  4-C ) :   0.1717 B(  0-C ,  9-H ) :   0.9654 B(  0-C , 10-H ) :   0.9517
B(  1-C , 11-H ) :   0.9410 B(  1-C , 12-H ) :   0.9385 B(  1-C , 13-H ) :   0.9481
B(  2-C ,  3-N ) :   0.7095 B(  2-C ,  4-C ) :   1.1565 B(  2-C ,  6-H ) :  -0.1402
B(  2-C ,  9-H ) :  -0.1008 B(  3-N ,  4-C ) :   0.1290 B(  3-N ,  7-H ) :   1.0134
B(  3-N ,  8-H ) :   1.0659 B(  4-C ,  5-H ) :   0.9594 B(  4-C ,  6-H ) :   1.0157

FINAL SINGLE POINT ENERGY      -211.915279501441

DIPOLE MOMENT
-------------
                                X             Y             Z
Electronic contribution:     -1.68980       0.56606      -2.39272
Nuclear contribution   :      1.40335       0.04939       2.56207
                        -----------------------------------------
Total Dipole Moment    :     -0.28645       0.61545       0.16935
                        -----------------------------------------
Magnitude (a.u.)       :      0.69965
Magnitude (Debye)      :      1.77838

Rotational constants in cm-1:     0.271383     0.128194     0.101873
Rotational constants in MHz :  8135.853259  3843.152748  3054.074278

                             ****ORCA TERMINATED NORMALLY****
TOTAL RUN TIME: 0 days 0 hours 0 minutes 54 seconds 116 msec
