                         Program Version 5.0.0 -  RELEASE  -
|  1> !LC-PBE RIJCOSX def2-TZVPD def2/J TightSCF
|  2> *xyz 0 1
|  3> C          0.84888        2.66797       -4.30235
|  4> C          2.09343        1.86104       -4.65684
|  5> H          2.44481        2.04157       -5.67499
|  6> H          2.90175        2.13786       -3.98034
|  7> S          1.87964        0.07859       -4.46297
|  8> O          3.20757       -0.46611       -4.42026
|  9> O          1.07506       -0.05616       -3.26876
| 10> F          1.13166       -0.31996       -5.67903
| 11> H          0.05064        2.40112       -4.96303
| 12> H          1.06043        3.71210       -4.40203
| 13> H          0.56237        2.45684       -3.29327
| 14> *
| 15>
| 16> %MaxCore 64000
| 17>
| 18> %pal nprocs 4
| 19> end
| 20>
| 21> %scf
| 22>   MaxIter 150
| 23> end
| 24>
| 25>
| 26>                          ****END OF INPUT****

CARTESIAN COORDINATES (ANGSTROEM)
---------------------------------
  C      0.848880    2.667970   -4.302350
  C      2.093430    1.861040   -4.656840
  H      2.444810    2.041570   -5.674990
  H      2.901750    2.137860   -3.980340
  S      1.879640    0.078590   -4.462970
  O      3.207570   -0.466110   -4.420260
  O      1.075060   -0.056160   -3.268760
  F      1.131660   -0.319960   -5.679030
  H      0.050640    2.401120   -4.963030
  H      1.060430    3.712100   -4.402030
  H      0.562370    2.456840   -3.293270

 Total Charge           Charge          ....    0
 Multiplicity           Mult            ....    1
 Number of Electrons    NEL             ....   58
 Basis Dimension        Dim             ....  285

ORBITAL ENERGIES
----------------

  NO   OCC          E(Eh)            E(eV)
   0   2.0000     -88.533126     -2409.1088
   1   2.0000     -24.597056      -669.3199
   2   2.0000     -18.997622      -516.9516
   3   2.0000     -18.993913      -516.8506
   4   2.0000     -10.177704      -276.9494
   5   2.0000     -10.130707      -275.6705
   6   2.0000      -8.144545      -221.6243
   7   2.0000      -6.165054      -167.7596
   8   2.0000      -6.158134      -167.5713
   9   2.0000      -6.157182      -167.5454
  10   2.0000      -1.516095       -41.2550
  11   2.0000      -1.290153       -35.1068
  12   2.0000      -1.192361       -32.4458
  13   2.0000      -1.001011       -27.2389
  14   2.0000      -0.885827       -24.1046
  15   2.0000      -0.833180       -22.6720
  16   2.0000      -0.737697       -20.0738
  17   2.0000      -0.722069       -19.6485
  18   2.0000      -0.701078       -19.0773
  19   2.0000      -0.643953       -17.5229
  20   2.0000      -0.626248       -17.0411
  21   2.0000      -0.603234       -16.4148
  22   2.0000      -0.574074       -15.6213
  23   2.0000      -0.548464       -14.9245
  24   2.0000      -0.538935       -14.6652
  25   2.0000      -0.516536       -14.0557
  26   2.0000      -0.482055       -13.1174
  27   2.0000      -0.465224       -12.6594
  28   2.0000      -0.461383       -12.5549
  29   0.0000       0.049517         1.3474
  30   0.0000       0.059694         1.6244
  31   0.0000       0.065531         1.7832
  32   0.0000       0.067384         1.8336
  33   0.0000       0.098238         2.6732

MULLIKEN ATOMIC CHARGES
-----------------------
   0 C :   -1.189520
   1 C :   -0.647004
   2 H :    0.441238
   3 H :    0.402289
   4 S :    1.056341
   5 O :   -0.533030
   6 O :   -0.545911
   7 F :   -0.131461
   8 H :    0.361216
   9 H :    0.382645
  10 H :    0.403197
Sum of atomic charges:    0.0000000

LOEWDIN ATOMIC CHARGES
----------------------
   0 C :   -0.139424
   1 C :   -0.291393
   2 H :    0.111120
   3 H :    0.115842
   4 S :    0.565986
   5 O :   -0.266458
   6 O :   -0.270509
   7 F :   -0.066721
   8 H :    0.081666
   9 H :    0.081718
  10 H :    0.078173

  Mayer bond orders larger than 0.100000
B(  0-C ,  1-C ) :   0.6083 B(  0-C ,  8-H ) :   0.9072 B(  0-C ,  9-H ) :   0.9095
B(  0-C , 10-H ) :   0.9120 B(  1-C ,  2-H ) :   0.8225 B(  1-C ,  3-H ) :   0.8657
B(  1-C ,  4-S ) :   0.9155 B(  4-S ,  5-O ) :   1.7159 B(  4-S ,  6-O ) :   1.7015
B(  4-S ,  7-F ) :   0.9848

FINAL SINGLE POINT ENERGY      -726.611170293098

DIPOLE MOMENT
-------------
                                X             Y             Z
Electronic contribution:      0.63764      -9.03919      -2.07793
Nuclear contribution   :     -0.92438      10.38956       1.27076
                        -----------------------------------------
Total Dipole Moment    :     -0.28674       1.35037      -0.80717
                        -----------------------------------------
Magnitude (a.u.)       :      1.59914
Magnitude (Debye)      :      4.06469

Rotational constants in cm-1:     0.154243     0.082247     0.080562
Rotational constants in MHz :  4624.087322  2465.703680  2415.175852

                             ****ORCA TERMINATED NORMALLY****
TOTAL RUN TIME: 0 days 0 hours 0 minutes 49 seconds 55 msec
