                         Program Version 5.0.0 -  RELEASE  -
|  1> !LC-PBE RIJCOSX def2-TZVPD def2/J TightSCF xyzfile
|  2>
|  3> *xyzfile 0 1 D1.xyz
|  4>
|  5> %MaxCore 64000
|  6>
|  7> %pal nprocs 4
|  8> end
|  9>
| 10> %scf
| 11>   MaxIter 150
| 12> end
| 13>
| 14>
| 15>                          ****END OF INPUT****

CARTESIAN COORDINATES (ANGSTROEM)
---------------------------------
  C     -0.461293    2.234686   -4.989619
  C      0.848883    2.667967   -4.302351
  C      2.093434    1.861037   -4.656845
  H      2.444814    2.041567   -5.674990
  H      2.901748    2.137864   -3.980338
  S      1.879644    0.078594   -4.462965
  C     -0.423841    2.398772   -6.474317
  C     -0.959467    3.492647   -7.007401
  N      0.145585    1.486891   -7.203987
  H      0.565371    0.696807   -6.723858
  H      0.220682    1.581768   -8.207520
  H     -1.406243    4.181507   -6.403261
  H     -0.934215    3.681601   -7.999468
  F      3.207574   -0.466111   -4.420259
  O      1.075064   -0.056160   -3.268758
  O      1.131661   -0.319960   -5.679031
  H      0.668432    2.559427   -3.232850
  H      1.034074    3.729426   -4.497081
  H     -1.288884    2.826737   -4.594997
  H     -0.651696    1.186343   -4.756552

 Total Charge           Charge          ....    0
 Multiplicity           Mult            ....    1
 Number of Electrons    NEL             ....   88
 Basis Dimension        Dim             ....  478

ORBITAL ENERGIES
----------------

  NO   OCC          E(Eh)            E(eV)
   0   2.0000     -88.555910     -2409.7288
   1   2.0000     -24.637929      -670.4321
   2   2.0000     -19.011482      -517.3287
   3   2.0000     -19.007630      -517.2239
   4   2.0000     -14.185895      -386.0178
   5   2.0000     -10.185416      -277.1593
   6   2.0000     -10.145514      -276.0735
   7   2.0000     -10.132960      -275.7319
   8   2.0000     -10.117151      -275.3017
   9   2.0000     -10.035972      -273.0927
  10   2.0000      -8.167477      -222.2484
  11   2.0000      -6.187586      -168.3728
  12   2.0000      -6.180904      -168.1909
  13   2.0000      -6.180473      -168.1792
  14   2.0000      -1.570962       -42.7480
  15   2.0000      -1.300918       -35.3998
  16   2.0000      -1.198510       -32.6131
  17   2.0000      -1.096047       -29.8249
  18   2.0000      -1.015863       -27.6430
  19   2.0000      -0.942314       -25.6417
  20   2.0000      -0.905591       -24.6424
  21   2.0000      -0.861530       -23.4434
  22   2.0000      -0.811729       -22.0883
  23   2.0000      -0.770049       -20.9541
  24   2.0000      -0.757741       -20.6192
  25   2.0000      -0.733897       -19.9703
  26   2.0000      -0.710228       -19.3263
  27   2.0000      -0.676572       -18.4105
  28   2.0000      -0.653310       -17.7775
  29   2.0000      -0.639046       -17.3893
  30   2.0000      -0.622053       -16.9269
  31   2.0000      -0.599339       -16.3088
  32   2.0000      -0.590332       -16.0637
  33   2.0000      -0.558421       -15.1954
  34   2.0000      -0.536995       -14.6124
  35   2.0000      -0.532860       -14.4999
  36   2.0000      -0.517313       -14.0768
  37   2.0000      -0.495587       -13.4856
  38   2.0000      -0.488930       -13.3045
  39   2.0000      -0.481106       -13.0916
  40   2.0000      -0.468619       -12.7518
  41   2.0000      -0.458768       -12.4837
  42   2.0000      -0.450414       -12.2564
  43   2.0000      -0.295722        -8.0470
  44   0.0000       0.035953         0.9783
  45   0.0000       0.054123         1.4728
  46   0.0000       0.056092         1.5263
  47   0.0000       0.070131         1.9084
  48   0.0000       0.089797         2.4435

MULLIKEN ATOMIC CHARGES
-----------------------
   0 C :   -1.120859
   1 C :   -0.575050
   2 C :   -0.942478
   3 H :    0.490171
   4 H :    0.450845
   5 S :    1.098184
   6 C :    0.746873
   7 C :   -1.283400
   8 N :   -0.382397
   9 H :    0.298536
  10 H :    0.141851
  11 H :    0.305778
  12 H :    0.333891
  13 F :   -0.058728
  14 O :   -0.540230
  15 O :   -0.663536
  16 H :    0.414256
  17 H :    0.380988
  18 H :    0.423146
  19 H :    0.482159
Sum of atomic charges:    0.0000000

LOEWDIN ATOMIC CHARGES
----------------------
   0 C :   -0.159615
   1 C :   -0.211457
   2 C :   -0.231817
   3 H :    0.120167
   4 H :    0.112085
   5 S :    0.620563
   6 C :   -0.497683
   7 C :   -0.002364
   8 N :    0.106256
   9 H :    0.022976
  10 H :    0.128959
  11 H :    0.027680
  12 H :    0.023431
  13 F :   -0.017019
  14 O :   -0.248161
  15 O :   -0.297107
  16 H :    0.119446
  17 H :    0.136326
  18 H :    0.131004
  19 H :    0.116330

  Mayer bond orders larger than 0.100000
B(  0-C ,  1-C ) :   0.6781 B(  0-C ,  6-C ) :   0.6276 B(  0-C ,  7-C ) :   0.2132
B(  0-C , 18-H ) :   0.8956 B(  0-C , 19-H ) :   0.8774 B(  1-C ,  2-C ) :   0.7821
B(  1-C , 16-H ) :   0.8479 B(  1-C , 17-H ) :   0.8724 B(  2-C ,  3-H ) :   0.7844
B(  2-C ,  4-H ) :   0.8235 B(  2-C ,  5-S ) :   0.8933 B(  2-C ,  8-N ) :   0.1488
B(  2-C , 15-O ) :   0.1023 B(  5-S , 13-F ) :   1.0136 B(  5-S , 14-O ) :   1.7275
B(  5-S , 15-O ) :   1.5552 B(  6-C ,  7-C ) :   1.1878 B(  6-C ,  8-N ) :   0.7588
B(  6-C , 12-H ) :  -0.1104 B(  7-C ,  8-N ) :   0.1401 B(  7-C , 11-H ) :   1.0228
B(  7-C , 12-H ) :   0.9916 B(  8-N ,  9-H ) :   0.8775 B(  8-N , 10-H ) :   1.0833

FINAL SINGLE POINT ENERGY      -898.129921379720

DIPOLE MOMENT
-------------
                                X             Y             Z
Electronic contribution:     10.20926     -13.89588       5.49103
Nuclear contribution   :     -8.53047      14.15581      -5.17613
                        -----------------------------------------
Total Dipole Moment    :      1.67879       0.25993       0.31490
                        -----------------------------------------
Magnitude (a.u.)       :      1.72773
Magnitude (Debye)      :      4.39155

Rotational constants in cm-1:     0.081196     0.024861     0.022477
Rotational constants in MHz :  2434.181666   745.320670   673.846846

                             ****ORCA TERMINATED NORMALLY****
TOTAL RUN TIME: 0 days 0 hours 2 minutes 56 seconds 811 msec
