                         Program Version 5.0.0 -  RELEASE  -
|  1> !LC-PBE RIJCOSX def2-TZVPD def2/J TightSCF xyzfile
|  2>
|  3> *xyzfile 0 1 D2.xyz
|  4>
|  5> %MaxCore 64000
|  6>
|  7> %pal nprocs 4
|  8> end
|  9>
| 10> %scf
| 11>   MaxIter 150
| 12> end
| 13>
| 14>
| 15>                          ****END OF INPUT****

CARTESIAN COORDINATES (ANGSTROEM)
---------------------------------
  C     -0.461293    2.234686   -4.989619
  C      0.848883    2.667967   -4.302351
  C      2.093434    1.861037   -4.656845
  H      2.444814    2.041567   -5.674990
  H      2.901748    2.137864   -3.980338
  S      1.879644    0.078594   -4.462965
  C     -0.423841    2.398772   -6.474317
  N     -0.959467    3.492647   -7.007401
  C      0.145585    1.486891   -7.203987
  H      0.565371    0.696807   -6.723858
  H      0.220682    1.581768   -8.207520
  H     -1.406243    4.181507   -6.403261
  H     -0.934215    3.681601   -7.999468
  F      3.207574   -0.466111   -4.420259
  O      1.075064   -0.056160   -3.268758
  O      1.131661   -0.319960   -5.679031
  H      0.668432    2.559427   -3.232850
  H      1.034074    3.729426   -4.497081
  H     -1.288884    2.826737   -4.594997
  H     -0.651696    1.186343   -4.756552

 Total Charge           Charge          ....    0
 Multiplicity           Mult            ....    1
 Number of Electrons    NEL             ....   88
 Basis Dimension        Dim             ....  478

ORBITAL ENERGIES
----------------

  NO   OCC          E(Eh)            E(eV)
   0   2.0000     -88.538309     -2409.2499
   1   2.0000     -24.622890      -670.0229
   2   2.0000     -18.996540      -516.9221
   3   2.0000     -18.984610      -516.5975
   4   2.0000     -14.205795      -386.5593
   5   2.0000     -10.174408      -276.8597
   6   2.0000     -10.142724      -275.9976
   7   2.0000     -10.127591      -275.5858
   8   2.0000     -10.116768      -275.2912
   9   2.0000     -10.019246      -272.6376
  10   2.0000      -8.149918      -221.7706
  11   2.0000      -6.170141      -167.8981
  12   2.0000      -6.163192      -167.7090
  13   2.0000      -6.162957      -167.7026
  14   2.0000      -1.555980       -42.3404
  15   2.0000      -1.283482       -34.9253
  16   2.0000      -1.178861       -32.0785
  17   2.0000      -1.094063       -29.7710
  18   2.0000      -1.009085       -27.4586
  19   2.0000      -0.939786       -25.5729
  20   2.0000      -0.890346       -24.2275
  21   2.0000      -0.868985       -23.6463
  22   2.0000      -0.802509       -21.8374
  23   2.0000      -0.755165       -20.5491
  24   2.0000      -0.746984       -20.3265
  25   2.0000      -0.715767       -19.4770
  26   2.0000      -0.713917       -19.4267
  27   2.0000      -0.660203       -17.9650
  28   2.0000      -0.645939       -17.5769
  29   2.0000      -0.635306       -17.2876
  30   2.0000      -0.619327       -16.8528
  31   2.0000      -0.600400       -16.3377
  32   2.0000      -0.583155       -15.8685
  33   2.0000      -0.548980       -14.9385
  34   2.0000      -0.536715       -14.6048
  35   2.0000      -0.529140       -14.3986
  36   2.0000      -0.511254       -13.9119
  37   2.0000      -0.491624       -13.3778
  38   2.0000      -0.474698       -12.9172
  39   2.0000      -0.469092       -12.7646
  40   2.0000      -0.454312       -12.3625
  41   2.0000      -0.451938       -12.2978
  42   2.0000      -0.424630       -11.5548
  43   2.0000      -0.302420        -8.2293
  44   0.0000       0.042469         1.1556
  45   0.0000       0.057821         1.5734
  46   0.0000       0.062183         1.6921
  47   0.0000       0.069294         1.8856
  48   0.0000       0.091253         2.4831

MULLIKEN ATOMIC CHARGES
-----------------------
   0 C :   -1.171561
   1 C :   -0.588770
   2 C :   -0.960963
   3 H :    0.541309
   4 H :    0.443573
   5 S :    1.053342
   6 C :    0.908204
   7 N :   -0.500138
   8 C :   -1.458890
   9 H :    0.588332
  10 H :    0.271211
  11 H :    0.216311
  12 H :    0.177280
  13 F :   -0.065511
  14 O :   -0.553026
  15 O :   -0.569427
  16 H :    0.413514
  17 H :    0.350298
  18 H :    0.462415
  19 H :    0.442497
Sum of atomic charges:   -0.0000000

LOEWDIN ATOMIC CHARGES
----------------------
   0 C :   -0.157482
   1 C :   -0.213935
   2 C :   -0.232193
   3 H :    0.119197
   4 H :    0.110569
   5 S :    0.612770
   6 C :   -0.482467
   7 N :    0.082403
   8 C :    0.010903
   9 H :   -0.033182
  10 H :    0.046804
  11 H :    0.109783
  12 H :    0.112839
  13 F :   -0.022173
  14 O :   -0.257649
  15 O :   -0.302634
  16 H :    0.118505
  17 H :    0.132993
  18 H :    0.125546
  19 H :    0.119402

  Mayer bond orders larger than 0.100000
B(  0-C ,  1-C ) :   0.7287 B(  0-C ,  6-C ) :   0.4768 B(  0-C ,  7-N ) :   0.1672
B(  0-C ,  8-C ) :   0.1484 B(  0-C , 18-H ) :   0.8739 B(  0-C , 19-H ) :   0.9286
B(  1-C ,  2-C ) :   0.7884 B(  1-C ,  8-C ) :  -0.1144 B(  1-C , 16-H ) :   0.8410
B(  1-C , 17-H ) :   0.8877 B(  2-C ,  3-H ) :   0.7729 B(  2-C ,  4-H ) :   0.8342
B(  2-C ,  5-S ) :   0.8751 B(  2-C ,  8-C ) :   0.1587 B(  2-C , 15-O ) :   0.1154
B(  5-S , 13-F ) :   1.0075 B(  5-S , 14-O ) :   1.7145 B(  5-S , 15-O ) :   1.6300
B(  6-C ,  7-N ) :   0.6331 B(  6-C ,  8-C ) :   0.9040 B(  6-C , 10-H ) :  -0.1982
B(  6-C , 18-H ) :  -0.1021 B(  7-N ,  8-C ) :   0.1146 B(  7-N , 11-H ) :   1.0220
B(  7-N , 12-H ) :   1.0688 B(  8-C ,  9-H ) :   0.8066 B(  8-C , 10-H ) :   1.1776
B(  8-C , 15-O ) :   0.1071 B(  9-H , 15-O ) :  -0.3154

FINAL SINGLE POINT ENERGY      -898.111005551961

DIPOLE MOMENT
-------------
                                X             Y             Z
Electronic contribution:      9.31730     -12.44542       5.42678
Nuclear contribution   :     -8.42493      13.96425      -5.19491
                        -----------------------------------------
Total Dipole Moment    :      0.89237       1.51883       0.23188
                        -----------------------------------------
Magnitude (a.u.)       :      1.77678
Magnitude (Debye)      :      4.51621

Rotational constants in cm-1:     0.082815     0.024151     0.022015
Rotational constants in MHz :  2482.732265   724.035221   660.002136

                             ****ORCA TERMINATED NORMALLY****
TOTAL RUN TIME: 0 days 0 hours 2 minutes 59 seconds 293 msec
