                         Program Version 5.0.0 -  RELEASE  -
|  1> !LC-PBE RIJCOSX def2-TZVPD def2/J TightSCF xyzfile
|  2>
|  3> *xyzfile 0 1 D3.xyz
|  4>
|  5> %MaxCore 64000
|  6>
|  7> %pal nprocs 4
|  8> end
|  9>
| 10> %scf
| 11>   MaxIter 150
| 12> end
| 13>
| 14>
| 15>                          ****END OF INPUT****

CARTESIAN COORDINATES (ANGSTROEM)
---------------------------------
  C     -0.461293    2.234686   -4.989619
  C      0.848883    2.667967   -4.302351
  C      2.093434    1.861037   -4.656845
  H      2.444814    2.041567   -5.674990
  H      2.901748    2.137864   -3.980338
  S      1.879644    0.078594   -4.462965
  C     -0.423841    2.398772   -6.474317
  C     -0.959467    3.492647   -7.007401
  N      0.145585    1.486891   -7.203987
  H      0.565371    0.696807   -6.723858
  H      0.220682    1.581768   -8.207520
  H     -1.406243    4.181507   -6.403261
  H     -0.934215    3.681601   -7.999468
  O      3.207574   -0.466111   -4.420259
  F      1.075064   -0.056160   -3.268758
  O      1.131661   -0.319960   -5.679031
  H      0.668432    2.559427   -3.232850
  H      1.034074    3.729426   -4.497081
  H     -1.288884    2.826737   -4.594997
  H     -0.651696    1.186343   -4.756552

 Total Charge           Charge          ....    0
 Multiplicity           Mult            ....    1
 Number of Electrons    NEL             ....   88
 Basis Dimension        Dim             ....  478

ORBITAL ENERGIES
----------------

  NO   OCC          E(Eh)            E(eV)
   0   2.0000     -88.554779     -2409.6980
   1   2.0000     -24.631546      -670.2584
   2   2.0000     -19.014413      -517.4085
   3   2.0000     -19.006400      -517.1904
   4   2.0000     -14.188695      -386.0940
   5   2.0000     -10.184849      -277.1438
   6   2.0000     -10.151782      -276.2440
   7   2.0000     -10.138840      -275.8919
   8   2.0000     -10.128525      -275.6112
   9   2.0000     -10.041012      -273.2298
  10   2.0000      -8.166296      -222.2162
  11   2.0000      -6.186684      -168.3482
  12   2.0000      -6.179807      -168.1611
  13   2.0000      -6.178993      -168.1390
  14   2.0000      -1.561683       -42.4956
  15   2.0000      -1.303073       -35.4584
  16   2.0000      -1.201748       -32.7012
  17   2.0000      -1.100108       -29.9354
  18   2.0000      -1.022536       -27.8246
  19   2.0000      -0.942148       -25.6372
  20   2.0000      -0.903252       -24.5787
  21   2.0000      -0.866807       -23.5870
  22   2.0000      -0.813011       -22.1232
  23   2.0000      -0.768365       -20.9083
  24   2.0000      -0.764206       -20.7951
  25   2.0000      -0.728541       -19.8246
  26   2.0000      -0.715861       -19.4796
  27   2.0000      -0.670042       -18.2328
  28   2.0000      -0.651437       -17.7265
  29   2.0000      -0.642764       -17.4905
  30   2.0000      -0.622840       -16.9483
  31   2.0000      -0.604251       -16.4425
  32   2.0000      -0.596170       -16.2226
  33   2.0000      -0.566380       -15.4120
  34   2.0000      -0.546930       -14.8827
  35   2.0000      -0.539256       -14.6739
  36   2.0000      -0.519899       -14.1472
  37   2.0000      -0.512971       -13.9587
  38   2.0000      -0.486333       -13.2338
  39   2.0000      -0.480343       -13.0708
  40   2.0000      -0.473668       -12.8892
  41   2.0000      -0.464594       -12.6423
  42   2.0000      -0.453081       -12.3290
  43   2.0000      -0.299905        -8.1608
  44   0.0000       0.041230         1.1219
  45   0.0000       0.053392         1.4529
  46   0.0000       0.060630         1.6498
  47   0.0000       0.067173         1.8279
  48   0.0000       0.088182         2.3996

MULLIKEN ATOMIC CHARGES
-----------------------
   0 C :   -0.994681
   1 C :   -0.568387
   2 C :   -0.865900
   3 H :    0.460118
   4 H :    0.414177
   5 S :    1.115483
   6 C :    0.708834
   7 C :   -1.290145
   8 N :   -0.382516
   9 H :    0.313689
  10 H :    0.140550
  11 H :    0.304480
  12 H :    0.336574
  13 O :   -0.543804
  14 F :   -0.100630
  15 O :   -0.656639
  16 H :    0.397749
  17 H :    0.380030
  18 H :    0.408138
  19 H :    0.422880
Sum of atomic charges:   -0.0000000

LOEWDIN ATOMIC CHARGES
----------------------
   0 C :   -0.165422
   1 C :   -0.221081
   2 C :   -0.221949
   3 H :    0.129480
   4 H :    0.115077
   5 S :    0.615993
   6 C :   -0.497733
   7 C :   -0.000257
   8 N :    0.108019
   9 H :    0.023996
  10 H :    0.130232
  11 H :    0.028169
  12 H :    0.024914
  13 O :   -0.247099
  14 F :   -0.020190
  15 O :   -0.295945
  16 H :    0.115763
  17 H :    0.135380
  18 H :    0.130306
  19 H :    0.112346

  Mayer bond orders larger than 0.100000
B(  0-C ,  1-C ) :   0.6035 B(  0-C ,  6-C ) :   0.6833 B(  0-C ,  7-C ) :   0.2084
B(  0-C , 18-H ) :   0.9357 B(  0-C , 19-H ) :   0.8688 B(  1-C ,  2-C ) :   0.7118
B(  1-C , 16-H ) :   0.8870 B(  1-C , 17-H ) :   0.8591 B(  2-C ,  3-H ) :   0.8192
B(  2-C ,  4-H ) :   0.9205 B(  2-C ,  5-S ) :   0.8901 B(  2-C ,  8-N ) :   0.1468
B(  5-S , 13-O ) :   1.6637 B(  5-S , 14-F ) :   1.0374 B(  5-S , 15-O ) :   1.5586
B(  6-C ,  7-C ) :   1.1911 B(  6-C ,  8-N ) :   0.7681 B(  6-C , 10-H ) :  -0.1022
B(  6-C , 12-H ) :  -0.1109 B(  7-C ,  8-N ) :   0.1442 B(  7-C , 11-H ) :   1.0272
B(  7-C , 12-H ) :   0.9864 B(  8-N ,  9-H ) :   0.8665 B(  8-N , 10-H ) :   1.0806

FINAL SINGLE POINT ENERGY      -898.134428362068

DIPOLE MOMENT
-------------
                                X             Y             Z
Electronic contribution:      6.45990     -13.11261       7.43218
Nuclear contribution   :     -6.19944      13.70770      -6.43483
                        -----------------------------------------
Total Dipole Moment    :      0.26047       0.59509       0.99735
                        -----------------------------------------
Magnitude (a.u.)       :      1.19025
Magnitude (Debye)      :      3.02536

Rotational constants in cm-1:     0.079903     0.025241     0.022805
Rotational constants in MHz :  2395.439281   756.708181   683.680583

                             ****ORCA TERMINATED NORMALLY****
TOTAL RUN TIME: 0 days 0 hours 2 minutes 58 seconds 659 msec
