                         Program Version 5.0.0 -  RELEASE  -
|  1> !LC-PBE RIJCOSX def2-TZVPD def2/J TightSCF xyzfile
|  2>
|  3> *xyzfile 0 1 D4.xyz
|  4>
|  5> %MaxCore 64000
|  6>
|  7> %pal nprocs 4
|  8> end
|  9>
| 10> %scf
| 11>   MaxIter 150
| 12> end
| 13>
| 14>
| 15>                          ****END OF INPUT****

CARTESIAN COORDINATES (ANGSTROEM)
---------------------------------
  C     -0.461293    2.234686   -4.989619
  C      0.848883    2.667967   -4.302351
  C      2.093434    1.861037   -4.656845
  H      2.444814    2.041567   -5.674990
  H      2.901748    2.137864   -3.980338
  S      1.879644    0.078594   -4.462965
  C     -0.423841    2.398772   -6.474317
  N     -0.959467    3.492647   -7.007401
  C      0.145585    1.486891   -7.203987
  H      0.565371    0.696807   -6.723858
  H      0.220682    1.581768   -8.207520
  H     -1.406243    4.181507   -6.403261
  H     -0.934215    3.681601   -7.999468
  O      3.207574   -0.466111   -4.420259
  F      1.075064   -0.056160   -3.268758
  O      1.131661   -0.319960   -5.679031
  H      0.668432    2.559427   -3.232850
  H      1.034074    3.729426   -4.497081
  H     -1.288884    2.826737   -4.594997
  H     -0.651696    1.186343   -4.756552

 Total Charge           Charge          ....    0
 Multiplicity           Mult            ....    1
 Number of Electrons    NEL             ....   88
 Basis Dimension        Dim             ....  478

ORBITAL ENERGIES
----------------

  NO   OCC          E(Eh)            E(eV)
   0   2.0000     -88.537048     -2409.2156
   1   2.0000     -24.617615      -669.8794
   2   2.0000     -18.998665      -516.9800
   3   2.0000     -18.983362      -516.5635
   4   2.0000     -14.209822      -386.6689
   5   2.0000     -10.173944      -276.8471
   6   2.0000     -10.149036      -276.1693
   7   2.0000     -10.132638      -275.7231
   8   2.0000     -10.128015      -275.5973
   9   2.0000     -10.023250      -272.7465
  10   2.0000      -8.148627      -221.7354
  11   2.0000      -6.169171      -167.8717
  12   2.0000      -6.161802      -167.6712
  13   2.0000      -6.161494      -167.6628
  14   2.0000      -1.547810       -42.1181
  15   2.0000      -1.285430       -34.9783
  16   2.0000      -1.181529       -32.1510
  17   2.0000      -1.098807       -29.9001
  18   2.0000      -1.016345       -27.6561
  19   2.0000      -0.939870       -25.5752
  20   2.0000      -0.888947       -24.1895
  21   2.0000      -0.873011       -23.7558
  22   2.0000      -0.804414       -21.8892
  23   2.0000      -0.759202       -20.6589
  24   2.0000      -0.749107       -20.3842
  25   2.0000      -0.720362       -19.6020
  26   2.0000      -0.706374       -19.2214
  27   2.0000      -0.663734       -18.0611
  28   2.0000      -0.646263       -17.5857
  29   2.0000      -0.627680       -17.0800
  30   2.0000      -0.625183       -17.0121
  31   2.0000      -0.606703       -16.5092
  32   2.0000      -0.586112       -15.9489
  33   2.0000      -0.555400       -15.1132
  34   2.0000      -0.542432       -14.7603
  35   2.0000      -0.535329       -14.5670
  36   2.0000      -0.517103       -14.0711
  37   2.0000      -0.507765       -13.8170
  38   2.0000      -0.475330       -12.9344
  39   2.0000      -0.469212       -12.7679
  40   2.0000      -0.461182       -12.5494
  41   2.0000      -0.456647       -12.4260
  42   2.0000      -0.422406       -11.4943
  43   2.0000      -0.306547        -8.3416
  44   0.0000       0.045097         1.2272
  45   0.0000       0.057197         1.5564
  46   0.0000       0.064194         1.7468
  47   0.0000       0.068783         1.8717
  48   0.0000       0.087660         2.3854

MULLIKEN ATOMIC CHARGES
-----------------------
   0 C :   -1.050474
   1 C :   -0.573466
   2 C :   -0.881680
   3 H :    0.504725
   4 H :    0.413579
   5 S :    1.064521
   6 C :    0.867799
   7 N :   -0.501365
   8 C :   -1.459517
   9 H :    0.594964
  10 H :    0.278777
  11 H :    0.214001
  12 H :    0.178287
  13 O :   -0.558829
  14 F :   -0.103520
  15 O :   -0.562686
  16 H :    0.395611
  17 H :    0.349034
  18 H :    0.445833
  19 H :    0.384407
Sum of atomic charges:    0.0000000

LOEWDIN ATOMIC CHARGES
----------------------
   0 C :   -0.163268
   1 C :   -0.223284
   2 C :   -0.222334
   3 H :    0.128449
   4 H :    0.113538
   5 S :    0.607708
   6 C :   -0.483047
   7 N :    0.082500
   8 C :    0.015152
   9 H :   -0.031995
  10 H :    0.048692
  11 H :    0.109821
  12 H :    0.113781
  13 O :   -0.254799
  14 F :   -0.026593
  15 O :   -0.301686
  16 H :    0.114888
  17 H :    0.132164
  18 H :    0.124884
  19 H :    0.115432

  Mayer bond orders larger than 0.100000
B(  0-C ,  1-C ) :   0.6582 B(  0-C ,  6-C ) :   0.5351 B(  0-C ,  7-N ) :   0.1657
B(  0-C ,  8-C ) :   0.1591 B(  0-C , 18-H ) :   0.9183 B(  0-C , 19-H ) :   0.9113
B(  1-C ,  2-C ) :   0.7075 B(  1-C ,  8-C ) :  -0.1201 B(  1-C , 16-H ) :   0.8736
B(  1-C , 17-H ) :   0.8778 B(  2-C ,  3-H ) :   0.8109 B(  2-C ,  4-H ) :   0.9223
B(  2-C ,  5-S ) :   0.8739 B(  2-C ,  8-C ) :   0.1607 B(  2-C , 15-O ) :   0.1012
B(  5-S , 13-O ) :   1.6563 B(  5-S , 14-F ) :   1.0284 B(  5-S , 15-O ) :   1.6322
B(  6-C ,  7-N ) :   0.6313 B(  6-C ,  8-C ) :   0.9001 B(  6-C , 10-H ) :  -0.2024
B(  6-C , 18-H ) :  -0.1061 B(  7-N ,  8-C ) :   0.1175 B(  7-N , 11-H ) :   1.0235
B(  7-N , 12-H ) :   1.0674 B(  8-C ,  9-H ) :   0.8202 B(  8-C , 10-H ) :   1.1690
B(  8-C , 15-O ) :   0.1063 B(  9-H , 15-O ) :  -0.3331

FINAL SINGLE POINT ENERGY      -898.114461391633

DIPOLE MOMENT
-------------
                                X             Y             Z
Electronic contribution:      5.56169     -11.67466       7.37491
Nuclear contribution   :     -6.09390      13.51614      -6.45360
                        -----------------------------------------
Total Dipole Moment    :     -0.53221       1.84148       0.92131
                        -----------------------------------------
Magnitude (a.u.)       :      2.12676
Magnitude (Debye)      :      5.40578

Rotational constants in cm-1:     0.081469     0.024519     0.022336
Rotational constants in MHz :  2442.393231   735.066768   669.628729

                             ****ORCA TERMINATED NORMALLY****
TOTAL RUN TIME: 0 days 0 hours 2 minutes 58 seconds 516 msec
