                         Program Version 5.0.0 -  RELEASE  -
|  1> !LC-PBE RIJCOSX def2-TZVPD def2/J TightSCF xyzfile
|  2>
|  3> *xyzfile 0 1 D5.xyz
|  4>
|  5> %MaxCore 64000
|  6>
|  7> %pal nprocs 4
|  8> end
|  9>
| 10> %scf
| 11>   MaxIter 150
| 12> end
| 13>
| 14>
| 15>                          ****END OF INPUT****

CARTESIAN COORDINATES (ANGSTROEM)
---------------------------------
  C     -0.461293    2.234686   -4.989619
  C      0.848883    2.667967   -4.302351
  C      2.093434    1.861037   -4.656845
  H      2.444814    2.041567   -5.674990
  H      2.901748    2.137864   -3.980338
  S      1.879644    0.078594   -4.462965
  C     -0.423841    2.398772   -6.474317
  C     -0.959467    3.492647   -7.007401
  N      0.145585    1.486891   -7.203987
  H      0.565371    0.696807   -6.723858
  H      0.220682    1.581768   -8.207520
  H     -1.406243    4.181507   -6.403261
  H     -0.934215    3.681601   -7.999468
  O      3.207574   -0.466111   -4.420259
  O      1.075064   -0.056160   -3.268758
  F      1.131661   -0.319960   -5.679031
  H      0.668432    2.559427   -3.232850
  H      1.034074    3.729426   -4.497081
  H     -1.288884    2.826737   -4.594997
  H     -0.651696    1.186343   -4.756552

 Total Charge           Charge          ....    0
 Multiplicity           Mult            ....    1
 Number of Electrons    NEL             ....   88
 Basis Dimension        Dim             ....  478

ORBITAL ENERGIES
----------------

  NO   OCC          E(Eh)            E(eV)
   0   2.0000     -88.545411     -2409.4431
   1   2.0000     -24.622469      -670.0115
   2   2.0000     -19.009296      -517.2692
   3   2.0000     -19.005358      -517.1621
   4   2.0000     -14.217961      -386.8904
   5   2.0000     -10.181759      -277.0597
   6   2.0000     -10.150846      -276.2186
   7   2.0000     -10.146421      -276.0982
   8   2.0000     -10.131819      -275.7008
   9   2.0000     -10.054046      -273.5845
  10   2.0000      -8.157284      -221.9710
  11   2.0000      -6.178180      -168.1168
  12   2.0000      -6.170495      -167.9077
  13   2.0000      -6.169693      -167.8859
  14   2.0000      -1.545226       -42.0477
  15   2.0000      -1.303746       -35.4767
  16   2.0000      -1.203926       -32.7605
  17   2.0000      -1.123124       -30.5618
  18   2.0000      -1.018672       -27.7195
  19   2.0000      -0.946349       -25.7515
  20   2.0000      -0.913546       -24.8588
  21   2.0000      -0.867593       -23.6084
  22   2.0000      -0.823383       -22.4054
  23   2.0000      -0.764660       -20.8075
  24   2.0000      -0.750371       -20.4186
  25   2.0000      -0.728158       -19.8142
  26   2.0000      -0.709432       -19.3046
  27   2.0000      -0.687114       -18.6973
  28   2.0000      -0.653046       -17.7703
  29   2.0000      -0.636753       -17.3269
  30   2.0000      -0.622013       -16.9258
  31   2.0000      -0.615866       -16.7586
  32   2.0000      -0.592109       -16.1121
  33   2.0000      -0.569068       -15.4851
  34   2.0000      -0.546921       -14.8825
  35   2.0000      -0.537003       -14.6126
  36   2.0000      -0.526491       -14.3265
  37   2.0000      -0.512892       -13.9565
  38   2.0000      -0.492545       -13.4028
  39   2.0000      -0.487590       -13.2680
  40   2.0000      -0.474989       -12.9251
  41   2.0000      -0.471258       -12.8236
  42   2.0000      -0.462653       -12.5894
  43   2.0000      -0.316484        -8.6120
  44   0.0000       0.049409         1.3445
  45   0.0000       0.054565         1.4848
  46   0.0000       0.059747         1.6258
  47   0.0000       0.067273         1.8306
  48   0.0000       0.088841         2.4175

MULLIKEN ATOMIC CHARGES
-----------------------
   0 C :   -1.110448
   1 C :   -0.513874
   2 C :   -0.917494
   3 H :    0.483277
   4 H :    0.405850
   5 S :    1.052210
   6 C :    0.808789
   7 C :   -1.277183
   8 N :   -0.417937
   9 H :    0.347843
  10 H :    0.137789
  11 H :    0.307752
  12 H :    0.332810
  13 O :   -0.549741
  14 O :   -0.533453
  15 F :   -0.209454
  16 H :    0.427455
  17 H :    0.393428
  18 H :    0.413081
  19 H :    0.419300
Sum of atomic charges:   -0.0000000

LOEWDIN ATOMIC CHARGES
----------------------
   0 C :   -0.161899
   1 C :   -0.218172
   2 C :   -0.228756
   3 H :    0.118445
   4 H :    0.122341
   5 S :    0.589738
   6 C :   -0.496205
   7 C :    0.009472
   8 N :    0.109106
   9 H :    0.054601
  10 H :    0.132944
  11 H :    0.033086
  12 H :    0.027323
  13 O :   -0.252425
  14 O :   -0.251840
  15 F :   -0.088884
  16 H :    0.120355
  17 H :    0.134591
  18 H :    0.132733
  19 H :    0.113448

  Mayer bond orders larger than 0.100000
B(  0-C ,  1-C ) :   0.6485 B(  0-C ,  6-C ) :   0.6073 B(  0-C ,  7-C ) :   0.2040
B(  0-C , 18-H ) :   0.9003 B(  0-C , 19-H ) :   0.9293 B(  1-C ,  2-C ) :   0.6978
B(  1-C , 16-H ) :   0.8574 B(  1-C , 17-H ) :   0.8750 B(  2-C ,  3-H ) :   0.8023
B(  2-C ,  4-H ) :   0.8826 B(  2-C ,  5-S ) :   0.8926 B(  2-C ,  8-N ) :   0.1517
B(  5-S , 13-O ) :   1.6521 B(  5-S , 14-O ) :   1.7165 B(  5-S , 15-F ) :   0.9653
B(  6-C ,  7-C ) :   1.1464 B(  6-C ,  8-N ) :   0.7067 B(  6-C , 10-H ) :  -0.1048
B(  6-C , 12-H ) :  -0.1206 B(  7-C ,  8-N ) :   0.1386 B(  7-C , 11-H ) :   1.0178
B(  7-C , 12-H ) :   0.9990 B(  8-N ,  9-H ) :   0.8877 B(  8-N , 10-H ) :   1.0939

FINAL SINGLE POINT ENERGY      -898.137729217774

DIPOLE MOMENT
-------------
                                X             Y             Z
Electronic contribution:      6.40780     -13.37582       3.15191
Nuclear contribution   :     -6.26130      13.99605      -3.80018
                        -----------------------------------------
Total Dipole Moment    :      0.14649       0.62024      -0.64827
                        -----------------------------------------
Magnitude (a.u.)       :      0.90907
Magnitude (Debye)      :      2.31067

Rotational constants in cm-1:     0.079895     0.025630     0.022948
Rotational constants in MHz :  2395.188639   768.373696   687.955250

                             ****ORCA TERMINATED NORMALLY****
TOTAL RUN TIME: 0 days 0 hours 2 minutes 58 seconds 124 msec
