                         Program Version 5.0.0 -  RELEASE  -
|  1> !LC-PBE RIJCOSX def2-TZVPD def2/J TightSCF xyzfile
|  2>
|  3> *xyzfile 0 1 D6.xyz
|  4>
|  5> %MaxCore 64000
|  6>
|  7> %pal nprocs 4
|  8> end
|  9>
| 10> %scf
| 11>   MaxIter 150
| 12> end
| 13>
| 14>
| 15>                          ****END OF INPUT****

CARTESIAN COORDINATES (ANGSTROEM)
---------------------------------
  C     -0.461293    2.234686   -4.989619
  C      0.848883    2.667967   -4.302351
  C      2.093434    1.861037   -4.656845
  H      2.444814    2.041567   -5.674990
  H      2.901748    2.137864   -3.980338
  S      1.879644    0.078594   -4.462965
  C     -0.423841    2.398772   -6.474317
  N     -0.959467    3.492647   -7.007401
  C      0.145585    1.486891   -7.203987
  H      0.565371    0.696807   -6.723858
  H      0.220682    1.581768   -8.207520
  H     -1.406243    4.181507   -6.403261
  H     -0.934215    3.681601   -7.999468
  O      3.207574   -0.466111   -4.420259
  O      1.075064   -0.056160   -3.268758
  F      1.131661   -0.319960   -5.679031
  H      0.668432    2.559427   -3.232850
  H      1.034074    3.729426   -4.497081
  H     -1.288884    2.826737   -4.594997
  H     -0.651696    1.186343   -4.756552

 Total Charge           Charge          ....    0
 Multiplicity           Mult            ....    1
 Number of Electrons    NEL             ....   88
 Basis Dimension        Dim             ....  478

ORBITAL ENERGIES
----------------

  NO   OCC          E(Eh)            E(eV)
   0   2.0000     -88.532335     -2409.0873
   1   2.0000     -24.596982      -669.3179
   2   2.0000     -18.996395      -516.9182
   3   2.0000     -18.993436      -516.8377
   4   2.0000     -14.223023      -387.0281
   5   2.0000     -10.171520      -276.7811
   6   2.0000     -10.149718      -276.1879
   7   2.0000     -10.144800      -276.0540
   8   2.0000     -10.132021      -275.7063
   9   2.0000     -10.046973      -273.3920
  10   2.0000      -8.143923      -221.6074
  11   2.0000      -6.164520      -167.7451
  12   2.0000      -6.157409      -167.5516
  13   2.0000      -6.156504      -167.5270
  14   2.0000      -1.521611       -41.4052
  15   2.0000      -1.290366       -35.1126
  16   2.0000      -1.191873       -32.4325
  17   2.0000      -1.111923       -30.2570
  18   2.0000      -1.014461       -27.6049
  19   2.0000      -0.944787       -25.7090
  20   2.0000      -0.895878       -24.3781
  21   2.0000      -0.875964       -23.8362
  22   2.0000      -0.803332       -21.8598
  23   2.0000      -0.760049       -20.6820
  24   2.0000      -0.727838       -19.8055
  25   2.0000      -0.710986       -19.3469
  26   2.0000      -0.702310       -19.1108
  27   2.0000      -0.681690       -18.5497
  28   2.0000      -0.649882       -17.6842
  29   2.0000      -0.636296       -17.3145
  30   2.0000      -0.616502       -16.7759
  31   2.0000      -0.603221       -16.4145
  32   2.0000      -0.593111       -16.1394
  33   2.0000      -0.555912       -15.1271
  34   2.0000      -0.543228       -14.7820
  35   2.0000      -0.534753       -14.5514
  36   2.0000      -0.516727       -14.0608
  37   2.0000      -0.509478       -13.8636
  38   2.0000      -0.485729       -13.2173
  39   2.0000      -0.475501       -12.9390
  40   2.0000      -0.470201       -12.7948
  41   2.0000      -0.460749       -12.5376
  42   2.0000      -0.457958       -12.4617
  43   2.0000      -0.323997        -8.8164
  44   0.0000       0.053902         1.4667
  45   0.0000       0.060957         1.6587
  46   0.0000       0.063604         1.7308
  47   0.0000       0.066581         1.8118
  48   0.0000       0.089080         2.4240

MULLIKEN ATOMIC CHARGES
-----------------------
   0 C :   -1.152797
   1 C :   -0.526093
   2 C :   -0.933839
   3 H :    0.526827
   4 H :    0.403084
   5 S :    1.032266
   6 C :    0.962085
   7 N :   -0.492774
   8 C :   -1.559353
   9 H :    0.651444
  10 H :    0.289486
  11 H :    0.221238
  12 H :    0.180069
  13 O :   -0.562891
  14 O :   -0.540870
  15 F :   -0.124742
  16 H :    0.429870
  17 H :    0.358532
  18 H :    0.451605
  19 H :    0.386852
Sum of atomic charges:    0.0000000

LOEWDIN ATOMIC CHARGES
----------------------
   0 C :   -0.159039
   1 C :   -0.219866
   2 C :   -0.228623
   3 H :    0.117996
   4 H :    0.120901
   5 S :    0.588406
   6 C :   -0.478802
   7 N :    0.092651
   8 C :    0.011894
   9 H :   -0.006723
  10 H :    0.048665
  11 H :    0.114398
  12 H :    0.116211
  13 O :   -0.257222
  14 O :   -0.258382
  15 F :   -0.097762
  16 H :    0.119683
  17 H :    0.131391
  18 H :    0.127508
  19 H :    0.116715

  Mayer bond orders larger than 0.100000
B(  0-C ,  1-C ) :   0.7119 B(  0-C ,  6-C ) :   0.4485 B(  0-C ,  7-N ) :   0.1643
B(  0-C ,  8-C ) :   0.1742 B(  0-C , 18-H ) :   0.8845 B(  0-C , 19-H ) :   0.9672
B(  1-C ,  2-C ) :   0.7086 B(  1-C ,  8-C ) :  -0.1361 B(  1-C , 16-H ) :   0.8450
B(  1-C , 17-H ) :   0.8899 B(  2-C ,  3-H ) :   0.7950 B(  2-C ,  4-H ) :   0.8898
B(  2-C ,  5-S ) :   0.8911 B(  2-C ,  8-C ) :   0.1737 B(  5-S , 13-O ) :   1.6399
B(  5-S , 14-O ) :   1.7041 B(  5-S , 15-F ) :   1.0132 B(  6-C ,  7-N ) :   0.6443
B(  6-C ,  8-C ) :   0.9312 B(  6-C , 10-H ) :  -0.1641 B(  6-C , 18-H ) :  -0.1003
B(  7-N ,  8-C ) :   0.1133 B(  7-N , 11-H ) :   1.0153 B(  7-N , 12-H ) :   1.0659
B(  8-C ,  9-H ) :   0.6736 B(  8-C , 10-H ) :   1.1349 B(  8-C , 15-F ) :   0.1445
B(  9-H , 15-F ) :  -0.2815

FINAL SINGLE POINT ENERGY      -898.131149120597

DIPOLE MOMENT
-------------
                                X             Y             Z
Electronic contribution:      5.54050     -11.94601       3.16239
Nuclear contribution   :     -6.15577      13.80449      -3.81895
                        -----------------------------------------
Total Dipole Moment    :     -0.61527       1.85849      -0.65656
                        -----------------------------------------
Magnitude (a.u.)       :      2.06485
Magnitude (Debye)      :      5.24843

Rotational constants in cm-1:     0.081431     0.024887     0.022470
Rotational constants in MHz :  2441.231544   746.086417   673.646914

                             ****ORCA TERMINATED NORMALLY****
TOTAL RUN TIME: 0 days 0 hours 3 minutes 7 seconds 617 msec
