                               Psi4 1.4rc1

  ==> Input File <==

--------------------------------------------------------------------------
memory 2GB

mol = psi4.core.Molecule.from_arrays(
    elez=[7,1,1,1,8,6,6,1,1,1,1,6,1,1],
    fragment_separators=[4, 5],
    fix_com=True,
    fix_orientation=True,
    fix_symmetry='c1',
    fragment_multiplicities=[2, 2, 1],
    fragment_charges=[+1,-1,0],
    molecular_charge=0,
    molecular_multiplicity=1,
    geom= [
    -3.176900 , -0.159484 ,  1.610700,
    -4.064736 ,  0.231272 ,  1.286754,
    -3.344073 , -0.671511 ,  2.484928,
    -2.716861 , -0.781886 ,  0.935880,

    -1.712061 , -1.376836 ,  0.202535,

    -2.120502 ,  0.885196 ,  1.789506,
    -0.778939 ,  0.171966 ,  1.804965,
    -2.324193 ,  1.472649 ,  2.686078,
    -2.187698 ,  1.541272 ,  0.919482,
     0.015695 ,  0.910767 ,  1.939153,
    -0.743553 , -0.506827 ,  2.665420,
    -0.602493 , -0.630712 ,  0.492240,
     0.313894 , -1.240346 ,  0.603498,
    -0.363829 ,  0.113322 , -0.301169])
activate(mol)

set {
basis aug-cc-pvtz
scf_type df
guess sad
freeze_core true
fisapt_do_plot false  # For extra analysis
}

energy('fisapt0')
--------------------------------------------------------------------------

    Molecular point group: c1

    Geometry (in Angstrom), charge = 0, multiplicity = 1:

       Center              X                  Y                   Z               Mass
    ------------   -----------------  -----------------  -----------------  -----------------
         N           -3.176900000000    -0.159484000000     1.610700000000    14.003074004430
         H           -4.064736000000     0.231272000000     1.286754000000     1.007825032230
         H           -3.344073000000    -0.671511000000     2.484928000000     1.007825032230
         H           -2.716861000000    -0.781886000000     0.935880000000     1.007825032230
         O           -1.712061000000    -1.376836000000     0.202535000000    15.994914619570
         C           -2.120502000000     0.885196000000     1.789506000000    12.000000000000
         C           -0.778939000000     0.171966000000     1.804965000000    12.000000000000
         H           -2.324193000000     1.472649000000     2.686078000000     1.007825032230
         H           -2.187698000000     1.541272000000     0.919482000000     1.007825032230
         H            0.015695000000     0.910767000000     1.939153000000     1.007825032230
         H           -0.743553000000    -0.506827000000     2.665420000000     1.007825032230
         C           -0.602493000000    -0.630712000000     0.492240000000    12.000000000000
         H            0.313894000000    -1.240346000000     0.603498000000     1.007825032230
         H           -0.363829000000     0.113322000000    -0.301169000000     1.007825032230

  Charge       = 0
  Multiplicity = 1
  Basis Set: AUG-CC-PVTZ
    Blend: AUG-CC-PVTZ
  Basis Set: (AUG-CC-PVTZ AUX)
    Blend: AUG-CC-PVTZ-JKFIT

    Orbital Energies [Eh]
    ---------------------

    Doubly Occupied:

       1A    -20.413501     2A    -15.646008     3A    -11.292403
       4A    -11.222327     5A    -11.216834     6A     -1.302675
       7A     -1.213719     8A     -1.036563     9A     -0.888824
      10A     -0.798206    11A     -0.757837    12A     -0.736131
      13A     -0.649521    14A     -0.599596    15A     -0.562303
      16A     -0.556759    17A     -0.510287    18A     -0.489103
      19A     -0.468313    20A     -0.330058    21A     -0.326425

  @DF-RHF Final Energy:  -248.17537310909091

   => Energetics <=

    Nuclear Repulsion Energy =            200.8008061220805018
    One-Electron Energy =                -735.9175750736773125
    Two-Electron Energy =                 286.9413958425058695
    Total Energy =                       -248.1753731090909127

  Dipole Moment: [D]
     X:    -3.6798      Y:     4.2216      Z:     4.4708     Total:     7.1659

  Basis Set: (AUG-CC-PVTZ AUX)
    Blend: AUG-CC-PVTZ-JKFIT

    SAPT Results
  --------------------------------------------------------------------------------------------------------
    Electrostatics               -280.27838926 [mEh]    -175.87734455 [kcal/mol]    -735.87080961 [kJ/mol]
      Elst10,r                   -280.27838926 [mEh]    -175.87734455 [kcal/mol]    -735.87080961 [kJ/mol]

    Exchange                      117.37601795 [mEh]      73.65456326 [kcal/mol]     308.17069267 [kJ/mol]
      Exch10                      117.37601795 [mEh]      73.65456326 [kcal/mol]     308.17069267 [kJ/mol]
      Exch10(S^2)                 109.97996666 [mEh]      69.01347100 [kcal/mol]     288.75236267 [kJ/mol]

    Induction                     -71.57089688 [mEh]     -44.91141584 [kcal/mol]    -187.90936388 [kJ/mol]
      Ind20,r                    -118.97159371 [mEh]     -74.65580216 [kcal/mol]    -312.35987625 [kJ/mol]
      Exch-Ind20,r                 74.21954497 [mEh]      46.57346761 [kcal/mol]     194.86338847 [kJ/mol]
      delta HF,r (2)              -26.81884814 [mEh]     -16.82908129 [kcal/mol]     -70.41287610 [kJ/mol]
      Induction (A<-B)            -28.13012434 [mEh]     -17.65191952 [kcal/mol]     -73.85563129 [kJ/mol]
      Induction (B<-A)            -43.44077254 [mEh]     -27.25949632 [kcal/mol]    -114.05373259 [kJ/mol]

    Dispersion                    -13.74813398 [mEh]      -8.62708432 [kcal/mol]     -36.09572079 [kJ/mol]
      Disp20                      -18.82221293 [mEh]     -11.81111693 [kcal/mol]     -49.41771323 [kJ/mol]
      Exch-Disp20                   5.07407895 [mEh]       3.18403261 [kcal/mol]      13.32199244 [kJ/mol]

  Total HF                       -234.47326819 [mEh]    -147.13419714 [kcal/mol]    -615.60948083 [kJ/mol]
  Total SAPT0                    -248.22140217 [mEh]    -155.76128146 [kcal/mol]    -651.70520162 [kJ/mol]

  --------------------------------------------------------------------------------------------------------

*** Psi4 exiting successfully. Buy a developer a beer!
