                               Psi4 1.4rc1

  ==> Input File <==

--------------------------------------------------------------------------
memory 2GB

mol = psi4.core.Molecule.from_arrays(
    elez=[7,1,1,1,16,8,8,8,6,6,6,1,1,1,1,1,1],
    fragment_separators=[4, 8],
    fix_com=True,
    fix_orientation=True,
    fix_symmetry='c1',
    fragment_multiplicities=[2, 2, 1],
    fragment_charges=[+1,-1,0],
    molecular_charge=0,
    molecular_multiplicity=1,
    geom= [
      0.42884350282670 ,     0.32140231760796,     -1.65531186167186,
      0.74857790009701 ,    -0.40054183926203,     -1.00134487477587,
     -0.46105263517042 ,     0.02333186663155,     -2.07773134077319,
      0.31025846368939 ,     1.20137465907452,     -1.13494757511439,

     -1.32860842874695 ,     0.14673726998850,     -4.43578091160516,
     -2.57134655786555 ,     0.47573265118081,     -5.06834105605282,
     -1.51496290436282 ,    -0.40051214725120,     -3.06342020389925,
     -0.37792840161595 ,    -0.62755777872401,     -5.20114102733324,

      1.36401379286593 ,     0.46874177898203,     -2.81376379847671,
      0.96804515216561 ,     1.63063857620477,     -3.71574907816083,
     -0.50834729052918 ,     1.72267873668430,     -4.12429969986748,
     -0.59151056585997 ,     2.29495774295438,     -5.04721886464200,
     -1.11411394138300 ,     2.23561047384228,     -3.37436176875138,
      1.29484732563869 ,    -0.46874190878321,     -3.36468447056886,
      2.37621566682840 ,     0.59740011523247,     -2.43149458961128,
      1.57868832007079 ,     1.52065248862023,     -4.61273308140539,
      1.26665260135133 ,     2.57598799701663,     -3.25044779729026 ])
activate(mol)

set {
basis aug-cc-pvtz
scf_type df
guess sad
freeze_core true
fisapt_do_plot false  # For extra analysis
}

energy('fisapt0')
--------------------------------------------------------------------------

    Molecular point group: c1

    Geometry (in Angstrom), charge = 0, multiplicity = 1:

       Center              X                  Y                   Z               Mass
    ------------   -----------------  -----------------  -----------------  -----------------
         N            0.428843502827     0.321402317608    -1.655311861672    14.003074004430
         H            0.748577900097    -0.400541839262    -1.001344874776     1.007825032230
         H           -0.461052635170     0.023331866632    -2.077731340773     1.007825032230
         H            0.310258463689     1.201374659075    -1.134947575114     1.007825032230
         S           -1.328608428747     0.146737269989    -4.435780911605    31.972071174400
         O           -2.571346557866     0.475732651181    -5.068341056053    15.994914619570
         O           -1.514962904363    -0.400512147251    -3.063420203899    15.994914619570
         O           -0.377928401616    -0.627557778724    -5.201141027333    15.994914619570
         C            1.364013792866     0.468741778982    -2.813763798477    12.000000000000
         C            0.968045152166     1.630638576205    -3.715749078161    12.000000000000
         C           -0.508347290529     1.722678736684    -4.124299699867    12.000000000000
         H           -0.591510565860     2.294957742954    -5.047218864642     1.007825032230
         H           -1.114113941383     2.235610473842    -3.374361768751     1.007825032230
         H            1.294847325639    -0.468741908783    -3.364684470569     1.007825032230
         H            2.376215666828     0.597400115232    -2.431494589611     1.007825032230
         H            1.578688320071     1.520652488620    -4.612733081405     1.007825032230
         H            1.266652601351     2.575987997017    -3.250447797290     1.007825032230

  Charge       = 0
  Multiplicity = 1
  Basis Set: AUG-CC-PVTZ
    Blend: AUG-CC-PVTZ
  Basis Set: (AUG-CC-PVTZ AUX)
    Blend: AUG-CC-PVTZ-JKFIT

    Orbital Energies [Eh]
    ---------------------

    Doubly Occupied:

       1A    -92.150166     2A    -20.507857     3A    -20.491580
       4A    -20.488489     5A    -15.703398     6A    -11.323653
       7A    -11.272090     8A    -11.253944     9A     -9.113834
      10A     -6.799266    11A     -6.798972    12A     -6.798813
      13A     -1.444263    14A     -1.342798    15A     -1.292162
      16A     -1.291225    17A     -1.101546    18A     -0.990931
      19A     -0.879163    20A     -0.822475    21A     -0.794976
      22A     -0.754315    23A     -0.698409    24A     -0.662080
      25A     -0.646854    26A     -0.639364    27A     -0.615196
      28A     -0.601750    29A     -0.557001    30A     -0.544645
      31A     -0.529517    32A     -0.496041    33A     -0.485899
      34A     -0.448036    35A     -0.438644    36A     -0.410319
      37A     -0.401537

  @DF-RHF Final Energy:  -795.53455769437005

   => Energetics <=

    Nuclear Repulsion Energy =            553.4963448450939723
    One-Electron Energy =               -2194.8793795469532597
    Two-Electron Energy =                 845.8484770074892367
    Total Energy =                       -795.5345576943700507

  Dipole Moment: [D]
     X:     8.1826      Y:     3.9731      Z:     9.0015     Total:    12.7972

  Basis Set: (AUG-CC-PVTZ AUX)
    Blend: AUG-CC-PVTZ-JKFIT

    SAPT Results
  --------------------------------------------------------------------------------------------------------
    Electrostatics               -164.81174479 [mEh]    -103.42093125 [kcal/mol]    -432.71317633 [kJ/mol]
      Elst10,r                   -164.81174479 [mEh]    -103.42093125 [kcal/mol]    -432.71317633 [kJ/mol]

    Exchange                       59.29563835 [mEh]      37.20857482 [kcal/mol]     155.68067704 [kJ/mol]
      Exch10                       59.29563835 [mEh]      37.20857482 [kcal/mol]     155.68067704 [kJ/mol]
      Exch10(S^2)                  57.30240891 [mEh]      35.95780446 [kcal/mol]     150.44745386 [kJ/mol]

    Induction                     -39.79156744 [mEh]     -24.96958555 [kcal/mol]    -104.47274593 [kJ/mol]
      Ind20,r                     -46.34164027 [mEh]     -29.07981830 [kcal/mol]    -121.66995976 [kJ/mol]
      Exch-Ind20,r                 21.83130954 [mEh]      13.69935356 [kcal/mol]      57.31809530 [kJ/mol]
      delta HF,r (2)              -15.28123672 [mEh]      -9.58912081 [kcal/mol]     -40.12088147 [kJ/mol]
      Induction (A<-B)             -7.13582626 [mEh]      -4.47779858 [kcal/mol]     -18.73510928 [kJ/mol]
      Induction (B<-A)            -32.65574118 [mEh]     -20.49178696 [kcal/mol]     -85.73763665 [kJ/mol]

    Dispersion                     -9.81920998 [mEh]      -6.16164729 [kcal/mol]     -25.78033226 [kJ/mol]
      Disp20                      -12.19543727 [mEh]      -7.65275242 [kcal/mol]     -32.01911614 [kJ/mol]
      Exch-Disp20                   2.37622729 [mEh]       1.49110513 [kcal/mol]       6.23878388 [kJ/mol]

  Total HF                       -145.30767388 [mEh]     -91.18194197 [kcal/mol]    -381.50524522 [kJ/mol]
  Total SAPT0                    -155.12688387 [mEh]     -97.34358926 [kcal/mol]    -407.28557748 [kJ/mol]

  --------------------------------------------------------------------------------------------------------

*** Psi4 exiting successfully. Buy a developer a beer!
