                               Psi4 1.4rc1

  ==> Input File <==

--------------------------------------------------------------------------
memory 2GB

mol = psi4.core.Molecule.from_arrays(
    elez=[7,1,1,1,6,8,8,6,6,6,1,1,1,1,1,1],
    fragment_separators=[4, 7],
    fix_com=True,
    fix_orientation=True,
    fix_symmetry='c1',
    fragment_multiplicities=[2, 2, 1],
    fragment_charges=[+1,-1,0],
    molecular_charge=0,
    molecular_multiplicity=1,
    geom= [
    0.28127984387120 ,     0.67645445008226  ,   -2.24017882281796,
    0.39078982234721 ,    -0.31925305682600  ,   -2.02649472204110,
   -0.69268573463875 ,     0.99010404550299  ,   -2.13812305565438,
    0.85420640417775 ,     1.21221440488510  ,   -1.57527895335090,

   -2.35773202247692 ,     2.30685761880910  ,   -3.13675348718298,
   -3.44376282706836 ,     2.84651849689285  ,   -3.25274403211467,
   -1.97092208588631 ,     1.58304212923087  ,   -2.15122870414341,

    0.64865609197938 ,     1.00359491430560  ,   -3.64560058948429,
    0.13296805634975 ,     2.38586900509717  ,   -4.02461835552568,
   -1.36646223853163 ,     2.47910585019382  ,   -4.31393172260702,
   -1.63680195209747 ,     1.72709458177639  ,   -5.06399277142402,
   -1.58234651576219 ,     3.44560530582257  ,   -4.76868652162466,
    0.19099313978949 ,     0.23965470972905  ,   -4.27575248646522,
    1.73157234277303 ,     0.93172861192758  ,   -3.75075059014208,
    0.41483853888046 ,     3.10284729263349  ,   -3.24516509130670,
    0.68316713629335 ,     2.68755963993716  ,   -4.91972109411489
])
activate(mol)

set {
basis aug-cc-pvtz
scf_type df
guess sad
freeze_core true
fisapt_do_plot false  # For extra analysis
}

energy('fisapt0')
--------------------------------------------------------------------------

    Molecular point group: c1

    Geometry (in Angstrom), charge = 0, multiplicity = 1:

       Center              X                  Y                   Z               Mass
    ------------   -----------------  -----------------  -----------------  -----------------
         N            0.281279843871     0.676454450082    -2.240178822818    14.003074004430
         H            0.390789822347    -0.319253056826    -2.026494722041     1.007825032230
         H           -0.692685734639     0.990104045503    -2.138123055654     1.007825032230
         H            0.854206404178     1.212214404885    -1.575278953351     1.007825032230
         C           -2.357732022477     2.306857618809    -3.136753487183    12.000000000000
         O           -3.443762827068     2.846518496893    -3.252744032115    15.994914619570
         O           -1.970922085886     1.583042129231    -2.151228704143    15.994914619570
         C            0.648656091979     1.003594914306    -3.645600589484    12.000000000000
         C            0.132968056350     2.385869005097    -4.024618355526    12.000000000000
         C           -1.366462238532     2.479105850194    -4.313931722607    12.000000000000
         H           -1.636801952097     1.727094581776    -5.063992771424     1.007825032230
         H           -1.582346515762     3.445605305823    -4.768686521625     1.007825032230
         H            0.190993139789     0.239654709729    -4.275752486465     1.007825032230
         H            1.731572342773     0.931728611928    -3.750750590142     1.007825032230
         H            0.414838538880     3.102847292633    -3.245165091307     1.007825032230
         H            0.683167136293     2.687559639937    -4.919721094115     1.007825032230

  Charge       = 0
  Multiplicity = 1
  Basis Set: AUG-CC-PVTZ
    Blend: AUG-CC-PVTZ
  Basis Set: (AUG-CC-PVTZ AUX)
    Blend: AUG-CC-PVTZ-JKFIT

    Orbital Energies [Eh]
    ---------------------

    Doubly Occupied:

       1A    -20.474142     2A    -20.455675     3A    -15.678476
       4A    -11.319729     5A    -11.304168     6A    -11.256314
       7A    -11.219173     8A     -1.356783     9A     -1.321431
      10A     -1.249002    11A     -1.085534    12A     -0.966160
      13A     -0.860995    14A     -0.800226    15A     -0.777789
      16A     -0.702858    17A     -0.668451    18A     -0.652076
      19A     -0.602304    20A     -0.595743    21A     -0.566167
      22A     -0.545923    23A     -0.535950    24A     -0.512898
      25A     -0.486488    26A     -0.394448    27A     -0.373669
      28A     -0.364343

  @DF-RHF Final Energy:  -361.00722287060819

   => Energetics <=

    Nuclear Repulsion Energy =            323.5774628211906361
    One-Electron Energy =               -1134.9155369112772860
    Two-Electron Energy =                 450.3308512194784043
    Total Energy =                       -361.0072228706081887

  Dipole Moment: [D]
     X:    11.0298      Y:    -4.4267      Z:    -0.4586     Total:    11.8938

  Basis Set: (AUG-CC-PVTZ AUX)
    Blend: AUG-CC-PVTZ-JKFIT

    SAPT Results
  --------------------------------------------------------------------------------------------------------
    Electrostatics               -207.15495318 [mEh]    -129.99169566 [kcal/mol]    -543.88525463 [kJ/mol]
      Elst10,r                   -207.15495318 [mEh]    -129.99169566 [kcal/mol]    -543.88525463 [kJ/mol]

    Exchange                       87.85139571 [mEh]      55.12758309 [kcal/mol]     230.65380767 [kJ/mol]
      Exch10                       87.85139571 [mEh]      55.12758309 [kcal/mol]     230.65380767 [kJ/mol]
      Exch10(S^2)                  83.70406975 [mEh]      52.52509676 [kcal/mol]     219.76500486 [kJ/mol]

    Induction                     -54.50796974 [mEh]     -34.20426741 [kcal/mol]    -143.11065483 [kJ/mol]
      Ind20,r                     -72.02508575 [mEh]     -45.19642366 [kcal/mol]    -189.10183658 [kJ/mol]
      Exch-Ind20,r                 39.33154757 [mEh]      24.68091872 [kcal/mol]     103.26496391 [kJ/mol]
      delta HF,r (2)              -21.81443156 [mEh]     -13.68876247 [kcal/mol]     -57.27378216 [kJ/mol]
      Induction (A<-B)            -13.10929032 [mEh]      -8.22620387 [kcal/mol]     -34.41843700 [kJ/mol]
      Induction (B<-A)            -41.39867942 [mEh]     -25.97806354 [kcal/mol]    -108.69221783 [kJ/mol]

    Dispersion                    -12.08256331 [mEh]      -7.58192294 [kcal/mol]     -31.72276559 [kJ/mol]
      Disp20                      -15.69913177 [mEh]      -9.85135392 [kcal/mol]     -41.21806479 [kJ/mol]
      Exch-Disp20                   3.61656846 [mEh]       2.26943097 [kcal/mol]       9.49529919 [kJ/mol]

  Total HF                       -173.81152720 [mEh]    -109.06837997 [kcal/mol]    -456.34210179 [kJ/mol]
  Total SAPT0                    -185.89409051 [mEh]    -116.65030291 [kcal/mol]    -488.06486739 [kJ/mol]

  --------------------------------------------------------------------------------------------------------

*** Psi4 exiting successfully. Buy a developer a beer!
