                               Psi4 1.4rc1

  ==> Input File <==

--------------------------------------------------------------------------
memory 2GB

mol = psi4.core.Molecule.from_arrays(
    elez=[7,1,1,1,6,8,8,6,1,6,1,6,6,1,1,6,1,1,6,1,1,1,1,1,1],
    fragment_separators=[4, 7],
    fix_com=True,
    fix_orientation=True,
    fix_symmetry='c1',
    fragment_multiplicities=[2, 2, 1],
    fragment_charges=[+1,-1,0],
    molecular_charge=0,
    molecular_multiplicity=1,
    geom= [
      1.10055208871417 ,    -2.46749227747736 ,  -3.59926909119873,
      1.70060599146350 ,    -1.75722509223885 ,  -4.07837772892521,
      0.29385515315016 ,    -2.35976611333848 ,  -4.25632433732008,
      1.50132417792186 ,    -3.42847874342986 ,  -3.69491499151003,

      0.39595827375538 ,    -0.37069586279003 ,  -5.33993942241200,
     -0.32632925825688 ,    -1.39039817422041 ,  -5.49127878122901,
      1.61941221571514 ,    -0.40072627782657 ,  -5.03682695028978,

      0.81606673724241 ,    -2.10149058870509 ,  -2.18654640454073,
      1.69623183089009 ,    -2.36869143989330 ,  -1.60045720521435,
      0.51624257596063 ,    -0.61363434016829 ,  -2.03937303604041,
     -0.02006587904244 ,    -2.71284938037043 ,  -1.84084413400210,
     -0.86862067924298 ,    -0.19392482334263 ,  -2.54630304976128,
     -0.98480092879417 ,     1.28473879161483 ,  -2.92868617924178,
     -0.76493940288803 ,     1.90411646357744 ,  -2.05156825699074,
     -2.03261285669165 ,     1.47895328307028 ,  -3.17895231040188,
     -0.10608468153276 ,     1.76991388264695 ,  -4.08983603216727,
     -0.34774375926214 ,     2.82219601244361 ,  -4.26294213025306,
      0.94968329017289 ,     1.74587544419840 ,  -3.80878112139977,
     -0.25874724475583 ,     1.00432256078874 ,  -5.40982893674845,
      0.23915015980210 ,     1.56939264527327 ,  -6.20125273283106,
     -1.30936043093542 ,     0.88869370937366 ,  -5.68245461672084,
     -1.60727053932045 ,    -0.41265124021545 ,  -1.76895462709808,
     -1.15723448037438 ,    -0.79616429021186 ,  -3.40925356245728,
      1.29904365537052 ,    -0.05680475906092 ,  -2.55898241077219,
      0.61239299093826 ,    -0.36557938969762 ,  -0.97917095047386])
activate(mol)

set {
basis aug-cc-pvtz
scf_type df
guess sad
freeze_core true
fisapt_do_plot false  # For extra analysis
}

energy('fisapt0')
--------------------------------------------------------------------------

    Molecular point group: c1

    Geometry (in Angstrom), charge = 0, multiplicity = 1:

       Center              X                  Y                   Z               Mass
    ------------   -----------------  -----------------  -----------------  -----------------
         N            1.100552088714    -2.467492277477    -3.599269091199    14.003074004430
         H            1.700605991464    -1.757225092239    -4.078377728925     1.007825032230
         H            0.293855153150    -2.359766113338    -4.256324337320     1.007825032230
         H            1.501324177922    -3.428478743430    -3.694914991510     1.007825032230
         C            0.395958273755    -0.370695862790    -5.339939422412    12.000000000000
         O           -0.326329258257    -1.390398174220    -5.491278781229    15.994914619570
         O            1.619412215715    -0.400726277827    -5.036826950290    15.994914619570
         C            0.816066737242    -2.101490588705    -2.186546404541    12.000000000000
         H            1.696231830890    -2.368691439893    -1.600457205214     1.007825032230
         C            0.516242575961    -0.613634340168    -2.039373036040    12.000000000000
         H           -0.020065879042    -2.712849380370    -1.840844134002     1.007825032230
         C           -0.868620679243    -0.193924823343    -2.546303049761    12.000000000000
         C           -0.984800928794     1.284738791615    -2.928686179242    12.000000000000
         H           -0.764939402888     1.904116463577    -2.051568256991     1.007825032230
         H           -2.032612856692     1.478953283070    -3.178952310402     1.007825032230
         C           -0.106084681533     1.769913882647    -4.089836032167    12.000000000000
         H           -0.347743759262     2.822196012444    -4.262942130253     1.007825032230
         H            0.949683290173     1.745875444198    -3.808781121400     1.007825032230
         C           -0.258747244756     1.004322560789    -5.409828936748    12.000000000000
         H            0.239150159802     1.569392645273    -6.201252732831     1.007825032230
         H           -1.309360430935     0.888693709374    -5.682454616721     1.007825032230
         H           -1.607270539320    -0.412651240215    -1.768954627098     1.007825032230
         H           -1.157234480374    -0.796164290212    -3.409253562457     1.007825032230
         H            1.299043655371    -0.056804759061    -2.558982410772     1.007825032230
         H            0.612392990938    -0.365579389698    -0.979170950474     1.007825032230

  Charge       = 0
  Multiplicity = 1
  Basis Set: AUG-CC-PVTZ
    Blend: AUG-CC-PVTZ
  Basis Set: (AUG-CC-PVTZ AUX)
    Blend: AUG-CC-PVTZ-JKFIT

    Orbital Energies [Eh]
    ---------------------

    Doubly Occupied:

       1A    -20.479995     2A    -20.479454     3A    -15.653068
       4A    -11.316140     5A    -11.301826     6A    -11.237950
       7A    -11.219686     8A    -11.216195     9A    -11.209569
      10A    -11.201403    11A     -1.372605    12A     -1.285105
      13A     -1.259562    14A     -1.093677    15A     -1.040849
      16A     -0.980782    17A     -0.899292    18A     -0.851049
      19A     -0.775859    20A     -0.755102    21A     -0.729399
      22A     -0.701639    23A     -0.667986    24A     -0.638347
      25A     -0.627639    26A     -0.616807    27A     -0.594619
      28A     -0.580841    29A     -0.565716    30A     -0.544725
      31A     -0.539760    32A     -0.522091    33A     -0.501321
      34A     -0.493234    35A     -0.463577    36A     -0.449329
      37A     -0.444592    38A     -0.399587    39A     -0.389247
      40A     -0.384801

  @DF-RHF Final Energy:  -478.15818356283654

   => Energetics <=

    Nuclear Repulsion Energy =            605.3323507626313358
    One-Electron Energy =               -1854.0122278954472677
    Two-Electron Energy =                 770.5216935699793339
    Total Energy =                       -478.1581835628364843

  Dipole Moment: [D]
     X:     0.6233      Y:    -2.8684      Z:     5.2929     Total:     6.0524

  Basis Set: (AUG-CC-PVTZ AUX)
    Blend: AUG-CC-PVTZ-JKFIT

    SAPT Results
  --------------------------------------------------------------------------------------------------------
    Electrostatics               -267.14958576 [mEh]    -167.63889598 [kcal/mol]    -701.40114077 [kJ/mol]
      Elst10,r                   -267.14958576 [mEh]    -167.63889598 [kcal/mol]    -701.40114077 [kJ/mol]

    Exchange                       87.82118131 [mEh]      55.10862327 [kcal/mol]     230.57447976 [kJ/mol]
      Exch10                       87.82118131 [mEh]      55.10862327 [kcal/mol]     230.57447976 [kJ/mol]
      Exch10(S^2)                  85.80694482 [mEh]      53.84467079 [kcal/mol]     225.28610260 [kJ/mol]

    Induction                     -44.45220419 [mEh]     -27.89417926 [kcal/mol]    -116.70924603 [kJ/mol]
      Ind20,r                     -80.48823839 [mEh]     -50.50713212 [kcal/mol]    -211.32184078 [kJ/mol]
      Exch-Ind20,r                 52.99165005 [mEh]      33.25276244 [kcal/mol]     139.12955804 [kJ/mol]
      delta HF,r (2)              -16.95561585 [mEh]     -10.63980958 [kcal/mol]     -44.51696328 [kJ/mol]
      Induction (A<-B)            -13.62139210 [mEh]      -8.54755259 [kcal/mol]     -35.76296004 [kJ/mol]
      Induction (B<-A)            -30.83081209 [mEh]     -19.34662667 [kcal/mol]     -80.94628599 [kJ/mol]

    Dispersion                    -14.94963665 [mEh]      -9.38103863 [kcal/mol]     -39.25026562 [kJ/mol]
      Disp20                      -19.93010633 [mEh]     -12.50633053 [kcal/mol]     -52.32648696 [kJ/mol]
      Exch-Disp20                   4.98046968 [mEh]       3.12529191 [kcal/mol]      13.07622134 [kJ/mol]

  Total HF                       -223.78060864 [mEh]    -140.42445197 [kcal/mol]    -587.53590704 [kJ/mol]
  Total SAPT0                    -238.73024529 [mEh]    -149.80549060 [kcal/mol]    -626.78617266 [kJ/mol]

  --------------------------------------------------------------------------------------------------------

*** Psi4 exiting successfully. Buy a developer a beer!
