                               Psi4 1.4rc1

  ==> Input File <==

--------------------------------------------------------------------------
memory 2GB

mol = psi4.core.Molecule.from_arrays(
    elez=[7,1,1,1,16,8,8,8,6,6,6,1,1,6,1,1,6,1,1,6,1,1,1,1,1,1],
    fragment_separators=[4, 8],
    fix_com=True,
    fix_orientation=True,
    fix_symmetry='c1',
    fragment_multiplicities=[2, 2, 1],
    fragment_charges=[+1,-1,0],
    molecular_charge=0,
    molecular_multiplicity=1,
    geom= [
     -5.76353884223015 ,    -1.91517009418630,      0.70501225109336,
     -5.84081245237619 ,    -2.11520496885759,     -0.30064636473643,
     -6.40882305467270 ,    -1.14865557918753,      0.93612380710616,
     -6.17478054583437 ,    -2.79060640086591,      1.05143281280082,

     -6.90317860430990 ,    -4.61903253888189,     -0.52845825115517,
     -8.11485258526140 ,    -5.25093175024807,     -0.95700738251447,
     -6.53271453225512 ,    -3.42683780758907,     -1.31484833350533,
     -6.86563206192867 ,    -4.29495735314382,      0.91411800996612,

     -4.38262307886767 ,    -1.67088922228706,      1.21620123990041,
     -3.28172816708473 ,    -2.19127232077839,      0.29436121170575,
     -5.57236426601091 ,    -5.80779778121059,     -0.81644493289857,
     -4.32861817962042 ,    -2.13922323707488,      2.19810279265955,
     -4.26158307942325 ,    -0.59739871300170,      1.35724823988995,
     -3.47464105423692 ,    -3.60589776252897,     -0.25960779625154,
     -2.35454782301695 ,    -2.12760215089291,      0.87143339272696,
     -3.16661075688755 ,    -1.49969259247718,     -0.54503743179829,
     -3.82707794579219 ,    -4.66109690477400,      0.78617419203130,
     -2.56055885694710 ,    -3.88939125067962,     -0.78805017589939,
     -4.25593238268619 ,    -3.57004024272238,     -1.01930020512300,
     -4.45780043491397 ,    -5.94187487851777,      0.22919486881541,
     -5.17734748006984 ,    -5.54257484549727,     -1.79771391924681,
     -6.07420247450873 ,    -6.76889357327374,     -0.92127238617293,
     -4.53050586409487 ,    -4.25364028666500,      1.51197854131922,
     -2.93339997158313 ,    -4.93230154381368,      1.35682513909863,
     -3.68106403831382 ,    -6.56223642818638,     -0.22988450045485,
     -4.84394246707289 ,    -6.51272777265803,      1.07580518064312
])
activate(mol)

set {
basis aug-cc-pvtz
scf_type df
guess sad
freeze_core true
fisapt_do_plot false  # For extra analysis
}

energy('fisapt0')
--------------------------------------------------------------------------

    Molecular point group: c1

    Geometry (in Angstrom), charge = 0, multiplicity = 1:

       Center              X                  Y                   Z               Mass
    ------------   -----------------  -----------------  -----------------  -----------------
         N           -5.763538842230    -1.915170094186     0.705012251093    14.003074004430
         H           -5.840812452376    -2.115204968858    -0.300646364736     1.007825032230
         H           -6.408823054673    -1.148655579188     0.936123807106     1.007825032230
         H           -6.174780545834    -2.790606400866     1.051432812801     1.007825032230
         S           -6.903178604310    -4.619032538882    -0.528458251155    31.972071174400
         O           -8.114852585261    -5.250931750248    -0.957007382514    15.994914619570
         O           -6.532714532255    -3.426837807589    -1.314848333505    15.994914619570
         O           -6.865632061929    -4.294957353144     0.914118009966    15.994914619570
         C           -4.382623078868    -1.670889222287     1.216201239900    12.000000000000
         C           -3.281728167085    -2.191272320778     0.294361211706    12.000000000000
         C           -5.572364266011    -5.807797781211    -0.816444932899    12.000000000000
         H           -4.328618179620    -2.139223237075     2.198102792660     1.007825032230
         H           -4.261583079423    -0.597398713002     1.357248239890     1.007825032230
         C           -3.474641054237    -3.605897762529    -0.259607796252    12.000000000000
         H           -2.354547823017    -2.127602150893     0.871433392727     1.007825032230
         H           -3.166610756888    -1.499692592477    -0.545037431798     1.007825032230
         C           -3.827077945792    -4.661096904774     0.786174192031    12.000000000000
         H           -2.560558856947    -3.889391250680    -0.788050175899     1.007825032230
         H           -4.255932382686    -3.570040242722    -1.019300205123     1.007825032230
         C           -4.457800434914    -5.941874878518     0.229194868815    12.000000000000
         H           -5.177347480070    -5.542574845497    -1.797713919247     1.007825032230
         H           -6.074202474509    -6.768893573274    -0.921272386173     1.007825032230
         H           -4.530505864095    -4.253640286665     1.511978541319     1.007825032230
         H           -2.933399971583    -4.932301543814     1.356825139099     1.007825032230
         H           -3.681064038314    -6.562236428186    -0.229884500455     1.007825032230
         H           -4.843942467073    -6.512727772658     1.075805180643     1.007825032230

  Charge       = 0
  Multiplicity = 1
  Basis Set: AUG-CC-PVTZ
    Blend: AUG-CC-PVTZ
  Basis Set: (AUG-CC-PVTZ AUX)
    Blend: AUG-CC-PVTZ-JKFIT

    Orbital Energies [Eh]
    ---------------------

    Doubly Occupied:

       1A    -92.151173     2A    -20.505778     3A    -20.501683
       4A    -20.488718     5A    -15.673431     6A    -11.317827
       7A    -11.260702     8A    -11.236573     9A    -11.233978
      10A    -11.231736    11A    -11.228395    12A     -9.115213
      13A     -6.800520    14A     -6.800349    15A     -6.799969
      16A     -1.445124    17A     -1.318227    18A     -1.292384
      19A     -1.290668    20A     -1.112142    21A     -1.063264
      22A     -0.998952    23A     -0.932917    24A     -0.863520
      25A     -0.801380    26A     -0.789674    27A     -0.761191
      28A     -0.746083    29A     -0.684441    30A     -0.665460
      31A     -0.660234    32A     -0.642112    33A     -0.621312
      34A     -0.620204    35A     -0.610058    36A     -0.583052
      37A     -0.576083    38A     -0.537770    39A     -0.528132
      40A     -0.523932    41A     -0.496563    42A     -0.491271
      43A     -0.485867    44A     -0.478580    45A     -0.466528
      46A     -0.444045    47A     -0.434516    48A     -0.408723
      49A     -0.405823

  @DF-RHF Final Energy:  -912.68091842053968

   => Energetics <=

    Nuclear Repulsion Energy =            871.9920256526814910
    One-Electron Energy =               -2987.0933400481085300
    Two-Electron Energy =                1202.4203959748872421
    Total Energy =                       -912.6809184205396832

  Dipole Moment: [D]
     X:     7.3009      Y:     5.7962      Z:     3.4533     Total:     9.9411

  Basis Set: (AUG-CC-PVTZ AUX)
    Blend: AUG-CC-PVTZ-JKFIT

    SAPT Results
  --------------------------------------------------------------------------------------------------------
    Electrostatics               -222.14583165 [mEh]    -139.39861392 [kcal/mol]    -583.24380063 [kJ/mol]
      Elst10,r                   -222.14583165 [mEh]    -139.39861392 [kcal/mol]    -583.24380063 [kJ/mol]

    Exchange                       69.31935986 [mEh]      43.49855503 [kcal/mol]     181.99795424 [kJ/mol]
      Exch10                       69.31935986 [mEh]      43.49855503 [kcal/mol]     181.99795424 [kJ/mol]
      Exch10(S^2)                  67.99071540 [mEh]      42.66481804 [kcal/mol]     178.50959869 [kJ/mol]

    Induction                     -34.89078032 [mEh]     -21.89429520 [kcal/mol]     -91.60573110 [kJ/mol]
      Ind20,r                     -63.59222981 [mEh]     -39.90472666 [kcal/mol]    -166.96137636 [kJ/mol]
      Exch-Ind20,r                 40.89258517 [mEh]      25.66048460 [kcal/mol]     107.36346756 [kJ/mol]
      delta HF,r (2)              -12.19113567 [mEh]      -7.65005313 [kcal/mol]     -32.00782230 [kJ/mol]
      Induction (A<-B)             -7.44543928 [mEh]      -4.67208369 [kcal/mol]     -19.54799814 [kJ/mol]
      Induction (B<-A)            -27.44534103 [mEh]     -17.22221151 [kcal/mol]     -72.05773296 [kJ/mol]

    Dispersion                    -12.68916509 [mEh]      -7.96257131 [kcal/mol]     -33.31539837 [kJ/mol]
      Disp20                      -16.35445624 [mEh]     -10.26257623 [kcal/mol]     -42.93861895 [kJ/mol]
      Exch-Disp20                   3.66529115 [mEh]       2.30000492 [kcal/mol]       9.62322059 [kJ/mol]

  Total HF                       -187.71725210 [mEh]    -117.79435408 [kcal/mol]    -492.85157749 [kJ/mol]
  Total SAPT0                    -200.40641720 [mEh]    -125.75692540 [kcal/mol]    -526.16697586 [kJ/mol]

  --------------------------------------------------------------------------------------------------------

*** Psi4 exiting successfully. Buy a developer a beer!
