                               Psi4 1.4rc1

  ==> Input File <==

--------------------------------------------------------------------------
memory 2GB

mol = psi4.core.Molecule.from_arrays(
    elez=[7,1,1,1,8,6,6,6,1,1,6,1,1,1,1,6,1,6,1,1,1,1,1],
    fragment_separators=[4, 5],
    fix_com=True,
    fix_orientation=True,
    fix_symmetry='c1',
    fragment_multiplicities=[2, 2, 1],
    fragment_charges=[+1,-1,0],
    molecular_charge=0,
    molecular_multiplicity=1,
    geom= [
        0.680528 ,   4.614820 ,  -4.048005,
        0.699926 ,   5.584890 ,  -4.388272,
        1.278044 ,   4.055977 ,  -4.668235,
        1.085729 ,   4.533581 ,  -3.106524,

        1.565248 ,   4.233493 ,  -1.864885,

       -0.701686 ,   4.072499 ,  -4.003920,
        1.444422 ,   5.266576 ,  -0.975463,
       -1.703475 ,   5.093197 ,  -3.477396,
       -0.995895 ,   3.740394 ,  -5.000654,
       -0.643580 ,   3.201910 ,  -3.351533,
       -1.313997 ,   5.785995 ,  -2.169271,
       -1.877057 ,   5.850103 ,  -4.251154,
       -2.653264 ,   4.564475 ,  -3.354796,
       -2.097137 ,   6.509395 ,  -1.929558,
       -0.416875 ,   6.387594 ,  -2.339097,
       -1.073895 ,   4.844728 ,  -0.979904,
       -1.968893 ,   4.809608 ,  -0.352568,
        0.148120 ,   5.210874 ,  -0.138092,
       -0.909754 ,   3.827531 ,  -1.338975,
        1.474250 ,   6.264638 ,  -1.476917,
        2.289622 ,   5.303267 ,  -0.264450,
        0.261827 ,   4.450942 ,   0.640711,
       -0.002516 ,   6.171031 ,   0.371483 ])
activate(mol)

set {
basis aug-cc-pvtz
scf_type df
guess sad
freeze_core true
fisapt_do_plot false  # For extra analysis
}

energy('fisapt0')
--------------------------------------------------------------------------

    Molecular point group: c1

    Geometry (in Angstrom), charge = 0, multiplicity = 1:

       Center              X                  Y                   Z               Mass
    ------------   -----------------  -----------------  -----------------  -----------------
         N            0.680528000000     4.614820000000    -4.048005000000    14.003074004430
         H            0.699926000000     5.584890000000    -4.388272000000     1.007825032230
         H            1.278044000000     4.055977000000    -4.668235000000     1.007825032230
         H            1.085729000000     4.533581000000    -3.106524000000     1.007825032230
         O            1.565248000000     4.233493000000    -1.864885000000    15.994914619570
         C           -0.701686000000     4.072499000000    -4.003920000000    12.000000000000
         C            1.444422000000     5.266576000000    -0.975463000000    12.000000000000
         C           -1.703475000000     5.093197000000    -3.477396000000    12.000000000000
         H           -0.995895000000     3.740394000000    -5.000654000000     1.007825032230
         H           -0.643580000000     3.201910000000    -3.351533000000     1.007825032230
         C           -1.313997000000     5.785995000000    -2.169271000000    12.000000000000
         H           -1.877057000000     5.850103000000    -4.251154000000     1.007825032230
         H           -2.653264000000     4.564475000000    -3.354796000000     1.007825032230
         H           -2.097137000000     6.509395000000    -1.929558000000     1.007825032230
         H           -0.416875000000     6.387594000000    -2.339097000000     1.007825032230
         C           -1.073895000000     4.844728000000    -0.979904000000    12.000000000000
         H           -1.968893000000     4.809608000000    -0.352568000000     1.007825032230
         C            0.148120000000     5.210874000000    -0.138092000000    12.000000000000
         H           -0.909754000000     3.827531000000    -1.338975000000     1.007825032230
         H            1.474250000000     6.264638000000    -1.476917000000     1.007825032230
         H            2.289622000000     5.303267000000    -0.264450000000     1.007825032230
         H            0.261827000000     4.450942000000     0.640711000000     1.007825032230
         H           -0.002516000000     6.171031000000     0.371483000000     1.007825032230

  Charge       = 0
  Multiplicity = 1
  Basis Set: AUG-CC-PVTZ
    Blend: AUG-CC-PVTZ
  Basis Set: (AUG-CC-PVTZ AUX)
    Blend: AUG-CC-PVTZ-JKFIT

    Orbital Energies [Eh]
    ---------------------

    Doubly Occupied:

       1A    -20.409068     2A    -15.644729     3A    -11.293669
       4A    -11.244979     5A    -11.218881     6A    -11.207924
       7A    -11.196421     8A    -11.177816     9A     -1.297707
      10A     -1.212500    11A     -1.085744    12A     -1.010588
      13A     -0.941023    14A     -0.865792    15A     -0.804726
      16A     -0.763023    17A     -0.747284    18A     -0.722266
      19A     -0.653495    20A     -0.633176    21A     -0.621525
      22A     -0.577431    23A     -0.563711    24A     -0.546854
      25A     -0.524842    26A     -0.503807    27A     -0.498642
      28A     -0.475922    29A     -0.450054    30A     -0.437458
      31A     -0.432652    32A     -0.324646    33A     -0.322337

  @DF-RHF Final Energy:  -365.31311386866878

   => Energetics <=

    Nuclear Repulsion Energy =            429.7810939471477241
    One-Electron Energy =               -1349.3670340679163928
    Two-Electron Energy =                 554.2728262520998896
    Total Energy =                       -365.3131138686687791

  Dipole Moment: [D]
     X:    -3.1052      Y:     1.0573      Z:    -6.3374     Total:     7.1360

  Basis Set: (AUG-CC-PVTZ AUX)
    Blend: AUG-CC-PVTZ-JKFIT

    SAPT Results
  --------------------------------------------------------------------------------------------------------
    Electrostatics               -296.56473592 [mEh]    -186.09718138 [kcal/mol]    -778.63060689 [kJ/mol]
      Elst10,r                   -296.56473592 [mEh]    -186.09718138 [kcal/mol]    -778.63060689 [kJ/mol]

    Exchange                      128.77472593 [mEh]      80.80736051 [kcal/mol]     338.09799636 [kJ/mol]
      Exch10                      128.77472593 [mEh]      80.80736051 [kcal/mol]     338.09799636 [kJ/mol]
      Exch10(S^2)                 120.40422113 [mEh]      75.55478944 [kcal/mol]     316.12123902 [kJ/mol]

    Induction                     -71.88600142 [mEh]     -45.10914693 [kcal/mol]    -188.73667074 [kJ/mol]
      Ind20,r                    -148.80612094 [mEh]     -93.37725064 [kcal/mol]    -390.69041670 [kJ/mol]
      Exch-Ind20,r                101.54326125 [mEh]      63.71935843 [kcal/mol]     266.60179568 [kJ/mol]
      delta HF,r (2)              -24.62314173 [mEh]     -15.45125471 [kcal/mol]     -64.64804972 [kJ/mol]
      Induction (A<-B)            -30.14840412 [mEh]     -18.91840920 [kcal/mol]     -79.15462411 [kJ/mol]
      Induction (B<-A)            -41.73759730 [mEh]     -26.19073772 [kcal/mol]    -109.58204662 [kJ/mol]

    Dispersion                    -14.10568515 [mEh]      -8.85145107 [kcal/mol]     -37.03447126 [kJ/mol]
      Disp20                      -20.26189232 [mEh]     -12.71452939 [kcal/mol]     -53.19759096 [kJ/mol]
      Exch-Disp20                   6.15620717 [mEh]       3.86307832 [kcal/mol]      16.16311970 [kJ/mol]

  Total HF                       -239.67601141 [mEh]    -150.39896780 [kcal/mol]    -629.26928127 [kJ/mol]
  Total SAPT0                    -253.78169656 [mEh]    -159.25041887 [kcal/mol]    -666.30375253 [kJ/mol]

  --------------------------------------------------------------------------------------------------------

*** Psi4 exiting successfully. Buy a developer a beer!
