                               Psi4 1.4rc1

  ==> Input File <==

--------------------------------------------------------------------------
memory 2GB

mol = psi4.core.Molecule.from_arrays(
    elez=[7,1,1,1,8,6,1,6,1,1,1,6,1,6,1,1,1,6,6,1,1,1,6,1,1,1,6,1,1,6,1,1],
    fragment_separators=[4, 5],
    fix_com=True,
    fix_orientation=True,
    fix_symmetry='c1',
    fragment_multiplicities=[2, 2, 1],
    fragment_charges=[+1,-1,0],
    molecular_charge=0,
    molecular_multiplicity=1,
    geom= [
     3.80389294110845,      1.96157247956531,     -0.15674721595221,
     4.20642546808405,      2.24440551271286,      0.74535937887249,
     2.80826924591130,      2.21132299822284,     -0.09609681120563,
     4.28075651012637,      2.50155150706870,     -0.89103729535879,

     1.48929403444460,      2.37470251611377,      0.19918910391421,

     3.95642565958904  ,    0.50146562472069   ,  -0.37910018938068   ,
     3.16839833323376  ,    0.02920141115551   ,   0.20738303413180   ,
     3.84232249634789  ,    0.14849046191637   ,  -1.85405788707224   ,
     4.92323097993895  ,    0.17798152612932   ,   0.00937127538159   ,
     4.62002053731863  ,    0.69450181615241   ,  -2.40215010184870   ,
     4.09601467643300  ,   -0.91093012922074   ,  -1.95510331005890   ,
     2.47561855416642  ,    0.41270768369250   ,  -2.48537704677438   ,
     2.17468930929412  ,    1.44507599101731   ,  -2.28797115037230   ,
     1.38393127003807  ,   -0.53273992352604   ,  -1.99520265150011   ,
     2.57561272491415  ,    0.31857447782860   ,  -3.57145996180400   ,
     1.26469824586929  ,   -0.41230907839294   ,  -0.91549136769453   ,
     1.70522257227828  ,   -1.56688491293516   ,  -2.16498396414687   ,
     0.03139837152293  ,   -0.31726027484875   ,  -2.67779064853345   ,
     -0.58729167858276 ,     1.06085291876985  ,   -2.43645996357132  ,
     -0.66281527246967 ,    -1.08953048047897  ,   -2.32998459798656  ,
     0.14946456816602  ,   -0.47803994459468   ,  -3.75564840930698   ,
     0.10437585662841  ,    1.82859013861462   ,  -2.79313039106348   ,
     -0.95121253937974 ,     1.33497817137256  ,   -0.97249952523090  ,
     -1.47883153096235 ,     1.16135456783849  ,   -3.06248370533803  ,
     -0.31700651911783 ,     0.74164812898724  ,   -0.31138948309014  ,
     -1.98091642254006 ,     1.01284205121055  ,   -0.78895831633776  ,
     -0.77454958282434 ,     2.78833192979526  ,   -0.54394311996424  ,
     -1.35260873848654 ,     3.45937181592222  ,   -1.19258526934067  ,
     -1.17101420670659 ,     2.90233074181755  ,    0.46996809875421  ,
     0.69720829916038  ,    3.22791133877293   ,  -0.52512624957848   ,
     0.71599833132231  ,    4.26402989129817   ,  -0.13077404075484   ,
     1.03614750517342  ,    3.33092004330163   ,  -1.58366921778808])
activate(mol)

set {
basis aug-cc-pvtz
scf_type df
guess sad
freeze_core true
fisapt_do_plot false  # For extra analysis
}

energy('fisapt0')
--------------------------------------------------------------------------

    Molecular point group: c1

    Geometry (in Angstrom), charge = 0, multiplicity = 1:

       Center              X                  Y                   Z               Mass
    ------------   -----------------  -----------------  -----------------  -----------------
         N            3.803892941108     1.961572479565    -0.156747215952    14.003074004430
         H            4.206425468084     2.244405512713     0.745359378872     1.007825032230
         H            2.808269245911     2.211322998223    -0.096096811206     1.007825032230
         H            4.280756510126     2.501551507069    -0.891037295359     1.007825032230
         O            1.489294034445     2.374702516114     0.199189103914    15.994914619570
         C            3.956425659589     0.501465624721    -0.379100189381    12.000000000000
         H            3.168398333234     0.029201411156     0.207383034132     1.007825032230
         C            3.842322496348     0.148490461916    -1.854057887072    12.000000000000
         H            4.923230979939     0.177981526129     0.009371275382     1.007825032230
         H            4.620020537319     0.694501816152    -2.402150101849     1.007825032230
         H            4.096014676433    -0.910930129221    -1.955103310059     1.007825032230
         C            2.475618554166     0.412707683692    -2.485377046774    12.000000000000
         H            2.174689309294     1.445075991017    -2.287971150372     1.007825032230
         C            1.383931270038    -0.532739923526    -1.995202651500    12.000000000000
         H            2.575612724914     0.318574477829    -3.571459961804     1.007825032230
         H            1.264698245869    -0.412309078393    -0.915491367695     1.007825032230
         H            1.705222572278    -1.566884912935    -2.164983964147     1.007825032230
         C            0.031398371523    -0.317260274849    -2.677790648533    12.000000000000
         C           -0.587291678583     1.060852918770    -2.436459963571    12.000000000000
         H           -0.662815272470    -1.089530480479    -2.329984597987     1.007825032230
         H            0.149464568166    -0.478039944595    -3.755648409307     1.007825032230
         H            0.104375856628     1.828590138615    -2.793130391063     1.007825032230
         C           -0.951212539380     1.334978171373    -0.972499525231    12.000000000000
         H           -1.478831530962     1.161354567838    -3.062483705338     1.007825032230
         H           -0.317006519118     0.741648128987    -0.311389483090     1.007825032230
         H           -1.980916422540     1.012842051211    -0.788958316338     1.007825032230
         C           -0.774549582824     2.788331929795    -0.543943119964    12.000000000000
         H           -1.352608738487     3.459371815922    -1.192585269341     1.007825032230
         H           -1.171014206707     2.902330741818     0.469968098754     1.007825032230
         C            0.697208299160     3.227911338773    -0.525126249578    12.000000000000
         H            0.715998331322     4.264029891298    -0.130774040755     1.007825032230
         H            1.036147505173     3.330920043302    -1.583669217788     1.007825032230

  Charge       = 0
  Multiplicity = 1
  Basis Set: AUG-CC-PVTZ
    Blend: AUG-CC-PVTZ
  Basis Set: (AUG-CC-PVTZ AUX)
    Blend: AUG-CC-PVTZ-JKFIT

    Orbital Energies [Eh]
    ---------------------

    Doubly Occupied:

       1A    -20.409640     2A    -15.645121     3A    -11.294968
       4A    -11.246775     5A    -11.219962     6A    -11.207259
       7A    -11.205990     8A    -11.201716     9A    -11.188511
      10A    -11.174498    11A    -11.167442    12A     -1.297655
      13A     -1.211646    14A     -1.095477    15A     -1.050453
      16A     -1.004636    17A     -0.947761    18A     -0.899946
      19A     -0.847668    20A     -0.812412    21A     -0.768914
      22A     -0.750302    23A     -0.746019    24A     -0.710973
      25A     -0.655785    26A     -0.635407    27A     -0.632471
      28A     -0.601179    29A     -0.581102    30A     -0.576583
      31A     -0.554872    32A     -0.544568    33A     -0.530503
      34A     -0.512243    35A     -0.502366    36A     -0.489264
      37A     -0.482904    38A     -0.466681    39A     -0.452145
      40A     -0.448958    41A     -0.426445    42A     -0.417435
      43A     -0.414026    44A     -0.324896    45A     -0.322678

  @DF-RHF Final Energy:  -482.45655092668562

   => Energetics <=

    Nuclear Repulsion Energy =            704.8271278754982632
    One-Electron Energy =               -2055.2108513804250833
    Two-Electron Energy =                 867.9271725782411977
    Total Energy =                       -482.4565509266856225

  Dipole Moment: [D]
     X:     7.1756      Y:    -1.4977      Z:    -1.0015     Total:     7.3983

  Basis Set: (AUG-CC-PVTZ AUX)
    Blend: AUG-CC-PVTZ-JKFIT

    SAPT Results
  --------------------------------------------------------------------------------------------------------
    Electrostatics               -306.29633652 [mEh]    -192.20385295 [kcal/mol]    -804.18092075 [kJ/mol]
      Elst10,r                   -306.29633652 [mEh]    -192.20385295 [kcal/mol]    -804.18092075 [kJ/mol]

    Exchange                      137.11579750 [mEh]      86.04146194 [kcal/mol]     359.99747675 [kJ/mol]
      Exch10                      137.11579750 [mEh]      86.04146194 [kcal/mol]     359.99747675 [kJ/mol]
      Exch10(S^2)                 128.21319242 [mEh]      80.45499291 [kcal/mol]     336.62369033 [kJ/mol]

    Induction                     -70.38539176 [mEh]     -44.16750014 [kcal/mol]    -184.79682060 [kJ/mol]
      Ind20,r                    -167.01759413 [mEh]    -104.80512260 [kcal/mol]    -438.50463297 [kJ/mol]
      Exch-Ind20,r                118.47077317 [mEh]      74.34153253 [kcal/mol]     311.04497211 [kJ/mol]
      delta HF,r (2)              -21.83857080 [mEh]     -13.70391007 [kcal/mol]     -57.33715974 [kJ/mol]
      Induction (A<-B)            -31.37350023 [mEh]     -19.68716862 [kcal/mol]     -82.37111352 [kJ/mol]
      Induction (B<-A)            -39.01189152 [mEh]     -24.48033152 [kcal/mol]    -102.42570708 [kJ/mol]

    Dispersion                    -14.26587129 [mEh]      -8.95196939 [kcal/mol]     -37.45503991 [kJ/mol]
      Disp20                      -21.29090450 [mEh]     -13.36024428 [kcal/mol]     -55.89926206 [kJ/mol]
      Exch-Disp20                   7.02503321 [mEh]       4.40827489 [kcal/mol]      18.44422214 [kJ/mol]

  Total HF                       -239.56593078 [mEh]    -150.32989116 [kcal/mol]    -628.98026460 [kJ/mol]
  Total SAPT0                    -253.83180207 [mEh]    -159.28186054 [kcal/mol]    -666.43530451 [kJ/mol]

  --------------------------------------------------------------------------------------------------------

*** Psi4 exiting successfully. Buy a developer a beer!
