                               Psi4 1.4rc1

  ==> Input File <==

--------------------------------------------------------------------------
memory 2GB

mol = psi4.core.Molecule.from_arrays(
    elez=[6,7,7,1,1,1,1,16,8,8,8,6,6,6,1,1,1,1,1,1],
    fragment_separators=[7, 11],
    fix_com=True,
    fix_orientation=True,
    fix_symmetry='c1',
    fragment_multiplicities=[2, 2, 1],
    fragment_charges=[+1,-1,0],
    molecular_charge=0,
    molecular_multiplicity=1,
    geom= [
     -0.42384055274795,      2.39877189610259,     -6.47431661041161,
     -0.95946676147821,      3.49264746388406,     -7.00740064351677,
      0.14558481008630,      1.48689082624733,     -7.20398720863589,
      0.56537089098927,      0.69680707894345,     -6.72385841555464,
      0.22068167599344,      1.58176813779902,     -8.20751968602530,
     -1.40624262810436,      4.18150658549070,     -6.40326083435084,
     -0.93421495760361,      3.68160125641265,     -7.99946843148752,

      1.87964372522168,      0.07859386315408,     -4.46296509697773,
      3.20757441982960,     -0.46611124555230,     -4.42025907767002,
      1.07506383934461,     -0.05616016865527,     -3.26875785677706,
      1.13166146504037,     -0.31995960280141,     -5.67903101622402,

     -0.46129278604562,      2.23468578704369,     -4.98961904005500,
      0.84888265971981,      2.66796697355912,     -4.30235138435066,
      2.09343392030341,      1.86103708067235,     -4.65684462674424,
      2.44481370900931,      2.04156655490911,     -5.67499044304010,
      2.90174787099152,      2.13786372324099,     -3.98033777958977,
      0.66843227713818,      2.55942701671355,     -3.23285008216146,
      1.03407416083197,      3.72942640343435,     -4.49708109698683,
     -1.28888406744720,      2.82673696913203,     -4.59499714538315,
     -0.65169567107254,      1.18634340026987,     -4.75655152405734])
activate(mol)

set {
basis aug-cc-pvtz
scf_type df
guess sad
freeze_core true
fisapt_do_plot false  # For extra analysis
}

energy('fisapt0')
--------------------------------------------------------------------------

    Molecular point group: c1

    Geometry (in Angstrom), charge = 0, multiplicity = 1:

       Center              X                  Y                   Z               Mass
    ------------   -----------------  -----------------  -----------------  -----------------
         C           -0.423840552748     2.398771896103    -6.474316610412    12.000000000000
         N           -0.959466761478     3.492647463884    -7.007400643517    14.003074004430
         N            0.145584810086     1.486890826247    -7.203987208636    14.003074004430
         H            0.565370890989     0.696807078943    -6.723858415555     1.007825032230
         H            0.220681675993     1.581768137799    -8.207519686025     1.007825032230
         H           -1.406242628104     4.181506585491    -6.403260834351     1.007825032230
         H           -0.934214957604     3.681601256413    -7.999468431488     1.007825032230
         S            1.879643725222     0.078593863154    -4.462965096978    31.972071174400
         O            3.207574419830    -0.466111245552    -4.420259077670    15.994914619570
         O            1.075063839345    -0.056160168655    -3.268757856777    15.994914619570
         O            1.131661465040    -0.319959602801    -5.679031016224    15.994914619570
         C           -0.461292786046     2.234685787044    -4.989619040055    12.000000000000
         C            0.848882659720     2.667966973559    -4.302351384351    12.000000000000
         C            2.093433920303     1.861037080672    -4.656844626744    12.000000000000
         H            2.444813709009     2.041566554909    -5.674990443040     1.007825032230
         H            2.901747870992     2.137863723241    -3.980337779590     1.007825032230
         H            0.668432277138     2.559427016714    -3.232850082161     1.007825032230
         H            1.034074160832     3.729426403434    -4.497081096987     1.007825032230
         H           -1.288884067447     2.826736969132    -4.594997145383     1.007825032230
         H           -0.651695671073     1.186343400270    -4.756551524057     1.007825032230

  Charge       = 0
  Multiplicity = 1
  Basis Set: AUG-CC-PVTZ
    Blend: AUG-CC-PVTZ
  Basis Set: (AUG-CC-PVTZ AUX)
    Blend: AUG-CC-PVTZ-JKFIT

    Orbital Energies [Eh]
    ---------------------

    Doubly Occupied:

       1A    -92.134419     2A    -20.489266     3A    -20.475789
       4A    -20.473786     5A    -15.674361     6A    -15.640049
       7A    -11.424194     8A    -11.281019     9A    -11.260962
      10A    -11.239041    11A     -9.097978    12A     -6.783405
      13A     -6.783161    14A     -6.782984    15A     -1.427733
      16A     -1.379600    17A     -1.281626    18A     -1.275872
      19A     -1.257775    20A     -1.113968    21A     -1.015440
      22A     -0.918791    23A     -0.866500    24A     -0.818557
      25A     -0.805988    26A     -0.755002    27A     -0.718112
      28A     -0.686456    29A     -0.658985    30A     -0.640792
      31A     -0.619986    32A     -0.608925    33A     -0.593928
      34A     -0.590711    35A     -0.546375    36A     -0.524462
      37A     -0.510299    38A     -0.483860    39A     -0.476855
      40A     -0.470716    41A     -0.432614    42A     -0.423519
      43A     -0.395163    44A     -0.385529

  @DF-RHF Final Energy:  -888.49149306371407

   => Energetics <=

    Nuclear Repulsion Energy =            724.7834552389741702
    One-Electron Energy =               -2662.1007984054176632
    Two-Electron Energy =                1048.8258501027296461
    Total Energy =                       -888.4914930637139605

  Dipole Moment: [D]
     X:    -7.4047      Y:    12.0437      Z:    -8.0033     Total:    16.2460

  Basis Set: (AUG-CC-PVTZ AUX)
    Blend: AUG-CC-PVTZ-JKFIT

    SAPT Results
  --------------------------------------------------------------------------------------------------------
    Electrostatics               -144.58123238 [mEh]     -90.72609305 [kcal/mol]    -379.59797332 [kJ/mol]
      Elst10,r                   -144.58123238 [mEh]     -90.72609305 [kcal/mol]    -379.59797332 [kJ/mol]

    Exchange                       46.64189665 [mEh]      29.26823202 [kcal/mol]     122.45828277 [kJ/mol]
      Exch10                       46.64189665 [mEh]      29.26823202 [kcal/mol]     122.45828277 [kJ/mol]
      Exch10(S^2)                  45.41174369 [mEh]      28.49629938 [kcal/mol]     119.22851662 [kJ/mol]

    Induction                     -30.56852831 [mEh]     -19.18204111 [kcal/mol]     -80.25766001 [kJ/mol]
      Ind20,r                     -34.67918672 [mEh]     -21.76151821 [kcal/mol]     -91.05019218 [kJ/mol]
      Exch-Ind20,r                 15.36974471 [mEh]       9.64466042 [kcal/mol]      40.35325918 [kJ/mol]
      delta HF,r (2)              -11.25908630 [mEh]      -7.06518332 [kcal/mol]     -29.56072700 [kJ/mol]
      Induction (A<-B)             -8.36389467 [mEh]      -5.24842315 [kcal/mol]     -21.95940244 [kJ/mol]
      Induction (B<-A)            -22.20463363 [mEh]     -13.93361797 [kcal/mol]     -58.29825757 [kJ/mol]

    Dispersion                     -9.64981782 [mEh]      -6.05535210 [kcal/mol]     -25.33559320 [kJ/mol]
      Disp20                      -12.15635420 [mEh]      -7.62822743 [kcal/mol]     -31.91650356 [kJ/mol]
      Exch-Disp20                   2.50653638 [mEh]       1.57287533 [kcal/mol]       6.58091037 [kJ/mol]

  Total HF                       -128.50786404 [mEh]     -80.63990214 [kcal/mol]    -337.39735056 [kJ/mol]
  Total SAPT0                    -138.15768186 [mEh]     -86.69525424 [kcal/mol]    -362.73294375 [kJ/mol]

  --------------------------------------------------------------------------------------------------------

*** Psi4 exiting successfully. Buy a developer a beer!
