                               Psi4 1.4rc1

  ==> Input File <==

--------------------------------------------------------------------------
memory 2GB

mol = psi4.core.Molecule.from_arrays(
    elez=[6,7,7,1,1,1,1,6,8,8,6,6,6,1,1,6,6,1,1,6,1,1,1,1,1,1,1,1],
    fragment_separators=[7, 10],
    fix_com=True,
    fix_orientation=True,
    fix_symmetry='c1',
    fragment_multiplicities=[2, 2, 1],
    fragment_charges=[+1,-1,0],
    molecular_charge=0,
    molecular_multiplicity=1,
    geom= [
   3.03763997849377,     -2.36671526471768,     -3.92350943909038,
   2.28036027750712,     -2.45440843965470,     -4.96769193609095,
   4.32173646154089,     -2.01793205672493,     -4.01664106724403,
   4.87994041829025,     -1.91166830352159,     -3.17382346306176,
   4.71014844190860,     -1.67088223168682,     -4.88356140916725,
   1.27042313346493,     -2.41265029830005,     -4.86614337313377,
   2.58182907910976,     -2.05528175896671,     -5.84687764501041,

   0.18467333974854,     -0.50664031068703,     -4.91676016062775,
  -0.15868519583601,     -1.70108791344051,     -4.65798147152184,
   1.05593828678209,     -0.17441007749019,     -5.74037293281371,

   2.48645174392235,     -2.67712111017583,     -2.56344745414933,
  -0.87096286432920,      0.24804330086107,     -2.66280359441276,
  -0.47749212543589,      0.60819058585265,     -4.10105165102444,
   0.20677285543285,      1.45829890963281,     -4.11874769299583,
  -1.36844157239807,      0.92941856824102,     -4.64785490712585,
   2.49799074863121,     -1.46946392821315,     -1.61030340097980,
   1.58284114553340,     -0.32198565925180,     -2.04261939775410,
   2.19308290911619,     -1.83391170438583,     -0.62541965845019,
   3.52335565695981,     -1.10398165864498,     -1.49039240222848,
   0.10015959938459,     -0.67355135045674,     -1.91581451783850,
   1.82231142824637,     -0.04036053174775,     -3.07283441959583,
   1.81317984861537,      0.55701886149846,     -1.43326592511797,
  -0.06328413030348,     -1.67912007396634,     -2.30111155310606,
  -0.16881970768030,     -0.69168034017568,     -0.85383138169735,
  -1.00104812723379,      1.18104015333071,     -2.10407084445305,
  -1.84464502676291,     -0.24659201979481,     -2.66328068611982,
   1.47259199771523,     -3.05152743598431,     -2.69436550523192,
   3.08320139957629,     -3.49063791142926,     -2.14147210995678])
activate(mol)

set {
basis aug-cc-pvtz
scf_type df
guess sad
freeze_core true
fisapt_do_plot false  # For extra analysis
}

energy('fisapt0')
--------------------------------------------------------------------------

    Molecular point group: c1

    Geometry (in Angstrom), charge = 0, multiplicity = 1:

       Center              X                  Y                   Z               Mass
    ------------   -----------------  -----------------  -----------------  -----------------
         C            3.037639978494    -2.366715264718    -3.923509439090    12.000000000000
         N            2.280360277507    -2.454408439655    -4.967691936091    14.003074004430
         N            4.321736461541    -2.017932056725    -4.016641067244    14.003074004430
         H            4.879940418290    -1.911668303522    -3.173823463062     1.007825032230
         H            4.710148441909    -1.670882231687    -4.883561409167     1.007825032230
         H            1.270423133465    -2.412650298300    -4.866143373134     1.007825032230
         H            2.581829079110    -2.055281758967    -5.846877645010     1.007825032230
         C            0.184673339749    -0.506640310687    -4.916760160628    12.000000000000
         O           -0.158685195836    -1.701087913441    -4.657981471522    15.994914619570
         O            1.055938286782    -0.174410077490    -5.740372932814    15.994914619570
         C            2.486451743922    -2.677121110176    -2.563447454149    12.000000000000
         C           -0.870962864329     0.248043300861    -2.662803594413    12.000000000000
         C           -0.477492125436     0.608190585853    -4.101051651024    12.000000000000
         H            0.206772855433     1.458298909633    -4.118747692996     1.007825032230
         H           -1.368441572398     0.929418568241    -4.647854907126     1.007825032230
         C            2.497990748631    -1.469463928213    -1.610303400980    12.000000000000
         C            1.582841145533    -0.321985659252    -2.042619397754    12.000000000000
         H            2.193082909116    -1.833911704386    -0.625419658450     1.007825032230
         H            3.523355656960    -1.103981658645    -1.490392402228     1.007825032230
         C            0.100159599385    -0.673551350457    -1.915814517838    12.000000000000
         H            1.822311428246    -0.040360531748    -3.072834419596     1.007825032230
         H            1.813179848615     0.557018861498    -1.433265925118     1.007825032230
         H           -0.063284130303    -1.679120073966    -2.301111553106     1.007825032230
         H           -0.168819707680    -0.691680340176    -0.853831381697     1.007825032230
         H           -1.001048127234     1.181040153331    -2.104070844453     1.007825032230
         H           -1.844645026763    -0.246592019795    -2.663280686120     1.007825032230
         H            1.472591997715    -3.051527435984    -2.694365505232     1.007825032230
         H            3.083201399576    -3.490637911429    -2.141472109957     1.007825032230

  Charge       = 0
  Multiplicity = 1
  Basis Set: AUG-CC-PVTZ
    Blend: AUG-CC-PVTZ
  Basis Set: (AUG-CC-PVTZ AUX)
    Blend: AUG-CC-PVTZ-JKFIT

    Orbital Energies [Eh]
    ---------------------

    Doubly Occupied:

       1A    -20.455404     2A    -20.450698     3A    -15.645772
       4A    -15.605943     5A    -11.397718     6A    -11.290801
       7A    -11.273673     8A    -11.254331     9A    -11.222175
      10A    -11.202482    11A    -11.198572    12A    -11.186970
      13A     -1.355009    14A     -1.338734    15A     -1.236115
      16A     -1.228036    17A     -1.111784    18A     -1.050734
      19A     -0.992196    20A     -0.920969    21A     -0.882624
      22A     -0.833295    23A     -0.795728    24A     -0.777926
      25A     -0.757100    26A     -0.702497    27A     -0.672487
      28A     -0.662304    29A     -0.638972    30A     -0.620819
      31A     -0.612571    32A     -0.583935    33A     -0.577788
      34A     -0.574571    35A     -0.556472    36A     -0.544060
      37A     -0.525144    38A     -0.505087    39A     -0.499311
      40A     -0.481409    41A     -0.460990    42A     -0.453283
      43A     -0.443981    44A     -0.434716    45A     -0.375057
      46A     -0.362672    47A     -0.357160

  @DF-RHF Final Energy:  -571.10091867849553

   => Energetics <=

    Nuclear Repulsion Energy =            784.1899093347248026
    One-Electron Energy =               -2336.3614959826450104
    Two-Electron Energy =                 981.0706679694247896
    Total Energy =                       -571.1009186784955318

  Dipole Moment: [D]
     X:     8.0474      Y:    -2.5536      Z:     4.4559     Total:     9.5465

  Basis Set: (AUG-CC-PVTZ AUX)
    Blend: AUG-CC-PVTZ-JKFIT

    SAPT Results
  --------------------------------------------------------------------------------------------------------
    Electrostatics               -205.14652052 [mEh]    -128.73138514 [kcal/mol]    -538.61211542 [kJ/mol]
      Elst10,r                   -205.14652052 [mEh]    -128.73138514 [kcal/mol]    -538.61211542 [kJ/mol]

    Exchange                       63.95021979 [mEh]      40.12936877 [kcal/mol]     167.90127893 [kJ/mol]
      Exch10                       63.95021979 [mEh]      40.12936877 [kcal/mol]     167.90127893 [kJ/mol]
      Exch10(S^2)                  62.34838813 [mEh]      39.12420423 [kcal/mol]     163.69567048 [kJ/mol]

    Induction                     -37.96125948 [mEh]     -23.82104996 [kcal/mol]     -99.66727302 [kJ/mol]
      Ind20,r                     -51.55247818 [mEh]     -32.34966845 [kcal/mol]    -135.35101281 [kJ/mol]
      Exch-Ind20,r                 28.39041604 [mEh]      17.81525503 [kcal/mol]      74.53902704 [kJ/mol]
      delta HF,r (2)              -14.79919734 [mEh]      -9.28663653 [kcal/mol]     -38.85528726 [kJ/mol]
      Induction (A<-B)            -19.13420644 [mEh]     -12.00689582 [kcal/mol]     -50.23685210 [kJ/mol]
      Induction (B<-A)            -18.82705303 [mEh]     -11.81415414 [kcal/mol]     -49.43042093 [kJ/mol]

    Dispersion                    -14.25441645 [mEh]      -8.94478137 [kcal/mol]     -37.42496523 [kJ/mol]
      Disp20                      -19.11571026 [mEh]     -11.99528928 [kcal/mol]     -50.18829036 [kJ/mol]
      Exch-Disp20                   4.86129381 [mEh]       3.05050792 [kcal/mol]      12.76332513 [kJ/mol]

  Total HF                       -179.15756021 [mEh]    -112.42306633 [kcal/mol]    -470.37810952 [kJ/mol]
  Total SAPT0                    -193.41197666 [mEh]    -121.36784769 [kcal/mol]    -507.80307476 [kJ/mol]

  --------------------------------------------------------------------------------------------------------

*** Psi4 exiting successfully. Buy a developer a beer!
