                               Psi4 1.4rc1

  ==> Input File <==

--------------------------------------------------------------------------
memory 2GB

mol = psi4.core.Molecule.from_arrays(
    elez=[6,7,7,1,1,1,1,16,8,8,8,6,6,6,1,1,6,6,1,1,6,1,1,1,1,1,1,1,1],
    fragment_separators=[7, 11],
    fix_com=True,
    fix_orientation=True,
    fix_symmetry='c1',
    fragment_multiplicities=[2, 2, 1],
    fragment_charges=[+1,-1,0],
    molecular_charge=0,
    molecular_multiplicity=1,
    geom= [
    3.46658534930874,     -1.59097113302117,     -2.88908154363117,
    4.65227491347413,     -1.14316365889866,     -3.25969197085875,
    2.75226442097354,     -2.29204320785818,     -3.72802873265263,
    1.77836380076627,     -2.48960354340716,     -3.51273808972934,
    2.94861236744678,     -2.20854372639547,     -4.71681253762466,
    5.14672300796749,     -0.51250849646345,     -2.63385194476357,
    4.78302987666472,     -1.00720259929899,     -4.25349752672027,

    2.25262538381534,     -0.18811476079310,     -6.27183959250769,
    3.56260742666456,     -0.44446397946053,     -5.63155189851986,
    2.34494365709139,     -0.03374220574718,     -7.69650119599574,
    1.26605846132039,     -1.15917661362997,     -5.80536456290656,

    2.91632441016149,     -1.24258949288613,     -1.54312517112070,
    0.70466112712955,      1.44312909223046,     -4.50362963163058,
    1.72853931924467,      1.42432006249010,     -5.63944277968560,
    2.64671821347868,      1.95379379193246,     -5.38105410348287,
    1.29991639672259,      1.93061324894890,     -6.50361449165200,
    2.80408416044204,      0.29069783379302,     -1.35924300821656,
    1.05255034850399,      0.69565870002704,     -3.21491452828060,
   -0.23248290100565,      1.03292535323007,     -4.88444937714405,
    0.51169956799328,      2.49579449368823,     -4.26796562601076,
    2.38837981438588,      1.09366902341495,     -2.59710754390303,
    3.76342488854147,      0.67471794057959,     -0.99988877511160,
    2.09478774138312,      0.46122201940362,     -0.54575587491500,
    3.16731642857969,      1.01324225073436,     -3.35942951596932,
    2.35769023295144,      2.14937495698039,     -2.31099682403245,
    1.03928352292421,     -0.36842852379492,     -3.44932893415787,
    0.25078692416074,      0.86560459090064,     -2.48828332251853,
    1.94047159983143,     -1.71652926488753,     -1.44116115345812,
    3.55856853907795,     -1.66343315181139,     -0.76637074280004])
activate(mol)

set {
basis aug-cc-pvtz
scf_type df
guess sad
freeze_core true
fisapt_do_plot false  # For extra analysis
}

energy('fisapt0')
--------------------------------------------------------------------------

    Molecular point group: c1

    Geometry (in Angstrom), charge = 0, multiplicity = 1:

       Center              X                  Y                   Z               Mass
    ------------   -----------------  -----------------  -----------------  -----------------
         C            3.466585349309    -1.590971133021    -2.889081543631    12.000000000000
         N            4.652274913474    -1.143163658899    -3.259691970859    14.003074004430
         N            2.752264420974    -2.292043207858    -3.728028732653    14.003074004430
         H            1.778363800766    -2.489603543407    -3.512738089729     1.007825032230
         H            2.948612367447    -2.208543726395    -4.716812537625     1.007825032230
         H            5.146723007967    -0.512508496463    -2.633851944764     1.007825032230
         H            4.783029876665    -1.007202599299    -4.253497526720     1.007825032230
         S            2.252625383815    -0.188114760793    -6.271839592508    31.972071174400
         O            3.562607426665    -0.444463979461    -5.631551898520    15.994914619570
         O            2.344943657091    -0.033742205747    -7.696501195996    15.994914619570
         O            1.266058461320    -1.159176613630    -5.805364562907    15.994914619570
         C            2.916324410161    -1.242589492886    -1.543125171121    12.000000000000
         C            0.704661127130     1.443129092230    -4.503629631631    12.000000000000
         C            1.728539319245     1.424320062490    -5.639442779686    12.000000000000
         H            2.646718213479     1.953793791932    -5.381054103483     1.007825032230
         H            1.299916396723     1.930613248949    -6.503614491652     1.007825032230
         C            2.804084160442     0.290697833793    -1.359243008217    12.000000000000
         C            1.052550348504     0.695658700027    -3.214914528281    12.000000000000
         H           -0.232482901006     1.032925353230    -4.884449377144     1.007825032230
         H            0.511699567993     2.495794493688    -4.267965626011     1.007825032230
         C            2.388379814386     1.093669023415    -2.597107543903    12.000000000000
         H            3.763424888541     0.674717940580    -0.999888775112     1.007825032230
         H            2.094787741383     0.461222019404    -0.545755874915     1.007825032230
         H            3.167316428580     1.013242250734    -3.359429515969     1.007825032230
         H            2.357690232951     2.149374956980    -2.310996824032     1.007825032230
         H            1.039283522924    -0.368428523795    -3.449328934158     1.007825032230
         H            0.250786924161     0.865604590901    -2.488283322519     1.007825032230
         H            1.940471599831    -1.716529264888    -1.441161153458     1.007825032230
         H            3.558568539078    -1.663433151811    -0.766370742800     1.007825032230

  Charge       = 0
  Multiplicity = 1
  Basis Set: AUG-CC-PVTZ
    Blend: AUG-CC-PVTZ
  Basis Set: (AUG-CC-PVTZ AUX)
    Blend: AUG-CC-PVTZ-JKFIT

    Orbital Energies [Eh]
    ---------------------

    Doubly Occupied:

       1A    -92.135325     2A    -20.489190     3A    -20.482120
       4A    -20.473055     5A    -15.633105     6A    -15.632988
       7A    -11.408721     8A    -11.294903     9A    -11.272167
      10A    -11.241791    11A    -11.228431    12A    -11.226944
      13A    -11.225667    14A     -9.099056    15A     -6.784362
      16A     -6.784226    17A     -6.783957    18A     -1.428141
      19A     -1.362340    20A     -1.277570    21A     -1.274670
      22A     -1.238158    23A     -1.129201    24A     -1.076719
      25A     -1.016098    26A     -0.947574    27A     -0.894386
      28A     -0.854608    29A     -0.805658    30A     -0.790804
      31A     -0.776745    32A     -0.736997    33A     -0.700515
      34A     -0.693026    35A     -0.668767    36A     -0.644096
      37A     -0.640785    38A     -0.617025    39A     -0.611344
      40A     -0.604516    41A     -0.586555    42A     -0.580923
      43A     -0.570160    44A     -0.536497    45A     -0.530211
      46A     -0.524060    47A     -0.494090    48A     -0.483113
      49A     -0.475673    50A     -0.473869    51A     -0.464884
      52A     -0.455123    53A     -0.429723    54A     -0.421702
      55A     -0.395123    56A     -0.388769

  @DF-RHF Final Energy: -1005.63288293309938

   => Energetics <=

    Nuclear Repulsion Energy =           1085.8945408754939308
    One-Electron Energy =               -3539.4624066203787152
    Two-Electron Energy =                1447.9349828117854031
    Total Energy =                      -1005.6328829330993813

  Dipole Moment: [D]
     X:     2.0870      Y:     0.0568      Z:    12.1442     Total:    12.3224

  Basis Set: (AUG-CC-PVTZ AUX)
    Blend: AUG-CC-PVTZ-JKFIT

    SAPT Results
  --------------------------------------------------------------------------------------------------------
    Electrostatics               -177.13193201 [mEh]    -111.15196545 [kcal/mol]    -465.05982343 [kJ/mol]
      Elst10,r                   -177.13193201 [mEh]    -111.15196545 [kcal/mol]    -465.05982343 [kJ/mol]

    Exchange                       44.10076179 [mEh]      27.67364583 [kcal/mol]     115.78653414 [kJ/mol]
      Exch10                       44.10076179 [mEh]      27.67364583 [kcal/mol]     115.78653414 [kJ/mol]
      Exch10(S^2)                  43.47698941 [mEh]      27.28222275 [kcal/mol]     114.14881997 [kJ/mol]

    Induction                     -21.02648852 [mEh]     -13.19432074 [kcal/mol]     -55.20503799 [kJ/mol]
      Ind20,r                     -38.49385385 [mEh]     -24.15525798 [kcal/mol]    -101.06559937 [kJ/mol]
      Exch-Ind20,r                 23.38097836 [mEh]      14.67178543 [kcal/mol]      61.38675023 [kJ/mol]
      delta HF,r (2)               -5.91361302 [mEh]      -3.71084820 [kcal/mol]     -15.52618886 [kJ/mol]
      Induction (A<-B)            -10.82730081 [mEh]      -6.79423383 [kcal/mol]     -28.42707436 [kJ/mol]
      Induction (B<-A)            -10.19918771 [mEh]      -6.40008691 [kcal/mol]     -26.77796364 [kJ/mol]

    Dispersion                    -14.09555249 [mEh]      -8.84509272 [kcal/mol]     -37.00786796 [kJ/mol]
      Disp20                      -17.92587124 [mEh]     -11.24865403 [kcal/mol]     -47.06436845 [kJ/mol]
      Exch-Disp20                   3.83031875 [mEh]       2.40356130 [kcal/mol]      10.05650050 [kJ/mol]

  Total HF                       -154.05765874 [mEh]     -96.67264036 [kcal/mol]    -404.47832729 [kJ/mol]
  Total SAPT0                    -168.15321122 [mEh]    -105.51773309 [kcal/mol]    -441.48619524 [kJ/mol]

  --------------------------------------------------------------------------------------------------------

*** Psi4 exiting successfully. Buy a developer a beer!
