                               Psi4 1.4rc1

  ==> Input File <==

--------------------------------------------------------------------------
memory 2GB

mol = psi4.core.Molecule.from_arrays(
    elez=[6,7,7,1,1,1,1,8,6,6,6,6,6,1,6,1,1,1,1,1,1,1,1,1,1,1],
    fragment_separators=[7, 8],
    fix_com=True,
    fix_orientation=True,
    fix_symmetry='c1',
    fragment_multiplicities=[2, 2, 1],
    fragment_charges=[+1,-1,0],
    molecular_charge=0,
    molecular_multiplicity=1,
    geom= [
   2.48900669576735 ,    -1.66851027087421,     -2.73753782984138,
   3.59631427548996 ,    -0.94760810218694,     -2.95224699656250,
   1.66393631456233 ,    -1.41368536811825,     -1.77780602374615,
   0.81164195764156 ,    -1.96317843016328,     -1.70275470814049,
   1.84550314242626 ,    -0.63507785414296,     -1.15874915047870,
   4.20535105980061 ,    -1.17600307208012,     -3.73382519267984,
   3.81722990563412 ,    -0.12584534547469,     -2.40604073315493,

  -0.35039474585980 ,    -2.74968930600017,     -1.79600619868149,

   1.64703212051598 ,    -2.34527642947653,     -5.02041078093971,
   0.21762757943606 ,    -1.81402182106088,     -4.92438896073569,
   2.20996408316368 ,    -2.81238795729977,     -3.66570839426900,
  -0.81135572537995 ,    -2.90877989499973,     -4.60762515636500,
  -1.91657858254092 ,    -2.48508075713937,     -3.64366523945767,
  -2.55452478493006 ,    -1.71242755788778,     -4.09199294305849,
  -1.36353082720541 ,    -1.98133749722810,     -2.29360805249173,
  -2.55344838843162 ,    -3.35566694845509,     -3.45881477764605,
   2.30838499234352 ,    -1.58870425796698,     -5.45712825441895,
   1.67428589212794 ,    -3.20347842021223,     -5.69739224907122,
  -1.24482927661837 ,    -3.28088390439730,     -5.54104020975660,
  -0.30633065559159 ,    -3.75774641460160,     -4.14273378193499,
  -0.03624430874863 ,    -1.31855517297128,     -5.86530292533512,
   0.17500429843014 ,    -1.03538177398415,     -4.15809494690952,
   3.14310647236628 ,    -3.36280322518370,     -3.81152363032594,
   1.48768268169986 ,    -3.45893499530133,     -3.16521138815954,
  -2.22621969314943 ,    -1.90838562854536,     -1.60203905420989,
  -1.05135348294987 ,    -0.91567059424818,     -2.44333142162935])
activate(mol)

set {
basis aug-cc-pvtz
scf_type df
guess sad
freeze_core true
fisapt_do_plot false  # For extra analysis
}

energy('fisapt0')
--------------------------------------------------------------------------

    Molecular point group: c1

    Geometry (in Angstrom), charge = 0, multiplicity = 1:

       Center              X                  Y                   Z               Mass
    ------------   -----------------  -----------------  -----------------  -----------------
         C            2.489006695767    -1.668510270874    -2.737537829841    12.000000000000
         N            3.596314275490    -0.947608102187    -2.952246996562    14.003074004430
         N            1.663936314562    -1.413685368118    -1.777806023746    14.003074004430
         H            0.811641957642    -1.963178430163    -1.702754708140     1.007825032230
         H            1.845503142426    -0.635077854143    -1.158749150479     1.007825032230
         H            4.205351059801    -1.176003072080    -3.733825192680     1.007825032230
         H            3.817229905634    -0.125845345475    -2.406040733155     1.007825032230
         O           -0.350394745860    -2.749689306000    -1.796006198681    15.994914619570
         C            1.647032120516    -2.345276429477    -5.020410780940    12.000000000000
         C            0.217627579436    -1.814021821061    -4.924388960736    12.000000000000
         C            2.209964083164    -2.812387957300    -3.665708394269    12.000000000000
         C           -0.811355725380    -2.908779895000    -4.607625156365    12.000000000000
         C           -1.916578582541    -2.485080757139    -3.643665239458    12.000000000000
         H           -2.554524784930    -1.712427557888    -4.091992943058     1.007825032230
         C           -1.363530827205    -1.981337497228    -2.293608052492    12.000000000000
         H           -2.553448388432    -3.355666948455    -3.458814777646     1.007825032230
         H            2.308384992344    -1.588704257967    -5.457128254419     1.007825032230
         H            1.674285892128    -3.203478420212    -5.697392249071     1.007825032230
         H           -1.244829276618    -3.280883904397    -5.541040209757     1.007825032230
         H           -0.306330655592    -3.757746414602    -4.142733781935     1.007825032230
         H           -0.036244308749    -1.318555172971    -5.865302925335     1.007825032230
         H            0.175004298430    -1.035381773984    -4.158094946910     1.007825032230
         H            3.143106472366    -3.362803225184    -3.811523630326     1.007825032230
         H            1.487682681700    -3.458934995301    -3.165211388160     1.007825032230
         H           -2.226219693149    -1.908385628545    -1.602039054210     1.007825032230
         H           -1.051353482950    -0.915670594248    -2.443331421629     1.007825032230

  Charge       = 0
  Multiplicity = 1
  Basis Set: AUG-CC-PVTZ
    Blend: AUG-CC-PVTZ
  Basis Set: (AUG-CC-PVTZ AUX)
    Blend: AUG-CC-PVTZ-JKFIT

    Orbital Energies [Eh]
    ---------------------

    Doubly Occupied:

       1A    -20.393534     2A    -15.639460     3A    -15.591426
       4A    -11.385158     5A    -11.252379     6A    -11.239262
       7A    -11.207103     8A    -11.196956     9A    -11.185901
      10A    -11.167862    11A     -1.341417    12A     -1.231357
      13A     -1.194717    14A     -1.094689    15A     -1.021385
      16A     -0.955257    17A     -0.875928    18A     -0.855429
      19A     -0.798704    20A     -0.781354    21A     -0.759038
      22A     -0.717927    23A     -0.688771    24A     -0.650752
      25A     -0.632353    26A     -0.600967    27A     -0.589852
      28A     -0.560724    29A     -0.544174    30A     -0.541207
      31A     -0.502141    32A     -0.496732    33A     -0.485404
      34A     -0.463662    35A     -0.443035    36A     -0.438353
      37A     -0.426889    38A     -0.422601    39A     -0.310660
      40A     -0.307274

  @DF-RHF Final Energy:  -458.26259986736687

   => Energetics <=

    Nuclear Repulsion Energy =            590.9606514827222554
    One-Electron Energy =               -1796.4629043130209993
    Two-Electron Energy =                 747.2396529629320412
    Total Energy =                       -458.2625998673668164

  Dipole Moment: [D]
     X:     8.7166      Y:     4.1557      Z:    -2.4140     Total:     9.9537

  Basis Set: (AUG-CC-PVTZ AUX)
    Blend: AUG-CC-PVTZ-JKFIT

    SAPT Results
  --------------------------------------------------------------------------------------------------------
    Electrostatics               -248.64988233 [mEh]    -156.03015682 [kcal/mol]    -652.83017612 [kJ/mol]
      Elst10,r                   -248.64988233 [mEh]    -156.03015682 [kcal/mol]    -652.83017612 [kJ/mol]

    Exchange                      102.85262087 [mEh]      64.54099400 [kcal/mol]     270.03951889 [kJ/mol]
      Exch10                      102.85262087 [mEh]      64.54099400 [kcal/mol]     270.03951889 [kJ/mol]
      Exch10(S^2)                  97.12087357 [mEh]      60.94426826 [kcal/mol]     254.99081842 [kJ/mol]

    Induction                     -66.46879787 [mEh]     -41.70980037 [kcal/mol]    -174.51380476 [kJ/mol]
      Ind20,r                    -101.07353643 [mEh]     -63.42460166 [kcal/mol]    -265.36853333 [kJ/mol]
      Exch-Ind20,r                 57.40765302 [mEh]      36.02384614 [kcal/mol]     150.72377224 [kJ/mol]
      delta HF,r (2)              -22.80291446 [mEh]     -14.30904485 [kcal/mol]     -59.86904366 [kJ/mol]
      Induction (A<-B)            -33.40526197 [mEh]     -20.96211836 [kcal/mol]     -87.70550323 [kJ/mol]
      Induction (B<-A)            -33.06353589 [mEh]     -20.74768201 [kcal/mol]     -86.80830153 [kJ/mol]

    Dispersion                    -13.71085060 [mEh]      -8.60368865 [kcal/mol]     -35.99783330 [kJ/mol]
      Disp20                      -19.61955063 [mEh]     -12.31145389 [kcal/mol]     -51.51112309 [kJ/mol]
      Exch-Disp20                   5.90870003 [mEh]       3.70776525 [kcal/mol]      15.51328980 [kJ/mol]

  Total HF                       -212.26605933 [mEh]    -133.19896319 [kcal/mol]    -557.30446198 [kJ/mol]
  Total SAPT0                    -225.97690993 [mEh]    -141.80265184 [kcal/mol]    -593.30229528 [kJ/mol]

  --------------------------------------------------------------------------------------------------------

*** Psi4 exiting successfully. Buy a developer a beer!
