                               Psi4 1.4rc1

  ==> Input File <==

--------------------------------------------------------------------------
memory 2GB

mol = psi4.core.Molecule.from_arrays(
    elez=[7,6,7,7,1,1,1,1,1,6,8,8,6,6,6,1,1,1,1,1,1],
    fragment_separators=[9, 12],
    fix_com=True,
    fix_orientation=True,
    fix_symmetry='c1',
    fragment_multiplicities=[2, 2, 1],
    fragment_charges=[+1,-1,0],
    molecular_charge=0,
    molecular_multiplicity=1,
    geom= [
  5.29561544148172,      3.13151463189311,     -4.10533427738733,
  5.70861941097975,      3.46888548901111,     -5.32419033899509,
  6.90469597467801,      3.03895367317843,     -5.71708406340109,
  4.98188442747266,      4.29356985176773,     -6.09745662789833,
  5.00054649887452,      4.10131148961536,     -7.08776140004861,
  4.08469301436389,      4.59689864893086,     -5.73965185066001,
  5.96335824188284,      2.52611200906673,     -3.64239110343941,
  7.04716417563478,      2.06686091797147,     -5.47360368190500,
  7.19814532819337,      3.30799406200566,     -6.64522520998895,

  5.10584579108154,      0.66802242093208,     -5.30546252084629,
  4.80913158391404,      1.15018659454622,     -6.41436116266800,
  6.26736646993431,      0.56499944056063,     -4.81948096895293,

  3.90594730056438,      2.81985472396617,     -3.75291954362640,
  3.80351126540380,      1.37471570584528,     -3.26080731472895,
  3.93993384003018,      0.32036234078962,     -4.36772932829208,
  4.10504309121958,     -0.65508455224231,     -3.90773296457214,
  3.02280142165645,      0.28051729531502,     -4.95711742835281,
  3.28202462799347,      2.94918701936661,     -4.64025896902848,
  3.56525363654760,      3.51457361221196,     -2.98252251523612,
  4.57483307231304,      1.21515713430784,     -2.50044303611179,
  2.84351438578003,      1.26084549096040,     -2.75146469386016])
activate(mol)

set {
basis aug-cc-pvtz
scf_type df
guess sad
freeze_core true
fisapt_do_plot false  # For extra analysis
}

energy('fisapt0')
--------------------------------------------------------------------------

    Molecular point group: c1

    Geometry (in Angstrom), charge = 0, multiplicity = 1:

       Center              X                  Y                   Z               Mass
    ------------   -----------------  -----------------  -----------------  -----------------
         N            5.295615441482     3.131514631893    -4.105334277387    14.003074004430
         C            5.708619410980     3.468885489011    -5.324190338995    12.000000000000
         N            6.904695974678     3.038953673178    -5.717084063401    14.003074004430
         N            4.981884427473     4.293569851768    -6.097456627898    14.003074004430
         H            5.000546498875     4.101311489615    -7.087761400049     1.007825032230
         H            4.084693014364     4.596898648931    -5.739651850660     1.007825032230
         H            5.963358241883     2.526112009067    -3.642391103439     1.007825032230
         H            7.047164175635     2.066860917971    -5.473603681905     1.007825032230
         H            7.198145328193     3.307994062006    -6.645225209989     1.007825032230
         C            5.105845791082     0.668022420932    -5.305462520846    12.000000000000
         O            4.809131583914     1.150186594546    -6.414361162668    15.994914619570
         O            6.267366469934     0.564999440561    -4.819480968953    15.994914619570
         C            3.905947300564     2.819854723966    -3.752919543626    12.000000000000
         C            3.803511265404     1.374715705845    -3.260807314729    12.000000000000
         C            3.939933840030     0.320362340790    -4.367729328292    12.000000000000
         H            4.105043091220    -0.655084552242    -3.907732964572     1.007825032230
         H            3.022801421656     0.280517295315    -4.957117428353     1.007825032230
         H            3.282024627993     2.949187019367    -4.640258969028     1.007825032230
         H            3.565253636548     3.514573612212    -2.982522515236     1.007825032230
         H            4.574833072313     1.215157134308    -2.500443036112     1.007825032230
         H            2.843514385780     1.260845490960    -2.751464693860     1.007825032230

  Charge       = 0
  Multiplicity = 1
  Basis Set: AUG-CC-PVTZ
    Blend: AUG-CC-PVTZ
  Basis Set: (AUG-CC-PVTZ AUX)
    Blend: AUG-CC-PVTZ-JKFIT

    Orbital Energies [Eh]
    ---------------------

    Doubly Occupied:

       1A    -20.463170     2A    -20.462015     3A    -15.629341
       4A    -15.616339     5A    -15.595344     6A    -11.421161
       7A    -11.301097     8A    -11.291235     9A    -11.237881
      10A    -11.205589    11A     -1.379523    12A     -1.346497
      13A     -1.247007    14A     -1.241384    15A     -1.222093
      16A     -1.068063    17A     -0.962719    18A     -0.872463
      19A     -0.844176    20A     -0.798712    21A     -0.762843
      22A     -0.712712    23A     -0.688973    24A     -0.687334
      25A     -0.659024    26A     -0.643842    27A     -0.606647
      28A     -0.596377    29A     -0.577179    30A     -0.552138
      31A     -0.543107    32A     -0.537892    33A     -0.490862
      34A     -0.484782    35A     -0.463608    36A     -0.429437
      37A     -0.382822    38A     -0.372752    39A     -0.366734

  @DF-RHF Final Energy:  -509.02360207275268

   => Energetics <=

    Nuclear Repulsion Energy =            597.6852626254280949
    One-Electron Energy =               -1881.8879794465810846
    Two-Electron Energy =                 775.1791147484002522
    Total Energy =                       -509.0236020727527375

  Dipole Moment: [D]
     X:    -2.2465      Y:     6.3316      Z:     1.0496     Total:     6.7998

  Basis Set: (AUG-CC-PVTZ AUX)
    Blend: AUG-CC-PVTZ-JKFIT

    SAPT Results
  --------------------------------------------------------------------------------------------------------
    Electrostatics               -204.02850035 [mEh]    -128.02981689 [kcal/mol]    -535.67675387 [kJ/mol]
      Elst10,r                   -204.02850035 [mEh]    -128.02981689 [kcal/mol]    -535.67675387 [kJ/mol]

    Exchange                       58.01621884 [mEh]      36.40572695 [kcal/mol]     152.32156157 [kJ/mol]
      Exch10                       58.01621884 [mEh]      36.40572695 [kcal/mol]     152.32156157 [kJ/mol]
      Exch10(S^2)                  57.18019553 [mEh]      35.88111441 [kcal/mol]     150.12658267 [kJ/mol]

    Induction                     -29.30881967 [mEh]     -18.39156201 [kcal/mol]     -76.95029543 [kJ/mol]
      Ind20,r                     -51.02302602 [mEh]     -32.01743221 [kcal/mol]    -133.96093635 [kJ/mol]
      Exch-Ind20,r                 30.92425160 [mEh]      19.40526085 [kcal/mol]      81.19161140 [kJ/mol]
      delta HF,r (2)               -9.21004525 [mEh]      -5.77939065 [kcal/mol]     -24.18097048 [kJ/mol]
      Induction (A<-B)            -17.69313408 [mEh]     -11.10260925 [kcal/mol]     -46.45331712 [kJ/mol]
      Induction (B<-A)            -11.61568559 [mEh]      -7.28895275 [kcal/mol]     -30.49697831 [kJ/mol]

    Dispersion                    -18.44449350 [mEh]     -11.57409441 [kcal/mol]     -48.42601102 [kJ/mol]
      Disp20                      -24.00603828 [mEh]     -15.06401645 [kcal/mol]     -63.02784483 [kJ/mol]
      Exch-Disp20                   5.56154478 [mEh]       3.48992204 [kcal/mol]      14.60183381 [kJ/mol]

  Total HF                       -175.32110118 [mEh]    -110.01565194 [kcal/mol]    -460.30548773 [kJ/mol]
  Total SAPT0                    -193.76559468 [mEh]    -121.58974635 [kcal/mol]    -508.73149875 [kJ/mol]

  --------------------------------------------------------------------------------------------------------

*** Psi4 exiting successfully. Buy a developer a beer!
