                               Psi4 1.4rc1

  ==> Input File <==

--------------------------------------------------------------------------
memory 2GB

mol = psi4.core.Molecule.from_arrays(
    elez=[7,6,7,7,1,1,1,1,1,8,6,6,6,1,1,1,1,1,1],
    fragment_separators=[9, 10],
    fix_com=True,
    fix_orientation=True,
    fix_symmetry='c1',
    fragment_multiplicities=[2, 2, 1],
    fragment_charges=[+1,-1,0],
    molecular_charge=0,
    molecular_multiplicity=1,
    geom= [
     5.28156001386356,     -1.97413230202639,     -4.53576396509695,
     4.79250040037565,     -1.36131633161753,     -3.45729543047029,
     3.93989812200971,     -0.37492457796416,     -3.55735935698078,
     5.25985994691107,     -1.75422360742556,     -2.23913258292645,
     5.92282439266980,     -2.52145050287608,     -2.18672046160884,
     4.65467848233861,     -1.64040418559269,     -1.44201608171381,
     5.70913931601787,     -2.87559879741736,     -4.38702107927370,
     3.33010127435397,     -0.31763918833135,     -4.36124687374376,
     3.69849409063960,      0.11446792224571,     -2.70833270752008,

     2.45972920999948,     -0.50920407754511,     -5.50575660540022,

     4.99986217247582,     -1.59613296193310,     -5.92487556889778,
     3.76677942509234,     -2.26611016126918,     -6.51175157294435,
     2.49670203593654,     -1.84416112189797,     -5.73570407103022,
     1.62641603508535,     -2.21743410374496,     -6.30894985053107,
     2.48182441182043,     -2.45606903488391,     -4.79341408821103,
     4.84333288368632,     -0.51792980682896,     -5.94301905078900,
     5.90169506332698,     -1.82250328709904,     -6.49646680938943,
     3.88619055705276,     -3.35707593204907,     -6.53360433014879,
     3.68560216634413,     -1.92216794174328,     -7.54712751332339])
activate(mol)

set {
basis aug-cc-pvtz
scf_type df
guess sad
freeze_core true
fisapt_do_plot false  # For extra analysis
}

energy('fisapt0')
--------------------------------------------------------------------------

    Molecular point group: c1

    Geometry (in Angstrom), charge = 0, multiplicity = 1:

       Center              X                  Y                   Z               Mass
    ------------   -----------------  -----------------  -----------------  -----------------
         N            5.281560013864    -1.974132302026    -4.535763965097    14.003074004430
         C            4.792500400376    -1.361316331618    -3.457295430470    12.000000000000
         N            3.939898122010    -0.374924577964    -3.557359356981    14.003074004430
         N            5.259859946911    -1.754223607426    -2.239132582926    14.003074004430
         H            5.922824392670    -2.521450502876    -2.186720461609     1.007825032230
         H            4.654678482339    -1.640404185593    -1.442016081714     1.007825032230
         H            5.709139316018    -2.875598797417    -4.387021079274     1.007825032230
         H            3.330101274354    -0.317639188331    -4.361246873744     1.007825032230
         H            3.698494090640     0.114467922246    -2.708332707520     1.007825032230
         O            2.459729209999    -0.509204077545    -5.505756605400    15.994914619570
         C            4.999862172476    -1.596132961933    -5.924875568898    12.000000000000
         C            3.766779425092    -2.266110161269    -6.511751572944    12.000000000000
         C            2.496702035937    -1.844161121898    -5.735704071030    12.000000000000
         H            1.626416035085    -2.217434103745    -6.308949850531     1.007825032230
         H            2.481824411820    -2.456069034884    -4.793414088211     1.007825032230
         H            4.843332883686    -0.517929806829    -5.943019050789     1.007825032230
         H            5.901695063327    -1.822503287099    -6.496466809389     1.007825032230
         H            3.886190557053    -3.357075932049    -6.533604330149     1.007825032230
         H            3.685602166344    -1.922167941743    -7.547127513323     1.007825032230

  Charge       = 0
  Multiplicity = 1
  Basis Set: AUG-CC-PVTZ
    Blend: AUG-CC-PVTZ
  Basis Set: (AUG-CC-PVTZ AUX)
    Blend: AUG-CC-PVTZ-JKFIT

    Orbital Energies [Eh]
    ---------------------

    Doubly Occupied:

       1A    -20.391415     2A    -15.631262     3A    -15.617962
       4A    -15.575635     5A    -11.414008     6A    -11.259708
       7A    -11.206445     8A    -11.190465     9A     -1.368603
      10A     -1.236898    11A     -1.224559    12A     -1.195169
      13A     -1.018747    14A     -0.910413    15A     -0.849033
      16A     -0.803817    17A     -0.781075    18A     -0.740752
      19A     -0.696589    20A     -0.684168    21A     -0.635118
      22A     -0.627749    23A     -0.598807    24A     -0.561775
      25A     -0.514244    26A     -0.494277    27A     -0.479607
      28A     -0.454664    29A     -0.442773    30A     -0.410252
      31A     -0.310289    32A     -0.306448

  @DF-RHF Final Energy:  -396.18363319932757

   => Energetics <=

    Nuclear Repulsion Energy =            414.8881559088766835
    One-Electron Energy =               -1362.8781180419030079
    Two-Electron Energy =                 551.8063289336987509
    Total Energy =                       -396.1836331993275735

  Dipole Moment: [D]
     X:     6.4413      Y:    -3.7154      Z:     6.1780     Total:     9.6676

  Basis Set: (AUG-CC-PVTZ AUX)
    Blend: AUG-CC-PVTZ-JKFIT

    SAPT Results
  --------------------------------------------------------------------------------------------------------
    Electrostatics               -231.44167015 [mEh]    -145.23184065 [kcal/mol]    -607.65002127 [kJ/mol]
      Elst10,r                   -231.44167015 [mEh]    -145.23184065 [kcal/mol]    -607.65002127 [kJ/mol]

    Exchange                       90.25464870 [mEh]      56.63564711 [kcal/mol]     236.96354753 [kJ/mol]
      Exch10                       90.25464870 [mEh]      56.63564711 [kcal/mol]     236.96354753 [kJ/mol]
      Exch10(S^2)                  85.73443773 [mEh]      53.79917190 [kcal/mol]     225.09573524 [kJ/mol]

    Induction                     -59.68718472 [mEh]     -37.45427388 [kcal/mol]    -156.70868191 [kJ/mol]
      Ind20,r                     -83.08825298 [mEh]     -52.13866591 [kcal/mol]    -218.14817815 [kJ/mol]
      Exch-Ind20,r                 44.52272384 [mEh]      27.93843101 [kcal/mol]     116.89439533 [kJ/mol]
      delta HF,r (2)              -21.12165558 [mEh]     -13.25403898 [kcal/mol]     -55.45489908 [kJ/mol]
      Induction (A<-B)            -31.71985553 [mEh]     -19.90450985 [kcal/mol]     -83.28046923 [kJ/mol]
      Induction (B<-A)            -27.96732919 [mEh]     -17.54976402 [kcal/mol]     -73.42821267 [kJ/mol]

    Dispersion                    -13.27404481 [mEh]      -8.32958887 [kcal/mol]     -34.85099985 [kJ/mol]
      Disp20                      -18.71032639 [mEh]     -11.74090707 [kcal/mol]     -49.12395517 [kJ/mol]
      Exch-Disp20                   5.43628158 [mEh]       3.41131819 [kcal/mol]      14.27295532 [kJ/mol]

  Total HF                       -200.87420617 [mEh]    -126.05046741 [kcal/mol]    -527.39515565 [kJ/mol]
  Total SAPT0                    -214.14825098 [mEh]    -134.38005629 [kcal/mol]    -562.24615550 [kJ/mol]

  --------------------------------------------------------------------------------------------------------

*** Psi4 exiting successfully. Buy a developer a beer!
