                               Psi4 1.4rc1

  ==> Input File <==

--------------------------------------------------------------------------
memory 2GB

mol = psi4.core.Molecule.from_arrays(
    elez=[7,6,7,7,1,1,1,1,1,16,8,8,8,6,6,6,1,1,1,1,1,1],
    fragment_separators=[9, 13],
    fix_com=True,
    fix_orientation=True,
    fix_symmetry='c1',
    fragment_multiplicities=[2, 2, 1],
    fragment_charges=[+1,-1,0],
    molecular_charge=0,
    molecular_multiplicity=1,
    geom= [
    4.53592355539147,      1.18244720798907,     -3.42851809310285,
    4.67195632560828,      0.12227262485707,     -4.22059829818643,
    5.86602329002026,     -0.50784900277095,     -4.22428368432641,
    3.69888095256997,     -0.31284391417114,     -4.98698804977450,
    2.73140542189933,     -0.05009080990113,     -4.84899991113940,
    3.89004615848104,     -1.05517184951114,     -5.64373002321179,
    5.25193266013024,      1.30345918115295,     -2.72101406976262,
    6.69516488201870,     -0.06232199131331,     -3.85159616445003,
    5.97538320090226,     -1.39688363299816,     -4.69141411928890,

    0.57902397044612,      0.14047217495365,     -3.29794301172596,
    0.22886029743600,     -1.24686762079064,     -3.12787050738689,
   -0.43926902857602,      1.11896619895193,     -3.01454956723521,
    1.24788126392434,      0.40347381325164,     -4.59564710264155,

    3.38092795557115,      2.08304461202498,     -3.35012652608757,
    2.49555725863754,      1.81614960851423,     -2.13636429661015,
    1.87218064127553,      0.42790288115637,     -2.07749720313876,
    2.61427030965840,     -0.36582501310385,     -2.19889398920823,
    1.38995264007889,      0.27308723640234,     -1.11236027558737,
    1.69700292169061,      2.56196893183610,     -2.14110879137667,
    3.08078742833954,      1.98743550437495,     -1.22583802430969,
    2.80646345887142,      1.98651085639345,     -4.26848412047050,
    3.77871443562488,      3.09828200270158,     -3.30738317097849])
activate(mol)

set {
basis aug-cc-pvtz
scf_type df
guess sad
freeze_core true
fisapt_do_plot false  # For extra analysis
}

energy('fisapt0')
--------------------------------------------------------------------------

    Molecular point group: c1

    Geometry (in Angstrom), charge = 0, multiplicity = 1:

       Center              X                  Y                   Z               Mass
    ------------   -----------------  -----------------  -----------------  -----------------
         N            4.535923555391     1.182447207989    -3.428518093103    14.003074004430
         C            4.671956325608     0.122272624857    -4.220598298186    12.000000000000
         N            5.866023290020    -0.507849002771    -4.224283684326    14.003074004430
         N            3.698880952570    -0.312843914171    -4.986988049775    14.003074004430
         H            2.731405421899    -0.050090809901    -4.848999911139     1.007825032230
         H            3.890046158481    -1.055171849511    -5.643730023212     1.007825032230
         H            5.251932660130     1.303459181153    -2.721014069763     1.007825032230
         H            6.695164882019    -0.062321991313    -3.851596164450     1.007825032230
         H            5.975383200902    -1.396883632998    -4.691414119289     1.007825032230
         S            0.579023970446     0.140472174954    -3.297943011726    31.972071174400
         O            0.228860297436    -1.246867620791    -3.127870507387    15.994914619570
         O           -0.439269028576     1.118966198952    -3.014549567235    15.994914619570
         O            1.247881263924     0.403473813252    -4.595647102642    15.994914619570
         C            3.380927955571     2.083044612025    -3.350126526088    12.000000000000
         C            2.495557258638     1.816149608514    -2.136364296610    12.000000000000
         C            1.872180641276     0.427902881156    -2.077497203139    12.000000000000
         H            2.614270309658    -0.365825013104    -2.198893989208     1.007825032230
         H            1.389952640079     0.273087236402    -1.112360275587     1.007825032230
         H            1.697002921691     2.561968931836    -2.141108791377     1.007825032230
         H            3.080787428340     1.987435504375    -1.225838024310     1.007825032230
         H            2.806463458871     1.986510856393    -4.268484120471     1.007825032230
         H            3.778714435625     3.098282002702    -3.307383170978     1.007825032230

  Charge       = 0
  Multiplicity = 1
  Basis Set: AUG-CC-PVTZ
    Blend: AUG-CC-PVTZ
  Basis Set: (AUG-CC-PVTZ AUX)
    Blend: AUG-CC-PVTZ-JKFIT

    Orbital Energies [Eh]
    ---------------------

    Doubly Occupied:

       1A    -92.127720     2A    -20.483786     3A    -20.468981
       4A    -20.468260     5A    -15.661096     6A    -15.651557
       7A    -15.623201     8A    -11.452215     9A    -11.293720
      10A    -11.242170    11A    -11.232031    12A     -9.091376
      13A     -6.776799    14A     -6.776518    15A     -6.776384
      16A     -1.421854    17A     -1.403493    18A     -1.275154
      19A     -1.270063    20A     -1.269317    21A     -1.247126
      22A     -1.082951    23A     -0.988082    24A     -0.908168
      25A     -0.860413    26A     -0.841296    27A     -0.798999
      28A     -0.756672    29A     -0.731904    30A     -0.719452
      31A     -0.683112    32A     -0.661216    33A     -0.645391
      34A     -0.620283    35A     -0.611987    36A     -0.600347
      37A     -0.583794    38A     -0.535683    39A     -0.530128
      40A     -0.514706    41A     -0.487136    42A     -0.471744
      43A     -0.465068    44A     -0.447821    45A     -0.425438
      46A     -0.416450    47A     -0.388755    48A     -0.379335

  @DF-RHF Final Energy:  -943.55145428053856

   => Energetics <=

    Nuclear Repulsion Energy =            832.3048157007644932
    One-Electron Energy =               -2951.3742339887021444
    Two-Electron Energy =                1175.5179640073993141
    Total Energy =                       -943.5514542805385645

  Dipole Moment: [D]
     X:    16.8211      Y:     0.7119      Z:    -0.4578     Total:    16.8424

  Basis Set: (AUG-CC-PVTZ AUX)
    Blend: AUG-CC-PVTZ-JKFIT

    SAPT Results
  --------------------------------------------------------------------------------------------------------
    Electrostatics               -143.05210071 [mEh]     -89.76654844 [kcal/mol]    -375.58323867 [kJ/mol]
      Elst10,r                   -143.05210071 [mEh]     -89.76654844 [kcal/mol]    -375.58323867 [kJ/mol]

    Exchange                       46.13177593 [mEh]      28.94812644 [kcal/mol]     121.11896101 [kJ/mol]
      Exch10                       46.13177593 [mEh]      28.94812644 [kcal/mol]     121.11896101 [kJ/mol]
      Exch10(S^2)                  44.92154908 [mEh]      28.18869762 [kcal/mol]     117.94151086 [kJ/mol]

    Induction                     -30.24681793 [mEh]     -18.98016480 [kcal/mol]     -79.41300954 [kJ/mol]
      Ind20,r                     -33.91062429 [mEh]     -21.27923800 [kcal/mol]     -89.03233180 [kJ/mol]
      Exch-Ind20,r                 15.04169067 [mEh]       9.43880340 [kcal/mol]      39.49195342 [kJ/mol]
      delta HF,r (2)              -11.37788432 [mEh]      -7.13973020 [kcal/mol]     -29.87263116 [kJ/mol]
      Induction (A<-B)             -9.56155498 [mEh]      -5.99996634 [kcal/mol]     -25.10385915 [kJ/mol]
      Induction (B<-A)            -20.68526295 [mEh]     -12.98019847 [kcal/mol]     -54.30915039 [kJ/mol]

    Dispersion                    -10.03939683 [mEh]      -6.29981662 [kcal/mol]     -26.35843275 [kJ/mol]
      Disp20                      -12.63689869 [mEh]      -7.92977365 [kcal/mol]     -33.17817295 [kJ/mol]
      Exch-Disp20                   2.59750186 [mEh]       1.62995703 [kcal/mol]       6.81974020 [kJ/mol]

  Total HF                       -127.16714271 [mEh]     -79.79858680 [kcal/mol]    -333.87728719 [kJ/mol]
  Total SAPT0                    -137.20653954 [mEh]     -86.09840343 [kcal/mol]    -360.23571994 [kJ/mol]

  --------------------------------------------------------------------------------------------------------

*** Psi4 exiting successfully. Buy a developer a beer!
