                               Psi4 1.4rc1

  ==> Input File <==

--------------------------------------------------------------------------
memory 2GB

mol = psi4.core.Molecule.from_arrays(
    elez=[7,6,7,7,1,1,1,1,1,6,8,8,6,6,6,1,1,6,1,1,6,1,1,6,1,1,1,1,1,1],
    fragment_separators=[9, 12],
    fix_com=True,
    fix_orientation=True,
    fix_symmetry='c1',
    fragment_multiplicities=[2, 2, 1],
    fragment_charges=[+1,-1,0],
    molecular_charge=0,
    molecular_multiplicity=1,
    geom= [
   2.75679906857839,     -2.94555345526462,     -3.76502861978396,
   1.98720814251926,     -2.59045149003816,     -4.81897525645722,
   0.74322140836827,     -3.01749264893517,     -4.91352402501861,
   2.49963593973733,     -1.84859813074130,     -5.80324145622272,
   3.30978002637149,     -1.29281796797736,     -5.55894681255928,
   1.80102531571411,     -1.30429832060773,     -6.28912873030448,
   3.71611588839557,     -2.62879675593266,     -3.82953347330944,
   0.39582766226817,     -3.62774673712507,     -4.18502351537346,
   0.03920119612823,     -2.45438287352486,     -5.37136715144776,

  -0.39762444555094,     -0.20587455340424,     -5.28801844989852,
   0.61716528244096,     -0.00534773239250,     -5.99827269662065,
  -1.13317298781400,     -1.22138009902623,     -5.34146542366837,

   2.23447346392744,     -2.98975405655126,     -2.39762173557614,
  -1.10432539740194,      0.25137385873863,     -2.86005580694834,
  -0.71189300081621,      0.84251740094268,     -4.21834447152728,
   0.15462584459135,      1.49979977566531,     -4.13090851747327,
  -1.53813398518021,      1.45922203397934,     -4.58267057227351,
   2.19119944486112,     -1.61950326203814,     -1.71549223911685,
   2.87278319692318,     -3.66636842081763,     -1.82801375597862,
   1.24618849075060,     -3.44744400608884,     -2.40784212690001,
   1.29872921736152,     -0.55431384160624,     -2.35977284747704,
   1.87291728701322,     -1.78795523023971,     -0.68130957375286,
   3.21680921887445,     -1.23843188719155,     -1.65442782606624,
  -0.19625510105146,     -0.86336549759839,     -2.32576345666920,
   1.61253069617991,     -0.37134550459054,     -3.39306480416942,
   1.48094408932106,      0.38863808611276,     -1.83444388404082,
  -0.40410462220266,     -1.76182535516162,     -2.90944761628215,
  -0.49043903457121,     -1.08788042364140,     -1.29413090458535,
  -1.14384182675482,      1.06671119249081,     -2.12968031959315,
  -2.11440147898228,     -0.15683409743421,     -2.93032293090501])
activate(mol)

set {
basis aug-cc-pvtz
scf_type df
guess sad
freeze_core true
fisapt_do_plot false  # For extra analysis
}

energy('fisapt0')
--------------------------------------------------------------------------

    Molecular point group: c1

    Geometry (in Angstrom), charge = 0, multiplicity = 1:

       Center              X                  Y                   Z               Mass
    ------------   -----------------  -----------------  -----------------  -----------------
         N            2.756799068578    -2.945553455265    -3.765028619784    14.003074004430
         C            1.987208142519    -2.590451490038    -4.818975256457    12.000000000000
         N            0.743221408368    -3.017492648935    -4.913524025019    14.003074004430
         N            2.499635939737    -1.848598130741    -5.803241456223    14.003074004430
         H            3.309780026371    -1.292817967977    -5.558946812559     1.007825032230
         H            1.801025315714    -1.304298320608    -6.289128730304     1.007825032230
         H            3.716115888396    -2.628796755933    -3.829533473309     1.007825032230
         H            0.395827662268    -3.627746737125    -4.185023515373     1.007825032230
         H            0.039201196128    -2.454382873525    -5.371367151448     1.007825032230
         C           -0.397624445551    -0.205874553404    -5.288018449899    12.000000000000
         O            0.617165282441    -0.005347732393    -5.998272696621    15.994914619570
         O           -1.133172987814    -1.221380099026    -5.341465423668    15.994914619570
         C            2.234473463927    -2.989754056551    -2.397621735576    12.000000000000
         C           -1.104325397402     0.251373858739    -2.860055806948    12.000000000000
         C           -0.711893000816     0.842517400943    -4.218344471527    12.000000000000
         H            0.154625844591     1.499799775665    -4.130908517473     1.007825032230
         H           -1.538133985180     1.459222033979    -4.582670572274     1.007825032230
         C            2.191199444861    -1.619503262038    -1.715492239117    12.000000000000
         H            2.872783196923    -3.666368420818    -1.828013755979     1.007825032230
         H            1.246188490751    -3.447444006089    -2.407842126900     1.007825032230
         C            1.298729217362    -0.554313841606    -2.359772847477    12.000000000000
         H            1.872917287013    -1.787955230240    -0.681309573753     1.007825032230
         H            3.216809218874    -1.238431887192    -1.654427826066     1.007825032230
         C           -0.196255101051    -0.863365497598    -2.325763456669    12.000000000000
         H            1.612530696180    -0.371345504591    -3.393064804169     1.007825032230
         H            1.480944089321     0.388638086113    -1.834443884041     1.007825032230
         H           -0.404104622203    -1.761825355162    -2.909447616282     1.007825032230
         H           -0.490439034571    -1.087880423641    -1.294130904585     1.007825032230
         H           -1.143841826755     1.066711192491    -2.129680319593     1.007825032230
         H           -2.114401478982    -0.156834097434    -2.930322930905     1.007825032230

  Charge       = 0
  Multiplicity = 1
  Basis Set: AUG-CC-PVTZ
    Blend: AUG-CC-PVTZ
  Basis Set: (AUG-CC-PVTZ AUX)
    Blend: AUG-CC-PVTZ-JKFIT

    Orbital Energies [Eh]
    ---------------------

    Doubly Occupied:

       1A    -20.463150     2A    -20.460607     3A    -15.630582
       4A    -15.600312     5A    -15.599593     6A    -11.419933
       7A    -11.304846     8A    -11.300008     9A    -11.249932
      10A    -11.229878    11A    -11.215398    12A    -11.206538
      13A    -11.194004    14A     -1.376806    15A     -1.349842
      16A     -1.246999    17A     -1.245918    18A     -1.215319
      19A     -1.098192    20A     -1.046240    21A     -0.979817
      22A     -0.922508    23A     -0.871985    24A     -0.841065
      25A     -0.804454    26A     -0.786670    27A     -0.752408
      28A     -0.714525    29A     -0.689929    30A     -0.673897
      31A     -0.659464    32A     -0.645888    33A     -0.636849
      34A     -0.618229    35A     -0.602878    36A     -0.591416
      37A     -0.579499    38A     -0.575164    39A     -0.557366
      40A     -0.534677    41A     -0.520719    42A     -0.506400
      43A     -0.491251    44A     -0.474245    45A     -0.454589
      46A     -0.449267    47A     -0.445597    48A     -0.432423
      49A     -0.381654    50A     -0.370635    51A     -0.369090

  @DF-RHF Final Energy:  -626.16511860160836

   => Energetics <=

    Nuclear Repulsion Energy =            908.8979241138904399
    One-Electron Energy =               -2659.3487697050600218
    Two-Electron Energy =                1124.2857269895612262
    Total Energy =                       -626.1651186016083557

  Dipole Moment: [D]
     X:     6.1582      Y:    -3.4204      Z:     5.8031     Total:     9.1268

  Basis Set: (AUG-CC-PVTZ AUX)
    Blend: AUG-CC-PVTZ-JKFIT

    SAPT Results
  --------------------------------------------------------------------------------------------------------
    Electrostatics               -220.44069016 [mEh]    -138.32862148 [kcal/mol]    -578.76695229 [kJ/mol]
      Elst10,r                   -220.44069016 [mEh]    -138.32862148 [kcal/mol]    -578.76695229 [kJ/mol]

    Exchange                       72.13029957 [mEh]      45.26244633 [kcal/mol]     189.37807543 [kJ/mol]
      Exch10                       72.13029957 [mEh]      45.26244633 [kcal/mol]     189.37807543 [kJ/mol]
      Exch10(S^2)                  70.78493610 [mEh]      44.41821801 [kcal/mol]     185.84582414 [kJ/mol]

    Induction                     -41.23742171 [mEh]     -25.87687280 [kcal/mol]    -108.26883578 [kJ/mol]
      Ind20,r                     -53.26966858 [mEh]     -33.42722170 [kcal/mol]    -139.85949558 [kJ/mol]
      Exch-Ind20,r                 26.45749827 [mEh]      16.60233082 [kcal/mol]      69.46415214 [kJ/mol]
      delta HF,r (2)              -14.42525140 [mEh]      -9.05198192 [kcal/mol]     -37.87349234 [kJ/mol]
      Induction (A<-B)            -22.34973066 [mEh]     -14.02466772 [kcal/mol]     -58.67920976 [kJ/mol]
      Induction (B<-A)            -18.88769105 [mEh]     -11.85220507 [kcal/mol]     -49.58962602 [kJ/mol]

    Dispersion                    -17.66246565 [mEh]     -11.08336452 [kcal/mol]     -46.37279717 [kJ/mol]
      Disp20                      -23.25113444 [mEh]     -14.59030714 [kcal/mol]     -61.04584507 [kJ/mol]
      Exch-Disp20                   5.58866880 [mEh]       3.50694262 [kcal/mol]      14.67304790 [kJ/mol]

  Total HF                       -189.54781230 [mEh]    -118.94304795 [kcal/mol]    -497.65771264 [kJ/mol]
  Total SAPT0                    -207.21027795 [mEh]    -130.02641248 [kcal/mol]    -544.03050980 [kJ/mol]

  --------------------------------------------------------------------------------------------------------

*** Psi4 exiting successfully. Buy a developer a beer!
