                               Psi4 1.4rc1

  ==> Input File <==

--------------------------------------------------------------------------
memory 2GB

mol = psi4.core.Molecule.from_arrays(
    elez=[7,6,7,7,1,1,1,1,1,8,6,6,6,6,1,6,1,1,1,6,1,1,1,1,1,1,1,1],
    fragment_separators=[9, 10],
    fix_com=True,
    fix_orientation=True,
    fix_symmetry='c1',
    fragment_multiplicities=[2, 2, 1],
    fragment_charges=[+1,-1,0],
    molecular_charge=0,
    molecular_multiplicity=1,
    geom= [
  2.48451054779694,     -0.50741010489923,     -5.14039220586384,
  3.45114904822142,     -0.14952959969228,     -5.95258931056356,
  3.92266725757306,      1.08955941157092,     -5.85071100312544,
  3.96616225215346,     -1.00618312729475,     -6.86787982631006,
  3.52139091633662,     -1.90646668470398,     -6.99526977778063,
  4.44482384097907,     -0.62347203477148,     -7.67034822361071,
  2.25199501730161,      0.24080384883423,     -4.49879192862828,
  3.46427738032099,      1.64078158057000,     -5.13639226354592,
  4.83446964257857,      1.31374538177409,     -6.22465309302575,

  2.35381452646305,      1.71203224304926,     -3.93447711246953,

  1.63555696857484,     -1.67039581584569,     -5.29210936179467,
  0.33848398095050,     -1.50090735351920,     -4.50539820736011,
 -0.68487299561367,     -0.52802569712833,     -5.09988905866512,
 -0.29040632486478,      0.95133524937234,     -5.15342333556533,
  0.60799118987378,      1.07069205690554,     -5.76441230650137,
 -0.05516770138012,      1.61941950626961,     -3.78857718749378,
 -1.08091236304801,      1.48377461082105,     -5.68943642524196,
  0.04500584815616,      0.86230221749977,     -3.00301466377115,
 -0.92293620905943,      2.23032880630548,     -3.51702799847526,
  1.22302185706643,      2.46986505259633,     -3.75691138054356,
  1.11470139380930,      3.25807411756368,     -4.53299943422719,
  1.23773198037888,      3.01124224852555,     -2.79215732416151,
  1.39833744126282,     -1.82923896176344,     -6.35259108677487,
  2.15586426714118,     -2.56539838508644,     -4.93209076038469,
 -0.93799870764406,     -0.86905644974999,     -6.11083778440305,
 -1.60463836245734,     -0.62249600116412,     -4.51313158693470,
  0.59488650552839,     -1.21157800094638,     -3.48231182503573,
 -0.12653019839971,     -2.48765611509254,     -4.43417552774212])
activate(mol)

set {
basis aug-cc-pvtz
scf_type df
guess sad
freeze_core true
fisapt_do_plot false  # For extra analysis
}

energy('fisapt0')
--------------------------------------------------------------------------

    Molecular point group: c1

    Geometry (in Angstrom), charge = 0, multiplicity = 1:

       Center              X                  Y                   Z               Mass
    ------------   -----------------  -----------------  -----------------  -----------------
         N            2.484510547797    -0.507410104899    -5.140392205864    14.003074004430
         C            3.451149048221    -0.149529599692    -5.952589310564    12.000000000000
         N            3.922667257573     1.089559411571    -5.850711003125    14.003074004430
         N            3.966162252153    -1.006183127295    -6.867879826310    14.003074004430
         H            3.521390916337    -1.906466684704    -6.995269777781     1.007825032230
         H            4.444823840979    -0.623472034771    -7.670348223611     1.007825032230
         H            2.251995017302     0.240803848834    -4.498791928628     1.007825032230
         H            3.464277380321     1.640781580570    -5.136392263546     1.007825032230
         H            4.834469642579     1.313745381774    -6.224653093026     1.007825032230
         O            2.353814526463     1.712032243049    -3.934477112470    15.994914619570
         C            1.635556968575    -1.670395815846    -5.292109361795    12.000000000000
         C            0.338483980950    -1.500907353519    -4.505398207360    12.000000000000
         C           -0.684872995614    -0.528025697128    -5.099889058665    12.000000000000
         C           -0.290406324865     0.951335249372    -5.153423335565    12.000000000000
         H            0.607991189874     1.070692056906    -5.764412306501     1.007825032230
         C           -0.055167701380     1.619419506270    -3.788577187494    12.000000000000
         H           -1.080912363048     1.483774610821    -5.689436425242     1.007825032230
         H            0.045005848156     0.862302217500    -3.003014663771     1.007825032230
         H           -0.922936209059     2.230328806305    -3.517027998475     1.007825032230
         C            1.223021857066     2.469865052596    -3.756911380544    12.000000000000
         H            1.114701393809     3.258074117564    -4.532999434227     1.007825032230
         H            1.237731980379     3.011242248526    -2.792157324162     1.007825032230
         H            1.398337441263    -1.829238961763    -6.352591086775     1.007825032230
         H            2.155864267141    -2.565398385086    -4.932090760385     1.007825032230
         H           -0.937998707644    -0.869056449750    -6.110837784403     1.007825032230
         H           -1.604638362457    -0.622496001164    -4.513131586935     1.007825032230
         H            0.594886505528    -1.211578000946    -3.482311825036     1.007825032230
         H           -0.126530198400    -2.487656115093    -4.434175527742     1.007825032230

  Charge       = 0
  Multiplicity = 1
  Basis Set: AUG-CC-PVTZ
    Blend: AUG-CC-PVTZ
  Basis Set: (AUG-CC-PVTZ AUX)
    Blend: AUG-CC-PVTZ-JKFIT

    Orbital Energies [Eh]
    ---------------------

    Doubly Occupied:

       1A    -20.402652     2A    -15.624357     3A    -15.576471
       4A    -15.575000     5A    -11.398341     6A    -11.279520
       7A    -11.226327     8A    -11.213023     9A    -11.199373
      10A    -11.193101    11A    -11.173398    12A     -1.358622
      13A     -1.231490    14A     -1.209194    15A     -1.196389
      16A     -1.074659    17A     -1.008687    18A     -0.938181
      19A     -0.878006    20A     -0.844681    21A     -0.798389
      22A     -0.781885    23A     -0.752327    24A     -0.731847
      25A     -0.683473    26A     -0.670755    27A     -0.662613
      28A     -0.644353    29A     -0.602450    30A     -0.586491
      31A     -0.573381    32A     -0.568089    33A     -0.539195
      34A     -0.514285    35A     -0.506132    36A     -0.482311
      37A     -0.463402    38A     -0.455713    39A     -0.442961
      40A     -0.433191    41A     -0.428608    42A     -0.393527
      43A     -0.318871    44A     -0.316157

  @DF-RHF Final Energy:  -513.33483005964615

   => Energetics <=

    Nuclear Repulsion Energy =            694.6622625068069965
    One-Electron Energy =               -2078.0904097781749442
    Two-Electron Energy =                 870.0933172117216827
    Total Energy =                       -513.3348300596461513

  Dipole Moment: [D]
     X:     2.4037      Y:    -5.2786      Z:    -5.9810     Total:     8.3314

  Basis Set: (AUG-CC-PVTZ AUX)
    Blend: AUG-CC-PVTZ-JKFIT

    SAPT Results
  --------------------------------------------------------------------------------------------------------
    Electrostatics               -282.43354526 [mEh]    -177.22972536 [kcal/mol]    -741.52917091 [kJ/mol]
      Elst10,r                   -282.43354526 [mEh]    -177.22972536 [kcal/mol]    -741.52917091 [kJ/mol]

    Exchange                      135.50948663 [mEh]      85.03348665 [kcal/mol]     355.78010813 [kJ/mol]
      Exch10                      135.50948663 [mEh]      85.03348665 [kcal/mol]     355.78010813 [kJ/mol]
      Exch10(S^2)                 130.36373906 [mEh]      81.80448130 [kcal/mol]     342.26994975 [kJ/mol]

    Induction                     -64.18873692 [mEh]     -40.27904053 [kcal/mol]    -168.52750557 [kJ/mol]
      Ind20,r                    -168.27144763 [mEh]    -105.59192756 [kcal/mol]    -441.79662489 [kJ/mol]
      Exch-Ind20,r                117.60486536 [mEh]      73.79816718 [kcal/mol]     308.77153147 [kJ/mol]
      delta HF,r (2)              -13.52215465 [mEh]      -8.48528015 [kcal/mol]     -35.50241215 [kJ/mol]
      Induction (A<-B)            -42.63357255 [mEh]     -26.75297067 [kcal/mol]    -111.93442930 [kJ/mol]
      Induction (B<-A)            -21.55516438 [mEh]     -13.52606986 [kcal/mol]     -56.59307627 [kJ/mol]

    Dispersion                    -18.65050124 [mEh]     -11.70336622 [kcal/mol]     -48.96688426 [kJ/mol]
      Disp20                      -28.82421863 [mEh]     -18.08747027 [kcal/mol]     -75.67797559 [kJ/mol]
      Exch-Disp20                  10.17371739 [mEh]       6.38410405 [kcal/mol]      26.71109133 [kJ/mol]

  Total HF                       -211.11279555 [mEh]    -132.47527924 [kcal/mol]    -554.27656835 [kJ/mol]
  Total SAPT0                    -229.76329679 [mEh]    -144.17864546 [kcal/mol]    -603.24345261 [kJ/mol]

  --------------------------------------------------------------------------------------------------------

*** Psi4 exiting successfully. Buy a developer a beer!
