                               Psi4 1.4rc1

  ==> Input File <==

--------------------------------------------------------------------------
memory 2GB

mol = psi4.core.Molecule.from_arrays(
    elez=[7,6,7,7,1,1,1,1,1,8,6,6,1,6,1,1,1,6,1,6,1,6,1,1,6,1,1,1,6,1,1,1,6,1,1,1,1],
    fragment_separators=[9, 10],
    fix_com=True,
    fix_orientation=True,
    fix_symmetry='c1',
    fragment_multiplicities=[2, 2, 1],
    fragment_charges=[+1,-1,0],
    molecular_charge=0,
    molecular_multiplicity=1,
    geom= [
   2.81028514736059,      0.42878298087647,     -1.01419619510837,
   3.29097813374940,     -0.41802103858738,     -0.12908318558707,
   2.51753633258463,     -1.43201659462402,      0.23936022575847,
   4.53548975214951,     -0.28440970193517,      0.39579982487644,
   5.04362738792097,      0.57188812032536,      0.22289857254611,
   4.72334622041074,     -0.73327339670415,      1.28180047585960,
   1.93478678891584,      0.10230474010053,     -1.40378774836582,
   1.67463770782421,     -1.50561583444179,     -0.31609541893984,
   2.92850347091033,     -2.21850207452721,      0.72549399180847,

   0.71050491187949,     -0.92750573236360,     -1.48176741842086,

   3.48827595203094,      1.60091944193897,     -1.52204031567916,
   4.34297034887687,      1.31341913698244,     -2.75682582189291,
   5.13203256109494,      0.60499430850126,     -2.48446622062316,
   3.53589632878187,      0.74925258438315,     -3.92460421118377,
   4.84124655087222,      2.24213620342373,     -3.05408283502099,
   2.99161707982544,     -0.13219929425932,     -3.57413653764224,
   4.22550529754590,      0.39278448471140,     -4.69596154231476,
   2.56477593643038,      1.75088977889338,     -4.54452314325412,
   1.91874883518315,      2.17167854528903,     -3.76941866731086,
   1.68623504634085,      1.16165709004220,     -5.65011072400229,
   3.13249358931268,      2.59477530213700,     -4.95160441831173,
   0.83961591381656,     -0.03758172786838,     -5.22047317517930,
   2.32388615782037,      0.86639496826280,     -6.49079608318213,
   1.02951790963791,      1.95185029028281,     -6.02932892016182,
  -0.15101905952961,      0.25495547654253,     -4.09425592632382,
   1.49944217750638,     -0.85714065740081,     -4.92295775652966,
   0.29009675681450,     -0.41014251998447,     -6.09113080662607,
   0.32826465863480,      0.83302161371035,     -3.29912531440539,
  -0.72184337845889,     -0.99951327877398,     -3.43930937497941,
  -0.95736714231647,      0.88495129431343,     -4.48545020682948,
  -1.08340277505051,     -1.69755481668259,     -4.20565620508721,
  -1.58105638918605,     -0.72384830714893,     -2.82049006541270,
   0.28724951751489,     -1.71177142890223,     -2.52740497303351,
   1.13178038638738,     -2.06737983138712,     -3.15939568095424,
  -0.20413657392574,     -2.63732558642471,     -2.17048006820694,
   2.71454803091035,      2.33145492346391,     -1.76030236958651,
   4.09099142942314,      2.06315053783514,     -0.73338176069288])
activate(mol)

set {
basis aug-cc-pvtz
scf_type df
guess sad
freeze_core true
fisapt_do_plot false  # For extra analysis
}

energy('fisapt0')
--------------------------------------------------------------------------

    Molecular point group: c1

    Geometry (in Angstrom), charge = 0, multiplicity = 1:

       Center              X                  Y                   Z               Mass
    ------------   -----------------  -----------------  -----------------  -----------------
         N            2.810285147361     0.428782980876    -1.014196195108    14.003074004430
         C            3.290978133749    -0.418021038587    -0.129083185587    12.000000000000
         N            2.517536332585    -1.432016594624     0.239360225758    14.003074004430
         N            4.535489752150    -0.284409701935     0.395799824876    14.003074004430
         H            5.043627387921     0.571888120325     0.222898572546     1.007825032230
         H            4.723346220411    -0.733273396704     1.281800475860     1.007825032230
         H            1.934786788916     0.102304740101    -1.403787748366     1.007825032230
         H            1.674637707824    -1.505615834442    -0.316095418940     1.007825032230
         H            2.928503470910    -2.218502074527     0.725493991808     1.007825032230
         O            0.710504911879    -0.927505732364    -1.481767418421    15.994914619570
         C            3.488275952031     1.600919441939    -1.522040315679    12.000000000000
         C            4.342970348877     1.313419136982    -2.756825821893    12.000000000000
         H            5.132032561095     0.604994308501    -2.484466220623     1.007825032230
         C            3.535896328782     0.749252584383    -3.924604211184    12.000000000000
         H            4.841246550872     2.242136203424    -3.054082835021     1.007825032230
         H            2.991617079825    -0.132199294259    -3.574136537642     1.007825032230
         H            4.225505297546     0.392784484711    -4.695961542315     1.007825032230
         C            2.564775936430     1.750889778893    -4.544523143254    12.000000000000
         H            1.918748835183     2.171678545289    -3.769418667311     1.007825032230
         C            1.686235046341     1.161657090042    -5.650110724002    12.000000000000
         H            3.132493589313     2.594775302137    -4.951604418312     1.007825032230
         C            0.839615913817    -0.037581727868    -5.220473175179    12.000000000000
         H            2.323886157820     0.866394968263    -6.490796083182     1.007825032230
         H            1.029517909638     1.951850290283    -6.029328920162     1.007825032230
         C           -0.151019059530     0.254955476543    -4.094255926324    12.000000000000
         H            1.499442177506    -0.857140657401    -4.922957756530     1.007825032230
         H            0.290096756814    -0.410142519984    -6.091130806626     1.007825032230
         H            0.328264658635     0.833021613710    -3.299125314405     1.007825032230
         C           -0.721843378459    -0.999513278774    -3.439309374979    12.000000000000
         H           -0.957367142316     0.884951294313    -4.485450206829     1.007825032230
         H           -1.083402775051    -1.697554816683    -4.205656205087     1.007825032230
         H           -1.581056389186    -0.723848307149    -2.820490065413     1.007825032230
         C            0.287249517515    -1.711771428902    -2.527404973034    12.000000000000
         H            1.131780386387    -2.067379831387    -3.159395680954     1.007825032230
         H           -0.204136573926    -2.637325586425    -2.170480068207     1.007825032230
         H            2.714548030910     2.331454923464    -1.760302369587     1.007825032230
         H            4.090991429423     2.063150537835    -0.733381760693     1.007825032230

  Charge       = 0
  Multiplicity = 1
  Basis Set: AUG-CC-PVTZ
    Blend: AUG-CC-PVTZ
  Basis Set: (AUG-CC-PVTZ AUX)
    Blend: AUG-CC-PVTZ-JKFIT

    Orbital Energies [Eh]
    ---------------------

    Doubly Occupied:

       1A    -20.404080     2A    -15.625271     3A    -15.580209
       4A    -15.575458     5A    -11.400608     6A    -11.280955
       7A    -11.232382     8A    -11.214327     9A    -11.208531
      10A    -11.201719    11A    -11.199526    12A    -11.188968
      13A    -11.177575    14A    -11.164739    15A     -1.360045
      16A     -1.232458    17A     -1.212111    18A     -1.196367
      19A     -1.090226    20A     -1.049076    21A     -1.002584
      22A     -0.951519    23A     -0.901017    24A     -0.870708
      25A     -0.831935    26A     -0.812659    27A     -0.790704
      28A     -0.761017    29A     -0.746139    30A     -0.717546
      31A     -0.689842    32A     -0.671609    33A     -0.654539
      34A     -0.636549    35A     -0.626972    36A     -0.619060
      37A     -0.596347    38A     -0.578976    39A     -0.570385
      40A     -0.549088    41A     -0.542091    42A     -0.529020
      43A     -0.507862    44A     -0.499961    45A     -0.492081
      46A     -0.477004    47A     -0.463074    48A     -0.454417
      49A     -0.448594    50A     -0.447180    51A     -0.426030
      52A     -0.419616    53A     -0.413368    54A     -0.396023
      55A     -0.319653    56A     -0.316316

  @DF-RHF Final Energy:  -630.47925669697452

   => Energetics <=

    Nuclear Repulsion Energy =           1010.1278109939509022
    One-Electron Energy =               -2864.5618818329985515
    Two-Electron Energy =                1223.9548141420732463
    Total Energy =                       -630.4792566969745167

  Dipole Moment: [D]
     X:     7.6811      Y:     1.5479      Z:     3.8343     Total:     8.7234

  Basis Set: (AUG-CC-PVTZ AUX)
    Blend: AUG-CC-PVTZ-JKFIT

    SAPT Results
  --------------------------------------------------------------------------------------------------------
    Electrostatics               -280.55577777 [mEh]    -176.05140847 [kcal/mol]    -736.59909305 [kJ/mol]
      Elst10,r                   -280.55577777 [mEh]    -176.05140847 [kcal/mol]    -736.59909305 [kJ/mol]

    Exchange                      133.08336319 [mEh]      83.51107121 [kcal/mol]     349.41032193 [kJ/mol]
      Exch10                      133.08336319 [mEh]      83.51107121 [kcal/mol]     349.41032193 [kJ/mol]
      Exch10(S^2)                 128.15881251 [mEh]      80.42086900 [kcal/mol]     336.48091588 [kJ/mol]

    Induction                     -63.82359821 [mEh]     -40.04991253 [kcal/mol]    -167.56883402 [kJ/mol]
      Ind20,r                    -160.76724633 [mEh]    -100.88297014 [kcal/mol]    -422.09434708 [kJ/mol]
      Exch-Ind20,r                110.63631057 [mEh]      69.42533302 [kcal/mol]     290.47559337 [kJ/mol]
      delta HF,r (2)              -13.69266245 [mEh]      -8.59227541 [kcal/mol]     -35.95008031 [kJ/mol]
      Induction (A<-B)            -42.06965519 [mEh]     -26.39910719 [kcal/mol]    -110.45386450 [kJ/mol]
      Induction (B<-A)            -21.75394302 [mEh]     -13.65080534 [kcal/mol]     -57.11496952 [kJ/mol]

    Dispersion                    -18.53340840 [mEh]     -11.62988935 [kcal/mol]     -48.65945705 [kJ/mol]
      Disp20                      -28.58628370 [mEh]     -17.93816384 [kcal/mol]     -75.05327751 [kJ/mol]
      Exch-Disp20                  10.05287530 [mEh]       6.30827449 [kcal/mol]      26.39382045 [kJ/mol]

  Total HF                       -211.29601279 [mEh]    -132.59024979 [kcal/mol]    -554.75760514 [kJ/mol]
  Total SAPT0                    -229.82942119 [mEh]    -144.22013915 [kcal/mol]    -603.41706219 [kJ/mol]

  --------------------------------------------------------------------------------------------------------

*** Psi4 exiting successfully. Buy a developer a beer!
