                               Psi4 1.4rc1

  ==> Input File <==

--------------------------------------------------------------------------
memory 2GB

mol = psi4.core.Molecule.from_arrays(
    elez=[7,6,7,7,1,1,1,1,1,6,8,8,6,6,6,1,1,6,1,1,6,6,1,1,1,1,6,1,1,6,1,1,6,1,1,1,1,1,1],
    fragment_separators=[9, 12],
    fix_com=True,
    fix_orientation=True,
    fix_symmetry='c1',
    fragment_multiplicities=[2, 2, 1],
    fragment_charges=[+1,-1,0],
    molecular_charge=0,
    molecular_multiplicity=1,
    geom= [
   5.03926572214575,     -0.90115425507729,      2.49282076560561,
   6.21038441598106,     -1.41726129528950,      2.17824405407479,
   6.53591317996752,     -2.67712156512816,      2.55607836284447,
   7.07675391053381,     -0.70081997908563,      1.47890578379924,
   7.95464328449979,     -1.12155357420488,      1.20755420676775,
   6.75616114233380,      0.10663745362057,      0.96027757226049,
   4.84216822529615,      0.01760923695873,      2.11519097545130,
   5.99387606545849,     -3.12691790121906,      3.28278356661725,
   7.49844069750494,     -2.97548249637451,      2.46877573953708,

   4.98224029568504,      1.65025660570416,      0.24742201372352,
   4.36806463507270,      1.38926960603825,      1.31370552767218,
   6.12891888768149,      1.23351205161461,     -0.04562025127454,

   3.91385314731321,     -1.65829054686942,      3.01513399144527,
   4.08421519720403,      1.74208116988936,     -2.11472437200523,
   4.26524488333685,      2.50051796894580,     -0.79588967260326,
   4.86853438077702,      3.39267418647808,     -0.98113363274644,
   3.30763953998509,      2.82457078666110,     -0.38780861458907,
   3.13915939092054,     -2.37657184147194,      1.91060909461344,
   3.26723483858359,     -0.93940124865792,      3.52069287338507,
   4.24719520258695,     -2.35509489145651,      3.79006472067167,
   1.99727420150534,      0.43091832550186,     -1.39921802696557,
   3.41274626943639,      0.37688642612419,     -1.96549728921441,
   4.04740706865891,     -0.24658969886091,     -1.32670613553989,
   3.39077381217935,     -0.11871867104452,     -2.94283939470893,
   5.06847495715273,      1.59850383631238,     -2.56572823592331,
   3.50335611651517,      2.36393851053799,     -2.80456526697761,
   2.39994577549464,     -1.38957857555319,      1.00948954889897,
   2.44074993178013,     -3.08711796957249,      2.36297592074973,
   3.84447515045738,     -2.97046199158360,      1.31867659777718,
   2.07017718157771,     -1.93670522350988,     -0.37240050628010,
   1.48161131680493,     -1.06154171361502,      1.50991174389862,
   3.00862786414751,     -0.49000095834389,      0.89745124451755,
   1.32223767986703,     -0.93577498827946,     -1.25641329317947,
   1.47274687285184,     -2.85090226916956,     -0.28399697371465,
   3.00353868915705,     -2.23404057129344,     -0.86253505291205,
   1.37644394055181,      1.05892021246432,     -2.04742047850170,
   2.01534120555064,      0.92977995469208,     -0.42653480214436,
   0.31664763368347,     -0.78721338745009,     -0.84827782783955,
   1.18561128975997,     -1.37925171843256,     -2.24861347719108])
activate(mol)

set {
basis aug-cc-pvtz
scf_type df
guess sad
freeze_core true
fisapt_do_plot false  # For extra analysis
}

energy('fisapt0')
--------------------------------------------------------------------------

    Molecular point group: c1

    Geometry (in Angstrom), charge = 0, multiplicity = 1:

       Center              X                  Y                   Z               Mass
    ------------   -----------------  -----------------  -----------------  -----------------
         N            5.039265722146    -0.901154255077     2.492820765606    14.003074004430
         C            6.210384415981    -1.417261295290     2.178244054075    12.000000000000
         N            6.535913179968    -2.677121565128     2.556078362844    14.003074004430
         N            7.076753910534    -0.700819979086     1.478905783799    14.003074004430
         H            7.954643284500    -1.121553574205     1.207554206768     1.007825032230
         H            6.756161142334     0.106637453621     0.960277572260     1.007825032230
         H            4.842168225296     0.017609236959     2.115190975451     1.007825032230
         H            5.993876065458    -3.126917901219     3.282783566617     1.007825032230
         H            7.498440697505    -2.975482496375     2.468775739537     1.007825032230
         C            4.982240295685     1.650256605704     0.247422013724    12.000000000000
         O            4.368064635073     1.389269606038     1.313705527672    15.994914619570
         O            6.128918887681     1.233512051615    -0.045620251275    15.994914619570
         C            3.913853147313    -1.658290546869     3.015133991445    12.000000000000
         C            4.084215197204     1.742081169889    -2.114724372005    12.000000000000
         C            4.265244883337     2.500517968946    -0.795889672603    12.000000000000
         H            4.868534380777     3.392674186478    -0.981133632746     1.007825032230
         H            3.307639539985     2.824570786661    -0.387808614589     1.007825032230
         C            3.139159390921    -2.376571841472     1.910609094613    12.000000000000
         H            3.267234838584    -0.939401248658     3.520692873385     1.007825032230
         H            4.247195202587    -2.355094891457     3.790064720672     1.007825032230
         C            1.997274201505     0.430918325502    -1.399218026966    12.000000000000
         C            3.412746269436     0.376886426124    -1.965497289214    12.000000000000
         H            4.047407068659    -0.246589698861    -1.326706135540     1.007825032230
         H            3.390773812179    -0.118718671045    -2.942839394709     1.007825032230
         H            5.068474957153     1.598503836312    -2.565728235923     1.007825032230
         H            3.503356116515     2.363938510538    -2.804565266978     1.007825032230
         C            2.399945775495    -1.389578575553     1.009489548899    12.000000000000
         H            2.440749931780    -3.087117969572     2.362975920750     1.007825032230
         H            3.844475150457    -2.970461991584     1.318676597777     1.007825032230
         C            2.070177181578    -1.936705223510    -0.372400506280    12.000000000000
         H            1.481611316805    -1.061541713615     1.509911743899     1.007825032230
         H            3.008627864148    -0.490000958344     0.897451244518     1.007825032230
         C            1.322237679867    -0.935774988279    -1.256413293179    12.000000000000
         H            1.472746872852    -2.850902269170    -0.283996973715     1.007825032230
         H            3.003538689157    -2.234040571293    -0.862535052912     1.007825032230
         H            1.376443940552     1.058920212464    -2.047420478502     1.007825032230
         H            2.015341205551     0.929779954692    -0.426534802144     1.007825032230
         H            0.316647633683    -0.787213387450    -0.848277827840     1.007825032230
         H            1.185611289760    -1.379251718433    -2.248613477191     1.007825032230

  Charge       = 0
  Multiplicity = 1
  Basis Set: AUG-CC-PVTZ
    Blend: AUG-CC-PVTZ
  Basis Set: (AUG-CC-PVTZ AUX)
    Blend: AUG-CC-PVTZ-JKFIT

    Orbital Energies [Eh]
    ---------------------

    Doubly Occupied:

       1A    -20.464636     2A    -20.463331     3A    -15.631518
       4A    -15.590573     5A    -15.587803     6A    -11.411558
       7A    -11.300366     8A    -11.284194     9A    -11.229947
      10A    -11.207805    11A    -11.206058    12A    -11.203784
      13A    -11.194637    14A    -11.193723    15A    -11.193126
      16A    -11.185240    17A     -1.369066    18A     -1.350978
      19A     -1.248717    20A     -1.232538    21A     -1.214368
      22A     -1.090507    23A     -1.061128    24A     -1.025101
      25A     -0.972976    26A     -0.924757    27A     -0.889913
      28A     -0.856424    29A     -0.824485    30A     -0.806361
      31A     -0.787489    32A     -0.758945    33A     -0.744761
      34A     -0.705006    35A     -0.699455    36A     -0.671163
      37A     -0.655338    38A     -0.635746    39A     -0.624914
      40A     -0.622701    41A     -0.605995    42A     -0.602086
      43A     -0.580997    44A     -0.576029    45A     -0.570289
      46A     -0.562132    47A     -0.546657    48A     -0.524060
      49A     -0.516004    50A     -0.501439    51A     -0.493820
      52A     -0.486884    53A     -0.468823    54A     -0.460694
      55A     -0.457015    56A     -0.448802    57A     -0.435508
      58A     -0.427917    59A     -0.422218    60A     -0.406834
      61A     -0.384523    62A     -0.372964    63A     -0.370043

  @DF-RHF Final Energy:  -743.32859891267708

   => Energetics <=

    Nuclear Repulsion Energy =           1239.7879313988776175
    One-Electron Energy =               -3477.5473359358156813
    Two-Electron Energy =                1494.4308056242607563
    Total Energy =                       -743.3285989126770801

  Dipole Moment: [D]
     X:     2.1142      Y:    -7.6288      Z:     3.8139     Total:     8.7872

  Basis Set: (AUG-CC-PVTZ AUX)
    Blend: AUG-CC-PVTZ-JKFIT

    SAPT Results
  --------------------------------------------------------------------------------------------------------
    Electrostatics               -229.36895518 [mEh]    -143.93119237 [kcal/mol]    -602.20810886 [kJ/mol]
      Elst10,r                   -229.36895518 [mEh]    -143.93119237 [kcal/mol]    -602.20810886 [kJ/mol]

    Exchange                       85.87967929 [mEh]      53.89031236 [kcal/mol]     225.47706692 [kJ/mol]
      Exch10                       85.87967929 [mEh]      53.89031236 [kcal/mol]     225.47706692 [kJ/mol]
      Exch10(S^2)                  83.73993641 [mEh]      52.54760343 [kcal/mol]     219.85917276 [kJ/mol]

    Induction                     -50.18032586 [mEh]     -31.48862988 [kcal/mol]    -131.74842740 [kJ/mol]
      Ind20,r                     -68.82675318 [mEh]     -43.18943967 [kcal/mol]    -180.70461558 [kJ/mol]
      Exch-Ind20,r                 37.49258437 [mEh]      23.52695189 [kcal/mol]      98.43676669 [kJ/mol]
      delta HF,r (2)              -18.84615705 [mEh]     -11.82614209 [kcal/mol]     -49.48057851 [kJ/mol]
      Induction (A<-B)            -27.39696355 [mEh]     -17.19185418 [kcal/mol]     -71.93071790 [kJ/mol]
      Induction (B<-A)            -22.78336231 [mEh]     -14.29677569 [kcal/mol]     -59.81770950 [kJ/mol]

    Dispersion                    -17.19972025 [mEh]     -10.79298740 [kcal/mol]     -45.15785928 [kJ/mol]
      Disp20                      -23.09303506 [mEh]     -14.49109828 [kcal/mol]     -60.63075519 [kJ/mol]
      Exch-Disp20                   5.89331481 [mEh]       3.69811088 [kcal/mol]      15.47289591 [kJ/mol]

  Total HF                       -193.66960175 [mEh]    -121.52950988 [kcal/mol]    -508.47946934 [kJ/mol]
  Total SAPT0                    -210.86932200 [mEh]    -132.32249728 [kcal/mol]    -553.63732862 [kJ/mol]

  --------------------------------------------------------------------------------------------------------

*** Psi4 exiting successfully. Buy a developer a beer!
