                         Program Version 5.0.0 -  RELEASE  -
|  1> !wB97X-D3 RIJCOSX def2-SVPD def2/J TightSCF
|  2> *xyz -1 1
|  3> C         -0.50835        1.72268       -4.12430
|  4> S         -1.32861        0.14674       -4.43578
|  5> O         -2.57135        0.47573       -5.06834
|  6> O         -1.51496       -0.40051       -3.06342
|  7> O         -0.37793       -0.62756       -5.20114
|  8> H         -0.31967        2.21655       -5.05456
|  9> H          0.41835        1.54859       -3.61852
| 10> H         -1.13714        2.33776       -3.51504
| 11> *
| 12> %MaxCore 64000
| 13>
| 14> %pal nprocs 18
| 15> end
| 16>
| 17> %scf
| 18>   MaxIter 150
| 19> end
| 20>
| 21>
| 22>                          ****END OF INPUT****

CARTESIAN COORDINATES (ANGSTROEM)
---------------------------------
  C     -0.508350    1.722680   -4.124300
  S     -1.328610    0.146740   -4.435780
  O     -2.571350    0.475730   -5.068340
  O     -1.514960   -0.400510   -3.063420
  O     -0.377930   -0.627560   -5.201140
  H     -0.319670    2.216550   -5.054560
  H      0.418350    1.548590   -3.618520
  H     -1.137140    2.337760   -3.515040

 Total Charge           Charge          ....   -1
 Multiplicity           Mult            ....    1
 Number of Electrons    NEL             ....   50
 Basis Dimension        Dim             ....  140

ORBITAL ENERGIES
----------------

  NO   OCC          E(Eh)            E(eV)
   0   2.0000     -88.977504     -2421.2010
   1   2.0000     -19.029006      -517.8056
   2   2.0000     -19.026039      -517.7248
   3   2.0000     -19.010478      -517.3014
   4   2.0000     -10.139422      -275.9077
   5   2.0000      -8.050952      -219.0776
   6   2.0000      -6.010443      -163.5525
   7   2.0000      -6.010313      -163.5489
   8   2.0000      -6.010216      -163.5463
   9   2.0000      -1.049694       -28.5636
  10   2.0000      -0.911078       -24.7917
  11   2.0000      -0.879909       -23.9435
  12   2.0000      -0.690813       -18.7980
  13   2.0000      -0.492487       -13.4013
  14   2.0000      -0.409095       -11.1320
  15   2.0000      -0.390895       -10.6368
  16   2.0000      -0.390324       -10.6213
  17   2.0000      -0.349524        -9.5110
  18   2.0000      -0.347421        -9.4538
  19   2.0000      -0.252423        -6.8688
  20   2.0000      -0.251085        -6.8324
  21   2.0000      -0.215278        -5.8580
  22   2.0000      -0.205074        -5.5803
  23   2.0000      -0.193015        -5.2522
  24   2.0000      -0.159963        -4.3528
  25   0.0000       0.215072         5.8524
  26   0.0000       0.237070         6.4510
  27   0.0000       0.237797         6.4708
  28   0.0000       0.240816         6.5529
  29   0.0000       0.275949         7.5089

MULLIKEN ATOMIC CHARGES
-----------------------
   0 C :    0.407912
   1 S :    1.118501
   2 O :   -0.755650
   3 O :   -0.819970
   4 O :   -0.771713
   5 H :   -0.066545
   6 H :   -0.055232
   7 H :   -0.057303
Sum of atomic charges:   -1.0000000

LOEWDIN ATOMIC CHARGES
----------------------
   0 C :    0.050113
   1 S :    0.840667
   2 O :   -0.579941
   3 O :   -0.612317
   4 O :   -0.586412
   5 H :   -0.039419
   6 H :   -0.036117
   7 H :   -0.036574

  Mayer bond orders larger than 0.100000
B(  0-C ,  1-S ) :   0.9431 B(  0-C ,  5-H ) :   0.9298 B(  0-C ,  6-H ) :   0.9313
B(  0-C ,  7-H ) :   0.9307 B(  1-S ,  2-O ) :   1.3640 B(  1-S ,  3-O ) :   1.3150
B(  1-S ,  4-O ) :   1.3514 B(  1-S ,  5-H ) :   0.1041 B(  1-S ,  6-H ) :   0.1144
B(  1-S ,  7-H ) :   0.1129

Dispersion correction           -0.001526736
FINAL SINGLE POINT ENERGY      -663.413077686168

DIPOLE MOMENT
-------------
                                X             Y             Z
Electronic contribution:     -1.97733      -3.71478      -0.90390
Nuclear contribution   :      2.60425       5.03732       0.91691
                        -----------------------------------------
Total Dipole Moment    :      0.62692       1.32253       0.01301
                        -----------------------------------------
Magnitude (a.u.)       :      1.46366
Magnitude (Debye)      :      3.72033

Rotational constants in cm-1:     0.171343     0.157827     0.155747
Rotational constants in MHz :  5136.740483  4731.521814  4669.189064

                             ****ORCA TERMINATED NORMALLY****
TOTAL RUN TIME: 0 days 0 hours 0 minutes 6 seconds 430 msec
