                         Program Version 5.0.0 -  RELEASE  -
|  1> !wB97X-D3 RIJCOSX def2-SVPD def2/J TightSCF
|  2> *xyz 1 1
|  3> C          1.36401        0.46874       -2.81376
|  4> N          0.42884        0.32140       -1.65531
|  5> H          0.74858       -0.40054       -1.00134
|  6> H         -0.46105        0.02333       -2.07773
|  7> H          0.31026        1.20137       -1.13495
|  8> H          0.99872        1.22859       -3.47261
|  9> H          1.42772       -0.46011       -3.34109
| 10> H          2.33442        0.74312       -2.45611
| 11> *
| 12> %MaxCore 64000
| 13>
| 14> %pal nprocs 18
| 15> end
| 16>
| 17> %scf
| 18>   MaxIter 150
| 19> end
| 20>
| 21>
| 22>                          ****END OF INPUT****

CARTESIAN COORDINATES (ANGSTROEM)
---------------------------------
  C      1.364010    0.468740   -2.813760
  N      0.428840    0.321400   -1.655310
  H      0.748580   -0.400540   -1.001340
  H     -0.461050    0.023330   -2.077730
  H      0.310260    1.201370   -1.134950
  H      0.998720    1.228590   -3.472610
  H      1.427720   -0.460110   -3.341090
  H      2.334420    0.743120   -2.456110

 Total Charge           Charge          ....    1
 Multiplicity           Mult            ....    1
 Number of Electrons    NEL             ....   18
 Basis Dimension        Dim             ....   88

ORBITAL ENERGIES
----------------

  NO   OCC          E(Eh)            E(eV)
   0   2.0000     -14.788373      -402.4121
   1   2.0000     -10.548736      -287.0457
   2   2.0000      -1.334353       -36.3096
   3   2.0000      -1.045506       -28.4497
   4   2.0000      -0.917389       -24.9634
   5   2.0000      -0.912688       -24.8355
   6   2.0000      -0.811306       -22.0768
   7   2.0000      -0.726309       -19.7639
   8   2.0000      -0.724390       -19.7117
   9   0.0000      -0.122041        -3.3209
  10   0.0000      -0.056111        -1.5268
  11   0.0000      -0.048876        -1.3300
  12   0.0000      -0.047716        -1.2984
  13   0.0000      -0.003531        -0.0961

MULLIKEN ATOMIC CHARGES
-----------------------
   0 C :    0.732560
   1 N :   -0.856139
   2 H :    0.379520
   3 H :    0.415605
   4 H :    0.384384
   5 H :   -0.013637
   6 H :   -0.009921
   7 H :   -0.032372
Sum of atomic charges:    1.0000000

LOEWDIN ATOMIC CHARGES
----------------------
   0 C :    0.280789
   1 N :    0.311185
   2 H :    0.108814
   3 H :    0.108846
   4 H :    0.113672
   5 H :    0.026285
   6 H :    0.026480
   7 H :    0.023930

  Mayer bond orders larger than 0.100000
B(  0-C ,  1-N ) :   0.8036 B(  0-C ,  5-H ) :   0.9203 B(  0-C ,  6-H ) :   0.9170
B(  0-C ,  7-H ) :   0.9454 B(  1-N ,  2-H ) :   0.7797 B(  1-N ,  3-H ) :   0.7323
B(  1-N ,  4-H ) :   0.7721

Dispersion correction           -0.000499591
FINAL SINGLE POINT ENERGY       -96.123591793382

DIPOLE MOMENT
-------------
                                X             Y             Z
Electronic contribution:     -0.68348      -0.09513       0.88644
Nuclear contribution   :      0.14628      -0.00095      -0.25828
                        -----------------------------------------
Total Dipole Moment    :     -0.53720      -0.09608       0.62817
                        -----------------------------------------
Magnitude (a.u.)       :      0.83211
Magnitude (Debye)      :      2.11506

Rotational constants in cm-1:     2.853706     0.682028     0.680630
Rotational constants in MHz : 85551.942317 20446.672693 20404.761959

                             ****ORCA TERMINATED NORMALLY****
TOTAL RUN TIME: 0 days 0 hours 0 minutes 3 seconds 465 msec
