                         Program Version 5.0.0 -  RELEASE  -
|  1> !wB97X-D3 RIJCOSX def2-SVPD def2/J TightSCF
|  2> *xyz 0 1
|  3> C         -0.50835        1.72268       -4.12430
|  4> S         -1.32861        0.14674       -4.43578
|  5> F         -2.57135        0.47573       -5.06834
|  6> O         -1.51496       -0.40051       -3.06342
|  7> O         -0.37793       -0.62756       -5.20114
|  8> H         -0.31967        2.21655       -5.05456
|  9> H          0.41835        1.54859       -3.61852
| 10> H         -1.13714        2.33776       -3.51504
| 11> *
| 12> %MaxCore 64000
| 13>
| 14> %pal nprocs 18
| 15> end
| 16>
| 17> %scf
| 18>   MaxIter 150
| 19> end
| 20>
| 21>
| 22>                          ****END OF INPUT****

CARTESIAN COORDINATES (ANGSTROEM)
---------------------------------
  C     -0.508350    1.722680   -4.124300
  S     -1.328610    0.146740   -4.435780
  F     -2.571350    0.475730   -5.068340
  O     -1.514960   -0.400510   -3.063420
  O     -0.377930   -0.627560   -5.201140
  H     -0.319670    2.216550   -5.054560
  H      0.418350    1.548590   -3.618520
  H     -1.137140    2.337760   -3.515040

 Total Charge           Charge          ....    0
 Multiplicity           Mult            ....    1
 Number of Electrons    NEL             ....   50
 Basis Dimension        Dim             ....  140

ORBITAL ENERGIES
----------------

  NO   OCC          E(Eh)            E(eV)
   0   2.0000     -89.245023     -2428.4805
   1   2.0000     -24.933254      -678.4683
   2   2.0000     -19.266138      -524.2583
   3   2.0000     -19.250071      -523.8211
   4   2.0000     -10.350034      -281.6387
   5   2.0000      -8.319090      -226.3740
   6   2.0000      -6.282910      -170.9667
   7   2.0000      -6.276117      -170.7818
   8   2.0000      -6.275219      -170.7574
   9   2.0000      -1.510049       -41.0905
  10   2.0000      -1.228752       -33.4360
  11   2.0000      -1.120633       -30.4940
  12   2.0000      -0.915621       -24.9153
  13   2.0000      -0.838328       -22.8121
  14   2.0000      -0.722367       -19.6566
  15   2.0000      -0.708890       -19.2899
  16   2.0000      -0.666746       -18.1431
  17   2.0000      -0.583249       -15.8710
  18   2.0000      -0.581561       -15.8251
  19   2.0000      -0.568760       -15.4768
  20   2.0000      -0.541127       -14.7248
  21   2.0000      -0.491198       -13.3662
  22   2.0000      -0.438800       -11.9403
  23   2.0000      -0.423302       -11.5186
  24   2.0000      -0.407109       -11.0780
  25   0.0000       0.058937         1.6038
  26   0.0000       0.092095         2.5060
  27   0.0000       0.099528         2.7083
  28   0.0000       0.100680         2.7396
  29   0.0000       0.115280         3.1369

MULLIKEN ATOMIC CHARGES
-----------------------
   0 C :    0.326418
   1 S :    1.291045
   2 F :   -0.367282
   3 O :   -0.677307
   4 O :   -0.632390
   5 H :    0.016728
   6 H :    0.019465
   7 H :    0.023323
Sum of atomic charges:   -0.0000000

LOEWDIN ATOMIC CHARGES
----------------------
   0 C :    0.118941
   1 S :    1.116122
   2 F :   -0.252008
   3 O :   -0.492985
   4 O :   -0.468543
   5 H :   -0.013305
   6 H :    0.002691
   7 H :   -0.010913

  Mayer bond orders larger than 0.100000
B(  0-C ,  1-S ) :   1.0010 B(  0-C ,  5-H ) :   0.9298 B(  0-C ,  6-H ) :   0.9335
B(  0-C ,  7-H ) :   0.9304 B(  1-S ,  2-F ) :   0.7164 B(  1-S ,  3-O ) :   1.5198
B(  1-S ,  4-O ) :   1.5546 B(  1-S ,  6-H ) :   0.1096

Dispersion correction           -0.001536738
FINAL SINGLE POINT ENERGY      -687.890065360406

DIPOLE MOMENT
-------------
                                X             Y             Z
Electronic contribution:     -4.05242      -3.14966      -1.99900
Nuclear contribution   :      3.90013       4.80063       1.59574
                        -----------------------------------------
Total Dipole Moment    :     -0.15229       1.65097      -0.40326
                        -----------------------------------------
Magnitude (a.u.)       :      1.70632
Magnitude (Debye)      :      4.33712

Rotational constants in cm-1:     0.163395     0.155047     0.147447
Rotational constants in MHz :  4898.460101  4648.206837  4420.340547

                             ****ORCA TERMINATED NORMALLY****
TOTAL RUN TIME: 0 days 0 hours 0 minutes 6 seconds 393 msec
