                         Program Version 5.0.0 -  RELEASE  -
|  1> !wB97X-D3 RIJCOSX def2-SVPD def2/J TightSCF
|  2> *xyz 0 1
|  3> C          1.36401        0.46874       -2.81376
|  4> C          0.42884        0.32140       -1.65531
|  5> H          0.74858       -0.40054       -1.00134
|  6> H         -0.46105        0.02333       -2.07773
|  7> H          0.31026        1.20137       -1.13495
|  8> H          0.99872        1.22859       -3.47261
|  9> H          1.42772       -0.46011       -3.34109
| 10> H          2.33442        0.74312       -2.45611
| 11> *
| 12> %MaxCore 64000
| 13>
| 14> %pal nprocs 18
| 15> end
| 16>
| 17> %scf
| 18>   MaxIter 150
| 19> end
| 20>
| 21>
| 22>                          ****END OF INPUT****

CARTESIAN COORDINATES (ANGSTROEM)
---------------------------------
  C      1.364010    0.468740   -2.813760
  C      0.428840    0.321400   -1.655310
  H      0.748580   -0.400540   -1.001340
  H     -0.461050    0.023330   -2.077730
  H      0.310260    1.201370   -1.134950
  H      0.998720    1.228590   -3.472610
  H      1.427720   -0.460110   -3.341090
  H      2.334420    0.743120   -2.456110

 Total Charge           Charge          ....    0
 Multiplicity           Mult            ....    1
 Number of Electrons    NEL             ....   18
 Basis Dimension        Dim             ....   88

ORBITAL ENERGIES
----------------

  NO   OCC          E(Eh)            E(eV)
   0   2.0000     -10.266149      -279.3561
   1   2.0000     -10.252856      -278.9944
   2   2.0000      -0.878365       -23.9015
   3   2.0000      -0.725535       -19.7428
   4   2.0000      -0.552104       -15.0235
   5   2.0000      -0.548266       -14.9191
   6   2.0000      -0.462376       -12.5819
   7   2.0000      -0.442310       -12.0359
   8   2.0000      -0.438199       -11.9240
   9   0.0000       0.098944         2.6924
  10   0.0000       0.129046         3.5115
  11   0.0000       0.181608         4.9418
  12   0.0000       0.182314         4.9610
  13   0.0000       0.201323         5.4783

MULLIKEN ATOMIC CHARGES
-----------------------
   0 C :    0.129195
   1 C :    0.462386
   2 H :   -0.163027
   3 H :   -0.118242
   4 H :   -0.154389
   5 H :   -0.048896
   6 H :   -0.045465
   7 H :   -0.061561
Sum of atomic charges:    0.0000000

LOEWDIN ATOMIC CHARGES
----------------------
   0 C :    0.070435
   1 C :    0.079284
   2 H :   -0.034944
   3 H :   -0.033385
   4 H :   -0.031044
   5 H :   -0.015812
   6 H :   -0.015422
   7 H :   -0.019112

  Mayer bond orders larger than 0.100000
B(  0-C ,  1-C ) :   1.4213 B(  0-C ,  2-H ) :   0.1438 B(  0-C ,  3-H ) :   0.1743
B(  0-C ,  4-H ) :   0.1395 B(  0-C ,  5-H ) :   0.8840 B(  0-C ,  6-H ) :   0.8810
B(  0-C ,  7-H ) :   0.9136 B(  1-C ,  2-H ) :   0.8261 B(  1-C ,  3-H ) :   0.8159
B(  1-C ,  4-H ) :   0.8370 B(  1-C ,  5-H ) :   0.1318 B(  1-C ,  6-H ) :   0.1342
B(  1-C ,  7-H ) :   0.1186

Dispersion correction           -0.000488400
FINAL SINGLE POINT ENERGY       -79.736270739586

DIPOLE MOMENT
-------------
                                X             Y             Z
Electronic contribution:     -0.00163       0.01877       0.07059
Nuclear contribution   :     -0.01491      -0.02598      -0.05743
                        -----------------------------------------
Total Dipole Moment    :     -0.01655      -0.00721       0.01316
                        -----------------------------------------
Magnitude (a.u.)       :      0.02234
Magnitude (Debye)      :      0.05678

Rotational constants in cm-1:     2.853707     0.712330     0.710805
Rotational constants in MHz : 85551.986377 21355.123158 21309.410122

                             ****ORCA TERMINATED NORMALLY****
TOTAL RUN TIME: 0 days 0 hours 0 minutes 3 seconds 312 msec
