                         Program Version 5.0.0 -  RELEASE  -
|  1> !wB97X-D3 RIJCOSX def2-SVPD def2/J TightSCF
|  2> *xyz 0 1
|  3> C         -0.50835        1.72268       -4.12430
|  4> S         -1.32861        0.14674       -4.43578
|  5> O         -2.57135        0.47573       -5.06834
|  6> F         -1.51496       -0.40051       -3.06342
|  7> O         -0.37793       -0.62756       -5.20114
|  8> H         -0.31967        2.21655       -5.05456
|  9> H          0.41835        1.54859       -3.61852
| 10> H         -1.13714        2.33776       -3.51504
| 11> *
| 12> %MaxCore 64000
| 13>
| 14> %pal nprocs 18
| 15> end
| 16>
| 17> %scf
| 18>   MaxIter 150
| 19> end
| 20>
| 21>
| 22>                          ****END OF INPUT****

CARTESIAN COORDINATES (ANGSTROEM)
---------------------------------
  C     -0.508350    1.722680   -4.124300
  S     -1.328610    0.146740   -4.435780
  O     -2.571350    0.475730   -5.068340
  F     -1.514960   -0.400510   -3.063420
  O     -0.377930   -0.627560   -5.201140
  H     -0.319670    2.216550   -5.054560
  H      0.418350    1.548590   -3.618520
  H     -1.137140    2.337760   -3.515040

 Total Charge           Charge          ....    0
 Multiplicity           Mult            ....    1
 Number of Electrons    NEL             ....   50
 Basis Dimension        Dim             ....  140

ORBITAL ENERGIES
----------------

  NO   OCC          E(Eh)            E(eV)
   0   2.0000     -89.242060     -2428.3999
   1   2.0000     -24.905197      -677.7049
   2   2.0000     -19.268448      -524.3211
   3   2.0000     -19.265290      -524.2352
   4   2.0000     -10.348859      -281.6068
   5   2.0000      -8.316021      -226.2904
   6   2.0000      -6.279530      -170.8747
   7   2.0000      -6.273368      -170.7070
   8   2.0000      -6.272427      -170.6814
   9   2.0000      -1.462318       -39.7917
  10   2.0000      -1.243490       -33.8371
  11   2.0000      -1.147035       -31.2124
  12   2.0000      -0.913214       -24.8498
  13   2.0000      -0.814538       -22.1647
  14   2.0000      -0.699276       -19.0283
  15   2.0000      -0.676142       -18.3988
  16   2.0000      -0.662576       -18.0296
  17   2.0000      -0.587631       -15.9902
  18   2.0000      -0.581969       -15.8362
  19   2.0000      -0.565395       -15.3852
  20   2.0000      -0.549496       -14.9525
  21   2.0000      -0.500284       -13.6134
  22   2.0000      -0.448030       -12.1915
  23   2.0000      -0.438554       -11.9337
  24   2.0000      -0.425720       -11.5844
  25   0.0000       0.062427         1.6987
  26   0.0000       0.093982         2.5574
  27   0.0000       0.100834         2.7438
  28   0.0000       0.101115         2.7515
  29   0.0000       0.116122         3.1599

MULLIKEN ATOMIC CHARGES
-----------------------
   0 C :    0.322428
   1 S :    1.299349
   2 O :   -0.633093
   3 F :   -0.398948
   4 O :   -0.646828
   5 H :    0.011264
   6 H :    0.023773
   7 H :    0.022055
Sum of atomic charges:   -0.0000000

LOEWDIN ATOMIC CHARGES
----------------------
   0 C :    0.119486
   1 S :    1.112260
   2 O :   -0.463359
   3 F :   -0.277737
   4 O :   -0.469187
   5 H :    0.000329
   6 H :   -0.010674
   7 H :   -0.011119

  Mayer bond orders larger than 0.100000
B(  0-C ,  1-S ) :   0.9996 B(  0-C ,  5-H ) :   0.9317 B(  0-C ,  6-H ) :   0.9325
B(  0-C ,  7-H ) :   0.9319 B(  1-S ,  2-O ) :   1.5628 B(  1-S ,  3-F ) :   0.6593
B(  1-S ,  4-O ) :   1.5512 B(  1-S ,  5-H ) :   0.1032

Dispersion correction           -0.001538143
FINAL SINGLE POINT ENERGY      -687.914464161539

DIPOLE MOMENT
-------------
                                X             Y             Z
Electronic contribution:     -2.29186      -4.62511       1.38119
Nuclear contribution   :      2.84473       5.67605      -0.40731
                        -----------------------------------------
Total Dipole Moment    :      0.55287       1.05094       0.97388
                        -----------------------------------------
Magnitude (a.u.)       :      1.53577
Magnitude (Debye)      :      3.90361

Rotational constants in cm-1:     0.162669     0.154016     0.148818
Rotational constants in MHz :  4876.699308  4617.284822  4461.441982

                             ****ORCA TERMINATED NORMALLY****
TOTAL RUN TIME: 0 days 0 hours 0 minutes 6 seconds 480 msec
