                         Program Version 5.0.0 -  RELEASE  -
|  1> !wB97X-D3 RIJCOSX def2-SVPD def2/J TightSCF
|  2> *xyz 0 1
|  3> C         -0.50835        1.72268       -4.12430
|  4> S         -1.32861        0.14674       -4.43578
|  5> O         -2.57135        0.47573       -5.06834
|  6> O         -1.51496       -0.40051       -3.06342
|  7> F         -0.37793       -0.62756       -5.20114
|  8> H         -0.31967        2.21655       -5.05456
|  9> H          0.41835        1.54859       -3.61852
| 10> H         -1.13714        2.33776       -3.51504
| 11> *
| 12> %MaxCore 64000
| 13>
| 14> %pal nprocs 18
| 15> end
| 16>
| 17> %scf
| 18>   MaxIter 150
| 19> end
| 20>
| 21>
| 22>                          ****END OF INPUT****

CARTESIAN COORDINATES (ANGSTROEM)
---------------------------------
  C     -0.508350    1.722680   -4.124300
  S     -1.328610    0.146740   -4.435780
  O     -2.571350    0.475730   -5.068340
  O     -1.514960   -0.400510   -3.063420
  F     -0.377930   -0.627560   -5.201140
  H     -0.319670    2.216550   -5.054560
  H      0.418350    1.548590   -3.618520
  H     -1.137140    2.337760   -3.515040

 Total Charge           Charge          ....    0
 Multiplicity           Mult            ....    1
 Number of Electrons    NEL             ....   50
 Basis Dimension        Dim             ....  140

ORBITAL ENERGIES
----------------

  NO   OCC          E(Eh)            E(eV)
   0   2.0000     -89.244206     -2428.4583
   1   2.0000     -24.927963      -678.3244
   2   2.0000     -19.269077      -524.3382
   3   2.0000     -19.249863      -523.8154
   4   2.0000     -10.349911      -281.6354
   5   2.0000      -8.318301      -226.3525
   6   2.0000      -6.282028      -170.9427
   7   2.0000      -6.275413      -170.7627
   8   2.0000      -6.274480      -170.7373
   9   2.0000      -1.499608       -40.8064
  10   2.0000      -1.234601       -33.5952
  11   2.0000      -1.123400       -30.5693
  12   2.0000      -0.915072       -24.9004
  13   2.0000      -0.833611       -22.6837
  14   2.0000      -0.716894       -19.5077
  15   2.0000      -0.701886       -19.0993
  16   2.0000      -0.666024       -18.1234
  17   2.0000      -0.585163       -15.9231
  18   2.0000      -0.581768       -15.8307
  19   2.0000      -0.568357       -15.4658
  20   2.0000      -0.542974       -14.7751
  21   2.0000      -0.494290       -13.4503
  22   2.0000      -0.442495       -12.0409
  23   2.0000      -0.423571       -11.5259
  24   2.0000      -0.409065       -11.1312
  25   0.0000       0.059254         1.6124
  26   0.0000       0.092376         2.5137
  27   0.0000       0.099773         2.7150
  28   0.0000       0.100674         2.7395
  29   0.0000       0.114911         3.1269

MULLIKEN ATOMIC CHARGES
-----------------------
   0 C :    0.326011
   1 S :    1.290742
   2 O :   -0.620192
   3 O :   -0.678931
   4 F :   -0.376644
   5 H :    0.016594
   6 H :    0.024519
   7 H :    0.017901
Sum of atomic charges:   -0.0000000

LOEWDIN ATOMIC CHARGES
----------------------
   0 C :    0.119201
   1 S :    1.115449
   2 O :   -0.462743
   3 O :   -0.492943
   4 F :   -0.257485
   5 H :   -0.013259
   6 H :   -0.010579
   7 H :    0.002358

  Mayer bond orders larger than 0.100000
B(  0-C ,  1-S ) :   1.0007 B(  0-C ,  5-H ) :   0.9301 B(  0-C ,  6-H ) :   0.9310
B(  0-C ,  7-H ) :   0.9330 B(  1-S ,  2-O ) :   1.5658 B(  1-S ,  3-O ) :   1.5194
B(  1-S ,  4-F ) :   0.7028 B(  1-S ,  7-H ) :   0.1086

Dispersion correction           -0.001537386
FINAL SINGLE POINT ENERGY      -687.894479747300

DIPOLE MOMENT
-------------
                                X             Y             Z
Electronic contribution:     -0.38673      -4.99372      -2.22231
Nuclear contribution   :      1.70876       5.90289       1.72841
                        -----------------------------------------
Total Dipole Moment    :      1.32203       0.90917      -0.49390
                        -----------------------------------------
Magnitude (a.u.)       :      1.67878
Magnitude (Debye)      :      4.26711

Rotational constants in cm-1:     0.163253     0.155214     0.147311
Rotational constants in MHz :  4894.200006  4653.189727  4416.272537

                             ****ORCA TERMINATED NORMALLY****
TOTAL RUN TIME: 0 days 0 hours 0 minutes 6 seconds 907 msec
