                         Program Version 5.0.0 -  RELEASE  -
|  1> !wB97X-D3 RIJCOSX def2-SVPD def2/J TightSCF xyzfile
|  2>
|  3> *xyzfile 0 1 D2.xyz
|  4>
|  5> %MaxCore 64000
|  6>
|  7> %pal nprocs 18
|  8> end
|  9>
| 10> %scf
| 11>   MaxIter 150
| 12> end
| 13>
| 14>
| 15>                          ****END OF INPUT****

CARTESIAN COORDINATES (ANGSTROEM)
---------------------------------
  C      1.364014    0.468742   -2.813764
  C      0.428844    0.321402   -1.655312
  C      0.968045    1.630639   -3.715749
  C     -0.508347    1.722679   -4.124300
  S     -1.328608    0.146737   -4.435781
  H     -0.591511    2.294958   -5.047219
  H     -1.114114    2.235610   -3.374362
  H      0.748578   -0.400542   -1.001345
  H     -0.461053    0.023332   -2.077731
  H      0.310258    1.201375   -1.134948
  O     -2.571347    0.475733   -5.068341
  F     -1.514963   -0.400512   -3.063420
  H      1.294847   -0.468742   -3.364684
  H      2.376216    0.597400   -2.431495
  H      1.578688    1.520652   -4.612733
  H      1.266653    2.575988   -3.250448
  O     -0.377928   -0.627558   -5.201141

 Total Charge           Charge          ....    0
 Multiplicity           Mult            ....    1
 Number of Electrons    NEL             ....   74
 Basis Dimension        Dim             ....  248

ORBITAL ENERGIES
----------------

  NO   OCC          E(Eh)            E(eV)
   0   2.0000     -89.239528     -2428.3310
   1   2.0000     -24.907770      -677.7749
   2   2.0000     -19.268670      -524.3272
   3   2.0000     -19.264957      -524.2261
   4   2.0000     -10.352316      -281.7008
   5   2.0000     -10.315017      -280.6859
   6   2.0000     -10.290932      -280.0305
   7   2.0000     -10.249046      -278.8907
   8   2.0000      -8.313513      -226.2222
   9   2.0000      -6.277264      -170.8130
  10   2.0000      -6.270855      -170.6386
  11   2.0000      -6.269529      -170.6026
  12   2.0000      -1.471835       -40.0507
  13   2.0000      -1.244429       -33.8626
  14   2.0000      -1.147032       -31.2123
  15   2.0000      -0.953542       -25.9472
  16   2.0000      -0.893209       -24.3055
  17   2.0000      -0.827761       -22.5245
  18   2.0000      -0.807020       -21.9601
  19   2.0000      -0.711137       -19.3510
  20   2.0000      -0.697372       -18.9765
  21   2.0000      -0.680631       -18.5209
  22   2.0000      -0.657396       -17.8886
  23   2.0000      -0.605794       -16.4845
  24   2.0000      -0.587412       -15.9843
  25   2.0000      -0.582171       -15.8417
  26   2.0000      -0.566132       -15.4052
  27   2.0000      -0.532566       -14.4918
  28   2.0000      -0.514556       -14.0018
  29   2.0000      -0.503813       -13.7094
  30   2.0000      -0.497076       -13.5261
  31   2.0000      -0.454278       -12.3615
  32   2.0000      -0.450404       -12.2561
  33   2.0000      -0.437025       -11.8921
  34   2.0000      -0.430237       -11.7073
  35   2.0000      -0.424582       -11.5535
  36   2.0000      -0.413446       -11.2504
  37   0.0000       0.069440         1.8895
  38   0.0000       0.086965         2.3665
  39   0.0000       0.093200         2.5361
  40   0.0000       0.099495         2.7074
  41   0.0000       0.113853         3.0981

MULLIKEN ATOMIC CHARGES
-----------------------
   0 C :   -0.405957
   1 C :    2.028347
   2 C :    0.250144
   3 C :    0.033663
   4 S :    1.524715
   5 H :   -0.159763
   6 H :    0.238100
   7 H :   -0.066649
   8 H :   -1.203611
   9 H :   -0.103790
  10 O :   -0.711243
  11 F :   -0.605215
  12 H :    0.084229
  13 H :   -0.273031
  14 H :    0.051762
  15 H :    0.013392
  16 O :   -0.695092
Sum of atomic charges:    0.0000000

LOEWDIN ATOMIC CHARGES
----------------------
   0 C :   -0.051474
   1 C :    0.146666
   2 C :   -0.028424
   3 C :   -0.028936
   4 S :    1.145259
   5 H :    0.030295
   6 H :    0.028460
   7 H :   -0.018112
   8 H :   -0.132393
   9 H :   -0.015108
  10 O :   -0.451478
  11 F :   -0.279198
  12 H :    0.015023
  13 H :    0.027295
  14 H :    0.029237
  15 H :    0.034836
  16 O :   -0.451949

  Mayer bond orders larger than 0.100000
B(  0-C ,  1-C ) :   0.9714 B(  0-C ,  2-C ) :   1.1940 B(  0-C ,  7-H ) :   0.2260
B(  0-C ,  8-H ) :   0.5055 B(  0-C ,  9-H ) :   0.2680 B(  0-C , 12-H ) :   0.8513
B(  0-C , 13-H ) :   1.0063 B(  0-C , 14-H ) :   0.1371 B(  0-C , 15-H ) :   0.1575
B(  1-C ,  7-H ) :   0.5209 B(  1-C ,  8-H ) :  -0.7452 B(  1-C ,  9-H ) :   0.2349
B(  1-C , 11-F ) :  -0.2012 B(  1-C , 12-H ) :   0.1197 B(  2-C ,  3-C ) :   1.2531
B(  2-C ,  5-H ) :   0.1716 B(  2-C , 12-H ) :   0.1273 B(  2-C , 14-H ) :   0.8453
B(  2-C , 15-H ) :   0.7965 B(  3-C ,  4-S ) :   0.9952 B(  3-C ,  5-H ) :   0.9275
B(  3-C ,  6-H ) :   0.8581 B(  3-C , 11-F ) :   0.1222 B(  3-C , 14-H ) :   0.1319
B(  4-S ,  8-H ) :  -0.1238 B(  4-S , 10-O ) :   1.5729 B(  4-S , 11-F ) :   0.6287
B(  4-S , 16-O ) :   1.5313 B(  7-H ,  8-H ) :   0.2353 B(  7-H ,  9-H ) :  -0.1909
B(  8-H ,  9-H ) :   0.5630 B(  8-H , 11-F ) :   0.3511

Dispersion correction           -0.006502806
FINAL SINGLE POINT ENERGY      -805.704873731265

DIPOLE MOMENT
-------------
                                X             Y             Z
Electronic contribution:    -10.47483      -5.52310      -6.13340
Nuclear contribution   :     11.08796       6.45140       7.05645
                        -----------------------------------------
Total Dipole Moment    :      0.61313       0.92830       0.92305
                        -----------------------------------------
Magnitude (a.u.)       :      1.44558
Magnitude (Debye)      :      3.67436

Rotational constants in cm-1:     0.100113     0.046890     0.041843
Rotational constants in MHz :  3001.313402  1405.711946  1254.411771

                             ****ORCA TERMINATED NORMALLY****
TOTAL RUN TIME: 0 days 0 hours 0 minutes 28 seconds 230 msec
