                         Program Version 5.0.0 -  RELEASE  -
|  1> !DLPNO-CCSD(T) aug-cc-pVTZ aug-cc-pVTZ/C TightSCF TightPNO RIJCOSX def2/J
|  2> *xyz -1 1
|  3> C         -0.72184       -0.99951       -3.43931
|  4> C          0.28725       -1.71177       -2.52740
|  5> H          1.13178       -2.06738       -3.15940
|  6> H         -0.20414       -2.63733       -2.17048
|  7> O          0.71050       -0.92751       -1.48177
|  8> H         -1.01315       -1.65739       -4.23129
|  9> H         -0.27123       -0.12142       -3.85259
| 10> H         -1.58442       -0.72333       -2.86958
| 11> *
| 12> %MaxCore 64000
| 13>
| 14> %pal nprocs 18
| 15> end
| 16>
| 17> %scf
| 18>   MaxIter 150
| 19> end
| 20>
| 21>
| 22>                          ****END OF INPUT****

CARTESIAN COORDINATES (ANGSTROEM)
---------------------------------
  C     -0.721840   -0.999510   -3.439310
  C      0.287250   -1.711770   -2.527400
  H      1.131780   -2.067380   -3.159400
  H     -0.204140   -2.637330   -2.170480
  O      0.710500   -0.927510   -1.481770
  H     -1.013150   -1.657390   -4.231290
  H     -0.271230   -0.121420   -3.852590
  H     -1.584420   -0.723330   -2.869580

 Total Charge           Charge          ....   -1
 Multiplicity           Mult            ....    1
 Number of Electrons    NEL             ....   26
 Basis Dimension        Dim             ....  253

ORBITAL ENERGIES
----------------

  NO   OCC          E(Eh)            E(eV)
   0   2.0000     -20.203633      -549.7688
   1   2.0000     -11.036457      -300.3172
   2   2.0000     -11.012476      -299.6647
   3   2.0000      -0.990895       -26.9636
   4   2.0000      -0.784831       -21.3563
   5   2.0000      -0.588151       -16.0044
   6   2.0000      -0.413430       -11.2500
   7   2.0000      -0.387385       -10.5413
   8   2.0000      -0.320480        -8.7207
   9   2.0000      -0.304754        -8.2928
  10   2.0000      -0.256944        -6.9918
  11   2.0000      -0.111173        -3.0252
  12   2.0000      -0.109501        -2.9797
  13   0.0000       0.132972         3.6183
  14   0.0000       0.141886         3.8609
  15   0.0000       0.143402         3.9022
  16   0.0000       0.154404         4.2016
  17   0.0000       0.167196         4.5496

MULLIKEN ATOMIC CHARGES
-----------------------
   0 C :   -0.917107
   1 C :   -0.144317
   2 H :    0.174392
   3 H :    0.200117
   4 O :   -1.117086
   5 H :    0.282616
   6 H :    0.262773
   7 H :    0.258612
Sum of atomic charges:   -1.0000000

LOEWDIN ATOMIC CHARGES
----------------------
   0 C :    0.491122
   1 C :   -0.418147
   2 H :   -0.232960
   3 H :   -0.242042
   4 O :    0.088867
   5 H :   -0.238245
   6 H :   -0.224692
   7 H :   -0.223905

  Mayer bond orders larger than 0.100000
B(  0-C ,  1-C ) :   0.8483 B(  0-C ,  5-H ) :   0.9103 B(  0-C ,  6-H ) :   0.9318
B(  0-C ,  7-H ) :   0.9366 B(  1-C ,  2-H ) :   0.9997 B(  1-C ,  3-H ) :   0.9805
B(  1-C ,  4-O ) :   1.1207

E(0)                                       ...   -153.509518807
E(0)                                       ...   -153.509518807
E(CORR)(strong-pairs)                      ...     -0.651469130
E(CORR)(weak-pairs)                        ...     -0.000424050
E(CORR)(corrected)                         ...     -0.651893180
E(TOT)                                     ...   -154.161411987
E(CCSD(T))                                 ...   -154.187821501
FINAL SINGLE POINT ENERGY      -154.187821501109

DIPOLE MOMENT
-------------
                                X             Y             Z
Electronic contribution:      1.36887       0.64846       2.20350
Nuclear contribution   :     -2.24828      -1.06600      -3.62481
                        -----------------------------------------
Total Dipole Moment    :     -0.87941      -0.41754      -1.42131
                        -----------------------------------------
Magnitude (a.u.)       :      1.72273
Magnitude (Debye)      :      4.37884

Rotational constants in cm-1:     1.278116     0.325414     0.286672
Rotational constants in MHz : 38316.964654  9755.653004  8594.216906

                             ****ORCA TERMINATED NORMALLY****
TOTAL RUN TIME: 0 days 0 hours 2 minutes 17 seconds 944 msec
