                         Program Version 5.0.0 -  RELEASE  -
|  1> !DLPNO-CCSD(T) aug-cc-pVTZ aug-cc-pVTZ/C TightSCF TightPNO RIJCOSX def2/J
|  2> *xyz 1 1
|  3> C          3.48828        1.60092       -1.52204
|  4> C          4.34297        1.31342       -2.75683
|  5> N          2.81029        0.42878       -1.01420
|  6> H          2.71455        2.33145       -1.76030
|  7> H          4.09099        2.06315       -0.73338
|  8> C          3.29098       -0.41802       -0.12908
|  9> N          2.51754       -1.43202        0.23936
| 10> N          4.53549       -0.28441        0.39580
| 11> H          5.04363        0.57189        0.22290
| 12> H          4.72335       -0.73327        1.28180
| 13> H          1.93479        0.10230       -1.40379
| 14> H          1.67464       -1.50562       -0.31610
| 15> H          2.92850       -2.21850        0.72549
| 16> H          3.73575        0.86277       -3.51385
| 17> H          5.13754        0.64699       -2.49333
| 18> H          4.75374        2.22930       -3.12740
| 19> *
| 20> %MaxCore 64000
| 21>
| 22> %pal nprocs 18
| 23> end
| 24>
| 25> %scf
| 26>   MaxIter 150
| 27> end
| 28>
| 29>
| 30>                          ****END OF INPUT****

CARTESIAN COORDINATES (ANGSTROEM)
---------------------------------
  C      3.488280    1.600920   -1.522040
  C      4.342970    1.313420   -2.756830
  N      2.810290    0.428780   -1.014200
  H      2.714550    2.331450   -1.760300
  H      4.090990    2.063150   -0.733380
  C      3.290980   -0.418020   -0.129080
  N      2.517540   -1.432020    0.239360
  N      4.535490   -0.284410    0.395800
  H      5.043630    0.571890    0.222900
  H      4.723350   -0.733270    1.281800
  H      1.934790    0.102300   -1.403790
  H      1.674640   -1.505620   -0.316100
  H      2.928500   -2.218500    0.725490
  H      3.735750    0.862770   -3.513850
  H      5.137540    0.646990   -2.493330
  H      4.753740    2.229300   -3.127400

 Total Charge           Charge          ....    1
 Multiplicity           Mult            ....    1
 Number of Electrons    NEL             ....   48
 Basis Dimension        Dim             ....  506

ORBITAL ENERGIES
----------------

  NO   OCC          E(Eh)            E(eV)
   0   2.0000     -15.789086      -429.6429
   1   2.0000     -15.787128      -429.5896
   2   2.0000     -15.784781      -429.5257
   3   2.0000     -11.587057      -315.2999
   4   2.0000     -11.436429      -311.2011
   5   2.0000     -11.357571      -309.0552
   6   2.0000      -1.546268       -42.0761
   7   2.0000      -1.408508       -38.3275
   8   2.0000      -1.390834       -37.8465
   9   2.0000      -1.194096       -32.4930
  10   2.0000      -1.063813       -28.9478
  11   2.0000      -1.019611       -27.7450
  12   2.0000      -0.969187       -26.3729
  13   2.0000      -0.937566       -25.5125
  14   2.0000      -0.862928       -23.4815
  15   2.0000      -0.853025       -23.2120
  16   2.0000      -0.819731       -22.3060
  17   2.0000      -0.807512       -21.9735
  18   2.0000      -0.765308       -20.8251
  19   2.0000      -0.713635       -19.4190
  20   2.0000      -0.684526       -18.6269
  21   2.0000      -0.661139       -17.9905
  22   2.0000      -0.626184       -17.0393
  23   2.0000      -0.586273       -15.9533
  24   0.0000      -0.093691        -2.5495
  25   0.0000      -0.076343        -2.0774
  26   0.0000      -0.068177        -1.8552
  27   0.0000      -0.059981        -1.6322
  28   0.0000      -0.047729        -1.2988

MULLIKEN ATOMIC CHARGES
-----------------------
   0 C :   -0.442554
   1 C :   -0.873735
   2 N :   -0.032816
   3 H :    0.424896
   4 H :    0.256907
   5 C :    0.543632
   6 N :   -0.391318
   7 N :   -0.255697
   8 H :    0.218137
   9 H :    0.133144
  10 H :    0.153963
  11 H :    0.143305
  12 H :    0.171423
  13 H :    0.290650
  14 H :    0.320087
  15 H :    0.339976
Sum of atomic charges:    1.0000000

LOEWDIN ATOMIC CHARGES
----------------------
   0 C :    0.235936
   1 C :    0.646202
   2 N :    0.624261
   3 H :   -0.123728
   4 H :   -0.142101
   5 C :   -0.359600
   6 N :    0.942006
   7 N :    0.951618
   8 H :   -0.284397
   9 H :   -0.245182
  10 H :   -0.241055
  11 H :   -0.258000
  12 H :   -0.232485
  13 H :   -0.170685
  14 H :   -0.177857
  15 H :   -0.164932

  Mayer bond orders larger than 0.100000
B(  0-C ,  1-C ) :   0.8892 B(  0-C ,  2-N ) :   0.8976 B(  0-C ,  3-H ) :   0.8301
B(  0-C ,  4-H ) :   0.9562 B(  0-C ,  5-C ) :  -0.1188 B(  1-C , 13-H ) :   0.9474
B(  1-C , 14-H ) :   0.9140 B(  1-C , 15-H ) :   0.9095 B(  2-N ,  5-C ) :   1.0117
B(  2-N ,  6-N ) :  -0.1379 B(  2-N , 10-H ) :   1.0329 B(  5-C ,  6-N ) :   1.0190
B(  5-C ,  7-N ) :   0.9481 B(  6-N ,  7-N ) :  -0.1182 B(  6-N , 11-H ) :   1.0751
B(  6-N , 12-H ) :   1.0626 B(  7-N ,  8-H ) :   0.9800 B(  7-N ,  9-H ) :   1.0585

E(0)                                       ...   -282.704130575
E(0)                                       ...   -282.704130575
E(CORR)(strong-pairs)                      ...     -1.182818793
E(CORR)(weak-pairs)                        ...     -0.001256586
E(CORR)(corrected)                         ...     -1.184075379
E(TOT)                                     ...   -283.888205954
E(CCSD(T))                                 ...   -283.935594449
FINAL SINGLE POINT ENERGY      -283.935594449305

DIPOLE MOMENT
-------------
                                X             Y             Z
Electronic contribution:     -1.93195      -3.02190       3.76155
Nuclear contribution   :      1.59382       2.33278      -3.02574
                        -----------------------------------------
Total Dipole Moment    :     -0.33813      -0.68912       0.73581
                        -----------------------------------------
Magnitude (a.u.)       :      1.06331
Magnitude (Debye)      :      2.70273

Rotational constants in cm-1:     0.232230     0.073139     0.063030
Rotational constants in MHz :  6962.079716  2192.649203  1889.578947

                             ****ORCA TERMINATED NORMALLY****
TOTAL RUN TIME: 0 days 0 hours 11 minutes 47 seconds 970 msec
