                         Program Version 5.0.0 -  RELEASE  -
|  1> !DLPNO-CCSD(T) aug-cc-pVTZ aug-cc-pVTZ/C TightSCF TightPNO RIJCOSX def2/J
|  2> *xyz 0 1
|  3> C         -0.72184       -0.99951       -3.43931
|  4> C          0.28725       -1.71177       -2.52740
|  5> H          1.13178       -2.06738       -3.15940
|  6> H         -0.20414       -2.63733       -2.17048
|  7> F          0.71050       -0.92751       -1.48177
|  8> H         -1.01315       -1.65739       -4.23129
|  9> H         -0.27123       -0.12142       -3.85259
| 10> H         -1.58442       -0.72333       -2.86958
| 11> *
| 12> %MaxCore 64000
| 13>
| 14> %pal nprocs 18
| 15> end
| 16>
| 17> %scf
| 18>   MaxIter 150
| 19> end
| 20>
| 21>
| 22>                          ****END OF INPUT****

CARTESIAN COORDINATES (ANGSTROEM)
---------------------------------
  C     -0.721840   -0.999510   -3.439310
  C      0.287250   -1.711770   -2.527400
  H      1.131780   -2.067380   -3.159400
  H     -0.204140   -2.637330   -2.170480
  F      0.710500   -0.927510   -1.481770
  H     -1.013150   -1.657390   -4.231290
  H     -0.271230   -0.121420   -3.852590
  H     -1.584420   -0.723330   -2.869580

 Total Charge           Charge          ....    0
 Multiplicity           Mult            ....    1
 Number of Electrons    NEL             ....   26
 Basis Dimension        Dim             ....  253

ORBITAL ENERGIES
----------------

  NO   OCC          E(Eh)            E(eV)
   0   2.0000     -26.282979      -715.1962
   1   2.0000     -11.311553      -307.8030
   2   2.0000     -11.219964      -305.3107
   3   2.0000      -1.593446       -43.3599
   4   2.0000      -1.033236       -28.1158
   5   2.0000      -0.863690       -23.5022
   6   2.0000      -0.701597       -19.0914
   7   2.0000      -0.701285       -19.0829
   8   2.0000      -0.661997       -18.0138
   9   2.0000      -0.585639       -15.9361
  10   2.0000      -0.560783       -15.2597
  11   2.0000      -0.496792       -13.5184
  12   2.0000      -0.490374       -13.3438
  13   0.0000       0.030173         0.8210
  14   0.0000       0.041312         1.1241
  15   0.0000       0.041893         1.1400
  16   0.0000       0.049156         1.3376
  17   0.0000       0.067030         1.8240

MULLIKEN ATOMIC CHARGES
-----------------------
   0 C :   -0.963094
   1 C :   -0.048522
   2 H :    0.270721
   3 H :    0.286482
   4 F :   -0.483207
   5 H :    0.342811
   6 H :    0.300263
   7 H :    0.294547
Sum of atomic charges:    0.0000000

LOEWDIN ATOMIC CHARGES
----------------------
   0 C :    0.586776
   1 C :   -0.113185
   2 H :   -0.164666
   3 H :   -0.173900
   4 F :    0.448186
   5 H :   -0.192351
   6 H :   -0.195735
   7 H :   -0.195125

  Mayer bond orders larger than 0.100000
B(  0-C ,  1-C ) :   0.9001 B(  0-C ,  5-H ) :   0.8856 B(  0-C ,  6-H ) :   0.9120
B(  0-C ,  7-H ) :   0.9192 B(  1-C ,  2-H ) :   0.9421 B(  1-C ,  3-H ) :   0.9296
B(  1-C ,  4-F ) :   0.6139

E(0)                                       ...   -178.148071937
E(0)                                       ...   -178.148071937
E(CORR)(strong-pairs)                      ...     -0.645167594
E(CORR)(weak-pairs)                        ...     -0.000406314
E(CORR)(corrected)                         ...     -0.645573908
E(TOT)                                     ...   -178.793645845
E(CCSD(T))                                 ...   -178.814881581
FINAL SINGLE POINT ENERGY      -178.814881581158

DIPOLE MOMENT
-------------
                                X             Y             Z
Electronic contribution:      2.67670       1.00438       4.16350
Nuclear contribution   :     -2.97459      -1.40206      -4.79987
                        -----------------------------------------
Total Dipole Moment    :     -0.29789      -0.39768      -0.63637
                        -----------------------------------------
Magnitude (a.u.)       :      0.80737
Magnitude (Debye)      :      2.05218

Rotational constants in cm-1:     1.257024     0.302702     0.267953
Rotational constants in MHz : 37684.643733  9074.792567  8033.038070

                             ****ORCA TERMINATED NORMALLY****
TOTAL RUN TIME: 0 days 0 hours 1 minutes 12 seconds 164 msec
