                         Program Version 5.0.0 -  RELEASE  -
|  1> !DLPNO-CCSD(T) aug-cc-pVTZ aug-cc-pVTZ/C TightSCF TightPNO RIJCOSX def2/J
|  2> *xyz 0 1
|  3> C          3.48828        1.60092       -1.52204
|  4> C          4.34297        1.31342       -2.75683
|  5> C          2.81029        0.42878       -1.01420
|  6> H          2.71455        2.33145       -1.76030
|  7> H          4.09099        2.06315       -0.73338
|  8> C          3.29098       -0.41802       -0.12908
|  9> N          2.51754       -1.43202        0.23936
| 10> N          4.53549       -0.28441        0.39580
| 11> H          5.04363        0.57189        0.22290
| 12> H          4.72335       -0.73327        1.28180
| 13> H          1.93479        0.10230       -1.40379
| 14> H          1.67464       -1.50562       -0.31610
| 15> H          2.92850       -2.21850        0.72549
| 16> H          3.73575        0.86277       -3.51385
| 17> H          5.13754        0.64699       -2.49333
| 18> H          4.75374        2.22930       -3.12740
| 19> *
| 20> %MaxCore 64000
| 21>
| 22> %pal nprocs 18
| 23> end
| 24>
| 25> %scf
| 26>   MaxIter 150
| 27> end
| 28>
| 29>
| 30>                          ****END OF INPUT****

CARTESIAN COORDINATES (ANGSTROEM)
---------------------------------
  C      3.488280    1.600920   -1.522040
  C      4.342970    1.313420   -2.756830
  C      2.810290    0.428780   -1.014200
  H      2.714550    2.331450   -1.760300
  H      4.090990    2.063150   -0.733380
  C      3.290980   -0.418020   -0.129080
  N      2.517540   -1.432020    0.239360
  N      4.535490   -0.284410    0.395800
  H      5.043630    0.571890    0.222900
  H      4.723350   -0.733270    1.281800
  H      1.934790    0.102300   -1.403790
  H      1.674640   -1.505620   -0.316100
  H      2.928500   -2.218500    0.725490
  H      3.735750    0.862770   -3.513850
  H      5.137540    0.646990   -2.493330
  H      4.753740    2.229300   -3.127400

 Total Charge           Charge          ....    0
 Multiplicity           Mult            ....    1
 Number of Electrons    NEL             ....   48
 Basis Dimension        Dim             ....  506

ORBITAL ENERGIES
----------------

  NO   OCC          E(Eh)            E(eV)
   0   2.0000     -15.561985      -423.4632
   1   2.0000     -15.557044      -423.3287
   2   2.0000     -11.278073      -306.8920
   3   2.0000     -11.199052      -304.7417
   4   2.0000     -11.186953      -304.4125
   5   2.0000     -11.140561      -303.1501
   6   2.0000      -1.275396       -34.7053
   7   2.0000      -1.164249       -31.6808
   8   2.0000      -1.051574       -28.6148
   9   2.0000      -0.950617       -25.8676
  10   2.0000      -0.839596       -22.8466
  11   2.0000      -0.777439       -21.1552
  12   2.0000      -0.717415       -19.5219
  13   2.0000      -0.694042       -18.8858
  14   2.0000      -0.631612       -17.1870
  15   2.0000      -0.604790       -16.4572
  16   2.0000      -0.580658       -15.8005
  17   2.0000      -0.559529       -15.2255
  18   2.0000      -0.540304       -14.7024
  19   2.0000      -0.497232       -13.5304
  20   2.0000      -0.478781       -13.0283
  21   2.0000      -0.464906       -12.6507
  22   2.0000      -0.415944       -11.3184
  23   2.0000      -0.262928        -7.1546
  24   0.0000       0.025246         0.6870
  25   0.0000       0.035557         0.9676
  26   0.0000       0.039013         1.0616
  27   0.0000       0.046003         1.2518
  28   0.0000       0.051763         1.4086

MULLIKEN ATOMIC CHARGES
-----------------------
   0 C :   -0.297840
   1 C :   -0.941440
   2 C :   -0.304731
   3 H :    0.289172
   4 H :    0.149436
   5 C :    0.643486
   6 N :   -0.547494
   7 N :   -0.450114
   8 H :    0.119127
   9 H :    0.111370
  10 H :    0.186071
  11 H :    0.054616
  12 H :    0.112472
  13 H :    0.276198
  14 H :    0.328928
  15 H :    0.270742
Sum of atomic charges:    0.0000000

LOEWDIN ATOMIC CHARGES
----------------------
   0 C :    0.211732
   1 C :    0.601753
   2 C :    0.195395
   3 H :   -0.152446
   4 H :   -0.164491
   5 C :   -0.423356
   6 N :    0.852320
   7 N :    0.875913
   8 H :   -0.308811
   9 H :   -0.285164
  10 H :   -0.275338
  11 H :   -0.293218
  12 H :   -0.276805
  13 H :   -0.181705
  14 H :   -0.185608
  15 H :   -0.190171

  Mayer bond orders larger than 0.100000
B(  0-C ,  1-C ) :   0.8337 B(  0-C ,  2-C ) :   0.7941 B(  0-C ,  3-H ) :   1.0048
B(  0-C ,  4-H ) :   0.9710 B(  1-C , 13-H ) :   0.9708 B(  1-C , 14-H ) :   0.9087
B(  1-C , 15-H ) :   0.9840 B(  2-C ,  5-C ) :   1.3032 B(  2-C ,  6-N ) :  -0.1920
B(  2-C ,  7-N ) :  -0.1489 B(  2-C , 10-H ) :   1.0409 B(  4-H ,  5-C ) :   0.1129
B(  5-C ,  6-N ) :   0.7108 B(  5-C ,  7-N ) :   0.7797 B(  5-C , 10-H ) :   0.1119
B(  6-N ,  7-N ) :  -0.1524 B(  6-N , 11-H ) :   1.1498 B(  6-N , 12-H ) :   1.1100
B(  7-N ,  8-H ) :   1.0692 B(  7-N ,  9-H ) :   1.0615

E(0)                                       ...   -266.254373195
E(0)                                       ...   -266.254373195
E(CORR)(strong-pairs)                      ...     -1.166000913
E(CORR)(weak-pairs)                        ...     -0.001253958
E(CORR)(corrected)                         ...     -1.167254871
E(TOT)                                     ...   -267.421628066
E(CCSD(T))                                 ...   -267.469261714
FINAL SINGLE POINT ENERGY      -267.469261713904

DIPOLE MOMENT
-------------
                                X             Y             Z
Electronic contribution:     -1.25363      -2.92956       3.65177
Nuclear contribution   :      1.44676       2.38443      -3.07370
                        -----------------------------------------
Total Dipole Moment    :      0.19313      -0.54513       0.57807
                        -----------------------------------------
Magnitude (a.u.)       :      0.81770
Magnitude (Debye)      :      2.07843

Rotational constants in cm-1:     0.235977     0.073199     0.063283
Rotational constants in MHz :  7074.404583  2194.453291  1897.179599

                             ****ORCA TERMINATED NORMALLY****
TOTAL RUN TIME: 0 days 0 hours 13 minutes 49 seconds 193 msec
