                         Program Version 5.0.0 -  RELEASE  -
|  1> !DLPNO-CCSD(T) aug-cc-pVTZ aug-cc-pVTZ/C TightSCF TightPNO RIJCOSX def2/J
|  2> *xyz 0 1
|  3> C          3.48828        1.60092       -1.52204
|  4> C          4.34297        1.31342       -2.75683
|  5> N          2.81029        0.42878       -1.01420
|  6> H          2.71455        2.33145       -1.76030
|  7> H          4.09099        2.06315       -0.73338
|  8> C          3.29098       -0.41802       -0.12908
|  9> C          2.51754       -1.43202        0.23936
| 10> N          4.53549       -0.28441        0.39580
| 11> H          5.04363        0.57189        0.22290
| 12> H          4.72335       -0.73327        1.28180
| 13> H          1.93479        0.10230       -1.40379
| 14> H          1.67464       -1.50562       -0.31610
| 15> H          2.92850       -2.21850        0.72549
| 16> H          3.73575        0.86277       -3.51385
| 17> H          5.13754        0.64699       -2.49333
| 18> H          4.75374        2.22930       -3.12740
| 19> *
| 20> %MaxCore 64000
| 21>
| 22> %pal nprocs 18
| 23> end
| 24>
| 25> %scf
| 26>   MaxIter 150
| 27> end
| 28>
| 29>
| 30>                          ****END OF INPUT****

CARTESIAN COORDINATES (ANGSTROEM)
---------------------------------
  C      3.488280    1.600920   -1.522040
  C      4.342970    1.313420   -2.756830
  N      2.810290    0.428780   -1.014200
  H      2.714550    2.331450   -1.760300
  H      4.090990    2.063150   -0.733380
  C      3.290980   -0.418020   -0.129080
  C      2.517540   -1.432020    0.239360
  N      4.535490   -0.284410    0.395800
  H      5.043630    0.571890    0.222900
  H      4.723350   -0.733270    1.281800
  H      1.934790    0.102300   -1.403790
  H      1.674640   -1.505620   -0.316100
  H      2.928500   -2.218500    0.725490
  H      3.735750    0.862770   -3.513850
  H      5.137540    0.646990   -2.493330
  H      4.753740    2.229300   -3.127400

 Total Charge           Charge          ....    0
 Multiplicity           Mult            ....    1
 Number of Electrons    NEL             ....   48
 Basis Dimension        Dim             ....  506

ORBITAL ENERGIES
----------------

  NO   OCC          E(Eh)            E(eV)
   0   2.0000     -15.562764      -423.4843
   1   2.0000     -15.559742      -423.4021
   2   2.0000     -11.285833      -307.1031
   3   2.0000     -11.271186      -306.7046
   4   2.0000     -11.214509      -305.1623
   5   2.0000     -11.125361      -302.7365
   6   2.0000      -1.289289       -35.0833
   7   2.0000      -1.181527       -32.1510
   8   2.0000      -1.043781       -28.4027
   9   2.0000      -0.960300       -26.1311
  10   2.0000      -0.858017       -23.3478
  11   2.0000      -0.799295       -21.7499
  12   2.0000      -0.718911       -19.5626
  13   2.0000      -0.676754       -18.4154
  14   2.0000      -0.647040       -17.6069
  15   2.0000      -0.603183       -16.4134
  16   2.0000      -0.596848       -16.2411
  17   2.0000      -0.566798       -15.4234
  18   2.0000      -0.537846       -14.6355
  19   2.0000      -0.524168       -14.2633
  20   2.0000      -0.513079       -13.9616
  21   2.0000      -0.505346       -13.7512
  22   2.0000      -0.403214       -10.9720
  23   2.0000      -0.263354        -7.1662
  24   0.0000       0.025995         0.7074
  25   0.0000       0.033851         0.9211
  26   0.0000       0.038510         1.0479
  27   0.0000       0.039947         1.0870
  28   0.0000       0.054113         1.4725

MULLIKEN ATOMIC CHARGES
-----------------------
   0 C :   -0.497538
   1 C :   -0.902999
   2 N :   -0.077642
   3 H :    0.410108
   4 H :    0.264453
   5 C :    0.438438
   6 C :   -1.213005
   7 N :   -0.420909
   8 H :    0.172326
   9 H :    0.060926
  10 H :    0.059873
  11 H :    0.354575
  12 H :    0.443802
  13 H :    0.271454
  14 H :    0.324670
  15 H :    0.311468
Sum of atomic charges:    0.0000000

LOEWDIN ATOMIC CHARGES
----------------------
   0 C :    0.199884
   1 C :    0.619255
   2 N :    0.567612
   3 H :   -0.143970
   4 H :   -0.155893
   5 C :   -0.453826
   6 C :    0.541128
   7 N :    0.873572
   8 H :   -0.321786
   9 H :   -0.273287
  10 H :   -0.268959
  11 H :   -0.325543
  12 H :   -0.306741
  13 H :   -0.181070
  14 H :   -0.183997
  15 H :   -0.186379

  Mayer bond orders larger than 0.100000
B(  0-C ,  1-C ) :   0.8851 B(  0-C ,  2-N ) :   0.9741 B(  0-C ,  3-H ) :   0.8525
B(  0-C ,  4-H ) :   0.9543 B(  0-C ,  5-C ) :  -0.1530 B(  1-C , 13-H ) :   0.9603
B(  1-C , 14-H ) :   0.9188 B(  1-C , 15-H ) :   0.9285 B(  2-N ,  5-C ) :   0.6468
B(  2-N ,  6-C ) :  -0.2250 B(  2-N ,  7-N ) :  -0.1133 B(  2-N , 10-H ) :   1.1310
B(  5-C ,  6-C ) :   1.1301 B(  5-C ,  7-N ) :   0.7567 B(  6-C ,  7-N ) :  -0.1797
B(  6-C , 11-H ) :   0.9896 B(  6-C , 12-H ) :   0.8476 B(  7-N ,  8-H ) :   1.0155
B(  7-N ,  9-H ) :   1.1462

E(0)                                       ...   -266.243768501
E(0)                                       ...   -266.243768501
E(CORR)(strong-pairs)                      ...     -1.162904239
E(CORR)(weak-pairs)                        ...     -0.001254084
E(CORR)(corrected)                         ...     -1.164158323
E(TOT)                                     ...   -267.407926824
E(CCSD(T))                                 ...   -267.455496822
FINAL SINGLE POINT ENERGY      -267.455496822014

DIPOLE MOMENT
-------------
                                X             Y             Z
Electronic contribution:     -0.81606      -0.98460       2.37295
Nuclear contribution   :      1.38466       1.98967      -2.80776
                        -----------------------------------------
Total Dipole Moment    :      0.56860       1.00507      -0.43481
                        -----------------------------------------
Magnitude (a.u.)       :      1.23391
Magnitude (Debye)      :      3.13634

Rotational constants in cm-1:     0.235618     0.075969     0.065309
Rotational constants in MHz :  7063.646698  2277.495424  1957.925383

                             ****ORCA TERMINATED NORMALLY****
TOTAL RUN TIME: 0 days 0 hours 13 minutes 36 seconds 434 msec
