                         Program Version 5.0.0 -  RELEASE  -
|  1> !DLPNO-CCSD(T) aug-cc-pVTZ aug-cc-pVTZ/C TightSCF TightPNO RIJCOSX def2/J
|  2> *xyz 0 1
|  3> C          3.48828        1.60092       -1.52204
|  4> C          4.34297        1.31342       -2.75683
|  5> N          2.81029        0.42878       -1.01420
|  6> H          2.71455        2.33145       -1.76030
|  7> H          4.09099        2.06315       -0.73338
|  8> C          3.29098       -0.41802       -0.12908
|  9> N          2.51754       -1.43202        0.23936
| 10> C          4.53549       -0.28441        0.39580
| 11> H          5.04363        0.57189        0.22290
| 12> H          4.72335       -0.73327        1.28180
| 13> H          1.93479        0.10230       -1.40379
| 14> H          1.67464       -1.50562       -0.31610
| 15> H          2.92850       -2.21850        0.72549
| 16> H          3.73575        0.86277       -3.51385
| 17> H          5.13754        0.64699       -2.49333
| 18> H          4.75374        2.22930       -3.12740
| 19> *
| 20> %MaxCore 64000
| 21>
| 22> %pal nprocs 18
| 23> end
| 24>
| 25> %scf
| 26>   MaxIter 150
| 27> end
| 28>
| 29>
| 30>                          ****END OF INPUT****

CARTESIAN COORDINATES (ANGSTROEM)
---------------------------------
  C      3.488280    1.600920   -1.522040
  C      4.342970    1.313420   -2.756830
  N      2.810290    0.428780   -1.014200
  H      2.714550    2.331450   -1.760300
  H      4.090990    2.063150   -0.733380
  C      3.290980   -0.418020   -0.129080
  N      2.517540   -1.432020    0.239360
  C      4.535490   -0.284410    0.395800
  H      5.043630    0.571890    0.222900
  H      4.723350   -0.733270    1.281800
  H      1.934790    0.102300   -1.403790
  H      1.674640   -1.505620   -0.316100
  H      2.928500   -2.218500    0.725490
  H      3.735750    0.862770   -3.513850
  H      5.137540    0.646990   -2.493330
  H      4.753740    2.229300   -3.127400

 Total Charge           Charge          ....    0
 Multiplicity           Mult            ....    1
 Number of Electrons    NEL             ....   48
 Basis Dimension        Dim             ....  506

ORBITAL ENERGIES
----------------

  NO   OCC          E(Eh)            E(eV)
   0   2.0000     -15.567032      -423.6005
   1   2.0000     -15.565486      -423.5584
   2   2.0000     -11.289722      -307.2090
   3   2.0000     -11.263046      -306.4831
   4   2.0000     -11.205718      -304.9231
   5   2.0000     -11.126872      -302.7776
   6   2.0000      -1.300047       -35.3761
   7   2.0000      -1.188118       -32.3303
   8   2.0000      -1.020292       -27.7636
   9   2.0000      -0.965012       -26.2593
  10   2.0000      -0.871457       -23.7136
  11   2.0000      -0.764744       -20.8097
  12   2.0000      -0.725979       -19.7549
  13   2.0000      -0.712928       -19.3997
  14   2.0000      -0.633191       -17.2300
  15   2.0000      -0.605881       -16.4869
  16   2.0000      -0.592744       -16.1294
  17   2.0000      -0.555440       -15.1143
  18   2.0000      -0.534477       -14.5438
  19   2.0000      -0.523421       -14.2430
  20   2.0000      -0.511326       -13.9139
  21   2.0000      -0.494668       -13.4606
  22   2.0000      -0.394879       -10.7452
  23   2.0000      -0.265517        -7.2251
  24   0.0000       0.023654         0.6437
  25   0.0000       0.034219         0.9311
  26   0.0000       0.040712         1.1078
  27   0.0000       0.042364         1.1528
  28   0.0000       0.052961         1.4411

MULLIKEN ATOMIC CHARGES
-----------------------
   0 C :   -0.463707
   1 C :   -0.942532
   2 N :   -0.176073
   3 H :    0.418545
   4 H :    0.302809
   5 C :    0.553280
   6 N :   -0.489393
   7 C :   -1.211183
   8 H :    0.497418
   9 H :    0.276796
  10 H :    0.125076
  11 H :    0.092649
  12 H :    0.103549
  13 H :    0.263032
  14 H :    0.336255
  15 H :    0.313480
Sum of atomic charges:    0.0000000

LOEWDIN ATOMIC CHARGES
----------------------
   0 C :    0.202642
   1 C :    0.618913
   2 N :    0.567967
   3 H :   -0.144705
   4 H :   -0.156201
   5 C :   -0.458413
   6 N :    0.863628
   7 C :    0.552116
   8 H :   -0.344395
   9 H :   -0.318232
  10 H :   -0.272425
  11 H :   -0.297207
  12 H :   -0.261305
  13 H :   -0.184178
  14 H :   -0.183434
  15 H :   -0.184771

  Mayer bond orders larger than 0.100000
B(  0-C ,  1-C ) :   0.8743 B(  0-C ,  2-N ) :   0.9752 B(  0-C ,  3-H ) :   0.8485
B(  0-C ,  4-H ) :   0.9350 B(  0-C ,  5-C ) :  -0.1452 B(  1-C , 13-H ) :   0.9673
B(  1-C , 14-H ) :   0.9047 B(  1-C , 15-H ) :   0.9301 B(  2-N ,  5-C ) :   0.8117
B(  2-N ,  6-N ) :  -0.2016 B(  2-N ,  7-C ) :  -0.1071 B(  2-N , 10-H ) :   1.1094
B(  5-C ,  6-N ) :   0.7907 B(  5-C ,  7-C ) :   1.1071 B(  6-N ,  7-C ) :  -0.1358
B(  6-N , 11-H ) :   1.1305 B(  6-N , 12-H ) :   1.1232 B(  7-C ,  8-H ) :   0.7275
B(  7-C ,  9-H ) :   1.0917

E(0)                                       ...   -266.243854639
E(0)                                       ...   -266.243854639
E(CORR)(strong-pairs)                      ...     -1.163486181
E(CORR)(weak-pairs)                        ...     -0.001277712
E(CORR)(corrected)                         ...     -1.164763893
E(TOT)                                     ...   -267.408618532
E(CCSD(T))                                 ...   -267.456401794
FINAL SINGLE POINT ENERGY      -267.456401793869

DIPOLE MOMENT
-------------
                                X             Y             Z
Electronic contribution:     -2.87803      -2.27044       2.15692
Nuclear contribution   :      1.81275       2.23313      -2.77458
                        -----------------------------------------
Total Dipole Moment    :     -1.06528      -0.03732      -0.61766
                        -----------------------------------------
Magnitude (a.u.)       :      1.23195
Magnitude (Debye)      :      3.13137

Rotational constants in cm-1:     0.245202     0.073668     0.064348
Rotational constants in MHz :  7350.977980  2208.513334  1929.108541

                             ****ORCA TERMINATED NORMALLY****
TOTAL RUN TIME: 0 days 0 hours 12 minutes 6 seconds 809 msec
