                         Program Version 5.0.0 -  RELEASE  -
|  1> !LC-BLYP RIJCOSX def2-TZVP def2/J TightSCF
|  2> *xyz -1 1
|  3> C          0.70466        1.44313       -4.50363
|  4> C          1.72854        1.42432       -5.63944
|  5> H          2.64672        1.95379       -5.38105
|  6> H          1.29992        1.93061       -6.50361
|  7> S          2.25263       -0.18811       -6.27184
|  8> O          3.56261       -0.44446       -5.63155
|  9> O          2.34494       -0.03374       -7.69650
| 10> O          1.26606       -1.15918       -5.80536
| 11> H         -0.17385        0.91270       -4.80656
| 12> H          0.44778        2.45562       -4.27173
| 13> H          1.12367        0.97423       -3.63791
| 14> *
| 15>
| 16> %MaxCore 64000
| 17>
| 18> %pal nprocs 4
| 19> end
| 20>
| 21> %scf
| 22>   MaxIter 150
| 23> end
| 24>
| 25>
| 26>                          ****END OF INPUT****

CARTESIAN COORDINATES (ANGSTROEM)
---------------------------------
  C      0.704660    1.443130   -4.503630
  C      1.728540    1.424320   -5.639440
  H      2.646720    1.953790   -5.381050
  H      1.299920    1.930610   -6.503610
  S      2.252630   -0.188110   -6.271840
  O      3.562610   -0.444460   -5.631550
  O      2.344940   -0.033740   -7.696500
  O      1.266060   -1.159180   -5.805360
  H     -0.173850    0.912700   -4.806560
  H      0.447780    2.455620   -4.271730
  H      1.123670    0.974230   -3.637910

 Total Charge           Charge          ....   -1
 Multiplicity           Mult            ....    1
 Number of Electrons    NEL             ....   58
 Basis Dimension        Dim             ....  222

ORBITAL ENERGIES
----------------

  NO   OCC          E(Eh)            E(eV)
   0   2.0000     -88.252168     -2401.4636
   1   2.0000     -18.712761      -509.2001
   2   2.0000     -18.705993      -509.0159
   3   2.0000     -18.696179      -508.7489
   4   2.0000      -9.927371      -270.1375
   5   2.0000      -9.924009      -270.0460
   6   2.0000      -7.793943      -212.0840
   7   2.0000      -5.822218      -158.4306
   8   2.0000      -5.820922      -158.3953
   9   2.0000      -5.820633      -158.3875
  10   2.0000      -1.013875       -27.5890
  11   2.0000      -0.878638       -23.9089
  12   2.0000      -0.855799       -23.2875
  13   2.0000      -0.740558       -20.1516
  14   2.0000      -0.614056       -16.7093
  15   2.0000      -0.481706       -13.1079
  16   2.0000      -0.423252       -11.5173
  17   2.0000      -0.415295       -11.3007
  18   2.0000      -0.375717       -10.2238
  19   2.0000      -0.356568        -9.7027
  20   2.0000      -0.354020        -9.6334
  21   2.0000      -0.324275        -8.8240
  22   2.0000      -0.315403        -8.5825
  23   2.0000      -0.247558        -6.7364
  24   2.0000      -0.246497        -6.7075
  25   2.0000      -0.209137        -5.6909
  26   2.0000      -0.202436        -5.5086
  27   2.0000      -0.192060        -5.2262
  28   2.0000      -0.154777        -4.2117
  29   0.0000       0.233705         6.3594
  30   0.0000       0.282004         7.6737
  31   0.0000       0.296249         8.0614
  32   0.0000       0.301099         8.1933
  33   0.0000       0.324589         8.8325

MULLIKEN ATOMIC CHARGES
-----------------------
   0 C :   -0.373054
   1 C :   -0.287381
   2 H :    0.109463
   3 H :    0.103146
   4 S :    0.686064
   5 O :   -0.550610
   6 O :   -0.495661
   7 O :   -0.523956
   8 H :    0.128743
   9 H :    0.082867
  10 H :    0.120378
Sum of atomic charges:   -1.0000000

LOEWDIN ATOMIC CHARGES
----------------------
   0 C :   -0.356926
   1 C :   -0.437259
   2 H :    0.122525
   3 H :    0.121494
   4 S :    0.386985
   5 O :   -0.424293
   6 O :   -0.363202
   7 O :   -0.388659
   8 H :    0.118249
   9 H :    0.103624
  10 H :    0.117462

  Mayer bond orders larger than 0.100000
B(  0-C ,  1-C ) :   0.9202 B(  0-C ,  8-H ) :   0.9745 B(  0-C ,  9-H ) :   0.9687
B(  0-C , 10-H ) :   0.9777 B(  1-C ,  2-H ) :   0.9672 B(  1-C ,  3-H ) :   0.9620
B(  1-C ,  4-S ) :   0.8865 B(  4-S ,  5-O ) :   1.8148 B(  4-S ,  6-O ) :   1.8751
B(  4-S ,  7-O ) :   1.8214

FINAL SINGLE POINT ENERGY      -702.473419961626

DIPOLE MOMENT
-------------
                                X             Y             Z
Electronic contribution:      3.66416      -5.63171      -4.31596
Nuclear contribution   :     -4.50297       7.24642       5.01775
                        -----------------------------------------
Total Dipole Moment    :     -0.83881       1.61471       0.70179
                        -----------------------------------------
Magnitude (a.u.)       :      1.95023
Magnitude (Debye)      :      4.95710

Rotational constants in cm-1:     0.162459     0.081286     0.079601
Rotational constants in MHz :  4870.394399  2436.893583  2386.374948

                             ****ORCA TERMINATED NORMALLY****
TOTAL RUN TIME: 0 days 0 hours 0 minutes 33 seconds 274 msec
