                         Program Version 5.0.0 -  RELEASE  -
|  1> !LC-BLYP RIJCOSX def2-TZVP def2/J TightSCF
|  2> *xyz 1 1
|  3> C          2.91632       -1.24259       -1.54313
|  4> C          3.46659       -1.59097       -2.88908
|  5> N          4.65227       -1.14316       -3.25969
|  6> N          2.75226       -2.29204       -3.72803
|  7> H          1.77836       -2.48960       -3.51274
|  8> H          2.94861       -2.20854       -4.71681
|  9> H          5.14672       -0.51251       -2.63385
| 10> H          4.78303       -1.00720       -4.25350
| 11> C          2.80408        0.29070       -1.35924
| 12> H          1.94047       -1.71653       -1.44116
| 13> H          3.55857       -1.66343       -0.76637
| 14> H          2.17393        0.69633       -2.12297
| 15> H          3.77707        0.73043       -1.42880
| 16> H          2.38369        0.50492       -0.39889
| 17> *
| 18>
| 19> %MaxCore 64000
| 20>
| 21> %pal nprocs 4
| 22> end
| 23>
| 24> %scf
| 25>   MaxIter 150
| 26> end
| 27>
| 28>
| 29>                          ****END OF INPUT****

CARTESIAN COORDINATES (ANGSTROEM)
---------------------------------
  C      2.916320   -1.242590   -1.543130
  C      3.466590   -1.590970   -2.889080
  N      4.652270   -1.143160   -3.259690
  N      2.752260   -2.292040   -3.728030
  H      1.778360   -2.489600   -3.512740
  H      2.948610   -2.208540   -4.716810
  H      5.146720   -0.512510   -2.633850
  H      4.783030   -1.007200   -4.253500
  C      2.804080    0.290700   -1.359240
  H      1.940470   -1.716530   -1.441160
  H      3.558570   -1.663430   -0.766370
  H      2.173930    0.696330   -2.122970
  H      3.777070    0.730430   -1.428800
  H      2.383690    0.504920   -0.398890

 Total Charge           Charge          ....    1
 Multiplicity           Mult            ....    1
 Number of Electrons    NEL             ....   40
 Basis Dimension        Dim             ....  209

ORBITAL ENERGIES
----------------

  NO   OCC          E(Eh)            E(eV)
   0   2.0000     -14.418584      -392.3496
   1   2.0000     -14.413185      -392.2027
   2   2.0000     -10.396064      -282.8913
   3   2.0000     -10.270803      -279.4827
   4   2.0000     -10.229495      -278.3587
   5   2.0000      -1.313415       -35.7398
   6   2.0000      -1.213217       -33.0133
   7   2.0000      -1.081806       -29.4374
   8   2.0000      -0.971938       -26.4478
   9   2.0000      -0.925214       -25.1764
  10   2.0000      -0.874685       -23.8014
  11   2.0000      -0.858790       -23.3689
  12   2.0000      -0.800021       -21.7697
  13   2.0000      -0.775101       -21.0916
  14   2.0000      -0.730359       -19.8741
  15   2.0000      -0.705654       -19.2018
  16   2.0000      -0.653290       -17.7769
  17   2.0000      -0.643106       -17.4998
  18   2.0000      -0.629213       -17.1217
  19   2.0000      -0.598080       -16.2746
  20   0.0000      -0.138798        -3.7769
  21   0.0000      -0.095833        -2.6078
  22   0.0000      -0.051835        -1.4105
  23   0.0000      -0.049887        -1.3575
  24   0.0000      -0.010114        -0.2752

MULLIKEN ATOMIC CHARGES
-----------------------
   0 C :   -0.325813
   1 C :    0.281973
   2 N :   -0.285575
   3 N :   -0.286276
   4 H :    0.297464
   5 H :    0.274213
   6 H :    0.293808
   7 H :    0.275049
   8 C :   -0.393140
   9 H :    0.162315
  10 H :    0.211485
  11 H :    0.164735
  12 H :    0.136160
  13 H :    0.193601
Sum of atomic charges:    1.0000000

LOEWDIN ATOMIC CHARGES
----------------------
   0 C :   -0.225217
   1 C :   -0.299925
   2 N :    0.108350
   3 N :    0.121002
   4 H :    0.212273
   5 H :    0.202428
   6 H :    0.209263
   7 H :    0.202717
   8 C :   -0.271928
   9 H :    0.162247
  10 H :    0.176195
  11 H :    0.133698
  12 H :    0.124386
  13 H :    0.144513

  Mayer bond orders larger than 0.100000
B(  0-C ,  1-C ) :   0.9436 B(  0-C ,  8-C ) :   0.9108 B(  0-C ,  9-H ) :   0.9756
B(  0-C , 10-H ) :   0.9381 B(  1-C ,  2-N ) :   1.4080 B(  1-C ,  3-N ) :   1.4654
B(  2-N ,  6-H ) :   0.8964 B(  2-N ,  7-H ) :   0.8963 B(  3-N ,  4-H ) :   0.8889
B(  3-N ,  5-H ) :   0.8979 B(  8-C , 11-H ) :   0.9579 B(  8-C , 12-H ) :   0.9674
B(  8-C , 13-H ) :   0.9657

FINAL SINGLE POINT ENERGY      -228.500349664079

DIPOLE MOMENT
-------------
                                X             Y             Z
Electronic contribution:      1.30255      -2.84885      -2.78948
Nuclear contribution   :     -1.30215       2.77761       1.84194
                        -----------------------------------------
Total Dipole Moment    :      0.00041      -0.07124      -0.94755
                        -----------------------------------------
Magnitude (a.u.)       :      0.95022
Magnitude (Debye)      :      2.41527

Rotational constants in cm-1:     0.267442     0.127541     0.099068
Rotational constants in MHz :  8017.703171  3823.592522  2969.992494

                             ****ORCA TERMINATED NORMALLY****
TOTAL RUN TIME: 0 days 0 hours 0 minutes 29 seconds 153 msec
