                         Program Version 5.0.0 -  RELEASE  -
|  1> !LC-BLYP RIJCOSX def2-TZVP def2/J TightSCF xyzfile
|  2>
|  3> *xyzfile 0 1 B.xyz
|  4>
|  5> %MaxCore 64000
|  6>
|  7> %pal nprocs 18
|  8> end
|  9>
| 10> %scf
| 11>   MaxIter 150
| 12> end
| 13>
| 14>
| 15>                          ****END OF INPUT****

CARTESIAN COORDINATES (ANGSTROEM)
---------------------------------
  C      2.916324   -1.242589   -1.543125
  C      0.704661    1.443129   -4.503630
  C      1.728539    1.424320   -5.639443
  H      2.646718    1.953794   -5.381054
  H      1.299916    1.930613   -6.503614
  S      2.252625   -0.188115   -6.271840
  C      3.466585   -1.590971   -2.889082
  N      4.652275   -1.143164   -3.259692
  N      2.752264   -2.292043   -3.728029
  H      1.778364   -2.489604   -3.512738
  H      2.948612   -2.208544   -4.716813
  H      5.146723   -0.512508   -2.633852
  H      4.783030   -1.007203   -4.253498
  O      3.562607   -0.444464   -5.631552
  O      2.344944   -0.033742   -7.696501
  C      2.804084    0.290698   -1.359243
  C      1.052550    0.695659   -3.214915
  H     -0.232483    1.032925   -4.884449
  H      0.511700    2.495794   -4.267966
  C      2.388380    1.093669   -2.597108
  H      3.763425    0.674718   -0.999889
  H      2.094788    0.461222   -0.545756
  O      1.266058   -1.159177   -5.805365
  H      3.167316    1.013242   -3.359430
  H      2.357690    2.149375   -2.310997
  H      1.039284   -0.368429   -3.449329
  H      0.250787    0.865605   -2.488283
  H      1.940472   -1.716529   -1.441161
  H      3.558569   -1.663433   -0.766371

 Total Charge           Charge          ....    0
 Multiplicity           Mult            ....    1
 Number of Electrons    NEL             ....  112
 Basis Dimension        Dim             ....  505

ORBITAL ENERGIES
----------------

  NO   OCC          E(Eh)            E(eV)
   0   2.0000     -88.411648     -2405.8033
   1   2.0000     -18.876977      -513.6686
   2   2.0000     -18.869303      -513.4598
   3   2.0000     -18.859570      -513.1950
   4   2.0000     -14.241894      -387.5416
   5   2.0000     -14.241451      -387.5296
   6   2.0000     -10.231084      -278.4020
   7   2.0000     -10.133694      -275.7518
   8   2.0000     -10.112163      -275.1659
   9   2.0000     -10.083516      -274.3864
  10   2.0000     -10.070656      -274.0365
  11   2.0000     -10.066642      -273.9273
  12   2.0000     -10.064904      -273.8800
  13   2.0000      -7.953890      -216.4364
  14   2.0000      -5.981977      -162.7779
  15   2.0000      -5.981440      -162.7632
  16   2.0000      -5.980038      -162.7251
  17   2.0000      -1.177001       -32.0278
  18   2.0000      -1.143518       -31.1167
  19   2.0000      -1.044169       -28.4133
  20   2.0000      -1.033971       -28.1358
  21   2.0000      -1.030969       -28.0541
  22   2.0000      -0.958406       -26.0796
  23   2.0000      -0.911541       -24.8043
  24   2.0000      -0.864009       -23.5109
  25   2.0000      -0.810204       -22.0468
  26   2.0000      -0.780082       -21.2271
  27   2.0000      -0.747118       -20.3301
  28   2.0000      -0.709854       -19.3161
  29   2.0000      -0.699032       -19.0216
  30   2.0000      -0.688708       -18.7407
  31   2.0000      -0.644915       -17.5490
  32   2.0000      -0.629554       -17.1310
  33   2.0000      -0.620469       -16.8838
  34   2.0000      -0.603597       -16.4247
  35   2.0000      -0.578146       -15.7321
  36   2.0000      -0.571403       -15.5487
  37   2.0000      -0.552168       -15.0253
  38   2.0000      -0.537752       -14.6330
  39   2.0000      -0.535216       -14.5640
  40   2.0000      -0.530645       -14.4396
  41   2.0000      -0.516717       -14.0606
  42   2.0000      -0.505582       -13.7576
  43   2.0000      -0.485995       -13.2246
  44   2.0000      -0.477849       -13.0029
  45   2.0000      -0.473084       -12.8733
  46   2.0000      -0.446213       -12.1421
  47   2.0000      -0.438348       -11.9281
  48   2.0000      -0.424026       -11.5383
  49   2.0000      -0.422798       -11.5049
  50   2.0000      -0.407120       -11.0783
  51   2.0000      -0.405013       -11.0210
  52   2.0000      -0.367307        -9.9949
  53   2.0000      -0.360733        -9.8160
  54   2.0000      -0.351515        -9.5652
  55   2.0000      -0.322404        -8.7731
  56   0.0000       0.022205         0.6042
  57   0.0000       0.051342         1.3971
  58   0.0000       0.079559         2.1649
  59   0.0000       0.098037         2.6677
  60   0.0000       0.110069         2.9951

MULLIKEN ATOMIC CHARGES
-----------------------
   0 C :   -0.330956
   1 C :   -0.237407
   2 C :   -0.360317
   3 H :    0.150168
   4 H :    0.170967
   5 S :    0.773786
   6 C :    0.203557
   7 N :   -0.286933
   8 N :   -0.250028
   9 H :    0.268798
  10 H :    0.278285
  11 H :    0.258293
  12 H :    0.297593
  13 O :   -0.615171
  14 O :   -0.436343
  15 C :   -0.323636
  16 C :   -0.212076
  17 H :    0.152038
  18 H :    0.127723
  19 C :   -0.282630
  20 H :    0.163094
  21 H :    0.154291
  22 O :   -0.531987
  23 H :    0.156061
  24 H :    0.141308
  25 H :    0.092709
  26 H :    0.128890
  27 H :    0.165630
  28 H :    0.184292
Sum of atomic charges:   -0.0000000

LOEWDIN ATOMIC CHARGES
----------------------
   0 C :   -0.218555
   1 C :   -0.296279
   2 C :   -0.394079
   3 H :    0.132024
   4 H :    0.143397
   5 S :    0.421020
   6 C :   -0.326150
   7 N :    0.088960
   8 N :    0.124059
   9 H :    0.194844
  10 H :    0.187093
  11 H :    0.191638
  12 H :    0.187142
  13 O :   -0.412309
  14 O :   -0.307868
  15 C :   -0.263143
  16 C :   -0.282388
  17 H :    0.150117
  18 H :    0.142768
  19 C :   -0.278848
  20 H :    0.141787
  21 H :    0.150492
  22 O :   -0.362847
  23 H :    0.144742
  24 H :    0.146712
  25 H :    0.135379
  26 H :    0.140575
  27 H :    0.156842
  28 H :    0.162873

  Mayer bond orders larger than 0.100000
B(  0-C ,  6-C ) :   0.9426 B(  0-C , 15-C ) :   0.8682 B(  0-C , 27-H ) :   0.9792
B(  0-C , 28-H ) :   0.9702 B(  1-C ,  2-C ) :   0.9061 B(  1-C , 16-C ) :   0.9496
B(  1-C , 17-H ) :   0.9773 B(  1-C , 18-H ) :   0.9720 B(  2-C ,  3-H ) :   0.9615
B(  2-C ,  4-H ) :   0.9645 B(  2-C ,  5-S ) :   0.9122 B(  5-S , 13-O ) :   1.5332
B(  5-S , 14-O ) :   2.0125 B(  5-S , 22-O ) :   1.7229 B(  6-C ,  7-N ) :   1.4003
B(  6-C ,  8-N ) :   1.5041 B(  7-N , 11-H ) :   0.9145 B(  7-N , 12-H ) :   0.8556
B(  8-N ,  9-H ) :   0.9031 B(  8-N , 10-H ) :   0.8519 B( 15-C , 19-C ) :   0.8824
B( 15-C , 20-H ) :   1.0006 B( 15-C , 21-H ) :   0.9734 B( 16-C , 19-C ) :   0.8661
B( 16-C , 25-H ) :   0.9640 B( 16-C , 26-H ) :   0.9783 B( 19-C , 23-H ) :   0.9815
B( 19-C , 24-H ) :   0.9770

FINAL SINGLE POINT ENERGY     -1008.386905208925

DIPOLE MOMENT
-------------
                                X             Y             Z
Electronic contribution:      2.76092      -6.28166     -13.33603
Nuclear contribution   :     -1.90023       6.18953      17.82209
                        -----------------------------------------
Total Dipole Moment    :      0.86069      -0.09213       4.48606
                        -----------------------------------------
Magnitude (a.u.)       :      4.56881
Magnitude (Debye)      :     11.61300

Rotational constants in cm-1:     0.036337     0.018755     0.015005
Rotational constants in MHz :  1089.341704   562.266628   449.834770

                             ****ORCA TERMINATED NORMALLY****
TOTAL RUN TIME: 0 days 0 hours 0 minutes 58 seconds 621 msec
