                         Program Version 5.0.0 -  RELEASE  -
|  1> !LC-BLYP RIJCOSX def2-TZVP def2/J TightSCF
|  2> *xyz 0 1
|  3> C          0.70466        1.44313       -4.50363
|  4> C          1.72854        1.42432       -5.63944
|  5> H          2.64672        1.95379       -5.38105
|  6> H          1.29992        1.93061       -6.50361
|  7> S          2.25263       -0.18811       -6.27184
|  8> F          3.56261       -0.44446       -5.63155
|  9> O          2.34494       -0.03374       -7.69650
| 10> O          1.26606       -1.15918       -5.80536
| 11> H         -0.17385        0.91270       -4.80656
| 12> H          0.44778        2.45562       -4.27173
| 13> H          1.12367        0.97423       -3.63791
| 14> *
| 15>
| 16> %MaxCore 64000
| 17>
| 18> %pal nprocs 4
| 19> end
| 20>
| 21> %scf
| 22>   MaxIter 150
| 23> end
| 24>
| 25>
| 26>                          ****END OF INPUT****

CARTESIAN COORDINATES (ANGSTROEM)
---------------------------------
  C      0.704660    1.443130   -4.503630
  C      1.728540    1.424320   -5.639440
  H      2.646720    1.953790   -5.381050
  H      1.299920    1.930610   -6.503610
  S      2.252630   -0.188110   -6.271840
  F      3.562610   -0.444460   -5.631550
  O      2.344940   -0.033740   -7.696500
  O      1.266060   -1.159180   -5.805360
  H     -0.173850    0.912700   -4.806560
  H      0.447780    2.455620   -4.271730
  H      1.123670    0.974230   -3.637910

 Total Charge           Charge          ....    0
 Multiplicity           Mult            ....    1
 Number of Electrons    NEL             ....   58
 Basis Dimension        Dim             ....  222

ORBITAL ENERGIES
----------------

  NO   OCC          E(Eh)            E(eV)
   0   2.0000     -88.516632     -2408.6600
   1   2.0000     -24.555205      -668.1811
   2   2.0000     -18.953121      -515.7406
   3   2.0000     -18.945795      -515.5413
   4   2.0000     -10.131415      -275.6898
   5   2.0000     -10.086844      -274.4770
   6   2.0000      -8.059061      -219.2982
   7   2.0000      -6.090905      -165.7420
   8   2.0000      -6.084120      -165.5573
   9   2.0000      -6.083463      -165.5394
  10   2.0000      -1.433870       -39.0176
  11   2.0000      -1.207044       -32.8453
  12   2.0000      -1.112079       -30.2612
  13   2.0000      -0.931848       -25.3569
  14   2.0000      -0.830778       -22.6066
  15   2.0000      -0.777105       -21.1461
  16   2.0000      -0.682959       -18.5842
  17   2.0000      -0.667520       -18.1642
  18   2.0000      -0.653515       -17.7830
  19   2.0000      -0.598926       -16.2976
  20   2.0000      -0.584604       -15.9079
  21   2.0000      -0.556362       -15.1394
  22   2.0000      -0.533451       -14.5159
  23   2.0000      -0.504826       -13.7370
  24   2.0000      -0.503091       -13.6898
  25   2.0000      -0.484226       -13.1765
  26   2.0000      -0.436438       -11.8761
  27   2.0000      -0.431305       -11.7364
  28   2.0000      -0.417603       -11.3636
  29   0.0000       0.082657         2.2492
  30   0.0000       0.109360         2.9758
  31   0.0000       0.123785         3.3684
  32   0.0000       0.144346         3.9279
  33   0.0000       0.150258         4.0887

MULLIKEN ATOMIC CHARGES
-----------------------
   0 C :   -0.384674
   1 C :   -0.307297
   2 H :    0.158863
   3 H :    0.180202
   4 S :    0.756973
   5 F :   -0.102382
   6 O :   -0.363740
   7 O :   -0.392698
   8 H :    0.165314
   9 H :    0.145211
  10 H :    0.144229
Sum of atomic charges:   -0.0000000

LOEWDIN ATOMIC CHARGES
----------------------
   0 C :   -0.323435
   1 C :   -0.402213
   2 H :    0.139054
   3 H :    0.151798
   4 S :    0.512880
   5 F :    0.061718
   6 O :   -0.250055
   7 O :   -0.276082
   8 H :    0.131365
   9 H :    0.128570
  10 H :    0.126398

  Mayer bond orders larger than 0.100000
B(  0-C ,  1-C ) :   0.9281 B(  0-C ,  8-H ) :   0.9644 B(  0-C ,  9-H ) :   0.9600
B(  0-C , 10-H ) :   0.9696 B(  1-C ,  2-H ) :   0.9463 B(  1-C ,  3-H ) :   0.9415
B(  1-C ,  4-S ) :   0.9082 B(  4-S ,  5-F ) :   1.1434 B(  4-S ,  6-O ) :   1.9926
B(  4-S ,  7-O ) :   1.9495

FINAL SINGLE POINT ENERGY      -726.996285839655

DIPOLE MOMENT
-------------
                                X             Y             Z
Electronic contribution:      6.32164      -6.47765      -3.70571
Nuclear contribution   :     -6.09914       7.80989       4.64238
                        -----------------------------------------
Total Dipole Moment    :      0.22251       1.33224       0.93667
                        -----------------------------------------
Magnitude (a.u.)       :      1.64370
Magnitude (Debye)      :      4.17794

Rotational constants in cm-1:     0.154372     0.078826     0.078033
Rotational constants in MHz :  4627.943144  2363.154585  2339.382767

                             ****ORCA TERMINATED NORMALLY****
TOTAL RUN TIME: 0 days 0 hours 0 minutes 29 seconds 814 msec
