                         Program Version 5.0.0 -  RELEASE  -
|  1> !LC-BLYP RIJCOSX def2-TZVP def2/J TightSCF
|  2> *xyz 0 1
|  3> C          2.91632       -1.24259       -1.54313
|  4> C          3.46659       -1.59097       -2.88908
|  5> C          4.65227       -1.14316       -3.25969
|  6> N          2.75226       -2.29204       -3.72803
|  7> H          1.77836       -2.48960       -3.51274
|  8> H          2.94861       -2.20854       -4.71681
|  9> H          5.14672       -0.51251       -2.63385
| 10> H          4.78303       -1.00720       -4.25350
| 11> C          2.80408        0.29070       -1.35924
| 12> H          1.94047       -1.71653       -1.44116
| 13> H          3.55857       -1.66343       -0.76637
| 14> H          2.17393        0.69633       -2.12297
| 15> H          3.77707        0.73043       -1.42880
| 16> H          2.38369        0.50492       -0.39889
| 17> *
| 18>
| 19> %MaxCore 64000
| 20>
| 21> %pal nprocs 4
| 22> end
| 23>
| 24> %scf
| 25>   MaxIter 150
| 26> end
| 27>
| 28>
| 29>                          ****END OF INPUT****

CARTESIAN COORDINATES (ANGSTROEM)
---------------------------------
  C      2.916320   -1.242590   -1.543130
  C      3.466590   -1.590970   -2.889080
  C      4.652270   -1.143160   -3.259690
  N      2.752260   -2.292040   -3.728030
  H      1.778360   -2.489600   -3.512740
  H      2.948610   -2.208540   -4.716810
  H      5.146720   -0.512510   -2.633850
  H      4.783030   -1.007200   -4.253500
  C      2.804080    0.290700   -1.359240
  H      1.940470   -1.716530   -1.441160
  H      3.558570   -1.663430   -0.766370
  H      2.173930    0.696330   -2.122970
  H      3.777070    0.730430   -1.428800
  H      2.383690    0.504920   -0.398890

 Total Charge           Charge          ....    0
 Multiplicity           Mult            ....    1
 Number of Electrons    NEL             ....   40
 Basis Dimension        Dim             ....  209

ORBITAL ENERGIES
----------------

  NO   OCC          E(Eh)            E(eV)
   0   2.0000     -14.170922      -385.6104
   1   2.0000     -10.090652      -274.5806
   2   2.0000     -10.071366      -274.0558
   3   2.0000     -10.054291      -273.5912
   4   2.0000      -9.994866      -271.9741
   5   2.0000      -1.038939       -28.2710
   6   2.0000      -0.891260       -24.2524
   7   2.0000      -0.819213       -22.2919
   8   2.0000      -0.753262       -20.4973
   9   2.0000      -0.670083       -18.2339
  10   2.0000      -0.627109       -17.0645
  11   2.0000      -0.585363       -15.9285
  12   2.0000      -0.556438       -15.1415
  13   2.0000      -0.513066       -13.9612
  14   2.0000      -0.492182       -13.3930
  15   2.0000      -0.477526       -12.9941
  16   2.0000      -0.455982       -12.4079
  17   2.0000      -0.441920       -12.0252
  18   2.0000      -0.427562       -11.6346
  19   2.0000      -0.284892        -7.7523
  20   0.0000       0.089774         2.4429
  21   0.0000       0.107508         2.9255
  22   0.0000       0.134366         3.6563
  23   0.0000       0.138180         3.7601
  24   0.0000       0.154652         4.2083

MULLIKEN ATOMIC CHARGES
-----------------------
   0 C :   -0.277747
   1 C :    0.205530
   2 C :   -0.406704
   3 N :   -0.394672
   4 H :    0.219948
   5 H :    0.225527
   6 H :    0.077668
   7 H :    0.082071
   8 C :   -0.370114
   9 H :    0.102648
  10 H :    0.147370
  11 H :    0.128788
  12 H :    0.131610
  13 H :    0.128078
Sum of atomic charges:    0.0000000

LOEWDIN ATOMIC CHARGES
----------------------
   0 C :   -0.243207
   1 C :   -0.375234
   2 C :   -0.290788
   3 N :    0.006389
   4 H :    0.168635
   5 H :    0.175169
   6 H :    0.106745
   7 H :    0.103424
   8 C :   -0.299839
   9 H :    0.135783
  10 H :    0.152627
  11 H :    0.121344
  12 H :    0.121628
  13 H :    0.117324

  Mayer bond orders larger than 0.100000
B(  0-C ,  1-C ) :   0.9016 B(  0-C ,  8-C ) :   0.9337 B(  0-C ,  9-H ) :   0.9946
B(  0-C , 10-H ) :   0.9840 B(  1-C ,  2-C ) :   1.7206 B(  1-C ,  3-N ) :   1.1789
B(  2-C ,  6-H ) :   1.0175 B(  2-C ,  7-H ) :   0.9890 B(  3-N ,  4-H ) :   0.9319
B(  3-N ,  5-H ) :   0.9266 B(  8-C , 11-H ) :   0.9747 B(  8-C , 12-H ) :   0.9760
B(  8-C , 13-H ) :   0.9800

FINAL SINGLE POINT ENERGY      -212.030601677259

DIPOLE MOMENT
-------------
                                X             Y             Z
Electronic contribution:      0.05733      -2.73655      -1.81850
Nuclear contribution   :     -0.99366       2.78648       1.68526
                        -----------------------------------------
Total Dipole Moment    :     -0.93632       0.04993      -0.13324
                        -----------------------------------------
Magnitude (a.u.)       :      0.94707
Magnitude (Debye)      :      2.40727

Rotational constants in cm-1:     0.282898     0.128664     0.101801
Rotational constants in MHz :  8481.061354  3857.240210  3051.924245

                             ****ORCA TERMINATED NORMALLY****
TOTAL RUN TIME: 0 days 0 hours 0 minutes 27 seconds 125 msec
