                         Program Version 5.0.0 -  RELEASE  -
|  1> !LC-BLYP RIJCOSX def2-TZVP def2/J TightSCF
|  2> *xyz 0 1
|  3> C          0.70466        1.44313       -4.50363
|  4> C          1.72854        1.42432       -5.63944
|  5> H          2.64672        1.95379       -5.38105
|  6> H          1.29992        1.93061       -6.50361
|  7> S          2.25263       -0.18811       -6.27184
|  8> O          3.56261       -0.44446       -5.63155
|  9> F          2.34494       -0.03374       -7.69650
| 10> O          1.26606       -1.15918       -5.80536
| 11> H         -0.17385        0.91270       -4.80656
| 12> H          0.44778        2.45562       -4.27173
| 13> H          1.12367        0.97423       -3.63791
| 14> *
| 15>
| 16> %MaxCore 64000
| 17>
| 18> %pal nprocs 4
| 19> end
| 20>
| 21> %scf
| 22>   MaxIter 150
| 23> end
| 24>
| 25>
| 26>                          ****END OF INPUT****

CARTESIAN COORDINATES (ANGSTROEM)
---------------------------------
  C      0.704660    1.443130   -4.503630
  C      1.728540    1.424320   -5.639440
  H      2.646720    1.953790   -5.381050
  H      1.299920    1.930610   -6.503610
  S      2.252630   -0.188110   -6.271840
  O      3.562610   -0.444460   -5.631550
  F      2.344940   -0.033740   -7.696500
  O      1.266060   -1.159180   -5.805360
  H     -0.173850    0.912700   -4.806560
  H      0.447780    2.455620   -4.271730
  H      1.123670    0.974230   -3.637910

 Total Charge           Charge          ....    0
 Multiplicity           Mult            ....    1
 Number of Electrons    NEL             ....   58
 Basis Dimension        Dim             ....  222

ORBITAL ENERGIES
----------------

  NO   OCC          E(Eh)            E(eV)
   0   2.0000     -88.518857     -2408.7206
   1   2.0000     -24.578616      -668.8181
   2   2.0000     -18.945994      -515.5467
   3   2.0000     -18.937304      -515.3102
   4   2.0000     -10.132370      -275.7158
   5   2.0000     -10.087281      -274.4889
   6   2.0000      -8.061274      -219.3584
   7   2.0000      -6.092961      -165.7979
   8   2.0000      -6.086189      -165.6136
   9   2.0000      -6.085808      -165.6033
  10   2.0000      -1.470965       -40.0270
  11   2.0000      -1.193421       -32.4746
  12   2.0000      -1.092512       -29.7288
  13   2.0000      -0.932491       -25.3744
  14   2.0000      -0.844511       -22.9803
  15   2.0000      -0.785579       -21.3767
  16   2.0000      -0.696932       -18.9645
  17   2.0000      -0.694492       -18.8981
  18   2.0000      -0.658621       -17.9220
  19   2.0000      -0.600041       -16.3280
  20   2.0000      -0.585684       -15.9373
  21   2.0000      -0.544678       -14.8214
  22   2.0000      -0.530491       -14.4354
  23   2.0000      -0.507943       -13.8218
  24   2.0000      -0.490743       -13.3538
  25   2.0000      -0.484812       -13.1924
  26   2.0000      -0.430092       -11.7034
  27   2.0000      -0.419747       -11.4219
  28   2.0000      -0.401699       -10.9308
  29   0.0000       0.084335         2.2949
  30   0.0000       0.104417         2.8413
  31   0.0000       0.124992         3.4012
  32   0.0000       0.141070         3.8387
  33   0.0000       0.149356         4.0642

MULLIKEN ATOMIC CHARGES
-----------------------
   0 C :   -0.388428
   1 C :   -0.298784
   2 H :    0.179906
   3 H :    0.147647
   4 S :    0.755918
   5 O :   -0.407545
   6 F :   -0.066685
   7 O :   -0.384731
   8 H :    0.156243
   9 H :    0.145695
  10 H :    0.160764
Sum of atomic charges:   -0.0000000

LOEWDIN ATOMIC CHARGES
----------------------
   0 C :   -0.317680
   1 C :   -0.403814
   2 H :    0.147113
   3 H :    0.137112
   4 S :    0.504890
   5 O :   -0.303154
   6 F :    0.117457
   7 O :   -0.272326
   8 H :    0.129707
   9 H :    0.129154
  10 H :    0.131540

  Mayer bond orders larger than 0.100000
B(  0-C ,  1-C ) :   0.9334 B(  0-C ,  8-H ) :   0.9646 B(  0-C ,  9-H ) :   0.9594
B(  0-C , 10-H ) :   0.9678 B(  1-C ,  2-H ) :   0.9403 B(  1-C ,  3-H ) :   0.9419
B(  1-C ,  4-S ) :   0.9115 B(  4-S ,  5-O ) :   1.9377 B(  4-S ,  6-F ) :   1.1888
B(  4-S ,  7-O ) :   1.9507

FINAL SINGLE POINT ENERGY      -726.976685815317

DIPOLE MOMENT
-------------
                                X             Y             Z
Electronic contribution:      4.21620      -5.77887      -7.23614
Nuclear contribution   :     -4.83029       7.38191       6.79413
                        -----------------------------------------
Total Dipole Moment    :     -0.61408       1.60303      -0.44201
                        -----------------------------------------
Magnitude (a.u.)       :      1.77262
Magnitude (Debye)      :      4.50565

Rotational constants in cm-1:     0.156575     0.079070     0.076729
Rotational constants in MHz :  4694.010604  2370.444114  2300.280155

                             ****ORCA TERMINATED NORMALLY****
TOTAL RUN TIME: 0 days 0 hours 0 minutes 29 seconds 978 msec
