                         Program Version 5.0.0 -  RELEASE  -
|  1> !LC-BLYP RIJCOSX def2-TZVP def2/J TightSCF
|  2> *xyz 0 1
|  3> C          2.91632       -1.24259       -1.54313
|  4> C          3.46659       -1.59097       -2.88908
|  5> N          4.65227       -1.14316       -3.25969
|  6> C          2.75226       -2.29204       -3.72803
|  7> H          1.77836       -2.48960       -3.51274
|  8> H          2.94861       -2.20854       -4.71681
|  9> H          5.14672       -0.51251       -2.63385
| 10> H          4.78303       -1.00720       -4.25350
| 11> C          2.80408        0.29070       -1.35924
| 12> H          1.94047       -1.71653       -1.44116
| 13> H          3.55857       -1.66343       -0.76637
| 14> H          2.17393        0.69633       -2.12297
| 15> H          3.77707        0.73043       -1.42880
| 16> H          2.38369        0.50492       -0.39889
| 17> *
| 18>
| 19> %MaxCore 64000
| 20>
| 21> %pal nprocs 4
| 22> end
| 23>
| 24> %scf
| 25>   MaxIter 150
| 26> end
| 27>
| 28>
| 29>                          ****END OF INPUT****

CARTESIAN COORDINATES (ANGSTROEM)
---------------------------------
  C      2.916320   -1.242590   -1.543130
  C      3.466590   -1.590970   -2.889080
  N      4.652270   -1.143160   -3.259690
  C      2.752260   -2.292040   -3.728030
  H      1.778360   -2.489600   -3.512740
  H      2.948610   -2.208540   -4.716810
  H      5.146720   -0.512510   -2.633850
  H      4.783030   -1.007200   -4.253500
  C      2.804080    0.290700   -1.359240
  H      1.940470   -1.716530   -1.441160
  H      3.558570   -1.663430   -0.766370
  H      2.173930    0.696330   -2.122970
  H      3.777070    0.730430   -1.428800
  H      2.383690    0.504920   -0.398890

 Total Charge           Charge          ....    0
 Multiplicity           Mult            ....    1
 Number of Electrons    NEL             ....   40
 Basis Dimension        Dim             ....  209

ORBITAL ENERGIES
----------------

  NO   OCC          E(Eh)            E(eV)
   0   2.0000     -14.167383      -385.5141
   1   2.0000     -10.089242      -274.5422
   2   2.0000     -10.069769      -274.0123
   3   2.0000     -10.059411      -273.7305
   4   2.0000      -9.999072      -272.0886
   5   2.0000      -1.034311       -28.1450
   6   2.0000      -0.888479       -24.1767
   7   2.0000      -0.831173       -22.6174
   8   2.0000      -0.745293       -20.2804
   9   2.0000      -0.670338       -18.2408
  10   2.0000      -0.631528       -17.1848
  11   2.0000      -0.582674       -15.8554
  12   2.0000      -0.541481       -14.7345
  13   2.0000      -0.539540       -14.6816
  14   2.0000      -0.488248       -13.2859
  15   2.0000      -0.483336       -13.1522
  16   2.0000      -0.456111       -12.4114
  17   2.0000      -0.442201       -12.0329
  18   2.0000      -0.421723       -11.4757
  19   2.0000      -0.292067        -7.9475
  20   0.0000       0.087589         2.3834
  21   0.0000       0.110899         3.0177
  22   0.0000       0.137697         3.7469
  23   0.0000       0.142833         3.8867
  24   0.0000       0.151567         4.1243

MULLIKEN ATOMIC CHARGES
-----------------------
   0 C :   -0.271817
   1 C :    0.195219
   2 N :   -0.396160
   3 C :   -0.402924
   4 H :    0.089322
   5 H :    0.079752
   6 H :    0.219234
   7 H :    0.228094
   8 C :   -0.382208
   9 H :    0.127240
  10 H :    0.132078
  11 H :    0.140356
  12 H :    0.105191
  13 H :    0.136622
Sum of atomic charges:    0.0000000

LOEWDIN ATOMIC CHARGES
----------------------
   0 C :   -0.243732
   1 C :   -0.374540
   2 N :   -0.003468
   3 C :   -0.279757
   4 H :    0.109254
   5 H :    0.103274
   6 H :    0.168502
   7 H :    0.176537
   8 C :   -0.306285
   9 H :    0.150192
  10 H :    0.142926
  11 H :    0.123925
  12 H :    0.112315
  13 H :    0.120856

  Mayer bond orders larger than 0.100000
B(  0-C ,  1-C ) :   0.9328 B(  0-C ,  8-C ) :   0.9157 B(  0-C ,  9-H ) :   0.9884
B(  0-C , 10-H ) :   0.9772 B(  1-C ,  2-N ) :   1.1272 B(  1-C ,  3-C ) :   1.7860
B(  2-N ,  6-H ) :   0.9421 B(  2-N ,  7-H ) :   0.9276 B(  3-C ,  4-H ) :   1.0027
B(  3-C ,  5-H ) :   0.9934 B(  8-C , 11-H ) :   0.9731 B(  8-C , 12-H ) :   0.9763
B(  8-C , 13-H ) :   0.9813

FINAL SINGLE POINT ENERGY      -212.034545055674

DIPOLE MOMENT
-------------
                                X             Y             Z
Electronic contribution:      1.74143      -1.71493      -1.40393
Nuclear contribution   :     -1.43372       2.52039       1.57679
                        -----------------------------------------
Total Dipole Moment    :      0.30771       0.80545       0.17286
                        -----------------------------------------
Magnitude (a.u.)       :      0.87939
Magnitude (Debye)      :      2.23523

Rotational constants in cm-1:     0.274962     0.131786     0.102554
Rotational constants in MHz :  8243.150005  3950.846092  3074.493018

                             ****ORCA TERMINATED NORMALLY****
TOTAL RUN TIME: 0 days 0 hours 0 minutes 32 seconds 765 msec
