                         Program Version 5.0.0 -  RELEASE  -
|  1> !LC-BLYP RIJCOSX def2-TZVP def2/J TightSCF
|  2> *xyz 0 1
|  3> C          0.70466        1.44313       -4.50363
|  4> C          1.72854        1.42432       -5.63944
|  5> H          2.64672        1.95379       -5.38105
|  6> H          1.29992        1.93061       -6.50361
|  7> S          2.25263       -0.18811       -6.27184
|  8> O          3.56261       -0.44446       -5.63155
|  9> O          2.34494       -0.03374       -7.69650
| 10> F          1.26606       -1.15918       -5.80536
| 11> H         -0.17385        0.91270       -4.80656
| 12> H          0.44778        2.45562       -4.27173
| 13> H          1.12367        0.97423       -3.63791
| 14> *
| 15>
| 16> %MaxCore 64000
| 17>
| 18> %pal nprocs 4
| 19> end
| 20>
| 21> %scf
| 22>   MaxIter 150
| 23> end
| 24>
| 25>
| 26>                          ****END OF INPUT****

CARTESIAN COORDINATES (ANGSTROEM)
---------------------------------
  C      0.704660    1.443130   -4.503630
  C      1.728540    1.424320   -5.639440
  H      2.646720    1.953790   -5.381050
  H      1.299920    1.930610   -6.503610
  S      2.252630   -0.188110   -6.271840
  O      3.562610   -0.444460   -5.631550
  O      2.344940   -0.033740   -7.696500
  F      1.266060   -1.159180   -5.805360
  H     -0.173850    0.912700   -4.806560
  H      0.447780    2.455620   -4.271730
  H      1.123670    0.974230   -3.637910

 Total Charge           Charge          ....    0
 Multiplicity           Mult            ....    1
 Number of Electrons    NEL             ....   58
 Basis Dimension        Dim             ....  222

ORBITAL ENERGIES
----------------

  NO   OCC          E(Eh)            E(eV)
   0   2.0000     -88.517186     -2408.6751
   1   2.0000     -24.566124      -668.4782
   2   2.0000     -18.953024      -515.7380
   3   2.0000     -18.936743      -515.2950
   4   2.0000     -10.131199      -275.6839
   5   2.0000     -10.094884      -274.6958
   6   2.0000      -8.059639      -219.3139
   7   2.0000      -6.091539      -165.7592
   8   2.0000      -6.084423      -165.5656
   9   2.0000      -6.084196      -165.5594
  10   2.0000      -1.450074       -39.4585
  11   2.0000      -1.202870       -32.7318
  12   2.0000      -1.100375       -29.9427
  13   2.0000      -0.935854       -25.4659
  14   2.0000      -0.833534       -22.6816
  15   2.0000      -0.786685       -21.4068
  16   2.0000      -0.698255       -19.0005
  17   2.0000      -0.680100       -18.5065
  18   2.0000      -0.646210       -17.5843
  19   2.0000      -0.603601       -16.4248
  20   2.0000      -0.577559       -15.7162
  21   2.0000      -0.554595       -15.0913
  22   2.0000      -0.543743       -14.7960
  23   2.0000      -0.515732       -14.0338
  24   2.0000      -0.496931       -13.5222
  25   2.0000      -0.488309       -13.2876
  26   2.0000      -0.434853       -11.8329
  27   2.0000      -0.420906       -11.4534
  28   2.0000      -0.408058       -11.1038
  29   0.0000       0.073319         1.9951
  30   0.0000       0.117955         3.2097
  31   0.0000       0.130671         3.5557
  32   0.0000       0.140252         3.8165
  33   0.0000       0.144264         3.9256

MULLIKEN ATOMIC CHARGES
-----------------------
   0 C :   -0.411252
   1 C :   -0.296482
   2 H :    0.183988
   3 H :    0.172141
   4 S :    0.754446
   5 O :   -0.412770
   6 O :   -0.358726
   7 F :   -0.087188
   8 H :    0.146166
   9 H :    0.151127
  10 H :    0.158549
Sum of atomic charges:    0.0000000

LOEWDIN ATOMIC CHARGES
----------------------
   0 C :   -0.330396
   1 C :   -0.396117
   2 H :    0.151829
   3 H :    0.145841
   4 S :    0.509671
   5 O :   -0.306505
   6 O :   -0.247909
   7 F :    0.090443
   8 H :    0.123950
   9 H :    0.131145
  10 H :    0.128049

  Mayer bond orders larger than 0.100000
B(  0-C ,  1-C ) :   0.9242 B(  0-C ,  8-H ) :   0.9664 B(  0-C ,  9-H ) :   0.9638
B(  0-C , 10-H ) :   0.9659 B(  1-C ,  2-H ) :   0.9410 B(  1-C ,  3-H ) :   0.9426
B(  1-C ,  4-S ) :   0.9124 B(  4-S ,  5-O ) :   1.9362 B(  4-S ,  6-O ) :   1.9929
B(  4-S ,  7-F ) :   1.1576

FINAL SINGLE POINT ENERGY      -726.986396433635

DIPOLE MOMENT
-------------
                                X             Y             Z
Electronic contribution:      2.37181      -7.65997      -3.99892
Nuclear contribution   :     -3.70606       8.55465       4.82350
                        -----------------------------------------
Total Dipole Moment    :     -1.33425       0.89468       0.82458
                        -----------------------------------------
Magnitude (a.u.)       :      1.80572
Magnitude (Debye)      :      4.58977

Rotational constants in cm-1:     0.153201     0.080978     0.077494
Rotational constants in MHz :  4592.852844  2427.650814  2323.207507

                             ****ORCA TERMINATED NORMALLY****
TOTAL RUN TIME: 0 days 0 hours 0 minutes 30 seconds 839 msec
