                         Program Version 5.0.0 -  RELEASE  -
|  1> !LC-BLYP RIJCOSX def2-TZVP def2/J TightSCF xyzfile
|  2>
|  3> *xyzfile 0 1 D4.xyz
|  4>
|  5> %MaxCore 64000
|  6>
|  7> %pal nprocs 18
|  8> end
|  9>
| 10> %scf
| 11>   MaxIter 150
| 12> end
| 13>
| 14>
| 15>                          ****END OF INPUT****

CARTESIAN COORDINATES (ANGSTROEM)
---------------------------------
  C      2.916324   -1.242589   -1.543125
  C      0.704661    1.443129   -4.503630
  C      1.728539    1.424320   -5.639443
  H      2.646718    1.953794   -5.381054
  H      1.299916    1.930613   -6.503614
  S      2.252625   -0.188115   -6.271840
  C      3.466585   -1.590971   -2.889082
  N      4.652275   -1.143164   -3.259692
  C      2.752264   -2.292043   -3.728029
  H      1.778364   -2.489604   -3.512738
  H      2.948612   -2.208544   -4.716813
  H      5.146723   -0.512508   -2.633852
  H      4.783030   -1.007203   -4.253498
  O      3.562607   -0.444464   -5.631552
  F      2.344944   -0.033742   -7.696501
  C      2.804084    0.290698   -1.359243
  C      1.052550    0.695659   -3.214915
  H     -0.232483    1.032925   -4.884449
  H      0.511700    2.495794   -4.267966
  C      2.388380    1.093669   -2.597108
  H      3.763425    0.674718   -0.999889
  H      2.094788    0.461222   -0.545756
  O      1.266058   -1.159177   -5.805365
  H      3.167316    1.013242   -3.359430
  H      2.357690    2.149375   -2.310997
  H      1.039284   -0.368429   -3.449329
  H      0.250787    0.865605   -2.488283
  H      1.940472   -1.716529   -1.441161
  H      3.558569   -1.663433   -0.766371

 Total Charge           Charge          ....    0
 Multiplicity           Mult            ....    1
 Number of Electrons    NEL             ....  112
 Basis Dimension        Dim             ....  505

ORBITAL ENERGIES
----------------

  NO   OCC          E(Eh)            E(eV)
   0   2.0000     -88.527565     -2408.9575
   1   2.0000     -24.585087      -668.9942
   2   2.0000     -18.952509      -515.7240
   3   2.0000     -18.949197      -515.6339
   4   2.0000     -14.137607      -384.7038
   5   2.0000     -10.133976      -275.7595
   6   2.0000     -10.095655      -274.7167
   7   2.0000     -10.064046      -273.8566
   8   2.0000     -10.063161      -273.8325
   9   2.0000     -10.062985      -273.8277
  10   2.0000     -10.062182      -273.8059
  11   2.0000     -10.054216      -273.5891
  12   2.0000      -9.971025      -271.3254
  13   2.0000      -8.070052      -219.5973
  14   2.0000      -6.101683      -166.0352
  15   2.0000      -6.094913      -165.8510
  16   2.0000      -6.094694      -165.8450
  17   2.0000      -1.477477       -40.2042
  18   2.0000      -1.204421       -32.7740
  19   2.0000      -1.104873       -30.0651
  20   2.0000      -1.009084       -27.4586
  21   2.0000      -0.948061       -25.7980
  22   2.0000      -0.904606       -24.6156
  23   2.0000      -0.867023       -23.5929
  24   2.0000      -0.835003       -22.7216
  25   2.0000      -0.812398       -22.1065
  26   2.0000      -0.780485       -21.2381
  27   2.0000      -0.735764       -20.0211
  28   2.0000      -0.705977       -19.2106
  29   2.0000      -0.700065       -19.0497
  30   2.0000      -0.676079       -18.3970
  31   2.0000      -0.668283       -18.1849
  32   2.0000      -0.638847       -17.3839
  33   2.0000      -0.612268       -16.6607
  34   2.0000      -0.604595       -16.4519
  35   2.0000      -0.600838       -16.3496
  36   2.0000      -0.576510       -15.6876
  37   2.0000      -0.561571       -15.2811
  38   2.0000      -0.551883       -15.0175
  39   2.0000      -0.544113       -14.8061
  40   2.0000      -0.529783       -14.4161
  41   2.0000      -0.510984       -13.9046
  42   2.0000      -0.501969       -13.6593
  43   2.0000      -0.484110       -13.1733
  44   2.0000      -0.479912       -13.0591
  45   2.0000      -0.469222       -12.7682
  46   2.0000      -0.456638       -12.4257
  47   2.0000      -0.449821       -12.2403
  48   2.0000      -0.439630       -11.9629
  49   2.0000      -0.426185       -11.5971
  50   2.0000      -0.421375       -11.4662
  51   2.0000      -0.415614       -11.3094
  52   2.0000      -0.411678       -11.2023
  53   2.0000      -0.402141       -10.9428
  54   2.0000      -0.393006       -10.6942
  55   2.0000      -0.265413        -7.2223
  56   0.0000       0.079605         2.1662
  57   0.0000       0.092152         2.5076
  58   0.0000       0.099262         2.7011
  59   0.0000       0.116180         3.1614
  60   0.0000       0.121288         3.3004

MULLIKEN ATOMIC CHARGES
-----------------------
   0 C :   -0.285956
   1 C :   -0.253308
   2 C :   -0.365832
   3 H :    0.196190
   4 H :    0.179613
   5 S :    0.816014
   6 C :    0.155350
   7 N :   -0.364108
   8 C :   -0.436216
   9 H :    0.097577
  10 H :    0.096917
  11 H :    0.212173
  12 H :    0.237018
  13 O :   -0.445893
  14 F :   -0.063412
  15 C :   -0.311444
  16 C :   -0.241256
  17 H :    0.160047
  18 H :    0.146571
  19 C :   -0.254737
  20 H :    0.141593
  21 H :    0.129153
  22 O :   -0.382828
  23 H :    0.135297
  24 H :    0.122781
  25 H :    0.162016
  26 H :    0.130597
  27 H :    0.144243
  28 H :    0.141837
Sum of atomic charges:   -0.0000000

LOEWDIN ATOMIC CHARGES
----------------------
   0 C :   -0.226397
   1 C :   -0.287665
   2 C :   -0.377172
   3 H :    0.148834
   4 H :    0.142400
   5 S :    0.530883
   6 C :   -0.390769
   7 N :   -0.002251
   8 C :   -0.283269
   9 H :    0.102915
  10 H :    0.097560
  11 H :    0.163718
  12 H :    0.166643
  13 O :   -0.290643
  14 F :    0.121566
  15 C :   -0.270843
  16 C :   -0.275245
  17 H :    0.150964
  18 H :    0.151571
  19 C :   -0.279666
  20 H :    0.137061
  21 H :    0.140831
  22 O :   -0.240401
  23 H :    0.139352
  24 H :    0.138559
  25 H :    0.152273
  26 H :    0.143046
  27 H :    0.151264
  28 H :    0.144883

  Mayer bond orders larger than 0.100000
B(  0-C ,  6-C ) :   0.9011 B(  0-C , 15-C ) :   0.8850 B(  0-C , 27-H ) :   0.9896
B(  0-C , 28-H ) :   0.9946 B(  1-C ,  2-C ) :   0.9054 B(  1-C , 16-C ) :   0.9326
B(  1-C , 17-H ) :   0.9818 B(  1-C , 18-H ) :   0.9631 B(  2-C ,  3-H ) :   0.9389
B(  2-C ,  4-H ) :   0.9541 B(  2-C ,  5-S ) :   0.9184 B(  5-S , 13-O ) :   1.8241
B(  5-S , 14-F ) :   1.2065 B(  5-S , 22-O ) :   1.9269 B(  6-C ,  7-N ) :   1.1388
B(  6-C ,  8-C ) :   1.6930 B(  7-N , 11-H ) :   0.9430 B(  7-N , 12-H ) :   0.9164
B(  8-C ,  9-H ) :   1.0301 B(  8-C , 10-H ) :   1.0281 B( 15-C , 19-C ) :   0.9045
B( 15-C , 20-H ) :   1.0009 B( 15-C , 21-H ) :   0.9789 B( 16-C , 19-C ) :   0.8511
B( 16-C , 25-H ) :   0.9775 B( 16-C , 26-H ) :   0.9783 B( 19-C , 23-H ) :   0.9818
B( 19-C , 24-H ) :   0.9812

FINAL SINGLE POINT ENERGY     -1016.246617647711

DIPOLE MOMENT
-------------
                                X             Y             Z
Electronic contribution:      1.33493      -3.42449     -22.23142
Nuclear contribution   :     -1.74760       5.67788      21.66873
                        -----------------------------------------
Total Dipole Moment    :     -0.41268       2.25339      -0.56270
                        -----------------------------------------
Magnitude (a.u.)       :      2.35896
Magnitude (Debye)      :      5.99599

Rotational constants in cm-1:     0.036818     0.018222     0.014682
Rotational constants in MHz :  1103.783048   546.296792   440.157914

                             ****ORCA TERMINATED NORMALLY****
TOTAL RUN TIME: 0 days 0 hours 1 minutes 3 seconds 885 msec
