                         Program Version 5.0.0 -  RELEASE  -
|  1> !PBE D3BJ RIJCOSX def2-SVP def2/J TightSCF
|  2> *xyz -1 1
|  3> C          0.70466        1.44313       -4.50363
|  4> C          1.72854        1.42432       -5.63944
|  5> H          2.64672        1.95379       -5.38105
|  6> H          1.29992        1.93061       -6.50361
|  7> S          2.25263       -0.18811       -6.27184
|  8> O          3.56261       -0.44446       -5.63155
|  9> O          2.34494       -0.03374       -7.69650
| 10> O          1.26606       -1.15918       -5.80536
| 11> H         -0.17385        0.91270       -4.80656
| 12> H          0.44778        2.45562       -4.27173
| 13> H          1.12367        0.97423       -3.63791
| 14> *
| 15>
| 16> %MaxCore 64000
| 17>
| 18> %pal nprocs 4
| 19> end
| 20>
| 21> %scf
| 22>   MaxIter 150
| 23> end
| 24>
| 25>
| 26>                          ****END OF INPUT****

CARTESIAN COORDINATES (ANGSTROEM)
---------------------------------
  C      0.704660    1.443130   -4.503630
  C      1.728540    1.424320   -5.639440
  H      2.646720    1.953790   -5.381050
  H      1.299920    1.930610   -6.503610
  S      2.252630   -0.188110   -6.271840
  O      3.562610   -0.444460   -5.631550
  O      2.344940   -0.033740   -7.696500
  O      1.266060   -1.159180   -5.805360
  H     -0.173850    0.912700   -4.806560
  H      0.447780    2.455620   -4.271730
  H      1.123670    0.974230   -3.637910

 Total Charge           Charge          ....   -1
 Multiplicity           Mult            ....    1
 Number of Electrons    NEL             ....   58
 Basis Dimension        Dim             ....  113

ORBITAL ENERGIES
----------------

  NO   OCC          E(Eh)            E(eV)
   0   2.0000     -88.007410     -2394.8034
   1   2.0000     -18.505188      -503.5518
   2   2.0000     -18.499428      -503.3950
   3   2.0000     -18.487530      -503.0713
   4   2.0000      -9.744288      -265.1556
   5   2.0000      -9.734630      -264.8928
   6   2.0000      -7.619055      -207.3250
   7   2.0000      -5.645518      -153.6223
   8   2.0000      -5.645384      -153.6187
   9   2.0000      -5.645133      -153.6119
  10   2.0000      -0.804507       -21.8918
  11   2.0000      -0.668658       -18.1951
  12   2.0000      -0.644408       -17.5352
  13   2.0000      -0.540290       -14.7020
  14   2.0000      -0.423497       -11.5239
  15   2.0000      -0.298431        -8.1207
  16   2.0000      -0.254764        -6.9325
  17   2.0000      -0.237134        -6.4527
  18   2.0000      -0.207357        -5.6425
  19   2.0000      -0.184480        -5.0200
  20   2.0000      -0.178279        -4.8512
  21   2.0000      -0.160620        -4.3707
  22   2.0000      -0.154409        -4.2017
  23   2.0000      -0.064763        -1.7623
  24   2.0000      -0.063551        -1.7293
  25   2.0000      -0.037038        -1.0078
  26   2.0000      -0.031434        -0.8554
  27   2.0000      -0.015791        -0.4297
  28   2.0000       0.019174         0.5217
  29   0.0000       0.181785         4.9466
  30   0.0000       0.235570         6.4102
  31   0.0000       0.237245         6.4558
  32   0.0000       0.244934         6.6650
  33   0.0000       0.263931         7.1819

MULLIKEN ATOMIC CHARGES
-----------------------
   0 C :    0.027423
   1 C :   -0.112173
   2 H :    0.001364
   3 H :   -0.007214
   4 S :    0.746299
   5 O :   -0.572234
   6 O :   -0.520714
   7 O :   -0.537854
   8 H :    0.004915
   9 H :   -0.034910
  10 H :    0.005098
Sum of atomic charges:   -1.0000000

LOEWDIN ATOMIC CHARGES
----------------------
   0 C :   -0.079380
   1 C :   -0.202133
   2 H :    0.008074
   3 H :    0.004014
   4 S :    1.028479
   5 O :   -0.624500
   6 O :   -0.572847
   7 O :   -0.593969
   8 H :    0.015060
   9 H :    0.001252
  10 H :    0.015951

  Mayer bond orders larger than 0.100000
B(  0-C ,  1-C ) :   1.0894 B(  0-C ,  8-H ) :   0.9587 B(  0-C ,  9-H ) :   0.9494
B(  0-C , 10-H ) :   0.9637 B(  1-C ,  2-H ) :   0.9357 B(  1-C ,  3-H ) :   0.9340
B(  1-C ,  4-S ) :   0.8528 B(  4-S ,  5-O ) :   1.6077 B(  4-S ,  6-O ) :   1.6560
B(  4-S ,  7-O ) :   1.6377

Dispersion correction           -0.009551711
FINAL SINGLE POINT ENERGY      -702.218642358607

DIPOLE MOMENT
-------------
                                X             Y             Z
Electronic contribution:      3.76927      -5.87677      -4.42362
Nuclear contribution   :     -4.50297       7.24642       5.01775
                        -----------------------------------------
Total Dipole Moment    :     -0.73371       1.36964       0.59414
                        -----------------------------------------
Magnitude (a.u.)       :      1.66351
Magnitude (Debye)      :      4.22829

Rotational constants in cm-1:     0.162459     0.081286     0.079601
Rotational constants in MHz :  4870.394399  2436.893583  2386.374948

                             ****ORCA TERMINATED NORMALLY****
TOTAL RUN TIME: 0 days 0 hours 0 minutes 9 seconds 235 msec
