                         Program Version 5.0.0 -  RELEASE  -
|  1> !PBE D3BJ RIJCOSX def2-SVP def2/J TightSCF
|  2> *xyz 1 1
|  3> C          2.91632       -1.24259       -1.54313
|  4> C          3.46659       -1.59097       -2.88908
|  5> N          4.65227       -1.14316       -3.25969
|  6> N          2.75226       -2.29204       -3.72803
|  7> H          1.77836       -2.48960       -3.51274
|  8> H          2.94861       -2.20854       -4.71681
|  9> H          5.14672       -0.51251       -2.63385
| 10> H          4.78303       -1.00720       -4.25350
| 11> C          2.80408        0.29070       -1.35924
| 12> H          1.94047       -1.71653       -1.44116
| 13> H          3.55857       -1.66343       -0.76637
| 14> H          2.17393        0.69633       -2.12297
| 15> H          3.77707        0.73043       -1.42880
| 16> H          2.38369        0.50492       -0.39889
| 17> *
| 18>
| 19> %MaxCore 64000
| 20>
| 21> %pal nprocs 4
| 22> end
| 23>
| 24> %scf
| 25>   MaxIter 150
| 26> end
| 27>
| 28>
| 29>                          ****END OF INPUT****

CARTESIAN COORDINATES (ANGSTROEM)
---------------------------------
  C      2.916320   -1.242590   -1.543130
  C      3.466590   -1.590970   -2.889080
  N      4.652270   -1.143160   -3.259690
  N      2.752260   -2.292040   -3.728030
  H      1.778360   -2.489600   -3.512740
  H      2.948610   -2.208540   -4.716810
  H      5.146720   -0.512510   -2.633850
  H      4.783030   -1.007200   -4.253500
  C      2.804080    0.290700   -1.359240
  H      1.940470   -1.716530   -1.441160
  H      3.558570   -1.663430   -0.766370
  H      2.173930    0.696330   -2.122970
  H      3.777070    0.730430   -1.428800
  H      2.383690    0.504920   -0.398890

 Total Charge           Charge          ....    1
 Multiplicity           Mult            ....    1
 Number of Electrons    NEL             ....   40
 Basis Dimension        Dim             ....  115

ORBITAL ENERGIES
----------------

  NO   OCC          E(Eh)            E(eV)
   0   2.0000     -14.246637      -387.6707
   1   2.0000     -14.241778      -387.5385
   2   2.0000     -10.207755      -277.7671
   3   2.0000     -10.095965      -274.7252
   4   2.0000     -10.058471      -273.7049
   5   2.0000      -1.119688       -30.4682
   6   2.0000      -1.026065       -27.9206
   7   2.0000      -0.893598       -24.3160
   8   2.0000      -0.797094       -21.6900
   9   2.0000      -0.756128       -20.5753
  10   2.0000      -0.717357       -19.5203
  11   2.0000      -0.695757       -18.9325
  12   2.0000      -0.650799       -17.7091
  13   2.0000      -0.615401       -16.7459
  14   2.0000      -0.577140       -15.7048
  15   2.0000      -0.554282       -15.0828
  16   2.0000      -0.510571       -13.8934
  17   2.0000      -0.498606       -13.5678
  18   2.0000      -0.486027       -13.2255
  19   2.0000      -0.457869       -12.4592
  20   0.0000      -0.249627        -6.7927
  21   0.0000      -0.169100        -4.6014
  22   0.0000      -0.129858        -3.5336
  23   0.0000      -0.125482        -3.4146
  24   0.0000      -0.094311        -2.5663

MULLIKEN ATOMIC CHARGES
-----------------------
   0 C :    0.010537
   1 C :   -0.138031
   2 N :    0.052890
   3 N :    0.066837
   4 H :    0.178152
   5 H :    0.162224
   6 H :    0.173031
   7 H :    0.166964
   8 C :   -0.018090
   9 H :    0.053692
  10 H :    0.103454
  11 H :    0.056849
  12 H :    0.044908
  13 H :    0.086583
Sum of atomic charges:    1.0000000

LOEWDIN ATOMIC CHARGES
----------------------
   0 C :   -0.036020
   1 C :    0.117305
   2 N :    0.110734
   3 N :    0.124011
   4 H :    0.120969
   5 H :    0.109714
   6 H :    0.116482
   7 H :    0.109657
   8 C :   -0.027426
   9 H :    0.053585
  10 H :    0.072471
  11 H :    0.039986
  12 H :    0.030550
  13 H :    0.057981

  Mayer bond orders larger than 0.100000
B(  0-C ,  1-C ) :   1.0475 B(  0-C ,  8-C ) :   1.0806 B(  0-C ,  9-H ) :   0.9102
B(  0-C , 10-H ) :   0.9042 B(  1-C ,  2-N ) :   1.4959 B(  1-C ,  3-N ) :   1.5294
B(  2-N ,  6-H ) :   0.9224 B(  2-N ,  7-H ) :   0.9286 B(  3-N ,  4-H ) :   0.9169
B(  3-N ,  5-H ) :   0.9290 B(  8-C , 11-H ) :   0.9668 B(  8-C , 12-H ) :   0.9666
B(  8-C , 13-H ) :   0.9528

Dispersion correction           -0.010225062
FINAL SINGLE POINT ENERGY      -228.568826517859

DIPOLE MOMENT
-------------
                                X             Y             Z
Electronic contribution:      1.33806      -2.86214      -2.83936
Nuclear contribution   :     -1.30215       2.77761       1.84194
                        -----------------------------------------
Total Dipole Moment    :      0.03591      -0.08453      -0.99743
                        -----------------------------------------
Magnitude (a.u.)       :      1.00165
Magnitude (Debye)      :      2.54599

Rotational constants in cm-1:     0.267442     0.127541     0.099068
Rotational constants in MHz :  8017.703171  3823.592522  2969.992494

                             ****ORCA TERMINATED NORMALLY****
TOTAL RUN TIME: 0 days 0 hours 0 minutes 9 seconds 677 msec
