                         Program Version 5.0.0 -  RELEASE  -
|  1> !PBE D3BJ RIJCOSX def2-TZVP def2/J TightSCF xyzfile
|  2>
|  3> *xyzfile 0 1 B.xyz
|  4>
|  5> %MaxCore 64000
|  6>
|  7> %pal nprocs 18
|  8> end
|  9>
| 10> %scf
| 11>   MaxIter 150
| 12> end
| 13>
| 14>
| 15>                          ****END OF INPUT****

CARTESIAN COORDINATES (ANGSTROEM)
---------------------------------
  C      2.916324   -1.242589   -1.543125
  C      0.704661    1.443129   -4.503630
  C      1.728539    1.424320   -5.639443
  H      2.646718    1.953794   -5.381054
  H      1.299916    1.930613   -6.503614
  S      2.252625   -0.188115   -6.271840
  C      3.466585   -1.590971   -2.889082
  N      4.652275   -1.143164   -3.259692
  N      2.752264   -2.292043   -3.728029
  H      1.778364   -2.489604   -3.512738
  H      2.948612   -2.208544   -4.716813
  H      5.146723   -0.512508   -2.633852
  H      4.783030   -1.007203   -4.253498
  O      3.562607   -0.444464   -5.631552
  O      2.344944   -0.033742   -7.696501
  C      2.804084    0.290698   -1.359243
  C      1.052550    0.695659   -3.214915
  H     -0.232483    1.032925   -4.884449
  H      0.511700    2.495794   -4.267966
  C      2.388380    1.093669   -2.597108
  H      3.763425    0.674718   -0.999889
  H      2.094788    0.461222   -0.545756
  O      1.266058   -1.159177   -5.805365
  H      3.167316    1.013242   -3.359430
  H      2.357690    2.149375   -2.310997
  H      1.039284   -0.368429   -3.449329
  H      0.250787    0.865605   -2.488283
  H      1.940472   -1.716529   -1.441161
  H      3.558569   -1.663433   -0.766371

 Total Charge           Charge          ....    0
 Multiplicity           Mult            ....    1
 Number of Electrons    NEL             ....  112
 Basis Dimension        Dim             ....  505

ORBITAL ENERGIES
----------------

  NO   OCC          E(Eh)            E(eV)
   0   2.0000     -88.162842     -2399.0329
   1   2.0000     -18.687389      -508.5097
   2   2.0000     -18.680426      -508.3202
   3   2.0000     -18.670655      -508.0543
   4   2.0000     -14.055035      -382.4569
   5   2.0000     -14.053902      -382.4261
   6   2.0000     -10.028751      -272.8962
   7   2.0000      -9.943632      -270.5800
   8   2.0000      -9.923445      -270.0307
   9   2.0000      -9.895174      -269.2614
  10   2.0000      -9.882368      -268.9129
  11   2.0000      -9.877884      -268.7909
  12   2.0000      -9.874048      -268.6865
  13   2.0000      -7.758156      -211.1102
  14   2.0000      -5.779058      -157.2562
  15   2.0000      -5.778523      -157.2416
  16   2.0000      -5.777200      -157.2056
  17   2.0000      -0.987150       -26.8617
  18   2.0000      -0.956694       -26.0330
  19   2.0000      -0.864876       -23.5345
  20   2.0000      -0.854384       -23.2490
  21   2.0000      -0.851510       -23.1708
  22   2.0000      -0.772025       -21.0079
  23   2.0000      -0.726667       -19.7736
  24   2.0000      -0.683057       -18.5869
  25   2.0000      -0.634543       -17.2668
  26   2.0000      -0.611748       -16.6465
  27   2.0000      -0.577396       -15.7117
  28   2.0000      -0.548037       -14.9128
  29   2.0000      -0.534418       -14.5423
  30   2.0000      -0.523243       -14.2382
  31   2.0000      -0.485212       -13.2033
  32   2.0000      -0.474070       -12.9001
  33   2.0000      -0.459023       -12.4906
  34   2.0000      -0.446758       -12.1569
  35   2.0000      -0.422051       -11.4846
  36   2.0000      -0.412853       -11.2343
  37   2.0000      -0.396031       -10.7765
  38   2.0000      -0.386552       -10.5186
  39   2.0000      -0.382323       -10.4035
  40   2.0000      -0.376867       -10.2551
  41   2.0000      -0.365539        -9.9468
  42   2.0000      -0.352048        -9.5797
  43   2.0000      -0.341475        -9.2920
  44   2.0000      -0.332605        -9.0506
  45   2.0000      -0.328507        -8.9391
  46   2.0000      -0.303752        -8.2655
  47   2.0000      -0.297825        -8.1042
  48   2.0000      -0.285596        -7.7715
  49   2.0000      -0.284040        -7.7291
  50   2.0000      -0.258808        -7.0425
  51   2.0000      -0.253464        -6.8971
  52   2.0000      -0.221097        -6.0163
  53   2.0000      -0.216882        -5.9016
  54   2.0000      -0.209446        -5.6993
  55   2.0000      -0.178109        -4.8466
  56   0.0000      -0.089829        -2.4444
  57   0.0000      -0.034424        -0.9367
  58   0.0000      -0.005268        -0.1433
  59   0.0000       0.014394         0.3917
  60   0.0000       0.024579         0.6688

MULLIKEN ATOMIC CHARGES
-----------------------
   0 C :   -0.212890
   1 C :   -0.115522
   2 C :   -0.296877
   3 H :    0.113038
   4 H :    0.136212
   5 S :    0.734635
   6 C :    0.179477
   7 N :   -0.289472
   8 N :   -0.237409
   9 H :    0.253716
  10 H :    0.259826
  11 H :    0.248023
  12 H :    0.284228
  13 O :   -0.585520
  14 O :   -0.430226
  15 C :   -0.260027
  16 C :   -0.193042
  17 H :    0.105473
  18 H :    0.084744
  19 C :   -0.140044
  20 H :    0.125124
  21 H :    0.113820
  22 O :   -0.508732
  23 H :    0.109705
  24 H :    0.096567
  25 H :    0.066115
  26 H :    0.084192
  27 H :    0.127980
  28 H :    0.146888
Sum of atomic charges:   -0.0000000

LOEWDIN ATOMIC CHARGES
----------------------
   0 C :   -0.215349
   1 C :   -0.290040
   2 C :   -0.394766
   3 H :    0.128160
   4 H :    0.139337
   5 S :    0.384561
   6 C :   -0.343530
   7 N :    0.100916
   8 N :    0.134850
   9 H :    0.190670
  10 H :    0.180946
  11 H :    0.188366
  12 H :    0.182504
  13 O :   -0.391409
  14 O :   -0.286983
  15 C :   -0.256461
  16 C :   -0.277000
  17 H :    0.146311
  18 H :    0.139006
  19 C :   -0.272647
  20 H :    0.138495
  21 H :    0.147143
  22 O :   -0.339799
  23 H :    0.142216
  24 H :    0.142881
  25 H :    0.132711
  26 H :    0.136574
  27 H :    0.153425
  28 H :    0.158915

  Mayer bond orders larger than 0.100000
B(  0-C ,  6-C ) :   1.0298 B(  0-C , 15-C ) :   0.9545 B(  0-C , 27-H ) :   0.9478
B(  0-C , 28-H ) :   0.9404 B(  1-C ,  2-C ) :   0.9915 B(  1-C , 16-C ) :   1.0197
B(  1-C , 17-H ) :   0.9420 B(  1-C , 18-H ) :   0.9348 B(  2-C ,  3-H ) :   0.9491
B(  2-C ,  4-H ) :   0.9398 B(  2-C ,  5-S ) :   0.8865 B(  5-S , 13-O ) :   1.5403
B(  5-S , 14-O ) :   1.9780 B(  5-S , 22-O ) :   1.7205 B(  6-C ,  7-N ) :   1.4195
B(  6-C ,  8-N ) :   1.5259 B(  7-N , 11-H ) :   0.9075 B(  7-N , 12-H ) :   0.8458
B(  8-N ,  9-H ) :   0.8940 B(  8-N , 10-H ) :   0.8401 B( 15-C , 19-C ) :   0.9816
B( 15-C , 20-H ) :   0.9646 B( 15-C , 21-H ) :   0.9415 B( 16-C , 19-C ) :   0.9857
B( 16-C , 25-H ) :   0.9372 B( 16-C , 26-H ) :   0.9386 B( 19-C , 23-H ) :   0.9472
B( 19-C , 24-H ) :   0.9398

Dispersion correction           -0.036776482
FINAL SINGLE POINT ENERGY     -1009.152727042664

DIPOLE MOMENT
-------------
                                X             Y             Z
Electronic contribution:      2.78487      -6.36504     -13.52554
Nuclear contribution   :     -1.90023       6.18953      17.82209
                        -----------------------------------------
Total Dipole Moment    :      0.88464      -0.17552       4.29655
                        -----------------------------------------
Magnitude (a.u.)       :      4.39018
Magnitude (Debye)      :     11.15896

Rotational constants in cm-1:     0.036337     0.018755     0.015005
Rotational constants in MHz :  1089.341704   562.266628   449.834770

                             ****ORCA TERMINATED NORMALLY****
TOTAL RUN TIME: 0 days 0 hours 0 minutes 21 seconds 123 msec
