                         Program Version 5.0.0 -  RELEASE  -
|  1> !PBE D3BJ RIJCOSX def2-SVP def2/J TightSCF
|  2> *xyz 0 1
|  3> C          0.70466        1.44313       -4.50363
|  4> C          1.72854        1.42432       -5.63944
|  5> H          2.64672        1.95379       -5.38105
|  6> H          1.29992        1.93061       -6.50361
|  7> S          2.25263       -0.18811       -6.27184
|  8> F          3.56261       -0.44446       -5.63155
|  9> O          2.34494       -0.03374       -7.69650
| 10> O          1.26606       -1.15918       -5.80536
| 11> H         -0.17385        0.91270       -4.80656
| 12> H          0.44778        2.45562       -4.27173
| 13> H          1.12367        0.97423       -3.63791
| 14> *
| 15>
| 16> %MaxCore 64000
| 17>
| 18> %pal nprocs 4
| 19> end
| 20>
| 21> %scf
| 22>   MaxIter 150
| 23> end
| 24>
| 25>
| 26>                          ****END OF INPUT****

CARTESIAN COORDINATES (ANGSTROEM)
---------------------------------
  C      0.704660    1.443130   -4.503630
  C      1.728540    1.424320   -5.639440
  H      2.646720    1.953790   -5.381050
  H      1.299920    1.930610   -6.503610
  S      2.252630   -0.188110   -6.271840
  F      3.562610   -0.444460   -5.631550
  O      2.344940   -0.033740   -7.696500
  O      1.266060   -1.159180   -5.805360
  H     -0.173850    0.912700   -4.806560
  H      0.447780    2.455620   -4.271730
  H      1.123670    0.974230   -3.637910

 Total Charge           Charge          ....    0
 Multiplicity           Mult            ....    1
 Number of Electrons    NEL             ....   58
 Basis Dimension        Dim             ....  113

ORBITAL ENERGIES
----------------

  NO   OCC          E(Eh)            E(eV)
   0   2.0000     -88.278604     -2402.1830
   1   2.0000     -24.347588      -662.5315
   2   2.0000     -18.757805      -510.4258
   3   2.0000     -18.751376      -510.2509
   4   2.0000      -9.946528      -270.6588
   5   2.0000      -9.912200      -269.7247
   6   2.0000      -7.892708      -214.7715
   7   2.0000      -5.923133      -161.1766
   8   2.0000      -5.916980      -161.0092
   9   2.0000      -5.915738      -160.9754
  10   2.0000      -1.225524       -33.3482
  11   2.0000      -1.010376       -27.4937
  12   2.0000      -0.916572       -24.9412
  13   2.0000      -0.738206       -20.0876
  14   2.0000      -0.645329       -17.5603
  15   2.0000      -0.596292       -16.2259
  16   2.0000      -0.507950       -13.8220
  17   2.0000      -0.485203       -13.2030
  18   2.0000      -0.477512       -12.9938
  19   2.0000      -0.435057       -11.8385
  20   2.0000      -0.417689       -11.3659
  21   2.0000      -0.392451       -10.6791
  22   2.0000      -0.374214       -10.1829
  23   2.0000      -0.354163        -9.6373
  24   2.0000      -0.345654        -9.4057
  25   2.0000      -0.325644        -8.8612
  26   2.0000      -0.277545        -7.5524
  27   2.0000      -0.272801        -7.4233
  28   2.0000      -0.255272        -6.9463
  29   0.0000       0.003283         0.0893
  30   0.0000       0.020866         0.5678
  31   0.0000       0.051309         1.3962
  32   0.0000       0.052348         1.4245
  33   0.0000       0.074749         2.0340

MULLIKEN ATOMIC CHARGES
-----------------------
   0 C :    0.012817
   1 C :   -0.166445
   2 H :    0.064135
   3 H :    0.085646
   4 S :    0.842949
   5 F :   -0.173896
   6 O :   -0.386887
   7 O :   -0.409043
   8 H :    0.054361
   9 H :    0.038020
  10 H :    0.038343
Sum of atomic charges:   -0.0000000

LOEWDIN ATOMIC CHARGES
----------------------
   0 C :   -0.059954
   1 C :   -0.167287
   2 H :    0.033332
   3 H :    0.047762
   4 S :    1.092375
   5 F :   -0.138858
   6 O :   -0.444107
   7 O :   -0.467762
   8 H :    0.036389
   9 H :    0.037066
  10 H :    0.031044

  Mayer bond orders larger than 0.100000
B(  0-C ,  1-C ) :   1.0881 B(  0-C ,  8-H ) :   0.9635 B(  0-C ,  9-H ) :   0.9518
B(  0-C , 10-H ) :   0.9688 B(  1-C ,  2-H ) :   0.9271 B(  1-C ,  3-H ) :   0.9319
B(  1-C ,  4-S ) :   0.8885 B(  4-S ,  5-F ) :   1.0037 B(  4-S ,  6-O ) :   1.8072
B(  4-S ,  7-O ) :   1.7913

Dispersion correction           -0.009128552
FINAL SINGLE POINT ENERGY      -726.730595718637

DIPOLE MOMENT
-------------
                                X             Y             Z
Electronic contribution:      6.32905      -6.62265      -3.79252
Nuclear contribution   :     -6.09914       7.80989       4.64238
                        -----------------------------------------
Total Dipole Moment    :      0.22992       1.18724       0.84987
                        -----------------------------------------
Magnitude (a.u.)       :      1.47806
Magnitude (Debye)      :      3.75694

Rotational constants in cm-1:     0.154372     0.078826     0.078033
Rotational constants in MHz :  4627.943144  2363.154585  2339.382767

                             ****ORCA TERMINATED NORMALLY****
TOTAL RUN TIME: 0 days 0 hours 0 minutes 8 seconds 632 msec
