                         Program Version 5.0.0 -  RELEASE  -
|  1> !PBE D3BJ RIJCOSX def2-SVP def2/J TightSCF
|  2> *xyz 0 1
|  3> C          2.91632       -1.24259       -1.54313
|  4> C          3.46659       -1.59097       -2.88908
|  5> C          4.65227       -1.14316       -3.25969
|  6> N          2.75226       -2.29204       -3.72803
|  7> H          1.77836       -2.48960       -3.51274
|  8> H          2.94861       -2.20854       -4.71681
|  9> H          5.14672       -0.51251       -2.63385
| 10> H          4.78303       -1.00720       -4.25350
| 11> C          2.80408        0.29070       -1.35924
| 12> H          1.94047       -1.71653       -1.44116
| 13> H          3.55857       -1.66343       -0.76637
| 14> H          2.17393        0.69633       -2.12297
| 15> H          3.77707        0.73043       -1.42880
| 16> H          2.38369        0.50492       -0.39889
| 17> *
| 18>
| 19> %MaxCore 64000
| 20>
| 21> %pal nprocs 4
| 22> end
| 23>
| 24> %scf
| 25>   MaxIter 150
| 26> end
| 27>
| 28>
| 29>                          ****END OF INPUT****

CARTESIAN COORDINATES (ANGSTROEM)
---------------------------------
  C      2.916320   -1.242590   -1.543130
  C      3.466590   -1.590970   -2.889080
  C      4.652270   -1.143160   -3.259690
  N      2.752260   -2.292040   -3.728030
  H      1.778360   -2.489600   -3.512740
  H      2.948610   -2.208540   -4.716810
  H      5.146720   -0.512510   -2.633850
  H      4.783030   -1.007200   -4.253500
  C      2.804080    0.290700   -1.359240
  H      1.940470   -1.716530   -1.441160
  H      3.558570   -1.663430   -0.766370
  H      2.173930    0.696330   -2.122970
  H      3.777070    0.730430   -1.428800
  H      2.383690    0.504920   -0.398890

 Total Charge           Charge          ....    0
 Multiplicity           Mult            ....    1
 Number of Electrons    NEL             ....   40
 Basis Dimension        Dim             ....  115

ORBITAL ENERGIES
----------------

  NO   OCC          E(Eh)            E(eV)
   0   2.0000     -13.996173      -380.8552
   1   2.0000      -9.904444      -269.5136
   2   2.0000      -9.894546      -269.2443
   3   2.0000      -9.880732      -268.8684
   4   2.0000      -9.818919      -267.1864
   5   2.0000      -0.842122       -22.9153
   6   2.0000      -0.698405       -19.0046
   7   2.0000      -0.630691       -17.1620
   8   2.0000      -0.571431       -15.5494
   9   2.0000      -0.502035       -13.6611
  10   2.0000      -0.465033       -12.6542
  11   2.0000      -0.422002       -11.4832
  12   2.0000      -0.396432       -10.7875
  13   2.0000      -0.357141        -9.7183
  14   2.0000      -0.339582        -9.2405
  15   2.0000      -0.326678        -8.8894
  16   2.0000      -0.309228        -8.4145
  17   2.0000      -0.295993        -8.0544
  18   2.0000      -0.277406        -7.5486
  19   2.0000      -0.149116        -4.0577
  20   0.0000       0.017354         0.4722
  21   0.0000       0.029228         0.7953
  22   0.0000       0.071427         1.9436
  23   0.0000       0.073361         1.9963
  24   0.0000       0.099769         2.7148

MULLIKEN ATOMIC CHARGES
-----------------------
   0 C :    0.048013
   1 C :   -0.191488
   2 C :   -0.026190
   3 N :   -0.017614
   4 H :    0.095762
   5 H :    0.103121
   6 H :   -0.041000
   7 H :   -0.047528
   8 C :    0.001969
   9 H :   -0.016370
  10 H :    0.034076
  11 H :    0.016842
  12 H :    0.028457
  13 H :    0.011949
Sum of atomic charges:    0.0000000

LOEWDIN ATOMIC CHARGES
----------------------
   0 C :   -0.034743
   1 C :   -0.015683
   2 C :   -0.180548
   3 N :    0.021338
   4 H :    0.065839
   5 H :    0.073767
   6 H :   -0.003034
   7 H :   -0.006353
   8 C :   -0.047042
   9 H :    0.017205
  10 H :    0.039799
  11 H :    0.023231
  12 H :    0.025350
  13 H :    0.020873

  Mayer bond orders larger than 0.100000
B(  0-C ,  1-C ) :   1.0287 B(  0-C ,  8-C ) :   1.1093 B(  0-C ,  9-H ) :   0.9197
B(  0-C , 10-H ) :   0.9236 B(  1-C ,  2-C ) :   1.8272 B(  1-C ,  3-N ) :   1.3030
B(  2-C ,  6-H ) :   0.9423 B(  2-C ,  7-H ) :   0.9444 B(  3-N ,  4-H ) :   0.9431
B(  3-N ,  5-H ) :   0.9440 B(  8-C , 11-H ) :   0.9678 B(  8-C , 12-H ) :   0.9698
B(  8-C , 13-H ) :   0.9575

Dispersion correction           -0.010613096
FINAL SINGLE POINT ENERGY      -212.108907010781

DIPOLE MOMENT
-------------
                                X             Y             Z
Electronic contribution:      0.06660      -2.80736      -1.87141
Nuclear contribution   :     -0.99366       2.78648       1.68526
                        -----------------------------------------
Total Dipole Moment    :     -0.92705      -0.02088      -0.18615
                        -----------------------------------------
Magnitude (a.u.)       :      0.94579
Magnitude (Debye)      :      2.40401

Rotational constants in cm-1:     0.282898     0.128664     0.101801
Rotational constants in MHz :  8481.061354  3857.240210  3051.924245

                             ****ORCA TERMINATED NORMALLY****
TOTAL RUN TIME: 0 days 0 hours 0 minutes 9 seconds 135 msec
