                         Program Version 5.0.0 -  RELEASE  -
|  1> !PBE D3BJ RIJCOSX def2-SVP def2/J TightSCF
|  2> *xyz 0 1
|  3> C          0.70466        1.44313       -4.50363
|  4> C          1.72854        1.42432       -5.63944
|  5> H          2.64672        1.95379       -5.38105
|  6> H          1.29992        1.93061       -6.50361
|  7> S          2.25263       -0.18811       -6.27184
|  8> O          3.56261       -0.44446       -5.63155
|  9> F          2.34494       -0.03374       -7.69650
| 10> O          1.26606       -1.15918       -5.80536
| 11> H         -0.17385        0.91270       -4.80656
| 12> H          0.44778        2.45562       -4.27173
| 13> H          1.12367        0.97423       -3.63791
| 14> *
| 15>
| 16> %MaxCore 64000
| 17>
| 18> %pal nprocs 4
| 19> end
| 20>
| 21> %scf
| 22>   MaxIter 150
| 23> end
| 24>
| 25>
| 26>                          ****END OF INPUT****

CARTESIAN COORDINATES (ANGSTROEM)
---------------------------------
  C      0.704660    1.443130   -4.503630
  C      1.728540    1.424320   -5.639440
  H      2.646720    1.953790   -5.381050
  H      1.299920    1.930610   -6.503610
  S      2.252630   -0.188110   -6.271840
  O      3.562610   -0.444460   -5.631550
  F      2.344940   -0.033740   -7.696500
  O      1.266060   -1.159180   -5.805360
  H     -0.173850    0.912700   -4.806560
  H      0.447780    2.455620   -4.271730
  H      1.123670    0.974230   -3.637910

 Total Charge           Charge          ....    0
 Multiplicity           Mult            ....    1
 Number of Electrons    NEL             ....   58
 Basis Dimension        Dim             ....  113

ORBITAL ENERGIES
----------------

  NO   OCC          E(Eh)            E(eV)
   0   2.0000     -88.280113     -2402.2240
   1   2.0000     -24.370701      -663.1605
   2   2.0000     -18.750652      -510.2312
   3   2.0000     -18.741060      -509.9702
   4   2.0000      -9.947474      -270.6845
   5   2.0000      -9.912778      -269.7404
   6   2.0000      -7.894246      -214.8134
   7   2.0000      -5.924952      -161.2261
   8   2.0000      -5.918253      -161.0438
   9   2.0000      -5.917019      -161.0103
  10   2.0000      -1.263558       -34.3831
  11   2.0000      -0.996292       -27.1105
  12   2.0000      -0.895582       -24.3700
  13   2.0000      -0.738859       -20.1054
  14   2.0000      -0.658746       -17.9254
  15   2.0000      -0.604819       -16.4580
  16   2.0000      -0.518760       -14.1162
  17   2.0000      -0.512457       -13.9447
  18   2.0000      -0.484249       -13.1771
  19   2.0000      -0.437160       -11.8957
  20   2.0000      -0.417832       -11.3698
  21   2.0000      -0.385321       -10.4851
  22   2.0000      -0.370751       -10.0886
  23   2.0000      -0.356300        -9.6954
  24   2.0000      -0.340496        -9.2654
  25   2.0000      -0.319496        -8.6939
  26   2.0000      -0.270626        -7.3641
  27   2.0000      -0.258831        -7.0432
  28   2.0000      -0.238115        -6.4794
  29   0.0000       0.002034         0.0553
  30   0.0000       0.017972         0.4890
  31   0.0000       0.046453         1.2641
  32   0.0000       0.053149         1.4463
  33   0.0000       0.073616         2.0032

MULLIKEN ATOMIC CHARGES
-----------------------
   0 C :    0.016591
   1 C :   -0.158479
   2 H :    0.080357
   3 H :    0.053184
   4 S :    0.831474
   5 O :   -0.430899
   6 F :   -0.128002
   7 O :   -0.403338
   8 H :    0.045714
   9 H :    0.039733
  10 H :    0.053665
Sum of atomic charges:   -0.0000000

LOEWDIN ATOMIC CHARGES
----------------------
   0 C :   -0.053721
   1 C :   -0.165417
   2 H :    0.042613
   3 H :    0.028479
   4 S :    1.084443
   5 O :   -0.489239
   6 F :   -0.092280
   7 O :   -0.464120
   8 H :    0.034045
   9 H :    0.038023
  10 H :    0.037173

  Mayer bond orders larger than 0.100000
B(  0-C ,  1-C ) :   1.0997 B(  0-C ,  8-H ) :   0.9615 B(  0-C ,  9-H ) :   0.9526
B(  0-C , 10-H ) :   0.9685 B(  1-C ,  2-H ) :   0.9271 B(  1-C ,  3-H ) :   0.9257
B(  1-C ,  4-S ) :   0.8897 B(  4-S ,  5-O ) :   1.7575 B(  4-S ,  6-F ) :   1.0539
B(  4-S ,  7-O ) :   1.7849

Dispersion correction           -0.009140731
FINAL SINGLE POINT ENERGY      -726.709924752027

DIPOLE MOMENT
-------------
                                X             Y             Z
Electronic contribution:      4.27104      -5.93831      -7.24330
Nuclear contribution   :     -4.83029       7.38191       6.79413
                        -----------------------------------------
Total Dipole Moment    :     -0.55925       1.44359      -0.44918
                        -----------------------------------------
Magnitude (a.u.)       :      1.61198
Magnitude (Debye)      :      4.09733

Rotational constants in cm-1:     0.156575     0.079070     0.076729
Rotational constants in MHz :  4694.010604  2370.444114  2300.280155

                             ****ORCA TERMINATED NORMALLY****
TOTAL RUN TIME: 0 days 0 hours 0 minutes 7 seconds 792 msec
