                         Program Version 5.0.0 -  RELEASE  -
|  1> !PBE D3BJ RIJCOSX def2-SVP def2/J TightSCF
|  2> *xyz 0 1
|  3> C          2.91632       -1.24259       -1.54313
|  4> C          3.46659       -1.59097       -2.88908
|  5> N          4.65227       -1.14316       -3.25969
|  6> C          2.75226       -2.29204       -3.72803
|  7> H          1.77836       -2.48960       -3.51274
|  8> H          2.94861       -2.20854       -4.71681
|  9> H          5.14672       -0.51251       -2.63385
| 10> H          4.78303       -1.00720       -4.25350
| 11> C          2.80408        0.29070       -1.35924
| 12> H          1.94047       -1.71653       -1.44116
| 13> H          3.55857       -1.66343       -0.76637
| 14> H          2.17393        0.69633       -2.12297
| 15> H          3.77707        0.73043       -1.42880
| 16> H          2.38369        0.50492       -0.39889
| 17> *
| 18>
| 19> %MaxCore 64000
| 20>
| 21> %pal nprocs 4
| 22> end
| 23>
| 24> %scf
| 25>   MaxIter 150
| 26> end
| 27>
| 28>
| 29>                          ****END OF INPUT****

CARTESIAN COORDINATES (ANGSTROEM)
---------------------------------
  C      2.916320   -1.242590   -1.543130
  C      3.466590   -1.590970   -2.889080
  N      4.652270   -1.143160   -3.259690
  C      2.752260   -2.292040   -3.728030
  H      1.778360   -2.489600   -3.512740
  H      2.948610   -2.208540   -4.716810
  H      5.146720   -0.512510   -2.633850
  H      4.783030   -1.007200   -4.253500
  C      2.804080    0.290700   -1.359240
  H      1.940470   -1.716530   -1.441160
  H      3.558570   -1.663430   -0.766370
  H      2.173930    0.696330   -2.122970
  H      3.777070    0.730430   -1.428800
  H      2.383690    0.504920   -0.398890

 Total Charge           Charge          ....    0
 Multiplicity           Mult            ....    1
 Number of Electrons    NEL             ....   40
 Basis Dimension        Dim             ....  115

ORBITAL ENERGIES
----------------

  NO   OCC          E(Eh)            E(eV)
   0   2.0000     -13.993056      -380.7704
   1   2.0000      -9.903392      -269.4850
   2   2.0000      -9.892842      -269.1979
   3   2.0000      -9.886660      -269.0297
   4   2.0000      -9.823007      -267.2976
   5   2.0000      -0.837810       -22.7980
   6   2.0000      -0.696553       -18.9542
   7   2.0000      -0.641629       -17.4596
   8   2.0000      -0.564326       -15.3561
   9   2.0000      -0.501949       -13.6587
  10   2.0000      -0.469279       -12.7697
  11   2.0000      -0.419625       -11.4186
  12   2.0000      -0.386338       -10.5128
  13   2.0000      -0.380898       -10.3648
  14   2.0000      -0.335869        -9.1395
  15   2.0000      -0.332071        -9.0361
  16   2.0000      -0.310399        -8.4464
  17   2.0000      -0.295008        -8.0276
  18   2.0000      -0.272597        -7.4177
  19   2.0000      -0.155962        -4.2439
  20   0.0000       0.018476         0.5027
  21   0.0000       0.026448         0.7197
  22   0.0000       0.072846         1.9822
  23   0.0000       0.079507         2.1635
  24   0.0000       0.095493         2.5985

MULLIKEN ATOMIC CHARGES
-----------------------
   0 C :    0.055211
   1 C :   -0.180391
   2 N :   -0.029878
   3 C :   -0.020432
   4 H :   -0.039999
   5 H :   -0.052714
   6 H :    0.095575
   7 H :    0.110615
   8 C :   -0.007892
   9 H :    0.005473
  10 H :    0.016198
  11 H :    0.023185
  12 H :    0.003744
  13 H :    0.021305
Sum of atomic charges:   -0.0000000

LOEWDIN ATOMIC CHARGES
----------------------
   0 C :   -0.033821
   1 C :   -0.014872
   2 N :    0.008306
   3 C :   -0.167586
   4 H :    0.000131
   5 H :   -0.006671
   6 H :    0.065235
   7 H :    0.075304
   8 C :   -0.054273
   9 H :    0.034854
  10 H :    0.026518
  11 H :    0.026487
  12 H :    0.014019
  13 H :    0.026368

  Mayer bond orders larger than 0.100000
B(  0-C ,  1-C ) :   1.0561 B(  0-C ,  8-C ) :   1.0964 B(  0-C ,  9-H ) :   0.9165
B(  0-C , 10-H ) :   0.9183 B(  1-C ,  2-N ) :   1.2776 B(  1-C ,  3-C ) :   1.8595
B(  2-N ,  6-H ) :   0.9503 B(  2-N ,  7-H ) :   0.9442 B(  3-C ,  4-H ) :   0.9283
B(  3-C ,  5-H ) :   0.9427 B(  8-C , 11-H ) :   0.9665 B(  8-C , 12-H ) :   0.9671
B(  8-C , 13-H ) :   0.9610

Dispersion correction           -0.010589082
FINAL SINGLE POINT ENERGY      -212.112335516848

DIPOLE MOMENT
-------------
                                X             Y             Z
Electronic contribution:      1.83189      -1.72297      -1.43552
Nuclear contribution   :     -1.43372       2.52039       1.57679
                        -----------------------------------------
Total Dipole Moment    :      0.39817       0.79741       0.14127
                        -----------------------------------------
Magnitude (a.u.)       :      0.90242
Magnitude (Debye)      :      2.29378

Rotational constants in cm-1:     0.274962     0.131786     0.102554
Rotational constants in MHz :  8243.150005  3950.846092  3074.493018

                             ****ORCA TERMINATED NORMALLY****
TOTAL RUN TIME: 0 days 0 hours 0 minutes 8 seconds 262 msec
