                         Program Version 5.0.0 -  RELEASE  -
|  1> !PBE D3BJ RIJCOSX def2-SVP def2/J TightSCF
|  2> *xyz 0 1
|  3> C          0.70466        1.44313       -4.50363
|  4> C          1.72854        1.42432       -5.63944
|  5> H          2.64672        1.95379       -5.38105
|  6> H          1.29992        1.93061       -6.50361
|  7> S          2.25263       -0.18811       -6.27184
|  8> O          3.56261       -0.44446       -5.63155
|  9> O          2.34494       -0.03374       -7.69650
| 10> F          1.26606       -1.15918       -5.80536
| 11> H         -0.17385        0.91270       -4.80656
| 12> H          0.44778        2.45562       -4.27173
| 13> H          1.12367        0.97423       -3.63791
| 14> *
| 15>
| 16> %MaxCore 64000
| 17>
| 18> %pal nprocs 4
| 19> end
| 20>
| 21> %scf
| 22>   MaxIter 150
| 23> end
| 24>
| 25>
| 26>                          ****END OF INPUT****

CARTESIAN COORDINATES (ANGSTROEM)
---------------------------------
  C      0.704660    1.443130   -4.503630
  C      1.728540    1.424320   -5.639440
  H      2.646720    1.953790   -5.381050
  H      1.299920    1.930610   -6.503610
  S      2.252630   -0.188110   -6.271840
  O      3.562610   -0.444460   -5.631550
  O      2.344940   -0.033740   -7.696500
  F      1.266060   -1.159180   -5.805360
  H     -0.173850    0.912700   -4.806560
  H      0.447780    2.455620   -4.271730
  H      1.123670    0.974230   -3.637910

 Total Charge           Charge          ....    0
 Multiplicity           Mult            ....    1
 Number of Electrons    NEL             ....   58
 Basis Dimension        Dim             ....  113

ORBITAL ENERGIES
----------------

  NO   OCC          E(Eh)            E(eV)
   0   2.0000     -88.278515     -2402.1805
   1   2.0000     -24.359329      -662.8510
   2   2.0000     -18.757234      -510.4103
   3   2.0000     -18.740569      -509.9568
   4   2.0000      -9.946264      -270.6516
   5   2.0000      -9.919779      -269.9309
   6   2.0000      -7.892695      -214.7712
   7   2.0000      -5.923371      -161.1831
   8   2.0000      -5.916802      -161.0044
   9   2.0000      -5.915532      -160.9698
  10   2.0000      -1.242770       -33.8175
  11   2.0000      -1.005804       -27.3693
  12   2.0000      -0.903501       -24.5855
  13   2.0000      -0.742073       -20.1928
  14   2.0000      -0.648501       -17.6466
  15   2.0000      -0.605832       -16.4855
  16   2.0000      -0.520812       -14.1720
  17   2.0000      -0.498197       -13.5566
  18   2.0000      -0.471757       -12.8372
  19   2.0000      -0.440594       -11.9892
  20   2.0000      -0.413211       -11.2441
  21   2.0000      -0.395608       -10.7651
  22   2.0000      -0.378082       -10.2881
  23   2.0000      -0.362710        -9.8698
  24   2.0000      -0.345692        -9.4067
  25   2.0000      -0.324112        -8.8195
  26   2.0000      -0.276807        -7.5323
  27   2.0000      -0.259526        -7.0621
  28   2.0000      -0.244479        -6.6526
  29   0.0000      -0.007387        -0.2010
  30   0.0000       0.032712         0.8901
  31   0.0000       0.049333         1.3424
  32   0.0000       0.052682         1.4335
  33   0.0000       0.076888         2.0922

MULLIKEN ATOMIC CHARGES
-----------------------
   0 C :   -0.016171
   1 C :   -0.150387
   2 H :    0.093045
   3 H :    0.073411
   4 S :    0.836364
   5 O :   -0.434293
   6 O :   -0.383252
   7 F :   -0.151149
   8 H :    0.037552
   9 H :    0.046793
  10 H :    0.048087
Sum of atomic charges:   -0.0000000

LOEWDIN ATOMIC CHARGES
----------------------
   0 C :   -0.067764
   1 C :   -0.160817
   2 H :    0.051030
   3 H :    0.038915
   4 S :    1.089378
   5 O :   -0.493063
   6 O :   -0.441821
   7 F :   -0.115884
   8 H :    0.027959
   9 H :    0.040127
  10 H :    0.031941

  Mayer bond orders larger than 0.100000
B(  0-C ,  1-C ) :   1.0798 B(  0-C ,  8-H ) :   0.9687 B(  0-C ,  9-H ) :   0.9553
B(  0-C , 10-H ) :   0.9684 B(  1-C ,  2-H ) :   0.9296 B(  1-C ,  3-H ) :   0.9304
B(  1-C ,  4-S ) :   0.9025 B(  4-S ,  5-O ) :   1.7617 B(  4-S ,  6-O ) :   1.8036
B(  4-S ,  7-F ) :   1.0288

Dispersion correction           -0.009086514
FINAL SINGLE POINT ENERGY      -726.719675062372

DIPOLE MOMENT
-------------
                                X             Y             Z
Electronic contribution:      2.47074      -7.78530      -4.07277
Nuclear contribution   :     -3.70606       8.55465       4.82350
                        -----------------------------------------
Total Dipole Moment    :     -1.23532       0.76935       0.75073
                        -----------------------------------------
Magnitude (a.u.)       :      1.63753
Magnitude (Debye)      :      4.16226

Rotational constants in cm-1:     0.153201     0.080978     0.077494
Rotational constants in MHz :  4592.852844  2427.650814  2323.207507

                             ****ORCA TERMINATED NORMALLY****
TOTAL RUN TIME: 0 days 0 hours 0 minutes 7 seconds 815 msec
