                         Program Version 5.0.0 -  RELEASE  -
|  1> !PBE D3BJ RIJCOSX def2-TZVP def2/J TightSCF xyzfile
|  2>
|  3> *xyzfile 0 1 D2.xyz
|  4>
|  5> %MaxCore 64000
|  6>
|  7> %pal nprocs 18
|  8> end
|  9>
| 10> %scf
| 11>   MaxIter 150
| 12> end
| 13>
| 14>
| 15>                          ****END OF INPUT****

CARTESIAN COORDINATES (ANGSTROEM)
---------------------------------
  C      2.916324   -1.242589   -1.543125
  C      0.704661    1.443129   -4.503630
  C      1.728539    1.424320   -5.639443
  H      2.646718    1.953794   -5.381054
  H      1.299916    1.930613   -6.503614
  S      2.252625   -0.188115   -6.271840
  C      3.466585   -1.590971   -2.889082
  N      4.652275   -1.143164   -3.259692
  C      2.752264   -2.292043   -3.728029
  H      1.778364   -2.489604   -3.512738
  H      2.948612   -2.208544   -4.716813
  H      5.146723   -0.512508   -2.633852
  H      4.783030   -1.007203   -4.253498
  F      3.562607   -0.444464   -5.631552
  O      2.344944   -0.033742   -7.696501
  C      2.804084    0.290698   -1.359243
  C      1.052550    0.695659   -3.214915
  H     -0.232483    1.032925   -4.884449
  H      0.511700    2.495794   -4.267966
  C      2.388380    1.093669   -2.597108
  H      3.763425    0.674718   -0.999889
  H      2.094788    0.461222   -0.545756
  O      1.266058   -1.159177   -5.805365
  H      3.167316    1.013242   -3.359430
  H      2.357690    2.149375   -2.310997
  H      1.039284   -0.368429   -3.449329
  H      0.250787    0.865605   -2.488283
  H      1.940472   -1.716529   -1.441161
  H      3.558569   -1.663433   -0.766371

 Total Charge           Charge          ....    0
 Multiplicity           Mult            ....    1
 Number of Electrons    NEL             ....  112
 Basis Dimension        Dim             ....  505

ORBITAL ENERGIES
----------------

  NO   OCC          E(Eh)            E(eV)
   0   2.0000     -88.266256     -2401.8469
   1   2.0000     -24.359167      -662.8466
   2   2.0000     -18.763933      -510.5926
   3   2.0000     -18.755221      -510.3555
   4   2.0000     -13.982677      -380.4880
   5   2.0000      -9.937137      -270.4033
   6   2.0000      -9.904986      -269.5284
   7   2.0000      -9.892211      -269.1808
   8   2.0000      -9.888965      -269.0924
   9   2.0000      -9.886557      -269.0269
  10   2.0000      -9.881931      -268.9010
  11   2.0000      -9.881611      -268.8923
  12   2.0000      -9.807370      -266.8721
  13   2.0000      -7.862201      -213.9414
  14   2.0000      -5.886852      -160.1894
  15   2.0000      -5.879969      -160.0021
  16   2.0000      -5.879496      -159.9892
  17   2.0000      -1.253774       -34.1169
  18   2.0000      -1.022204       -27.8156
  19   2.0000      -0.932830       -25.3836
  20   2.0000      -0.853639       -23.2287
  21   2.0000      -0.761450       -20.7201
  22   2.0000      -0.728791       -19.8314
  23   2.0000      -0.690807       -18.7978
  24   2.0000      -0.664955       -18.0944
  25   2.0000      -0.642214       -17.4755
  26   2.0000      -0.614972       -16.7342
  27   2.0000      -0.566307       -15.4100
  28   2.0000      -0.536543       -14.6001
  29   2.0000      -0.511854       -13.9283
  30   2.0000      -0.506875       -13.7928
  31   2.0000      -0.500413       -13.6169
  32   2.0000      -0.491397       -13.3716
  33   2.0000      -0.472644       -12.8613
  34   2.0000      -0.441776       -12.0213
  35   2.0000      -0.440315       -11.9816
  36   2.0000      -0.426719       -11.6116
  37   2.0000      -0.414217       -11.2714
  38   2.0000      -0.403575       -10.9818
  39   2.0000      -0.395100       -10.7512
  40   2.0000      -0.387034       -10.5317
  41   2.0000      -0.371416       -10.1067
  42   2.0000      -0.359123        -9.7722
  43   2.0000      -0.342880        -9.3303
  44   2.0000      -0.340267        -9.2591
  45   2.0000      -0.337468        -9.1830
  46   2.0000      -0.324512        -8.8304
  47   2.0000      -0.313837        -8.5399
  48   2.0000      -0.304209        -8.2780
  49   2.0000      -0.293185        -7.9780
  50   2.0000      -0.288053        -7.8383
  51   2.0000      -0.286477        -7.7954
  52   2.0000      -0.278610        -7.5814
  53   2.0000      -0.273609        -7.4453
  54   2.0000      -0.268242        -7.2992
  55   2.0000      -0.162695        -4.4272
  56   0.0000      -0.018847        -0.5129
  57   0.0000      -0.004895        -0.1332
  58   0.0000       0.004624         0.1258
  59   0.0000       0.007035         0.1914
  60   0.0000       0.027045         0.7359

MULLIKEN ATOMIC CHARGES
-----------------------
   0 C :   -0.183553
   1 C :   -0.116066
   2 C :   -0.315352
   3 H :    0.143233
   4 H :    0.168338
   5 S :    0.751791
   6 C :    0.109894
   7 N :   -0.370179
   8 C :   -0.363966
   9 H :    0.086376
  10 H :    0.064245
  11 H :    0.217424
  12 H :    0.210830
  13 F :   -0.104287
  14 O :   -0.356593
  15 C :   -0.249693
  16 C :   -0.237793
  17 H :    0.119331
  18 H :    0.100704
  19 C :   -0.110543
  20 H :    0.108548
  21 H :    0.097947
  22 O :   -0.368975
  23 H :    0.063429
  24 H :    0.086944
  25 H :    0.134592
  26 H :    0.087915
  27 H :    0.114555
  28 H :    0.110905
Sum of atomic charges:    0.0000000

LOEWDIN ATOMIC CHARGES
----------------------
   0 C :   -0.219594
   1 C :   -0.283384
   2 C :   -0.376471
   3 H :    0.136423
   4 H :    0.151644
   5 S :    0.493492
   6 C :   -0.398914
   7 N :    0.011216
   8 C :   -0.269286
   9 H :    0.106346
  10 H :    0.090774
  11 H :    0.166331
  12 H :    0.158567
  13 F :    0.072234
  14 O :   -0.226251
  15 C :   -0.263281
  16 C :   -0.272755
  17 H :    0.149001
  18 H :    0.146771
  19 C :   -0.274346
  20 H :    0.134618
  21 H :    0.140341
  22 O :   -0.222711
  23 H :    0.129198
  24 H :    0.137674
  25 H :    0.148190
  26 H :    0.140020
  27 H :    0.151052
  28 H :    0.143100

  Mayer bond orders larger than 0.100000
B(  0-C ,  6-C ) :   0.9998 B(  0-C , 15-C ) :   0.9618 B(  0-C , 27-H ) :   0.9516
B(  0-C , 28-H ) :   0.9575 B(  1-C ,  2-C ) :   0.9829 B(  1-C , 16-C ) :   1.0022
B(  1-C , 17-H ) :   0.9467 B(  1-C , 18-H ) :   0.9266 B(  2-C ,  3-H ) :   0.9349
B(  2-C ,  4-H ) :   0.9336 B(  2-C ,  5-S ) :   0.8977 B(  5-S , 13-F ) :   1.0879
B(  5-S , 14-O ) :   2.0162 B(  5-S , 22-O ) :   1.9071 B(  6-C ,  7-N ) :   1.1666
B(  6-C ,  8-C ) :   1.7404 B(  7-N , 11-H ) :   0.9265 B(  7-N , 12-H ) :   0.9144
B(  8-C ,  9-H ) :   0.9840 B(  8-C , 10-H ) :   1.0095 B( 15-C , 19-C ) :   0.9959
B( 15-C , 20-H ) :   0.9634 B( 15-C , 21-H ) :   0.9447 B( 16-C , 19-C ) :   0.9705
B( 16-C , 25-H ) :   0.9583 B( 16-C , 26-H ) :   0.9389 B( 19-C , 23-H ) :   0.9456
B( 19-C , 24-H ) :   0.9433

Dispersion correction           -0.036591106
FINAL SINGLE POINT ENERGY     -1017.027565246223

DIPOLE MOMENT
-------------
                                X             Y             Z
Electronic contribution:      3.50297      -4.34470     -18.33454
Nuclear contribution   :     -3.13969       6.14743      19.30799
                        -----------------------------------------
Total Dipole Moment    :      0.36328       1.80273       0.97346
                        -----------------------------------------
Magnitude (a.u.)       :      2.08072
Magnitude (Debye)      :      5.28878

Rotational constants in cm-1:     0.036460     0.018762     0.015014
Rotational constants in MHz :  1093.039020   562.475626   450.105862

                             ****ORCA TERMINATED NORMALLY****
TOTAL RUN TIME: 0 days 0 hours 0 minutes 22 seconds 437 msec
