                         Program Version 5.0.0 -  RELEASE  -
|  1> !PBE D3BJ RIJCOSX def2-TZVP def2/J TightSCF xyzfile
|  2>
|  3> *xyzfile 0 1 D4.xyz
|  4>
|  5> %MaxCore 64000
|  6>
|  7> %pal nprocs 18
|  8> end
|  9>
| 10> %scf
| 11>   MaxIter 150
| 12> end
| 13>
| 14>
| 15>                          ****END OF INPUT****

CARTESIAN COORDINATES (ANGSTROEM)
---------------------------------
  C      2.916324   -1.242589   -1.543125
  C      0.704661    1.443129   -4.503630
  C      1.728539    1.424320   -5.639443
  H      2.646718    1.953794   -5.381054
  H      1.299916    1.930613   -6.503614
  S      2.252625   -0.188115   -6.271840
  C      3.466585   -1.590971   -2.889082
  N      4.652275   -1.143164   -3.259692
  C      2.752264   -2.292043   -3.728029
  H      1.778364   -2.489604   -3.512738
  H      2.948612   -2.208544   -4.716813
  H      5.146723   -0.512508   -2.633852
  H      4.783030   -1.007203   -4.253498
  O      3.562607   -0.444464   -5.631552
  F      2.344944   -0.033742   -7.696501
  C      2.804084    0.290698   -1.359243
  C      1.052550    0.695659   -3.214915
  H     -0.232483    1.032925   -4.884449
  H      0.511700    2.495794   -4.267966
  C      2.388380    1.093669   -2.597108
  H      3.763425    0.674718   -0.999889
  H      2.094788    0.461222   -0.545756
  O      1.266058   -1.159177   -5.805365
  H      3.167316    1.013242   -3.359430
  H      2.357690    2.149375   -2.310997
  H      1.039284   -0.368429   -3.449329
  H      0.250787    0.865605   -2.488283
  H      1.940472   -1.716529   -1.441161
  H      3.558569   -1.663433   -0.766371

 Total Charge           Charge          ....    0
 Multiplicity           Mult            ....    1
 Number of Electrons    NEL             ....  112
 Basis Dimension        Dim             ....  505

ORBITAL ENERGIES
----------------

  NO   OCC          E(Eh)            E(eV)
   0   2.0000     -88.274670     -2402.0759
   1   2.0000     -24.380325      -663.4224
   2   2.0000     -18.760776      -510.5067
   3   2.0000     -18.757896      -510.4283
   4   2.0000     -13.956560      -379.7773
   5   2.0000      -9.940778      -270.5023
   6   2.0000      -9.906678      -269.5744
   7   2.0000      -9.877151      -268.7709
   8   2.0000      -9.875705      -268.7316
   9   2.0000      -9.874969      -268.7116
  10   2.0000      -9.871609      -268.6201
  11   2.0000      -9.867307      -268.5031
  12   2.0000      -9.784925      -266.2614
  13   2.0000      -7.870277      -214.1611
  14   2.0000      -5.894525      -160.3982
  15   2.0000      -5.888116      -160.2238
  16   2.0000      -5.887890      -160.2176
  17   2.0000      -1.286499       -35.0074
  18   2.0000      -1.015692       -27.6384
  19   2.0000      -0.922904       -25.1135
  20   2.0000      -0.828818       -22.5533
  21   2.0000      -0.760371       -20.6908
  22   2.0000      -0.721058       -19.6210
  23   2.0000      -0.687608       -18.7108
  24   2.0000      -0.658867       -17.9287
  25   2.0000      -0.636806       -17.3284
  26   2.0000      -0.605131       -16.4665
  27   2.0000      -0.563417       -15.3314
  28   2.0000      -0.533833       -14.5263
  29   2.0000      -0.527771       -14.3614
  30   2.0000      -0.509018       -13.8511
  31   2.0000      -0.504351       -13.7241
  32   2.0000      -0.479867       -13.0578
  33   2.0000      -0.455377       -12.3915
  34   2.0000      -0.443127       -12.0581
  35   2.0000      -0.441112       -12.0033
  36   2.0000      -0.417230       -11.3534
  37   2.0000      -0.405801       -11.0424
  38   2.0000      -0.398824       -10.8525
  39   2.0000      -0.393200       -10.6995
  40   2.0000      -0.378857       -10.3092
  41   2.0000      -0.361275        -9.8308
  42   2.0000      -0.352740        -9.5986
  43   2.0000      -0.337475        -9.1831
  44   2.0000      -0.331950        -9.0328
  45   2.0000      -0.323561        -8.8045
  46   2.0000      -0.314154        -8.5486
  47   2.0000      -0.307220        -8.3599
  48   2.0000      -0.292568        -7.9612
  49   2.0000      -0.285213        -7.7610
  50   2.0000      -0.280457        -7.6316
  51   2.0000      -0.276095        -7.5129
  52   2.0000      -0.268510        -7.3065
  53   2.0000      -0.260839        -7.0978
  54   2.0000      -0.253884        -6.9085
  55   2.0000      -0.141090        -3.8393
  56   0.0000      -0.018836        -0.5126
  57   0.0000      -0.006972        -0.1897
  58   0.0000       0.010571         0.2876
  59   0.0000       0.018167         0.4943
  60   0.0000       0.028280         0.7695

MULLIKEN ATOMIC CHARGES
-----------------------
   0 C :   -0.185901
   1 C :   -0.131160
   2 C :   -0.301382
   3 H :    0.156042
   4 H :    0.144347
   5 S :    0.756092
   6 C :    0.121600
   7 N :   -0.373817
   8 C :   -0.366623
   9 H :    0.073429
  10 H :    0.080494
  11 H :    0.205858
  12 H :    0.230847
  13 O :   -0.418987
  14 F :   -0.051420
  15 C :   -0.248754
  16 C :   -0.213451
  17 H :    0.113399
  18 H :    0.103953
  19 C :   -0.122647
  20 H :    0.104835
  21 H :    0.090634
  22 O :   -0.362244
  23 H :    0.090820
  24 H :    0.078812
  25 H :    0.127968
  26 H :    0.084793
  27 H :    0.108329
  28 H :    0.104135
Sum of atomic charges:   -0.0000000

LOEWDIN ATOMIC CHARGES
----------------------
   0 C :   -0.222813
   1 C :   -0.280714
   2 C :   -0.378358
   3 H :    0.144318
   4 H :    0.137951
   5 S :    0.491210
   6 C :   -0.397426
   7 N :    0.014298
   8 C :   -0.275742
   9 H :    0.101159
  10 H :    0.095373
  11 H :    0.161526
  12 H :    0.164359
  13 O :   -0.270275
  14 F :    0.125489
  15 C :   -0.264858
  16 C :   -0.269353
  17 H :    0.147264
  18 H :    0.148408
  19 C :   -0.273947
  20 H :    0.134077
  21 H :    0.137603
  22 O :   -0.219058
  23 H :    0.136823
  24 H :    0.134893
  25 H :    0.149041
  26 H :    0.139182
  27 H :    0.148665
  28 H :    0.140904

  Mayer bond orders larger than 0.100000
B(  0-C ,  6-C ) :   1.0115 B(  0-C , 15-C ) :   0.9631 B(  0-C , 27-H ) :   0.9515
B(  0-C , 28-H ) :   0.9581 B(  1-C ,  2-C ) :   0.9927 B(  1-C , 16-C ) :   1.0077
B(  1-C , 17-H ) :   0.9477 B(  1-C , 18-H ) :   0.9279 B(  2-C ,  3-H ) :   0.9317
B(  2-C ,  4-H ) :   0.9298 B(  2-C ,  5-S ) :   0.9018 B(  5-S , 13-O ) :   1.8320
B(  5-S , 14-F ) :   1.1927 B(  5-S , 22-O ) :   1.9325 B(  6-C ,  7-N ) :   1.1832
B(  6-C ,  8-C ) :   1.7420 B(  7-N , 11-H ) :   0.9302 B(  7-N , 12-H ) :   0.9001
B(  8-C ,  9-H ) :   0.9838 B(  8-C , 10-H ) :   0.9943 B( 15-C , 19-C ) :   0.9993
B( 15-C , 20-H ) :   0.9622 B( 15-C , 21-H ) :   0.9447 B( 16-C , 19-C ) :   0.9678
B( 16-C , 25-H ) :   0.9538 B( 16-C , 26-H ) :   0.9401 B( 19-C , 23-H ) :   0.9448
B( 19-C , 24-H ) :   0.9412

Dispersion correction           -0.036971258
FINAL SINGLE POINT ENERGY     -1017.014208167978

DIPOLE MOMENT
-------------
                                X             Y             Z
Electronic contribution:      1.41742      -3.56812     -22.22185
Nuclear contribution   :     -1.74760       5.67788      21.66873
                        -----------------------------------------
Total Dipole Moment    :     -0.33018       2.10975      -0.55313
                        -----------------------------------------
Magnitude (a.u.)       :      2.20591
Magnitude (Debye)      :      5.60697

Rotational constants in cm-1:     0.036818     0.018222     0.014682
Rotational constants in MHz :  1103.783048   546.296792   440.157914

                             ****ORCA TERMINATED NORMALLY****
TOTAL RUN TIME: 0 days 0 hours 0 minutes 22 seconds 621 msec
