                         Program Version 5.0.0 -  RELEASE  -
|  1> !PBE D3BJ RIJCOSX def2-TZVP def2/J TightSCF xyzfile
|  2>
|  3> *xyzfile 0 1 D5.xyz
|  4>
|  5> %MaxCore 64000
|  6>
|  7> %pal nprocs 18
|  8> end
|  9>
| 10> %scf
| 11>   MaxIter 150
| 12> end
| 13>
| 14>
| 15>                          ****END OF INPUT****

CARTESIAN COORDINATES (ANGSTROEM)
---------------------------------
  C      2.916324   -1.242589   -1.543125
  C      0.704661    1.443129   -4.503630
  C      1.728539    1.424320   -5.639443
  H      2.646718    1.953794   -5.381054
  H      1.299916    1.930613   -6.503614
  S      2.252625   -0.188115   -6.271840
  C      3.466585   -1.590971   -2.889082
  C      4.652275   -1.143164   -3.259692
  N      2.752264   -2.292043   -3.728029
  H      1.778364   -2.489604   -3.512738
  H      2.948612   -2.208544   -4.716813
  H      5.146723   -0.512508   -2.633852
  H      4.783030   -1.007203   -4.253498
  O      3.562607   -0.444464   -5.631552
  O      2.344944   -0.033742   -7.696501
  C      2.804084    0.290698   -1.359243
  C      1.052550    0.695659   -3.214915
  H     -0.232483    1.032925   -4.884449
  H      0.511700    2.495794   -4.267966
  C      2.388380    1.093669   -2.597108
  H      3.763425    0.674718   -0.999889
  H      2.094788    0.461222   -0.545756
  F      1.266058   -1.159177   -5.805365
  H      3.167316    1.013242   -3.359430
  H      2.357690    2.149375   -2.310997
  H      1.039284   -0.368429   -3.449329
  H      0.250787    0.865605   -2.488283
  H      1.940472   -1.716529   -1.441161
  H      3.558569   -1.663433   -0.766371

 Total Charge           Charge          ....    0
 Multiplicity           Mult            ....    1
 Number of Electrons    NEL             ....  112
 Basis Dimension        Dim             ....  505

ORBITAL ENERGIES
----------------

  NO   OCC          E(Eh)            E(eV)
   0   2.0000     -88.274889     -2402.0818
   1   2.0000     -24.374882      -663.2743
   2   2.0000     -18.770481      -510.7708
   3   2.0000     -18.758540      -510.4458
   4   2.0000     -13.974576      -380.2675
   5   2.0000      -9.941739      -270.5285
   6   2.0000      -9.915016      -269.8013
   7   2.0000      -9.893212      -269.2080
   8   2.0000      -9.883617      -268.9469
   9   2.0000      -9.881457      -268.8881
  10   2.0000      -9.879658      -268.8392
  11   2.0000      -9.878471      -268.8069
  12   2.0000      -9.791002      -266.4267
  13   2.0000      -7.870942      -214.1792
  14   2.0000      -5.895457      -160.4235
  15   2.0000      -5.888660      -160.2386
  16   2.0000      -5.888341      -160.2299
  17   2.0000      -1.273806       -34.6620
  18   2.0000      -1.026342       -27.9282
  19   2.0000      -0.933449       -25.4004
  20   2.0000      -0.847333       -23.0571
  21   2.0000      -0.768828       -20.9209
  22   2.0000      -0.727953       -19.8086
  23   2.0000      -0.692635       -18.8476
  24   2.0000      -0.659412       -17.9435
  25   2.0000      -0.638179       -17.3657
  26   2.0000      -0.613658       -16.6985
  27   2.0000      -0.576663       -15.6918
  28   2.0000      -0.540523       -14.7084
  29   2.0000      -0.527679       -14.3589
  30   2.0000      -0.516901       -14.0656
  31   2.0000      -0.499923       -13.6036
  32   2.0000      -0.489785       -13.3277
  33   2.0000      -0.461433       -12.5562
  34   2.0000      -0.446962       -12.1625
  35   2.0000      -0.443129       -12.0581
  36   2.0000      -0.424553       -11.5527
  37   2.0000      -0.420388       -11.4393
  38   2.0000      -0.405768       -11.0415
  39   2.0000      -0.400635       -10.9018
  40   2.0000      -0.385410       -10.4876
  41   2.0000      -0.372372       -10.1328
  42   2.0000      -0.354677        -9.6512
  43   2.0000      -0.344797        -9.3824
  44   2.0000      -0.342435        -9.3181
  45   2.0000      -0.332883        -9.0582
  46   2.0000      -0.325225        -8.8498
  47   2.0000      -0.310194        -8.4408
  48   2.0000      -0.306101        -8.3294
  49   2.0000      -0.295651        -8.0451
  50   2.0000      -0.289932        -7.8894
  51   2.0000      -0.285157        -7.7595
  52   2.0000      -0.280644        -7.6367
  53   2.0000      -0.269263        -7.3270
  54   2.0000      -0.262054        -7.1309
  55   2.0000      -0.146153        -3.9770
  56   0.0000      -0.030870        -0.8400
  57   0.0000       0.001258         0.0342
  58   0.0000       0.007240         0.1970
  59   0.0000       0.012439         0.3385
  60   0.0000       0.020115         0.5474

MULLIKEN ATOMIC CHARGES
-----------------------
   0 C :   -0.189414
   1 C :   -0.175880
   2 C :   -0.281275
   3 H :    0.166067
   4 H :    0.161853
   5 S :    0.736554
   6 C :    0.097325
   7 C :   -0.376238
   8 N :   -0.358365
   9 H :    0.198009
  10 H :    0.202950
  11 H :    0.078459
  12 H :    0.114587
  13 O :   -0.393112
  14 O :   -0.346647
  15 C :   -0.223029
  16 C :   -0.213979
  17 H :    0.119321
  18 H :    0.108922
  19 C :   -0.105301
  20 H :    0.112188
  21 H :    0.084021
  22 F :   -0.079682
  23 H :    0.117972
  24 H :    0.085264
  25 H :    0.053189
  26 H :    0.097882
  27 H :    0.086395
  28 H :    0.121963
Sum of atomic charges:   -0.0000000

LOEWDIN ATOMIC CHARGES
----------------------
   0 C :   -0.221615
   1 C :   -0.291903
   2 C :   -0.367589
   3 H :    0.151482
   4 H :    0.146781
   5 S :    0.485495
   6 C :   -0.399247
   7 C :   -0.274789
   8 N :    0.023599
   9 H :    0.152766
  10 H :    0.154259
  11 H :    0.103561
  12 H :    0.102370
  13 O :   -0.250647
  14 O :   -0.220266
  15 C :   -0.254664
  16 C :   -0.275821
  17 H :    0.142180
  18 H :    0.149634
  19 C :   -0.271116
  20 H :    0.141267
  21 H :    0.135033
  22 F :    0.099657
  23 H :    0.145827
  24 H :    0.137229
  25 H :    0.128060
  26 H :    0.141502
  27 H :    0.134306
  28 H :    0.152649

  Mayer bond orders larger than 0.100000
B(  0-C ,  6-C ) :   0.9722 B(  0-C , 15-C ) :   0.9852 B(  0-C , 27-H ) :   0.9479
B(  0-C , 28-H ) :   0.9576 B(  1-C ,  2-C ) :   0.9929 B(  1-C , 16-C ) :   0.9911
B(  1-C , 17-H ) :   0.9601 B(  1-C , 18-H ) :   0.9291 B(  2-C ,  3-H ) :   0.9321
B(  2-C ,  4-H ) :   0.9305 B(  2-C ,  5-S ) :   0.9052 B(  5-S , 13-O ) :   1.8287
B(  5-S , 14-O ) :   2.0268 B(  5-S , 22-F ) :   1.1291 B(  6-C ,  7-C ) :   1.7280
B(  6-C ,  8-N ) :   1.2124 B(  7-C , 11-H ) :   0.9901 B(  7-C , 12-H ) :   0.9699
B(  8-N ,  9-H ) :   0.9203 B(  8-N , 10-H ) :   0.9023 B( 15-C , 19-C ) :   1.0183
B( 15-C , 20-H ) :   0.9521 B( 15-C , 21-H ) :   0.9456 B( 16-C , 19-C ) :   0.9554
B( 16-C , 25-H ) :   0.9610 B( 16-C , 26-H ) :   0.9409 B( 19-C , 23-H ) :   0.9408
B( 19-C , 24-H ) :   0.9394

Dispersion correction           -0.036622405
FINAL SINGLE POINT ENERGY     -1017.016808075503

DIPOLE MOMENT
-------------
                                X             Y             Z
Electronic contribution:     -1.64591      -6.16528     -19.10123
Nuclear contribution   :     -0.26930       7.11259      19.56706
                        -----------------------------------------
Total Dipole Moment    :     -1.91521       0.94731       0.46584
                        -----------------------------------------
Magnitude (a.u.)       :      2.18688
Magnitude (Debye)      :      5.55859

Rotational constants in cm-1:     0.036519     0.018683     0.015073
Rotational constants in MHz :  1094.801738   560.111127   451.890222

                             ****ORCA TERMINATED NORMALLY****
TOTAL RUN TIME: 0 days 0 hours 0 minutes 20 seconds 551 msec
