                         Program Version 5.0.0 -  RELEASE  -
|  1> !PBE D3BJ RIJCOSX def2-TZVP def2/J TightSCF xyzfile
|  2>
|  3> *xyzfile 0 1 D6.xyz
|  4>
|  5> %MaxCore 64000
|  6>
|  7> %pal nprocs 18
|  8> end
|  9>
| 10> %scf
| 11>   MaxIter 150
| 12> end
| 13>
| 14>
| 15>                          ****END OF INPUT****

CARTESIAN COORDINATES (ANGSTROEM)
---------------------------------
  C      2.916324   -1.242589   -1.543125
  C      0.704661    1.443129   -4.503630
  C      1.728539    1.424320   -5.639443
  H      2.646718    1.953794   -5.381054
  H      1.299916    1.930613   -6.503614
  S      2.252625   -0.188115   -6.271840
  C      3.466585   -1.590971   -2.889082
  N      4.652275   -1.143164   -3.259692
  C      2.752264   -2.292043   -3.728029
  H      1.778364   -2.489604   -3.512738
  H      2.948612   -2.208544   -4.716813
  H      5.146723   -0.512508   -2.633852
  H      4.783030   -1.007203   -4.253498
  O      3.562607   -0.444464   -5.631552
  O      2.344944   -0.033742   -7.696501
  C      2.804084    0.290698   -1.359243
  C      1.052550    0.695659   -3.214915
  H     -0.232483    1.032925   -4.884449
  H      0.511700    2.495794   -4.267966
  C      2.388380    1.093669   -2.597108
  H      3.763425    0.674718   -0.999889
  H      2.094788    0.461222   -0.545756
  F      1.266058   -1.159177   -5.805365
  H      3.167316    1.013242   -3.359430
  H      2.357690    2.149375   -2.310997
  H      1.039284   -0.368429   -3.449329
  H      0.250787    0.865605   -2.488283
  H      1.940472   -1.716529   -1.441161
  H      3.558569   -1.663433   -0.766371

 Total Charge           Charge          ....    0
 Multiplicity           Mult            ....    1
 Number of Electrons    NEL             ....  112
 Basis Dimension        Dim             ....  505

ORBITAL ENERGIES
----------------

  NO   OCC          E(Eh)            E(eV)
   0   2.0000     -88.271901     -2402.0005
   1   2.0000     -24.364155      -662.9824
   2   2.0000     -18.766820      -510.6711
   3   2.0000     -18.754719      -510.3418
   4   2.0000     -13.965662      -380.0250
   5   2.0000      -9.938855      -270.4500
   6   2.0000      -9.911311      -269.7005
   7   2.0000      -9.887206      -269.0446
   8   2.0000      -9.885451      -268.9968
   9   2.0000      -9.885385      -268.9950
  10   2.0000      -9.882971      -268.9293
  11   2.0000      -9.877208      -268.7725
  12   2.0000      -9.800258      -266.6786
  13   2.0000      -7.867469      -214.0847
  14   2.0000      -5.891834      -160.3249
  15   2.0000      -5.885408      -160.1501
  16   2.0000      -5.884965      -160.1380
  17   2.0000      -1.262906       -34.3654
  18   2.0000      -1.022130       -27.8136
  19   2.0000      -0.929689       -25.2981
  20   2.0000      -0.838546       -22.8180
  21   2.0000      -0.765517       -20.8308
  22   2.0000      -0.726526       -19.7698
  23   2.0000      -0.687250       -18.7010
  24   2.0000      -0.661257       -17.9937
  25   2.0000      -0.639910       -17.4128
  26   2.0000      -0.612096       -16.6560
  27   2.0000      -0.568958       -15.4821
  28   2.0000      -0.535912       -14.5829
  29   2.0000      -0.517631       -14.0855
  30   2.0000      -0.511310       -13.9134
  31   2.0000      -0.502181       -13.6650
  32   2.0000      -0.485516       -13.2116
  33   2.0000      -0.457553       -12.4506
  34   2.0000      -0.443534       -12.0692
  35   2.0000      -0.440267       -11.9803
  36   2.0000      -0.422940       -11.5088
  37   2.0000      -0.413107       -11.2412
  38   2.0000      -0.407173       -11.0797
  39   2.0000      -0.394421       -10.7327
  40   2.0000      -0.389198       -10.5906
  41   2.0000      -0.369608       -10.0575
  42   2.0000      -0.358147        -9.7457
  43   2.0000      -0.346348        -9.4246
  44   2.0000      -0.339789        -9.2461
  45   2.0000      -0.336548        -9.1579
  46   2.0000      -0.321790        -8.7564
  47   2.0000      -0.315858        -8.5949
  48   2.0000      -0.305100        -8.3022
  49   2.0000      -0.291534        -7.9330
  50   2.0000      -0.287411        -7.8208
  51   2.0000      -0.283554        -7.7159
  52   2.0000      -0.279550        -7.6069
  53   2.0000      -0.264622        -7.2007
  54   2.0000      -0.260217        -7.0809
  55   2.0000      -0.154340        -4.1998
  56   0.0000      -0.025300        -0.6884
  57   0.0000       0.002075         0.0565
  58   0.0000       0.009813         0.2670
  59   0.0000       0.015399         0.4190
  60   0.0000       0.022553         0.6137

MULLIKEN ATOMIC CHARGES
-----------------------
   0 C :   -0.181103
   1 C :   -0.175890
   2 C :   -0.281449
   3 H :    0.158058
   4 H :    0.162011
   5 S :    0.767869
   6 C :    0.129813
   7 N :   -0.364392
   8 C :   -0.407903
   9 H :    0.078390
  10 H :    0.075310
  11 H :    0.208735
  12 H :    0.238645
  13 O :   -0.423193
  14 O :   -0.350888
  15 C :   -0.254757
  16 C :   -0.216191
  17 H :    0.119966
  18 H :    0.105926
  19 C :   -0.115454
  20 H :    0.109127
  21 H :    0.093828
  22 F :   -0.066092
  23 H :    0.095739
  24 H :    0.085127
  25 H :    0.098458
  26 H :    0.092055
  27 H :    0.108503
  28 H :    0.109753
Sum of atomic charges:    0.0000000

LOEWDIN ATOMIC CHARGES
----------------------
   0 C :   -0.220735
   1 C :   -0.292161
   2 C :   -0.368583
   3 H :    0.148714
   4 H :    0.146464
   5 S :    0.499760
   6 C :   -0.392326
   7 N :    0.022340
   8 C :   -0.291821
   9 H :    0.097883
  10 H :    0.090672
  11 H :    0.163422
  12 H :    0.166916
  13 O :   -0.269495
  14 O :   -0.221760
  15 C :   -0.263584
  16 C :   -0.274083
  17 H :    0.143233
  18 H :    0.148198
  19 C :   -0.272646
  20 H :    0.135494
  21 H :    0.138547
  22 F :    0.117407
  23 H :    0.138441
  24 H :    0.137203
  25 H :    0.140534
  26 H :    0.140421
  27 H :    0.148493
  28 H :    0.143053

  Mayer bond orders larger than 0.100000
B(  0-C ,  6-C ) :   1.0082 B(  0-C , 15-C ) :   0.9628 B(  0-C , 27-H ) :   0.9523
B(  0-C , 28-H ) :   0.9564 B(  1-C ,  2-C ) :   0.9906 B(  1-C , 16-C ) :   0.9851
B(  1-C , 17-H ) :   0.9595 B(  1-C , 18-H ) :   0.9289 B(  2-C ,  3-H ) :   0.9337
B(  2-C ,  4-H ) :   0.9315 B(  2-C ,  5-S ) :   0.9085 B(  5-S , 13-O ) :   1.8089
B(  5-S , 14-O ) :   2.0249 B(  5-S , 22-F ) :   1.1557 B(  6-C ,  7-N ) :   1.2040
B(  6-C ,  8-C ) :   1.7261 B(  7-N , 11-H ) :   0.9280 B(  7-N , 12-H ) :   0.8955
B(  8-C ,  9-H ) :   0.9881 B(  8-C , 10-H ) :   0.9911 B( 15-C , 19-C ) :   0.9954
B( 15-C , 20-H ) :   0.9620 B( 15-C , 21-H ) :   0.9452 B( 16-C , 19-C ) :   0.9513
B( 16-C , 25-H ) :   0.9673 B( 16-C , 26-H ) :   0.9404 B( 19-C , 23-H ) :   0.9454
B( 19-C , 24-H ) :   0.9410

Dispersion correction           -0.036669350
FINAL SINGLE POINT ENERGY     -1017.025409417653

DIPOLE MOMENT
-------------
                                X             Y             Z
Electronic contribution:     -0.32664      -5.41957     -18.74981
Nuclear contribution   :     -0.51418       6.96452      19.50670
                        -----------------------------------------
Total Dipole Moment    :     -0.84082       1.54495       0.75689
                        -----------------------------------------
Magnitude (a.u.)       :      1.91488
Magnitude (Debye)      :      4.86723

Rotational constants in cm-1:     0.036455     0.018603     0.015008
Rotational constants in MHz :  1092.895336   557.693628   449.926016

                             ****ORCA TERMINATED NORMALLY****
TOTAL RUN TIME: 0 days 0 hours 0 minutes 20 seconds 957 msec
