                         Program Version 5.0.0 -  RELEASE  -
|  1> !wB97X-D3 RIJCOSX def2-SVPD def2/J TightSCF
|  2> *xyz -1 1
|  3> C          1.72854        1.42432       -5.63944
|  4> S          2.25263       -0.18811       -6.27184
|  5> O          3.56261       -0.44446       -5.63155
|  6> O          2.34494       -0.03374       -7.69650
|  7> O          1.26606       -1.15918       -5.80536
|  8> H          0.77944        1.68154       -6.06127
|  9> H          2.45151        2.16548       -5.90944
| 10> H          1.64478        1.37937       -4.57367
| 11> *
| 12>
| 13> %MaxCore 64000
| 14>
| 15> %pal nprocs 8
| 16> end
| 17>
| 18> %scf
| 19>   MaxIter 150
| 20> end
| 21>
| 22>
| 23>                          ****END OF INPUT****

CARTESIAN COORDINATES (ANGSTROEM)
---------------------------------
  C      1.728540    1.424320   -5.639440
  S      2.252630   -0.188110   -6.271840
  O      3.562610   -0.444460   -5.631550
  O      2.344940   -0.033740   -7.696500
  O      1.266060   -1.159180   -5.805360
  H      0.779440    1.681540   -6.061270
  H      2.451510    2.165480   -5.909440
  H      1.644780    1.379370   -4.573670

 Total Charge           Charge          ....   -1
 Multiplicity           Mult            ....    1
 Number of Electrons    NEL             ....   50
 Basis Dimension        Dim             ....  140

ORBITAL ENERGIES
----------------

  NO   OCC          E(Eh)            E(eV)
   0   2.0000     -88.977876     -2421.2111
   1   2.0000     -19.027375      -517.7612
   2   2.0000     -19.020973      -517.5870
   3   2.0000     -19.012819      -517.3651
   4   2.0000     -10.145315      -276.0681
   5   2.0000      -8.051142      -219.0827
   6   2.0000      -6.010620      -163.5573
   7   2.0000      -6.010541      -163.5551
   8   2.0000      -6.010411      -163.5516
   9   2.0000      -1.046304       -28.4714
  10   2.0000      -0.903717       -24.5914
  11   2.0000      -0.880446       -23.9581
  12   2.0000      -0.695092       -18.9144
  13   2.0000      -0.494917       -13.4674
  14   2.0000      -0.407072       -11.0770
  15   2.0000      -0.392838       -10.6897
  16   2.0000      -0.391644       -10.6572
  17   2.0000      -0.349439        -9.5087
  18   2.0000      -0.347532        -9.4568
  19   2.0000      -0.249986        -6.8025
  20   2.0000      -0.248761        -6.7691
  21   2.0000      -0.210678        -5.7328
  22   2.0000      -0.204578        -5.5668
  23   2.0000      -0.196233        -5.3398
  24   2.0000      -0.158039        -4.3005
  25   0.0000       0.213777         5.8172
  26   0.0000       0.237169         6.4537
  27   0.0000       0.237469         6.4619
  28   0.0000       0.241642         6.5754
  29   0.0000       0.274124         7.4593

MULLIKEN ATOMIC CHARGES
-----------------------
   0 C :    0.404573
   1 S :    1.107451
   2 O :   -0.804586
   3 O :   -0.757798
   4 O :   -0.782633
   5 H :   -0.057483
   6 H :   -0.052095
   7 H :   -0.057429
Sum of atomic charges:   -1.0000000

LOEWDIN ATOMIC CHARGES
----------------------
   0 C :    0.055652
   1 S :    0.841396
   2 O :   -0.607761
   3 O :   -0.583836
   4 O :   -0.594992
   5 H :   -0.037966
   6 H :   -0.036280
   7 H :   -0.036214

  Mayer bond orders larger than 0.100000
B(  0-C ,  1-S ) :   0.9381 B(  0-C ,  5-H ) :   0.9284 B(  0-C ,  6-H ) :   0.9291
B(  0-C ,  7-H ) :   0.9330 B(  1-S ,  2-O ) :   1.3202 B(  1-S ,  3-O ) :   1.3577
B(  1-S ,  4-O ) :   1.3356 B(  1-S ,  5-H ) :   0.1067 B(  1-S ,  6-H ) :   0.1112
B(  1-S ,  7-H ) :   0.1158

Dispersion correction           -0.001522137
FINAL SINGLE POINT ENERGY      -663.414004298141

DIPOLE MOMENT
-------------
                                X             Y             Z
Electronic contribution:      1.16658      -3.76676      -1.59007
Nuclear contribution   :     -1.71379       5.17769       1.98321
                        -----------------------------------------
Total Dipole Moment    :     -0.54721       1.41093       0.39313
                        -----------------------------------------
Magnitude (a.u.)       :      1.56355
Magnitude (Debye)      :      3.97424

Rotational constants in cm-1:     0.172739     0.155771     0.153412
Rotational constants in MHz :  5178.588083  4669.889924  4599.189984

                             ****ORCA TERMINATED NORMALLY****
TOTAL RUN TIME: 0 days 0 hours 0 minutes 10 seconds 588 msec
