                         Program Version 5.0.0 -  RELEASE  -
|  1> !wB97X-D3 RIJCOSX def2-SVPD def2/J TightSCF
|  2> *xyz 1 1
|  3> C          2.91632       -1.24259       -1.54313
|  4> C          3.46659       -1.59097       -2.88908
|  5> N          4.65227       -1.14316       -3.25969
|  6> N          2.75226       -2.29204       -3.72803
|  7> H          1.77836       -2.48960       -3.51274
|  8> H          2.94861       -2.20854       -4.71681
|  9> H          5.14672       -0.51251       -2.63385
| 10> H          4.78303       -1.00720       -4.25350
| 11> H          1.95294       -1.69278       -1.42424
| 12> H          2.82618       -0.17973       -1.45886
| 13> H          3.57606       -1.60596       -0.78312
| 14> *
| 15>
| 16> %MaxCore 64000
| 17>
| 18> %pal nprocs 8
| 19> end
| 20>
| 21> %scf
| 22>   MaxIter 150
| 23> end
| 24>
| 25>
| 26>                          ****END OF INPUT****

CARTESIAN COORDINATES (ANGSTROEM)
---------------------------------
  C      2.916320   -1.242590   -1.543130
  C      3.466590   -1.590970   -2.889080
  N      4.652270   -1.143160   -3.259690
  N      2.752260   -2.292040   -3.728030
  H      1.778360   -2.489600   -3.512740
  H      2.948610   -2.208540   -4.716810
  H      5.146720   -0.512510   -2.633850
  H      4.783030   -1.007200   -4.253500
  H      1.952940   -1.692780   -1.424240
  H      2.826180   -0.179730   -1.458860
  H      3.576060   -1.605960   -0.783120

 Total Charge           Charge          ....    1
 Multiplicity           Mult            ....    1
 Number of Electrons    NEL             ....   32
 Basis Dimension        Dim             ....  136

ORBITAL ENERGIES
----------------

  NO   OCC          E(Eh)            E(eV)
   0   2.0000     -14.693878      -399.8407
   1   2.0000     -14.688677      -399.6992
   2   2.0000     -10.629240      -289.2363
   3   2.0000     -10.492173      -285.5065
   4   2.0000      -1.329809       -36.1860
   5   2.0000      -1.226836       -33.3839
   6   2.0000      -1.069797       -29.1107
   7   2.0000      -0.952510       -25.9191
   8   2.0000      -0.882639       -24.0178
   9   2.0000      -0.877447       -23.8765
  10   2.0000      -0.805950       -21.9310
  11   2.0000      -0.772735       -21.0272
  12   2.0000      -0.720516       -19.6062
  13   2.0000      -0.704441       -19.1688
  14   2.0000      -0.676163       -18.3993
  15   2.0000      -0.600634       -16.3441
  16   0.0000      -0.146990        -3.9998
  17   0.0000      -0.086149        -2.3442
  18   0.0000      -0.041342        -1.1250
  19   0.0000      -0.036463        -0.9922
  20   0.0000      -0.017795        -0.4842

MULLIKEN ATOMIC CHARGES
-----------------------
   0 C :    0.441198
   1 C :    0.206300
   2 N :   -0.001224
   3 N :   -0.004350
   4 H :    0.081424
   5 H :   -0.027713
   6 H :    0.083846
   7 H :   -0.016107
   8 H :    0.072275
   9 H :    0.071467
  10 H :    0.092884
Sum of atomic charges:    1.0000000

LOEWDIN ATOMIC CHARGES
----------------------
   0 C :    0.231236
   1 C :   -0.061236
   2 N :    0.270292
   3 N :    0.274436
   4 H :    0.060146
   5 H :    0.052848
   6 H :    0.061313
   7 H :    0.048252
   8 H :    0.009296
   9 H :    0.027265
  10 H :    0.026152

  Mayer bond orders larger than 0.100000
B(  0-C ,  1-C ) :   1.3305 B(  0-C ,  8-H ) :   0.8075 B(  0-C ,  9-H ) :   0.8447
B(  0-C , 10-H ) :   0.7235 B(  1-C ,  2-N ) :   1.1273 B(  1-C ,  3-N ) :   1.1027
B(  1-C ,  5-H ) :  -0.1134 B(  1-C ,  8-H ) :   0.2135 B(  1-C ,  9-H ) :   0.1164
B(  1-C , 10-H ) :   0.2085 B(  2-N ,  3-N ) :   0.1623 B(  2-N ,  6-H ) :   1.0055
B(  2-N ,  7-H ) :   1.1535 B(  3-N ,  4-H ) :   1.0213 B(  3-N ,  5-H ) :   1.1915
B(  4-H ,  5-H ) :  -0.1218 B(  6-H ,  7-H ) :  -0.1101 B(  8-H , 10-H ) :   0.1035

Dispersion correction           -0.001676977
FINAL SINGLE POINT ENERGY      -189.533254587451

DIPOLE MOMENT
-------------
                                X             Y             Z
Electronic contribution:      0.89736      -0.73325      -1.80387
Nuclear contribution   :     -1.03256       1.11747       1.26949
                        -----------------------------------------
Total Dipole Moment    :     -0.13520       0.38423      -0.53438
                        -----------------------------------------
Magnitude (a.u.)       :      0.67192
Magnitude (Debye)      :      1.70788

Rotational constants in cm-1:     0.336859     0.298586     0.163958
Rotational constants in MHz : 10098.776812  8951.369850  4915.333652

                             ****ORCA TERMINATED NORMALLY****
TOTAL RUN TIME: 0 days 0 hours 0 minutes 9 seconds 379 msec
