                         Program Version 5.0.0 -  RELEASE  -
|  1> !wB97X-D3 RIJCOSX def2-SVPD def2/J TightSCF
|  2> *xyz 0 1
|  3> C          1.72854        1.42432       -5.63944
|  4> S          2.25263       -0.18811       -6.27184
|  5> F          3.56261       -0.44446       -5.63155
|  6> O          2.34494       -0.03374       -7.69650
|  7> O          1.26606       -1.15918       -5.80536
|  8> H          0.77944        1.68154       -6.06127
|  9> H          2.45151        2.16548       -5.90944
| 10> H          1.64478        1.37937       -4.57367
| 11> *
| 12>
| 13> %MaxCore 64000
| 14>
| 15> %pal nprocs 8
| 16> end
| 17>
| 18> %scf
| 19>   MaxIter 150
| 20> end
| 21>
| 22>
| 23>                          ****END OF INPUT****

CARTESIAN COORDINATES (ANGSTROEM)
---------------------------------
  C      1.728540    1.424320   -5.639440
  S      2.252630   -0.188110   -6.271840
  F      3.562610   -0.444460   -5.631550
  O      2.344940   -0.033740   -7.696500
  O      1.266060   -1.159180   -5.805360
  H      0.779440    1.681540   -6.061270
  H      2.451510    2.165480   -5.909440
  H      1.644780    1.379370   -4.573670

 Total Charge           Charge          ....    0
 Multiplicity           Mult            ....    1
 Number of Electrons    NEL             ....   50
 Basis Dimension        Dim             ....  140

ORBITAL ENERGIES
----------------

  NO   OCC          E(Eh)            E(eV)
   0   2.0000     -89.242718     -2428.4178
   1   2.0000     -24.908748      -677.8015
   2   2.0000     -19.266560      -524.2697
   3   2.0000     -19.260016      -524.0917
   4   2.0000     -10.354647      -281.7643
   5   2.0000      -8.316510      -226.3037
   6   2.0000      -6.280087      -170.8899
   7   2.0000      -6.273767      -170.7179
   8   2.0000      -6.272933      -170.6952
   9   2.0000      -1.468541       -39.9610
  10   2.0000      -1.237179       -33.6654
  11   2.0000      -1.137800       -30.9611
  12   2.0000      -0.916312       -24.9341
  13   2.0000      -0.817888       -22.2559
  14   2.0000      -0.703355       -19.1393
  15   2.0000      -0.679697       -18.4955
  16   2.0000      -0.662868       -18.0376
  17   2.0000      -0.585361       -15.9285
  18   2.0000      -0.583721       -15.8838
  19   2.0000      -0.569681       -15.5018
  20   2.0000      -0.546935       -14.8829
  21   2.0000      -0.495723       -13.4893
  22   2.0000      -0.443936       -12.0801
  23   2.0000      -0.436847       -11.8872
  24   2.0000      -0.419305       -11.4099
  25   0.0000       0.061893         1.6842
  26   0.0000       0.094880         2.5818
  27   0.0000       0.100550         2.7361
  28   0.0000       0.101079         2.7505
  29   0.0000       0.109030         2.9669

MULLIKEN ATOMIC CHARGES
-----------------------
   0 C :    0.321022
   1 S :    1.286951
   2 F :   -0.389808
   3 O :   -0.633193
   4 O :   -0.656954
   5 H :    0.020018
   6 H :    0.029105
   7 H :    0.022859
Sum of atomic charges:    0.0000000

LOEWDIN ATOMIC CHARGES
----------------------
   0 C :    0.125252
   1 S :    1.114232
   2 F :   -0.274236
   3 O :   -0.467673
   4 O :   -0.477701
   5 H :    0.001490
   6 H :   -0.010675
   7 H :   -0.010690

  Mayer bond orders larger than 0.100000
B(  0-C ,  1-S ) :   0.9938 B(  0-C ,  5-H ) :   0.9297 B(  0-C ,  6-H ) :   0.9279
B(  0-C ,  7-H ) :   0.9331 B(  1-S ,  2-F ) :   0.6639 B(  1-S ,  3-O ) :   1.5596
B(  1-S ,  4-O ) :   1.5367 B(  1-S ,  5-H ) :   0.1051

Dispersion correction           -0.001528875
FINAL SINGLE POINT ENERGY      -687.912233796893

DIPOLE MOMENT
-------------
                                X             Y             Z
Electronic contribution:      3.35155      -4.15433      -0.51490
Nuclear contribution   :     -3.03874       5.51823       1.39394
                        -----------------------------------------
Total Dipole Moment    :      0.31282       1.36390       0.87904
                        -----------------------------------------
Magnitude (a.u.)       :      1.65251
Magnitude (Debye)      :      4.20034

Rotational constants in cm-1:     0.164301     0.151617     0.146802
Rotational constants in MHz :  4925.615104  4545.361281  4401.017554

                             ****ORCA TERMINATED NORMALLY****
TOTAL RUN TIME: 0 days 0 hours 0 minutes 9 seconds 944 msec
