                         Program Version 5.0.0 -  RELEASE  -
|  1> !wB97X-D3 RIJCOSX def2-SVPD def2/J TightSCF
|  2> *xyz 0 1
|  3> C          2.91632       -1.24259       -1.54313
|  4> C          3.46659       -1.59097       -2.88908
|  5> C          4.65227       -1.14316       -3.25969
|  6> N          2.75226       -2.29204       -3.72803
|  7> H          1.77836       -2.48960       -3.51274
|  8> H          2.94861       -2.20854       -4.71681
|  9> H          5.14672       -0.51251       -2.63385
| 10> H          4.78303       -1.00720       -4.25350
| 11> H          1.95294       -1.69278       -1.42424
| 12> H          2.82618       -0.17973       -1.45886
| 13> H          3.57606       -1.60596       -0.78312
| 14> *
| 15>
| 16> %MaxCore 64000
| 17>
| 18> %pal nprocs 8
| 19> end
| 20>
| 21> %scf
| 22>   MaxIter 150
| 23> end
| 24>
| 25>
| 26>                          ****END OF INPUT****

CARTESIAN COORDINATES (ANGSTROEM)
---------------------------------
  C      2.916320   -1.242590   -1.543130
  C      3.466590   -1.590970   -2.889080
  C      4.652270   -1.143160   -3.259690
  N      2.752260   -2.292040   -3.728030
  H      1.778360   -2.489600   -3.512740
  H      2.948610   -2.208540   -4.716810
  H      5.146720   -0.512510   -2.633850
  H      4.783030   -1.007200   -4.253500
  H      1.952940   -1.692780   -1.424240
  H      2.826180   -0.179730   -1.458860
  H      3.576060   -1.605960   -0.783120

 Total Charge           Charge          ....    0
 Multiplicity           Mult            ....    1
 Number of Electrons    NEL             ....   32
 Basis Dimension        Dim             ....  136

ORBITAL ENERGIES
----------------

  NO   OCC          E(Eh)            E(eV)
   0   2.0000     -14.441679      -392.9781
   1   2.0000     -10.314768      -280.6791
   2   2.0000     -10.283028      -279.8154
   3   2.0000     -10.216711      -278.0108
   4   2.0000      -1.047947       -28.5161
   5   2.0000      -0.869060       -23.6483
   6   2.0000      -0.800751       -21.7896
   7   2.0000      -0.679812       -18.4986
   8   2.0000      -0.627877       -17.0854
   9   2.0000      -0.572710       -15.5842
  10   2.0000      -0.536316       -14.5939
  11   2.0000      -0.497216       -13.5299
  12   2.0000      -0.486355       -13.2344
  13   2.0000      -0.459588       -12.5060
  14   2.0000      -0.429798       -11.6954
  15   2.0000      -0.278987        -7.5916
  16   0.0000       0.089785         2.4432
  17   0.0000       0.113668         3.0931
  18   0.0000       0.127715         3.4753
  19   0.0000       0.132856         3.6152
  20   0.0000       0.163727         4.4553

MULLIKEN ATOMIC CHARGES
-----------------------
   0 C :    0.657651
   1 C :   -0.480931
   2 C :    0.349479
   3 N :    0.095820
   4 H :   -0.063694
   5 H :   -0.063937
   6 H :   -0.107474
   7 H :   -0.351736
   8 H :   -0.066330
   9 H :   -0.006227
  10 H :    0.037379
Sum of atomic charges:    0.0000000

LOEWDIN ATOMIC CHARGES
----------------------
   0 C :    0.165418
   1 C :   -0.289739
   2 C :    0.149867
   3 N :    0.156289
   4 H :    0.003439
   5 H :    0.010337
   6 H :   -0.076868
   7 H :   -0.087916
   8 H :   -0.024724
   9 H :   -0.003006
  10 H :   -0.003098

  Mayer bond orders larger than 0.100000
B(  0-C ,  1-C ) :   1.2095 B(  0-C ,  8-H ) :   0.7437 B(  0-C ,  9-H ) :   0.8419
B(  0-C , 10-H ) :   0.7288 B(  1-C ,  2-C ) :   1.9938 B(  1-C ,  3-N ) :   1.0669
B(  1-C ,  6-H ) :   0.1772 B(  1-C ,  7-H ) :   0.1975 B(  1-C ,  8-H ) :   0.2711
B(  1-C ,  9-H ) :   0.1182 B(  1-C , 10-H ) :   0.2254 B(  2-C ,  3-N ) :   0.2344
B(  2-C ,  6-H ) :   0.7827 B(  2-C ,  7-H ) :   0.8579 B(  3-N ,  4-H ) :   1.0570
B(  3-N ,  5-H ) :   1.1046 B(  4-H ,  5-H ) :  -0.1109 B(  6-H ,  7-H ) :   0.1321

Dispersion correction           -0.001675319
FINAL SINGLE POINT ENERGY      -173.075212461747

DIPOLE MOMENT
-------------
                                X             Y             Z
Electronic contribution:     -0.16263      -1.16586      -1.30890
Nuclear contribution   :     -0.76183       1.20997       1.18381
                        -----------------------------------------
Total Dipole Moment    :     -0.92446       0.04411      -0.12509
                        -----------------------------------------
Magnitude (a.u.)       :      0.93393
Magnitude (Debye)      :      2.37386

Rotational constants in cm-1:     0.357745     0.302571     0.170012
Rotational constants in MHz : 10724.926457  9070.849165  5096.845195

                             ****ORCA TERMINATED NORMALLY****
TOTAL RUN TIME: 0 days 0 hours 0 minutes 9 seconds 781 msec
