                         Program Version 5.0.0 -  RELEASE  -
|  1> !wB97X-D3 RIJCOSX def2-SVPD def2/J TightSCF
|  2> *xyz 0 1
|  3> C          1.72854        1.42432       -5.63944
|  4> S          2.25263       -0.18811       -6.27184
|  5> O          3.56261       -0.44446       -5.63155
|  6> F          2.34494       -0.03374       -7.69650
|  7> O          1.26606       -1.15918       -5.80536
|  8> H          0.77944        1.68154       -6.06127
|  9> H          2.45151        2.16548       -5.90944
| 10> H          1.64478        1.37937       -4.57367
| 11> *
| 12>
| 13> %MaxCore 64000
| 14>
| 15> %pal nprocs 8
| 16> end
| 17>
| 18> %scf
| 19>   MaxIter 150
| 20> end
| 21>
| 22>
| 23>                          ****END OF INPUT****

CARTESIAN COORDINATES (ANGSTROEM)
---------------------------------
  C      1.728540    1.424320   -5.639440
  S      2.252630   -0.188110   -6.271840
  O      3.562610   -0.444460   -5.631550
  F      2.344940   -0.033740   -7.696500
  O      1.266060   -1.159180   -5.805360
  H      0.779440    1.681540   -6.061270
  H      2.451510    2.165480   -5.909440
  H      1.644780    1.379370   -4.573670

 Total Charge           Charge          ....    0
 Multiplicity           Mult            ....    1
 Number of Electrons    NEL             ....   50
 Basis Dimension        Dim             ....  140

ORBITAL ENERGIES
----------------

  NO   OCC          E(Eh)            E(eV)
   0   2.0000     -89.244989     -2428.4796
   1   2.0000     -24.931043      -678.4082
   2   2.0000     -19.260485      -524.1044
   3   2.0000     -19.252047      -523.8748
   4   2.0000     -10.355714      -281.7933
   5   2.0000      -8.318878      -226.3682
   6   2.0000      -6.282700      -170.9610
   7   2.0000      -6.275915      -170.7763
   8   2.0000      -6.275048      -170.7527
   9   2.0000      -1.506572       -40.9959
  10   2.0000      -1.223613       -33.2962
  11   2.0000      -1.117756       -30.4157
  12   2.0000      -0.919422       -25.0187
  13   2.0000      -0.836693       -22.7676
  14   2.0000      -0.721427       -19.6310
  15   2.0000      -0.706329       -19.2202
  16   2.0000      -0.666640       -18.1402
  17   2.0000      -0.583829       -15.8868
  18   2.0000      -0.581754       -15.8303
  19   2.0000      -0.571092       -15.5402
  20   2.0000      -0.539661       -14.6849
  21   2.0000      -0.488378       -13.2895
  22   2.0000      -0.435649       -11.8546
  23   2.0000      -0.427439       -11.6312
  24   2.0000      -0.404049       -10.9947
  25   0.0000       0.059470         1.6183
  26   0.0000       0.093147         2.5346
  27   0.0000       0.099177         2.6987
  28   0.0000       0.101255         2.7553
  29   0.0000       0.111401         3.0314

MULLIKEN ATOMIC CHARGES
-----------------------
   0 C :    0.322609
   1 S :    1.277558
   2 O :   -0.664131
   3 F :   -0.367031
   4 O :   -0.643061
   5 H :    0.025594
   6 H :    0.030155
   7 H :    0.018306
Sum of atomic charges:    0.0000000

LOEWDIN ATOMIC CHARGES
----------------------
   0 C :    0.124919
   1 S :    1.116695
   2 O :   -0.489394
   3 F :   -0.255509
   4 O :   -0.477020
   5 H :   -0.012026
   6 H :   -0.010418
   7 H :    0.002751

  Mayer bond orders larger than 0.100000
B(  0-C ,  1-S ) :   0.9931 B(  0-C ,  5-H ) :   0.9263 B(  0-C ,  6-H ) :   0.9272
B(  0-C ,  7-H ) :   0.9359 B(  1-S ,  2-O ) :   1.5263 B(  1-S ,  3-F ) :   0.7118
B(  1-S ,  4-O ) :   1.5408 B(  1-S ,  7-H ) :   0.1115

Dispersion correction           -0.001531397
FINAL SINGLE POINT ENERGY      -687.892951220472

DIPOLE MOMENT
-------------
                                X             Y             Z
Electronic contribution:      1.28904      -3.46949      -3.97983
Nuclear contribution   :     -1.82220       5.10789       3.45696
                        -----------------------------------------
Total Dipole Moment    :     -0.53316       1.63841      -0.52287
                        -----------------------------------------
Magnitude (a.u.)       :      1.80057
Magnitude (Debye)      :      4.57668

Rotational constants in cm-1:     0.163267     0.154654     0.145086
Rotational constants in MHz :  4894.631475  4636.404456  4349.567403

                             ****ORCA TERMINATED NORMALLY****
TOTAL RUN TIME: 0 days 0 hours 0 minutes 9 seconds 848 msec
