                         Program Version 5.0.0 -  RELEASE  -
|  1> !wB97X-D3 RIJCOSX def2-SVPD def2/J TightSCF
|  2> *xyz 0 1
|  3> C          2.91632       -1.24259       -1.54313
|  4> C          3.46659       -1.59097       -2.88908
|  5> N          4.65227       -1.14316       -3.25969
|  6> C          2.75226       -2.29204       -3.72803
|  7> H          1.77836       -2.48960       -3.51274
|  8> H          2.94861       -2.20854       -4.71681
|  9> H          5.14672       -0.51251       -2.63385
| 10> H          4.78303       -1.00720       -4.25350
| 11> H          1.95294       -1.69278       -1.42424
| 12> H          2.82618       -0.17973       -1.45886
| 13> H          3.57606       -1.60596       -0.78312
| 14> *
| 15>
| 16> %MaxCore 64000
| 17>
| 18> %pal nprocs 8
| 19> end
| 20>
| 21> %scf
| 22>   MaxIter 150
| 23> end
| 24>
| 25>
| 26>                          ****END OF INPUT****

CARTESIAN COORDINATES (ANGSTROEM)
---------------------------------
  C      2.916320   -1.242590   -1.543130
  C      3.466590   -1.590970   -2.889080
  N      4.652270   -1.143160   -3.259690
  C      2.752260   -2.292040   -3.728030
  H      1.778360   -2.489600   -3.512740
  H      2.948610   -2.208540   -4.716810
  H      5.146720   -0.512510   -2.633850
  H      4.783030   -1.007200   -4.253500
  H      1.952940   -1.692780   -1.424240
  H      2.826180   -0.179730   -1.458860
  H      3.576060   -1.605960   -0.783120

 Total Charge           Charge          ....    0
 Multiplicity           Mult            ....    1
 Number of Electrons    NEL             ....   32
 Basis Dimension        Dim             ....  136

ORBITAL ENERGIES
----------------

  NO   OCC          E(Eh)            E(eV)
   0   2.0000     -14.438114      -392.8811
   1   2.0000     -10.313440      -280.6430
   2   2.0000     -10.281837      -279.7830
   3   2.0000     -10.221260      -278.1346
   4   2.0000      -1.042452       -28.3666
   5   2.0000      -0.869731       -23.6666
   6   2.0000      -0.802027       -21.8243
   7   2.0000      -0.673215       -18.3191
   8   2.0000      -0.628521       -17.1029
   9   2.0000      -0.575584       -15.6624
  10   2.0000      -0.537170       -14.6171
  11   2.0000      -0.496817       -13.5191
  12   2.0000      -0.490090       -13.3360
  13   2.0000      -0.454761       -12.3747
  14   2.0000      -0.425406       -11.5759
  15   2.0000      -0.286619        -7.7993
  16   0.0000       0.089936         2.4473
  17   0.0000       0.117380         3.1941
  18   0.0000       0.129508         3.5241
  19   0.0000       0.133068         3.6210
  20   0.0000       0.167422         4.5558

MULLIKEN ATOMIC CHARGES
-----------------------
   0 C :    0.678742
   1 C :   -0.567371
   2 N :    0.113410
   3 C :    0.303614
   4 H :   -0.071201
   5 H :   -0.369470
   6 H :   -0.080462
   7 H :   -0.052701
   8 H :    0.055441
   9 H :   -0.011933
  10 H :    0.001929
Sum of atomic charges:   -0.0000000

LOEWDIN ATOMIC CHARGES
----------------------
   0 C :    0.162148
   1 C :   -0.296639
   2 N :    0.155755
   3 C :    0.156932
   4 H :   -0.077553
   5 H :   -0.081603
   6 H :    0.004948
   7 H :    0.006027
   8 H :   -0.011814
   9 H :   -0.007046
  10 H :   -0.011155

  Mayer bond orders larger than 0.100000
B(  0-C ,  1-C ) :   1.3490 B(  0-C ,  8-H ) :   0.8054 B(  0-C ,  9-H ) :   0.7195
B(  0-C , 10-H ) :   0.6836 B(  1-C ,  2-N ) :   1.0833 B(  1-C ,  3-C ) :   1.9850
B(  1-C ,  5-H ) :   0.1932 B(  1-C ,  8-H ) :   0.2214 B(  1-C ,  9-H ) :   0.2641
B(  1-C , 10-H ) :   0.2513 B(  2-N ,  3-C ) :   0.2521 B(  2-N ,  6-H ) :   1.0471
B(  2-N ,  7-H ) :   1.0737 B(  3-C ,  4-H ) :   0.8669 B(  3-C ,  5-H ) :   0.7887
B(  4-H ,  5-H ) :   0.1605 B(  8-H ,  9-H ) :   0.1087

Dispersion correction           -0.001687471
FINAL SINGLE POINT ENERGY      -173.079045569136

DIPOLE MOMENT
-------------
                                X             Y             Z
Electronic contribution:      1.50636      -0.17098      -0.92148
Nuclear contribution   :     -1.18794       0.95232       1.07877
                        -----------------------------------------
Total Dipole Moment    :      0.31842       0.78134       0.15729
                        -----------------------------------------
Magnitude (a.u.)       :      0.85826
Magnitude (Debye)      :      2.18154

Rotational constants in cm-1:     0.358436     0.301769     0.169913
Rotational constants in MHz : 10745.629007  9046.806054  5093.859032

                             ****ORCA TERMINATED NORMALLY****
TOTAL RUN TIME: 0 days 0 hours 0 minutes 9 seconds 932 msec
