                         Program Version 5.0.0 -  RELEASE  -
|  1> !wB97X-D3 RIJCOSX def2-SVPD def2/J TightSCF
|  2> *xyz 0 1
|  3> C          1.72854        1.42432       -5.63944
|  4> S          2.25263       -0.18811       -6.27184
|  5> O          3.56261       -0.44446       -5.63155
|  6> O          2.34494       -0.03374       -7.69650
|  7> F          1.26606       -1.15918       -5.80536
|  8> H          0.77944        1.68154       -6.06127
|  9> H          2.45151        2.16548       -5.90944
| 10> H          1.64478        1.37937       -4.57367
| 11> *
| 12>
| 13> %MaxCore 64000
| 14>
| 15> %pal nprocs 8
| 16> end
| 17>
| 18> %scf
| 19>   MaxIter 150
| 20> end
| 21>
| 22>
| 23>                          ****END OF INPUT****

CARTESIAN COORDINATES (ANGSTROEM)
---------------------------------
  C      1.728540    1.424320   -5.639440
  S      2.252630   -0.188110   -6.271840
  O      3.562610   -0.444460   -5.631550
  O      2.344940   -0.033740   -7.696500
  F      1.266060   -1.159180   -5.805360
  H      0.779440    1.681540   -6.061270
  H      2.451510    2.165480   -5.909440
  H      1.644780    1.379370   -4.573670

 Total Charge           Charge          ....    0
 Multiplicity           Mult            ....    1
 Number of Electrons    NEL             ....   50
 Basis Dimension        Dim             ....  140

ORBITAL ENERGIES
----------------

  NO   OCC          E(Eh)            E(eV)
   0   2.0000     -89.243586     -2428.4414
   1   2.0000     -24.919861      -678.1039
   2   2.0000     -19.266927      -524.2797
   3   2.0000     -19.251936      -523.8718
   4   2.0000     -10.355192      -281.7791
   5   2.0000      -8.317471      -226.3299
   6   2.0000      -6.281132      -170.9183
   7   2.0000      -6.274625      -170.7412
   8   2.0000      -6.273790      -170.7185
   9   2.0000      -1.485750       -40.4293
  10   2.0000      -1.233433       -33.5634
  11   2.0000      -1.126312       -30.6485
  12   2.0000      -0.916922       -24.9507
  13   2.0000      -0.827079       -22.5060
  14   2.0000      -0.711162       -19.3517
  15   2.0000      -0.691670       -18.8213
  16   2.0000      -0.664849       -18.0915
  17   2.0000      -0.584816       -15.9137
  18   2.0000      -0.583135       -15.8679
  19   2.0000      -0.571420       -15.5491
  20   2.0000      -0.543590       -14.7918
  21   2.0000      -0.493096       -13.4178
  22   2.0000      -0.442228       -12.0336
  23   2.0000      -0.428190       -11.6516
  24   2.0000      -0.410959       -11.1828
  25   0.0000       0.059915         1.6304
  26   0.0000       0.093916         2.5556
  27   0.0000       0.099852         2.7171
  28   0.0000       0.100670         2.7394
  29   0.0000       0.107800         2.9334

MULLIKEN ATOMIC CHARGES
-----------------------
   0 C :    0.323474
   1 S :    1.281891
   2 O :   -0.670950
   3 O :   -0.626359
   4 F :   -0.380822
   5 H :    0.025693
   6 H :    0.024360
   7 H :    0.022712
Sum of atomic charges:    0.0000000

LOEWDIN ATOMIC CHARGES
----------------------
   0 C :    0.125268
   1 S :    1.115870
   2 O :   -0.489572
   3 O :   -0.467131
   4 F :   -0.264550
   5 H :   -0.011837
   6 H :    0.002707
   7 H :   -0.010754

  Mayer bond orders larger than 0.100000
B(  0-C ,  1-S ) :   0.9939 B(  0-C ,  5-H ) :   0.9273 B(  0-C ,  6-H ) :   0.9304
B(  0-C ,  7-H ) :   0.9318 B(  1-S ,  2-O ) :   1.5238 B(  1-S ,  3-O ) :   1.5610
B(  1-S ,  4-F ) :   0.6831 B(  1-S ,  6-H ) :   0.1077

Dispersion correction           -0.001528799
FINAL SINGLE POINT ENERGY      -687.902258526645

DIPOLE MOMENT
-------------
                                X             Y             Z
Electronic contribution:     -0.52539      -5.35335      -0.81584
Nuclear contribution   :     -0.74433       6.23228       1.56758
                        -----------------------------------------
Total Dipole Moment    :     -1.26972       0.87894       0.75175
                        -----------------------------------------
Magnitude (a.u.)       :      1.71751
Magnitude (Debye)      :      4.36557

Rotational constants in cm-1:     0.164764     0.152261     0.145794
Rotational constants in MHz :  4939.488001  4564.674339  4370.797804

                             ****ORCA TERMINATED NORMALLY****
TOTAL RUN TIME: 0 days 0 hours 0 minutes 12 seconds 243 msec
