                         Program Version 5.0.0 -  RELEASE  -
|  1> !wB97X-D3 RIJCOSX def2-SVPD def2/J TightSCF xyzfile
|  2>
|  3> *xyzfile 0 1 D1.xyz
|  4>
|  5> %MaxCore 64000
|  6>
|  7> %pal nprocs 18
|  8> end
|  9>
| 10> %scf
| 11>   MaxIter 150
| 12> end
| 13>
| 14>
| 15>                          ****END OF INPUT****

CARTESIAN COORDINATES (ANGSTROEM)
---------------------------------
  C      2.916324   -1.242589   -1.543125
  C      0.704661    1.443129   -4.503630
  C      1.728539    1.424320   -5.639443
  H      2.646718    1.953794   -5.381054
  H      1.299916    1.930613   -6.503614
  S      2.252625   -0.188115   -6.271840
  C      3.466585   -1.590971   -2.889082
  C      4.652275   -1.143164   -3.259692
  N      2.752264   -2.292043   -3.728029
  H      1.778364   -2.489604   -3.512738
  H      2.948612   -2.208544   -4.716813
  H      5.146723   -0.512508   -2.633852
  H      4.783030   -1.007203   -4.253498
  F      3.562607   -0.444464   -5.631552
  O      2.344944   -0.033742   -7.696501
  C      2.804084    0.290698   -1.359243
  C      1.052550    0.695659   -3.214915
  H     -0.232483    1.032925   -4.884449
  H      0.511700    2.495794   -4.267966
  C      2.388380    1.093669   -2.597108
  H      3.763425    0.674718   -0.999889
  H      2.094788    0.461222   -0.545756
  O      1.266058   -1.159177   -5.805365
  H      3.167316    1.013242   -3.359430
  H      2.357690    2.149375   -2.310997
  H      1.039284   -0.368429   -3.449329
  H      0.250787    0.865605   -2.488283
  H      1.940472   -1.716529   -1.441161
  H      3.558569   -1.663433   -0.766371

 Total Charge           Charge          ....    0
 Multiplicity           Mult            ....    1
 Number of Electrons    NEL             ....  112
 Basis Dimension        Dim             ....  404

ORBITAL ENERGIES
----------------

  NO   OCC          E(Eh)            E(eV)
   0   2.0000     -89.245148     -2428.4839
   1   2.0000     -24.913926      -677.9424
   2   2.0000     -19.271352      -524.4001
   3   2.0000     -19.266897      -524.2789
   4   2.0000     -14.433186      -392.7470
   5   2.0000     -10.358308      -281.8639
   6   2.0000     -10.322432      -280.8876
   7   2.0000     -10.311158      -280.5809
   8   2.0000     -10.299216      -280.2559
   9   2.0000     -10.296559      -280.1836
  10   2.0000     -10.294570      -280.1295
  11   2.0000     -10.294242      -280.1206
  12   2.0000     -10.214922      -277.9622
  13   2.0000      -8.318274      -226.3517
  14   2.0000      -6.282038      -170.9430
  15   2.0000      -6.275710      -170.7708
  16   2.0000      -6.274319      -170.7329
  17   2.0000      -1.475701       -40.1559
  18   2.0000      -1.242931       -33.8219
  19   2.0000      -1.145113       -31.1601
  20   2.0000      -1.044658       -28.4266
  21   2.0000      -0.956951       -26.0400
  22   2.0000      -0.918027       -24.9808
  23   2.0000      -0.877251       -23.8712
  24   2.0000      -0.846045       -23.0221
  25   2.0000      -0.811258       -22.0754
  26   2.0000      -0.799480       -21.7550
  27   2.0000      -0.746080       -20.3019
  28   2.0000      -0.707424       -19.2500
  29   2.0000      -0.691111       -18.8061
  30   2.0000      -0.681142       -18.5348
  31   2.0000      -0.671543       -18.2736
  32   2.0000      -0.654801       -17.8180
  33   2.0000      -0.620395       -16.8818
  34   2.0000      -0.606944       -16.5158
  35   2.0000      -0.598797       -16.2941
  36   2.0000      -0.582672       -15.8553
  37   2.0000      -0.579637       -15.7727
  38   2.0000      -0.566575       -15.4173
  39   2.0000      -0.547996       -14.9117
  40   2.0000      -0.536109       -14.5883
  41   2.0000      -0.525146       -14.2899
  42   2.0000      -0.503730       -13.7072
  43   2.0000      -0.493413       -13.4264
  44   2.0000      -0.485718       -13.2171
  45   2.0000      -0.480883       -13.0855
  46   2.0000      -0.473653       -12.8888
  47   2.0000      -0.456945       -12.4341
  48   2.0000      -0.450507       -12.2589
  49   2.0000      -0.441542       -12.0150
  50   2.0000      -0.435155       -11.8412
  51   2.0000      -0.425627       -11.5819
  52   2.0000      -0.419574       -11.4172
  53   2.0000      -0.416974       -11.3464
  54   2.0000      -0.411702       -11.2030
  55   2.0000      -0.275594        -7.4993
  56   0.0000       0.068002         1.8504
  57   0.0000       0.082299         2.2395
  58   0.0000       0.085276         2.3205
  59   0.0000       0.089300         2.4300
  60   0.0000       0.101061         2.7500

MULLIKEN ATOMIC CHARGES
-----------------------
   0 C :    0.527749
   1 C :    0.455903
   2 C :    0.057136
   3 H :    0.172031
   4 H :   -0.163014
   5 S :    1.562867
   6 C :   -0.524164
   7 C :    0.644422
   8 N :    0.329537
   9 H :    0.014155
  10 H :   -0.182149
  11 H :    0.023480
  12 H :   -0.612385
  13 F :   -0.559003
  14 O :   -0.664327
  15 C :    0.320877
  16 C :    0.215467
  17 H :    0.041882
  18 H :   -0.022294
  19 C :   -0.040379
  20 H :    0.004309
  21 H :   -0.108958
  22 O :   -0.793386
  23 H :   -0.050910
  24 H :   -0.159373
  25 H :   -0.340970
  26 H :   -0.064327
  27 H :    0.096413
  28 H :   -0.180589
Sum of atomic charges:    0.0000000

LOEWDIN ATOMIC CHARGES
----------------------
   0 C :    0.027264
   1 C :   -0.025334
   2 C :   -0.027656
   3 H :    0.019133
   4 H :    0.025063
   5 S :    1.150361
   6 C :   -0.247181
   7 C :    0.166244
   8 N :    0.187666
   9 H :    0.010359
  10 H :   -0.038457
  11 H :   -0.070885
  12 H :   -0.116658
  13 F :   -0.284880
  14 O :   -0.450185
  15 C :   -0.009035
  16 C :   -0.017933
  17 H :    0.033326
  18 H :    0.036587
  19 C :   -0.025590
  20 H :    0.021130
  21 H :    0.019419
  22 O :   -0.467354
  23 H :   -0.006625
  24 H :    0.027969
  25 H :   -0.015156
  26 H :    0.034784
  27 H :    0.013475
  28 H :    0.030150

  Mayer bond orders larger than 0.100000
B(  0-C ,  6-C ) :   1.2688 B(  0-C , 15-C ) :   1.1264 B(  0-C , 20-H ) :   0.1003
B(  0-C , 21-H ) :   0.1760 B(  0-C , 27-H ) :   0.6081 B(  0-C , 28-H ) :   0.7458
B(  1-C ,  2-C ) :   1.2262 B(  1-C ,  4-H ) :   0.1949 B(  1-C , 16-C ) :   1.2396
B(  1-C , 17-H ) :   0.6883 B(  1-C , 18-H ) :   0.7586 B(  2-C ,  3-H ) :   0.8583
B(  2-C ,  4-H ) :   0.9256 B(  2-C ,  5-S ) :   0.9690 B(  2-C , 17-H ) :   0.1145
B(  2-C , 18-H ) :   0.1459 B(  5-S , 13-F ) :   0.6253 B(  5-S , 14-O ) :   1.5641
B(  5-S , 22-O ) :   1.4702 B(  6-C ,  7-C ) :   2.2241 B(  6-C ,  8-N ) :   0.9607
B(  6-C , 11-H ) :   0.1280 B(  6-C , 12-H ) :   0.3428 B(  6-C , 27-H ) :   0.2605
B(  6-C , 28-H ) :   0.2365 B(  7-C ,  8-N ) :   0.3268 B(  7-C , 11-H ) :   0.6044
B(  7-C , 12-H ) :   0.4117 B(  8-N ,  9-H ) :   0.8956 B(  8-N , 10-H ) :   0.9643
B(  8-N , 11-H ) :   0.1571 B(  9-H , 10-H ) :  -0.1337 B( 12-H , 13-F ) :   0.2740
B( 15-C , 19-C ) :   1.2255 B( 15-C , 20-H ) :   0.7082 B( 15-C , 21-H ) :   0.8402
B( 15-C , 23-H ) :   0.1631 B( 15-C , 27-H ) :   0.1332 B( 16-C , 17-H ) :   0.2636
B( 16-C , 19-C ) :   1.2091 B( 16-C , 23-H ) :   0.1315 B( 16-C , 24-H ) :   0.1679
B( 16-C , 25-H ) :   0.9127 B( 16-C , 26-H ) :   0.7247 B( 19-C , 20-H ) :   0.2616
B( 19-C , 21-H ) :   0.1802 B( 19-C , 23-H ) :   0.8596 B( 19-C , 24-H ) :   0.8596
B( 19-C , 25-H ) :   0.1388 B( 19-C , 26-H ) :   0.2163 B( 20-H , 21-H ) :  -0.1219

Dispersion correction           -0.016341872
FINAL SINGLE POINT ENERGY     -1016.900505726005

DIPOLE MOMENT
-------------
                                X             Y             Z
Electronic contribution:      2.12540      -4.88102     -18.53834
Nuclear contribution   :     -2.89481       6.29550      19.36835
                        -----------------------------------------
Total Dipole Moment    :     -0.76941       1.41448       0.83001
                        -----------------------------------------
Magnitude (a.u.)       :      1.81154
Magnitude (Debye)      :      4.60456

Rotational constants in cm-1:     0.036515     0.018832     0.015081
Rotational constants in MHz :  1094.679513   564.567051   452.109105

                             ****ORCA TERMINATED NORMALLY****
TOTAL RUN TIME: 0 days 0 hours 1 minutes 23 seconds 429 msec
