                         Program Version 5.0.0 -  RELEASE  -
|  1> !wB97X-D3 RIJCOSX def2-SVPD def2/J TightSCF xyzfile
|  2>
|  3> *xyzfile 0 1 D3.xyz
|  4>
|  5> %MaxCore 64000
|  6>
|  7> %pal nprocs 18
|  8> end
|  9>
| 10> %scf
| 11>   MaxIter 150
| 12> end
| 13>
| 14>
| 15>                          ****END OF INPUT****

CARTESIAN COORDINATES (ANGSTROEM)
---------------------------------
  C      2.916324   -1.242589   -1.543125
  C      0.704661    1.443129   -4.503630
  C      1.728539    1.424320   -5.639443
  H      2.646718    1.953794   -5.381054
  H      1.299916    1.930613   -6.503614
  S      2.252625   -0.188115   -6.271840
  C      3.466585   -1.590971   -2.889082
  C      4.652275   -1.143164   -3.259692
  N      2.752264   -2.292043   -3.728029
  H      1.778364   -2.489604   -3.512738
  H      2.948612   -2.208544   -4.716813
  H      5.146723   -0.512508   -2.633852
  H      4.783030   -1.007203   -4.253498
  O      3.562607   -0.444464   -5.631552
  F      2.344944   -0.033742   -7.696501
  C      2.804084    0.290698   -1.359243
  C      1.052550    0.695659   -3.214915
  H     -0.232483    1.032925   -4.884449
  H      0.511700    2.495794   -4.267966
  C      2.388380    1.093669   -2.597108
  H      3.763425    0.674718   -0.999889
  H      2.094788    0.461222   -0.545756
  O      1.266058   -1.159177   -5.805365
  H      3.167316    1.013242   -3.359430
  H      2.357690    2.149375   -2.310997
  H      1.039284   -0.368429   -3.449329
  H      0.250787    0.865605   -2.488283
  H      1.940472   -1.716529   -1.441161
  H      3.558569   -1.663433   -0.766371

 Total Charge           Charge          ....    0
 Multiplicity           Mult            ....    1
 Number of Electrons    NEL             ....  112
 Basis Dimension        Dim             ....  404

ORBITAL ENERGIES
----------------

  NO   OCC          E(Eh)            E(eV)
   0   2.0000     -89.251077     -2428.6453
   1   2.0000     -24.937338      -678.5795
   2   2.0000     -19.271198      -524.3960
   3   2.0000     -19.262150      -524.1498
   4   2.0000     -14.409008      -392.0890
   5   2.0000     -10.362176      -281.9691
   6   2.0000     -10.323885      -280.9272
   7   2.0000     -10.292821      -280.0819
   8   2.0000     -10.287586      -279.9394
   9   2.0000     -10.283956      -279.8407
  10   2.0000     -10.282384      -279.7979
  11   2.0000     -10.278636      -279.6959
  12   2.0000     -10.188798      -277.2513
  13   2.0000      -8.324459      -226.5200
  14   2.0000      -6.288205      -171.1108
  15   2.0000      -6.281877      -170.9386
  16   2.0000      -6.280314      -170.8960
  17   2.0000      -1.512077       -41.1457
  18   2.0000      -1.236100       -33.6360
  19   2.0000      -1.130599       -30.7652
  20   2.0000      -1.020921       -27.7807
  21   2.0000      -0.956383       -26.0245
  22   2.0000      -0.909528       -24.7495
  23   2.0000      -0.877022       -23.8650
  24   2.0000      -0.840387       -22.8681
  25   2.0000      -0.809213       -22.0198
  26   2.0000      -0.783704       -21.3257
  27   2.0000      -0.745340       -20.2817
  28   2.0000      -0.714044       -19.4301
  29   2.0000      -0.707812       -19.2605
  30   2.0000      -0.680433       -18.5155
  31   2.0000      -0.670663       -18.2497
  32   2.0000      -0.640539       -17.4299
  33   2.0000      -0.611117       -16.6293
  34   2.0000      -0.601723       -16.3737
  35   2.0000      -0.599195       -16.3049
  36   2.0000      -0.582759       -15.8577
  37   2.0000      -0.572823       -15.5873
  38   2.0000      -0.552649       -15.0383
  39   2.0000      -0.539352       -14.6765
  40   2.0000      -0.528262       -14.3747
  41   2.0000      -0.514172       -13.9913
  42   2.0000      -0.502561       -13.6754
  43   2.0000      -0.483852       -13.1663
  44   2.0000      -0.477665       -12.9979
  45   2.0000      -0.461205       -12.5500
  46   2.0000      -0.455367       -12.3912
  47   2.0000      -0.447419       -12.1749
  48   2.0000      -0.440709       -11.9923
  49   2.0000      -0.431806       -11.7500
  50   2.0000      -0.422756       -11.5038
  51   2.0000      -0.419268       -11.4089
  52   2.0000      -0.409374       -11.1396
  53   2.0000      -0.400886       -10.9087
  54   2.0000      -0.394453       -10.7336
  55   2.0000      -0.251717        -6.8496
  56   0.0000       0.056749         1.5442
  57   0.0000       0.077610         2.1119
  58   0.0000       0.083965         2.2848
  59   0.0000       0.094596         2.5741
  60   0.0000       0.097999         2.6667

MULLIKEN ATOMIC CHARGES
-----------------------
   0 C :    0.528023
   1 C :    0.424158
   2 C :    0.045811
   3 H :    0.160157
   4 H :   -0.119447
   5 S :    1.652440
   6 C :   -0.531276
   7 C :    0.637818
   8 N :    0.315359
   9 H :    0.010783
  10 H :   -0.186630
  11 H :   -0.023986
  12 H :   -0.561089
  13 O :   -0.788190
  14 F :   -0.479619
  15 C :    0.328218
  16 C :    0.192428
  17 H :    0.045570
  18 H :   -0.022868
  19 C :   -0.037519
  20 H :    0.008167
  21 H :   -0.114721
  22 O :   -0.769561
  23 H :   -0.037697
  24 H :   -0.158527
  25 H :   -0.331916
  26 H :   -0.087140
  27 H :    0.086230
  28 H :   -0.184973
Sum of atomic charges:   -0.0000000

LOEWDIN ATOMIC CHARGES
----------------------
   0 C :    0.023943
   1 C :   -0.021188
   2 C :   -0.031935
   3 H :    0.023927
   4 H :    0.013738
   5 S :    1.184947
   6 C :   -0.248661
   7 C :    0.167913
   8 N :    0.187373
   9 H :    0.004063
  10 H :   -0.045927
  11 H :   -0.074332
  12 H :   -0.131579
  13 O :   -0.476916
  14 F :   -0.247214
  15 C :   -0.010969
  16 C :   -0.014666
  17 H :    0.031246
  18 H :    0.037941
  19 C :   -0.022598
  20 H :    0.020325
  21 H :    0.016427
  22 O :   -0.468656
  23 H :   -0.002305
  24 H :    0.025527
  25 H :   -0.012411
  26 H :    0.033920
  27 H :    0.010643
  28 H :    0.027426

  Mayer bond orders larger than 0.100000
B(  0-C ,  6-C ) :   1.2544 B(  0-C , 15-C ) :   1.1231 B(  0-C , 21-H ) :   0.1845
B(  0-C , 27-H ) :   0.6155 B(  0-C , 28-H ) :   0.7440 B(  1-C ,  2-C ) :   1.2618
B(  1-C ,  4-H ) :   0.2230 B(  1-C , 16-C ) :   1.2376 B(  1-C , 17-H ) :   0.6905
B(  1-C , 18-H ) :   0.7524 B(  2-C ,  3-H ) :   0.8844 B(  2-C ,  4-H ) :   0.8527
B(  2-C ,  5-S ) :   0.9933 B(  2-C , 17-H ) :   0.1062 B(  2-C , 18-H ) :   0.1496
B(  5-S , 13-O ) :   1.3615 B(  5-S , 14-F ) :   0.5688 B(  5-S , 22-O ) :   1.4264
B(  6-C ,  7-C ) :   2.2277 B(  6-C ,  8-N ) :   0.9561 B(  6-C , 11-H ) :   0.1291
B(  6-C , 12-H ) :   0.3654 B(  6-C , 27-H ) :   0.2589 B(  6-C , 28-H ) :   0.2413
B(  7-C ,  8-N ) :   0.3327 B(  7-C , 11-H ) :   0.5837 B(  7-C , 12-H ) :   0.4459
B(  8-N ,  9-H ) :   0.8969 B(  8-N , 10-H ) :   0.9515 B(  8-N , 11-H ) :   0.1603
B(  9-H , 10-H ) :  -0.1370 B( 10-H , 12-H ) :   0.1080 B( 10-H , 13-O ) :   0.1026
B( 12-H , 13-O ) :   0.2462 B( 13-O , 22-O ) :   0.1225 B( 15-C , 19-C ) :   1.2270
B( 15-C , 20-H ) :   0.7057 B( 15-C , 21-H ) :   0.8381 B( 15-C , 23-H ) :   0.1542
B( 15-C , 27-H ) :   0.1300 B( 16-C , 17-H ) :   0.2668 B( 16-C , 19-C ) :   1.2244
B( 16-C , 23-H ) :   0.1344 B( 16-C , 24-H ) :   0.1757 B( 16-C , 25-H ) :   0.9119
B( 16-C , 26-H ) :   0.7305 B( 19-C , 20-H ) :   0.2586 B( 19-C , 21-H ) :   0.1777
B( 19-C , 23-H ) :   0.8718 B( 19-C , 24-H ) :   0.8327 B( 19-C , 25-H ) :   0.1407
B( 19-C , 26-H ) :   0.2138 B( 20-H , 21-H ) :  -0.1236

Dispersion correction           -0.016391803
FINAL SINGLE POINT ENERGY     -1016.883005814520

DIPOLE MOMENT
-------------
                                X             Y             Z
Electronic contribution:      0.00683      -4.07942     -22.51636
Nuclear contribution   :     -1.50273       5.82595      21.72909
                        -----------------------------------------
Total Dipole Moment    :     -1.49590       1.74653      -0.78727
                        -----------------------------------------
Magnitude (a.u.)       :      2.43061
Magnitude (Debye)      :      6.17813

Rotational constants in cm-1:     0.036883     0.018294     0.014745
Rotational constants in MHz :  1105.724679   548.429785   442.050481

                             ****ORCA TERMINATED NORMALLY****
TOTAL RUN TIME: 0 days 0 hours 1 minutes 17 seconds 594 msec
