                         Program Version 5.0.0 -  RELEASE  -
|  1> !wB97X-D3 RIJCOSX def2-SVPD def2/J TightSCF xyzfile
|  2>
|  3> *xyzfile 0 1 D4.xyz
|  4>
|  5> %MaxCore 64000
|  6>
|  7> %pal nprocs 18
|  8> end
|  9>
| 10> %scf
| 11>   MaxIter 150
| 12> end
| 13>
| 14>
| 15>                          ****END OF INPUT****

CARTESIAN COORDINATES (ANGSTROEM)
---------------------------------
  C      2.916324   -1.242589   -1.543125
  C      0.704661    1.443129   -4.503630
  C      1.728539    1.424320   -5.639443
  H      2.646718    1.953794   -5.381054
  H      1.299916    1.930613   -6.503614
  S      2.252625   -0.188115   -6.271840
  C      3.466585   -1.590971   -2.889082
  N      4.652275   -1.143164   -3.259692
  C      2.752264   -2.292043   -3.728029
  H      1.778364   -2.489604   -3.512738
  H      2.948612   -2.208544   -4.716813
  H      5.146723   -0.512508   -2.633852
  H      4.783030   -1.007203   -4.253498
  O      3.562607   -0.444464   -5.631552
  F      2.344944   -0.033742   -7.696501
  C      2.804084    0.290698   -1.359243
  C      1.052550    0.695659   -3.214915
  H     -0.232483    1.032925   -4.884449
  H      0.511700    2.495794   -4.267966
  C      2.388380    1.093669   -2.597108
  H      3.763425    0.674718   -0.999889
  H      2.094788    0.461222   -0.545756
  O      1.266058   -1.159177   -5.805365
  H      3.167316    1.013242   -3.359430
  H      2.357690    2.149375   -2.310997
  H      1.039284   -0.368429   -3.449329
  H      0.250787    0.865605   -2.488283
  H      1.940472   -1.716529   -1.441161
  H      3.558569   -1.663433   -0.766371

 Total Charge           Charge          ....    0
 Multiplicity           Mult            ....    1
 Number of Electrons    NEL             ....  112
 Basis Dimension        Dim             ....  404

ORBITAL ENERGIES
----------------

  NO   OCC          E(Eh)            E(eV)
   0   2.0000     -89.247082     -2428.5366
   1   2.0000     -24.933550      -678.4764
   2   2.0000     -19.261913      -524.1433
   3   2.0000     -19.258771      -524.0578
   4   2.0000     -14.408121      -392.0649
   5   2.0000     -10.358920      -281.8805
   6   2.0000     -10.320003      -280.8216
   7   2.0000     -10.287251      -279.9303
   8   2.0000     -10.286810      -279.9183
   9   2.0000     -10.285603      -279.8855
  10   2.0000     -10.284947      -279.8676
  11   2.0000     -10.276675      -279.6425
  12   2.0000     -10.193536      -277.3802
  13   2.0000      -8.320069      -226.4006
  14   2.0000      -6.283844      -170.9921
  15   2.0000      -6.277498      -170.8194
  16   2.0000      -6.275982      -170.7782
  17   2.0000      -1.508094       -41.0373
  18   2.0000      -1.229162       -33.4472
  19   2.0000      -1.124794       -30.6072
  20   2.0000      -1.017491       -27.6873
  21   2.0000      -0.952717       -25.9247
  22   2.0000      -0.908138       -24.7117
  23   2.0000      -0.872107       -23.7312
  24   2.0000      -0.839858       -22.8537
  25   2.0000      -0.816355       -22.2141
  26   2.0000      -0.782145       -21.2833
  27   2.0000      -0.737649       -20.0725
  28   2.0000      -0.710846       -19.3431
  29   2.0000      -0.703307       -19.1380
  30   2.0000      -0.677381       -18.4325
  31   2.0000      -0.669776       -18.2255
  32   2.0000      -0.638795       -17.3825
  33   2.0000      -0.611927       -16.6514
  34   2.0000      -0.602887       -16.4054
  35   2.0000      -0.598942       -16.2980
  36   2.0000      -0.576443       -15.6858
  37   2.0000      -0.558918       -15.2089
  38   2.0000      -0.552879       -15.0446
  39   2.0000      -0.542617       -14.7654
  40   2.0000      -0.528643       -14.3851
  41   2.0000      -0.508716       -13.8429
  42   2.0000      -0.500014       -13.6061
  43   2.0000      -0.482362       -13.1257
  44   2.0000      -0.477005       -12.9800
  45   2.0000      -0.467343       -12.7171
  46   2.0000      -0.454600       -12.3703
  47   2.0000      -0.446954       -12.1622
  48   2.0000      -0.437489       -11.9047
  49   2.0000      -0.423803       -11.5323
  50   2.0000      -0.418528       -11.3887
  51   2.0000      -0.413308       -11.2467
  52   2.0000      -0.409727       -11.1492
  53   2.0000      -0.399297       -10.8654
  54   2.0000      -0.390304       -10.6207
  55   2.0000      -0.259568        -7.0632
  56   0.0000       0.058927         1.6035
  57   0.0000       0.080049         2.1783
  58   0.0000       0.084626         2.3028
  59   0.0000       0.094434         2.5697
  60   0.0000       0.102337         2.7847

MULLIKEN ATOMIC CHARGES
-----------------------
   0 C :    0.398905
   1 C :    0.398874
   2 C :    0.037299
   3 H :    0.178641
   4 H :   -0.125581
   5 S :    1.616920
   6 C :   -0.610733
   7 N :    0.324844
   8 C :    0.750920
   9 H :   -0.077715
  10 H :   -0.484973
  11 H :   -0.009446
  12 H :   -0.244971
  13 O :   -0.750777
  14 F :   -0.490249
  15 C :    0.436507
  16 C :    0.206258
  17 H :    0.039074
  18 H :   -0.028618
  19 C :   -0.094938
  20 H :   -0.010685
  21 H :   -0.108939
  22 O :   -0.742704
  23 H :    0.002904
  24 H :   -0.215415
  25 H :   -0.392234
  26 H :   -0.047547
  27 H :    0.275196
  28 H :   -0.230816
Sum of atomic charges:   -0.0000000

LOEWDIN ATOMIC CHARGES
----------------------
   0 C :    0.022739
   1 C :   -0.021072
   2 C :   -0.034466
   3 H :    0.021032
   4 H :    0.013221
   5 S :    1.186578
   6 C :   -0.256765
   7 N :    0.187931
   8 C :    0.164499
   9 H :   -0.066862
  10 H :   -0.119927
  11 H :    0.004174
  12 H :   -0.053155
  13 O :   -0.485218
  14 F :   -0.247776
  15 C :   -0.015148
  16 C :   -0.011069
  17 H :    0.031990
  18 H :    0.036437
  19 C :   -0.024649
  20 H :    0.013624
  21 H :    0.017953
  22 O :   -0.452021
  23 H :   -0.004649
  24 H :    0.024587
  25 H :   -0.009379
  26 H :    0.034084
  27 H :    0.021625
  28 H :    0.021683

  Mayer bond orders larger than 0.100000
B(  0-C ,  6-C ) :   1.3228 B(  0-C , 15-C ) :   1.1386 B(  0-C , 20-H ) :   0.1242
B(  0-C , 21-H ) :   0.1984 B(  0-C , 27-H ) :   0.7843 B(  0-C , 28-H ) :   0.6219
B(  1-C ,  2-C ) :   1.2631 B(  1-C ,  4-H ) :   0.2235 B(  1-C , 16-C ) :   1.2484
B(  1-C , 17-H ) :   0.6970 B(  1-C , 18-H ) :   0.7618 B(  2-C ,  3-H ) :   0.8745
B(  2-C ,  4-H ) :   0.8467 B(  2-C ,  5-S ) :   0.9820 B(  2-C , 17-H ) :   0.1081
B(  2-C , 18-H ) :   0.1493 B(  5-S , 13-O ) :   1.3635 B(  5-S , 14-F ) :   0.5563
B(  5-S , 22-O ) :   1.4740 B(  6-C ,  7-N ) :   0.9270 B(  6-C ,  8-C ) :   2.1203
B(  6-C ,  9-H ) :   0.1308 B(  6-C , 10-H ) :   0.5329 B(  6-C , 15-C ) :   0.1377
B(  6-C , 28-H ) :   0.3914 B(  7-N ,  8-C ) :   0.4131 B(  7-N ,  9-H ) :   0.1368
B(  7-N , 11-H ) :   0.9591 B(  7-N , 12-H ) :   0.9137 B(  8-C ,  9-H ) :   0.5897
B(  8-C , 10-H ) :   0.1310 B(  9-H , 10-H ) :   0.1012 B( 10-H , 12-H ) :   0.1576
B( 11-H , 12-H ) :  -0.1458 B( 12-H , 13-O ) :   0.1064 B( 13-O , 22-O ) :   0.1291
B( 15-C , 19-C ) :   1.2111 B( 15-C , 20-H ) :   0.6855 B( 15-C , 21-H ) :   0.8135
B( 15-C , 27-H ) :   0.1079 B( 16-C , 17-H ) :   0.2593 B( 16-C , 19-C ) :   1.2439
B( 16-C , 23-H ) :   0.1226 B( 16-C , 24-H ) :   0.1637 B( 16-C , 25-H ) :   0.9590
B( 16-C , 26-H ) :   0.6924 B( 19-C , 20-H ) :   0.2666 B( 19-C , 21-H ) :   0.1681
B( 19-C , 23-H ) :   0.8757 B( 19-C , 24-H ) :   0.8712 B( 19-C , 25-H ) :   0.1480
B( 19-C , 26-H ) :   0.1941 B( 20-H , 21-H ) :  -0.1291

Dispersion correction           -0.016333136
FINAL SINGLE POINT ENERGY     -1016.885966935660

DIPOLE MOMENT
-------------
                                X             Y             Z
Electronic contribution:      1.29682      -3.38383     -22.19249
Nuclear contribution   :     -1.74760       5.67788      21.66873
                        -----------------------------------------
Total Dipole Moment    :     -0.45079       2.29405      -0.52376
                        -----------------------------------------
Magnitude (a.u.)       :      2.39587
Magnitude (Debye)      :      6.08982

Rotational constants in cm-1:     0.036818     0.018222     0.014682
Rotational constants in MHz :  1103.783048   546.296792   440.157914

                             ****ORCA TERMINATED NORMALLY****
TOTAL RUN TIME: 0 days 0 hours 1 minutes 26 seconds 5 msec
