                         Program Version 5.0.0 -  RELEASE  -
|  1> !wB97X-D3 RIJCOSX def2-SVPD def2/J TightSCF xyzfile
|  2>
|  3> *xyzfile 0 1 D5.xyz
|  4>
|  5> %MaxCore 64000
|  6>
|  7> %pal nprocs 18
|  8> end
|  9>
| 10> %scf
| 11>   MaxIter 150
| 12> end
| 13>
| 14>
| 15>                          ****END OF INPUT****

CARTESIAN COORDINATES (ANGSTROEM)
---------------------------------
  C      2.916324   -1.242589   -1.543125
  C      0.704661    1.443129   -4.503630
  C      1.728539    1.424320   -5.639443
  H      2.646718    1.953794   -5.381054
  H      1.299916    1.930613   -6.503614
  S      2.252625   -0.188115   -6.271840
  C      3.466585   -1.590971   -2.889082
  C      4.652275   -1.143164   -3.259692
  N      2.752264   -2.292043   -3.728029
  H      1.778364   -2.489604   -3.512738
  H      2.948612   -2.208544   -4.716813
  H      5.146723   -0.512508   -2.633852
  H      4.783030   -1.007203   -4.253498
  O      3.562607   -0.444464   -5.631552
  O      2.344944   -0.033742   -7.696501
  C      2.804084    0.290698   -1.359243
  C      1.052550    0.695659   -3.214915
  H     -0.232483    1.032925   -4.884449
  H      0.511700    2.495794   -4.267966
  C      2.388380    1.093669   -2.597108
  H      3.763425    0.674718   -0.999889
  H      2.094788    0.461222   -0.545756
  F      1.266058   -1.159177   -5.805365
  H      3.167316    1.013242   -3.359430
  H      2.357690    2.149375   -2.310997
  H      1.039284   -0.368429   -3.449329
  H      0.250787    0.865605   -2.488283
  H      1.940472   -1.716529   -1.441161
  H      3.558569   -1.663433   -0.766371

 Total Charge           Charge          ....    0
 Multiplicity           Mult            ....    1
 Number of Electrons    NEL             ....  112
 Basis Dimension        Dim             ....  404

ORBITAL ENERGIES
----------------

  NO   OCC          E(Eh)            E(eV)
   0   2.0000     -89.246836     -2428.5299
   1   2.0000     -24.927160      -678.3025
   2   2.0000     -19.272632      -524.4350
   3   2.0000     -19.258287      -524.0446
   4   2.0000     -14.427289      -392.5865
   5   2.0000     -10.359396      -281.8935
   6   2.0000     -10.329019      -281.0669
   7   2.0000     -10.305537      -280.4279
   8   2.0000     -10.297684      -280.2142
   9   2.0000     -10.291724      -280.0521
  10   2.0000     -10.290556      -280.0203
  11   2.0000     -10.287965      -279.9498
  12   2.0000     -10.198930      -277.5270
  13   2.0000      -8.320179      -226.4036
  14   2.0000      -6.284059      -170.9979
  15   2.0000      -6.277560      -170.8211
  16   2.0000      -6.275994      -170.7785
  17   2.0000      -1.493568       -40.6421
  18   2.0000      -1.239821       -33.7372
  19   2.0000      -1.135711       -30.9043
  20   2.0000      -1.036769       -28.2119
  21   2.0000      -0.961275       -26.1576
  22   2.0000      -0.915136       -24.9021
  23   2.0000      -0.876855       -23.8604
  24   2.0000      -0.840176       -22.8623
  25   2.0000      -0.816992       -22.2315
  26   2.0000      -0.790533       -21.5115
  27   2.0000      -0.751083       -20.4380
  28   2.0000      -0.713950       -19.4276
  29   2.0000      -0.704482       -19.1699
  30   2.0000      -0.686614       -18.6837
  31   2.0000      -0.665155       -18.0998
  32   2.0000      -0.650280       -17.6950
  33   2.0000      -0.615859       -16.7584
  34   2.0000      -0.605368       -16.4729
  35   2.0000      -0.600830       -16.3494
  36   2.0000      -0.584560       -15.9067
  37   2.0000      -0.575286       -15.6543
  38   2.0000      -0.560938       -15.2639
  39   2.0000      -0.552380       -15.0310
  40   2.0000      -0.534896       -14.5553
  41   2.0000      -0.519317       -14.1313
  42   2.0000      -0.505419       -13.7531
  43   2.0000      -0.488281       -13.2868
  44   2.0000      -0.487805       -13.2738
  45   2.0000      -0.475566       -12.9408
  46   2.0000      -0.468359       -12.7447
  47   2.0000      -0.451980       -12.2990
  48   2.0000      -0.447358       -12.1732
  49   2.0000      -0.437717       -11.9109
  50   2.0000      -0.429032       -11.6746
  51   2.0000      -0.423248       -11.5172
  52   2.0000      -0.417041       -11.3483
  53   2.0000      -0.406290       -11.0557
  54   2.0000      -0.401628       -10.9289
  55   2.0000      -0.264202        -7.1893
  56   0.0000       0.057098         1.5537
  57   0.0000       0.080546         2.1918
  58   0.0000       0.085481         2.3261
  59   0.0000       0.091700         2.4953
  60   0.0000       0.098956         2.6927

MULLIKEN ATOMIC CHARGES
-----------------------
   0 C :    0.530476
   1 C :    0.448994
   2 C :    0.070181
   3 H :    0.159994
   4 H :   -0.138387
   5 S :    1.470648
   6 C :   -0.509250
   7 C :    0.642415
   8 N :    0.297947
   9 H :    0.005661
  10 H :   -0.210497
  11 H :   -0.026967
  12 H :   -0.548844
  13 O :   -0.736711
  14 O :   -0.653663
  15 C :    0.325342
  16 C :    0.228725
  17 H :    0.020490
  18 H :   -0.014253
  19 C :   -0.046158
  20 H :    0.012583
  21 H :   -0.113973
  22 F :   -0.487851
  23 H :   -0.032162
  24 H :   -0.153373
  25 H :   -0.363038
  26 H :   -0.077425
  27 H :    0.082958
  28 H :   -0.183862
Sum of atomic charges:   -0.0000000

LOEWDIN ATOMIC CHARGES
----------------------
   0 C :    0.024227
   1 C :   -0.034078
   2 C :   -0.021164
   3 H :    0.031078
   4 H :    0.020358
   5 S :    1.164540
   6 C :   -0.251242
   7 C :    0.176489
   8 N :    0.177167
   9 H :    0.001276
  10 H :   -0.043665
  11 H :   -0.070208
  12 H :   -0.127935
  13 O :   -0.472244
  14 O :   -0.448300
  15 C :   -0.010118
  16 C :   -0.020618
  17 H :    0.027928
  18 H :    0.037143
  19 C :   -0.020477
  20 H :    0.021682
  21 H :    0.017180
  22 F :   -0.263652
  23 H :   -0.001009
  24 H :    0.028018
  25 H :   -0.015517
  26 H :    0.034535
  27 H :    0.009937
  28 H :    0.028669

  Mayer bond orders larger than 0.100000
B(  0-C ,  6-C ) :   1.2468 B(  0-C , 15-C ) :   1.1241 B(  0-C , 21-H ) :   0.1843
B(  0-C , 27-H ) :   0.6172 B(  0-C , 28-H ) :   0.7453 B(  1-C ,  2-C ) :   1.2163
B(  1-C ,  4-H ) :   0.2025 B(  1-C , 16-C ) :   1.2291 B(  1-C , 17-H ) :   0.6968
B(  1-C , 18-H ) :   0.7479 B(  2-C ,  3-H ) :   0.8801 B(  2-C ,  4-H ) :   0.9241
B(  2-C ,  5-S ) :   0.9976 B(  2-C , 17-H ) :   0.1035 B(  2-C , 18-H ) :   0.1505
B(  5-S , 13-O ) :   1.4231 B(  5-S , 14-O ) :   1.5753 B(  5-S , 22-F ) :   0.6097
B(  6-C ,  7-C ) :   2.2345 B(  6-C ,  8-N ) :   0.9449 B(  6-C , 11-H ) :   0.1255
B(  6-C , 12-H ) :   0.3562 B(  6-C , 27-H ) :   0.2564 B(  6-C , 28-H ) :   0.2378
B(  7-C ,  8-N ) :   0.3287 B(  7-C , 11-H ) :   0.5875 B(  7-C , 12-H ) :   0.4620
B(  8-N ,  9-H ) :   0.9046 B(  8-N , 10-H ) :   0.9537 B(  8-N , 11-H ) :   0.1543
B(  9-H , 10-H ) :  -0.1401 B( 10-H , 13-O ) :   0.1071 B( 12-H , 13-O ) :   0.2576
B( 15-C , 19-C ) :   1.2334 B( 15-C , 20-H ) :   0.7047 B( 15-C , 21-H ) :   0.8393
B( 15-C , 23-H ) :   0.1546 B( 15-C , 27-H ) :   0.1301 B( 16-C , 17-H ) :   0.2542
B( 16-C , 18-H ) :   0.1034 B( 16-C , 19-C ) :   1.2252 B( 16-C , 23-H ) :   0.1386
B( 16-C , 24-H ) :   0.1705 B( 16-C , 25-H ) :   0.8845 B( 16-C , 26-H ) :   0.7337
B( 19-C , 20-H ) :   0.2583 B( 19-C , 21-H ) :   0.1792 B( 19-C , 23-H ) :   0.8685
B( 19-C , 24-H ) :   0.8375 B( 19-C , 25-H ) :   0.1528 B( 19-C , 26-H ) :   0.2132
B( 20-H , 21-H ) :  -0.1221

Dispersion correction           -0.016347162
FINAL SINGLE POINT ENERGY     -1016.888401896637

DIPOLE MOMENT
-------------
                                X             Y             Z
Electronic contribution:     -1.77067      -6.00537     -18.98178
Nuclear contribution   :     -0.26930       7.11259      19.56706
                        -----------------------------------------
Total Dipole Moment    :     -2.03998       1.10722       0.58529
                        -----------------------------------------
Magnitude (a.u.)       :      2.39374
Magnitude (Debye)      :      6.08441

Rotational constants in cm-1:     0.036519     0.018683     0.015073
Rotational constants in MHz :  1094.801738   560.111127   451.890222

                             ****ORCA TERMINATED NORMALLY****
TOTAL RUN TIME: 0 days 0 hours 1 minutes 14 seconds 153 msec
