                         Program Version 5.0.0 -  RELEASE  -
|  1> !LC-PBE RIJCOSX def2-SVPD def2/J TightSCF
|  2> *xyz -1 1
|  3> C         -2.12050        0.88520        1.78951
|  4> C         -0.77894        0.17197        1.80496
|  5> H          0.01569        0.91077        1.93915
|  6> H         -0.74355       -0.50683        2.66542
|  7> C         -0.60249       -0.63071        0.49224
|  8> H          0.31389       -1.24035        0.60350
|  9> H         -0.36383        0.11332       -0.30117
| 10> O         -1.71206       -1.37684        0.20253
| 11> H         -2.16160        1.54956        0.95175
| 12> H         -2.23761        1.44436        2.69423
| 13> H         -2.90702        0.16393        1.71165
| 14> *
| 15> %MaxCore 64000
| 16>
| 17> %pal nprocs 4
| 18> end
| 19> %scf
| 20>   MaxIter 150
| 21> end
| 22>
| 23>                          ****END OF INPUT****

CARTESIAN COORDINATES (ANGSTROEM)
---------------------------------
  C     -2.120500    0.885200    1.789510
  C     -0.778940    0.171970    1.804960
  H      0.015690    0.910770    1.939150
  H     -0.743550   -0.506830    2.665420
  C     -0.602490   -0.630710    0.492240
  H      0.313890   -1.240350    0.603500
  H     -0.363830    0.113320   -0.301170
  O     -1.712060   -1.376840    0.202530
  H     -2.161600    1.549560    0.951750
  H     -2.237610    1.444360    2.694230
  H     -2.907020    0.163930    1.711650

 Total Charge           Charge          ....   -1
 Multiplicity           Mult            ....    1
 Number of Electrons    NEL             ....   34
 Basis Dimension        Dim             ....  139

ORBITAL ENERGIES
----------------

  NO   OCC          E(Eh)            E(eV)
   0   2.0000     -18.652499      -507.5603
   1   2.0000      -9.942015      -270.5360
   2   2.0000      -9.934659      -270.3358
   3   2.0000      -9.933571      -270.3062
   4   2.0000      -0.842721       -22.9316
   5   2.0000      -0.745849       -20.2956
   6   2.0000      -0.620937       -16.8965
   7   2.0000      -0.514202       -13.9922
   8   2.0000      -0.419233       -11.4079
   9   2.0000      -0.408662       -11.1203
  10   2.0000      -0.350254        -9.5309
  11   2.0000      -0.318008        -8.6534
  12   2.0000      -0.287331        -7.8187
  13   2.0000      -0.281023        -7.6470
  14   2.0000      -0.243002        -6.6124
  15   2.0000      -0.097769        -2.6604
  16   2.0000      -0.094560        -2.5731
  17   0.0000       0.233566         6.3557
  18   0.0000       0.256743         6.9863
  19   0.0000       0.274253         7.4628
  20   0.0000       0.305750         8.3199
  21   0.0000       0.327149         8.9022

MULLIKEN ATOMIC CHARGES
-----------------------
   0 C :    0.366923
   1 C :   -0.524179
   2 H :   -0.041635
   3 H :   -0.009910
   4 C :    0.242730
   5 H :   -0.108802
   6 H :   -0.041424
   7 O :   -0.851806
   8 H :   -0.020408
   9 H :   -0.052877
  10 H :    0.041389
Sum of atomic charges:   -1.0000000

LOEWDIN ATOMIC CHARGES
----------------------
   0 C :    0.044278
   1 C :   -0.139754
   2 H :    0.000005
   3 H :    0.013702
   4 C :   -0.241530
   5 H :   -0.018647
   6 H :   -0.011618
   7 O :   -0.566106
   8 H :   -0.016572
   9 H :   -0.037613
  10 H :   -0.026147

  Mayer bond orders larger than 0.100000
B(  0-C ,  1-C ) :   1.2881 B(  0-C ,  8-H ) :   0.8549 B(  0-C ,  9-H ) :   0.8555
B(  0-C , 10-H ) :   0.8586 B(  1-C ,  2-H ) :   1.0022 B(  1-C ,  3-H ) :   0.9848
B(  1-C ,  4-C ) :   1.0427 B(  1-C ,  8-H ) :   0.1552 B(  1-C ,  9-H ) :   0.1516
B(  1-C , 10-H ) :   0.1605 B(  4-C ,  5-H ) :   0.9970 B(  4-C ,  6-H ) :   0.9504
B(  4-C ,  7-O ) :   1.3124

FINAL SINGLE POINT ENERGY      -192.998700095800

DIPOLE MOMENT
-------------
                                X             Y             Z
Electronic contribution:     -0.48642      -2.28071      -1.42825
Nuclear contribution   :      1.03476       3.87369       2.65163
                        -----------------------------------------
Total Dipole Moment    :      0.54834       1.59298       1.22338
                        -----------------------------------------
Magnitude (a.u.)       :      2.08205
Magnitude (Debye)      :      5.29215

Rotational constants in cm-1:     0.475803     0.193433     0.155403
Rotational constants in MHz : 14264.216647  5798.988361  4658.874800

                             ****ORCA TERMINATED NORMALLY****
TOTAL RUN TIME: 0 days 0 hours 0 minutes 11 seconds 255 msec
