                         Program Version 5.0.0 -  RELEASE  -
|  1> !LC-PBE RIJCOSX def2-SVPD def2/J TightSCF
|  2> *xyz 1 1
|  3> C         -2.12050        0.88520        1.78951
|  4> C         -0.77894        0.17197        1.80496
|  5> H         -2.32419        1.47265        2.68608
|  6> H         -2.18770        1.54127        0.91948
|  7> N         -3.17690       -0.15948        1.61070
|  8> H          0.01569        0.91077        1.93915
|  9> H         -0.74355       -0.50683        2.66542
| 10> C         -0.60249       -0.63071        0.49224
| 11> H         -4.06474        0.23127        1.28675
| 12> H         -3.34407       -0.67151        2.48493
| 13> H         -2.71686       -0.78189        0.93588
| 14> H         -0.63812        0.03805       -0.34226
| 15> H         -1.38918       -1.35085        0.40604
| 16> H          0.34172       -1.13388        0.50602
| 17> *
| 18> %MaxCore 64000
| 19>
| 20> %pal nprocs 4
| 21> end
| 22>
| 23> %scf
| 24>   MaxIter 150
| 25> end
| 26>
| 27>
| 28>                          ****END OF INPUT****

CARTESIAN COORDINATES (ANGSTROEM)
---------------------------------
  C     -2.120500    0.885200    1.789510
  C     -0.778940    0.171970    1.804960
  H     -2.324190    1.472650    2.686080
  H     -2.187700    1.541270    0.919480
  N     -3.176900   -0.159480    1.610700
  H      0.015690    0.910770    1.939150
  H     -0.743550   -0.506830    2.665420
  C     -0.602490   -0.630710    0.492240
  H     -4.064740    0.231270    1.286750
  H     -3.344070   -0.671510    2.484930
  H     -2.716860   -0.781890    0.935880
  H     -0.638120    0.038050   -0.342260
  H     -1.389180   -1.350850    0.406040
  H      0.341720   -1.133880    0.506020

 Total Charge           Charge          ....    1
 Multiplicity           Mult            ....    1
 Number of Electrons    NEL             ....   34
 Basis Dimension        Dim             ....  160

ORBITAL ENERGIES
----------------

  NO   OCC          E(Eh)            E(eV)
   0   2.0000     -14.550372      -395.9358
   1   2.0000     -10.375657      -282.3360
   2   2.0000     -10.314533      -280.6727
   3   2.0000     -10.291398      -280.0432
   4   2.0000      -1.374880       -37.4124
   5   2.0000      -1.149487       -31.2791
   6   2.0000      -1.053082       -28.6558
   7   2.0000      -0.958384       -26.0790
   8   2.0000      -0.948807       -25.8183
   9   2.0000      -0.918938       -25.0056
  10   2.0000      -0.828742       -22.5512
  11   2.0000      -0.783670       -21.3247
  12   2.0000      -0.752392       -20.4736
  13   2.0000      -0.725348       -19.7377
  14   2.0000      -0.671694       -18.2777
  15   2.0000      -0.662973       -18.0404
  16   2.0000      -0.653848       -17.7921
  17   0.0000      -0.097728        -2.6593
  18   0.0000      -0.046793        -1.2733
  19   0.0000      -0.045041        -1.2256
  20   0.0000      -0.035163        -0.9568
  21   0.0000      -0.006565        -0.1786

MULLIKEN ATOMIC CHARGES
-----------------------
   0 C :    0.378188
   1 C :   -0.348623
   2 H :   -0.036380
   3 H :    0.108739
   4 N :   -0.636494
   5 H :    0.026713
   6 H :    0.095260
   7 C :    0.411117
   8 H :    0.356399
   9 H :    0.429355
  10 H :    0.174095
  11 H :    0.077399
  12 H :   -0.084742
  13 H :    0.048974
Sum of atomic charges:    1.0000000

LOEWDIN ATOMIC CHARGES
----------------------
   0 C :    0.065849
   1 C :   -0.048521
   2 H :    0.062772
   3 H :    0.065786
   4 N :    0.325356
   5 H :    0.058898
   6 H :    0.049760
   7 C :    0.132662
   8 H :    0.117442
   9 H :    0.121536
  10 H :    0.027548
  11 H :    0.019997
  12 H :   -0.022957
  13 H :    0.023870

  Mayer bond orders larger than 0.100000
B(  0-C ,  1-C ) :   1.1316 B(  0-C ,  2-H ) :   0.9846 B(  0-C ,  3-H ) :   0.9203
B(  0-C ,  4-N ) :   0.8275 B(  1-C ,  5-H ) :   1.0000 B(  1-C ,  6-H ) :   0.9475
B(  1-C ,  7-C ) :   1.2362 B(  1-C , 11-H ) :   0.1269 B(  1-C , 13-H ) :   0.1345
B(  2-H ,  4-N ) :   0.1123 B(  4-N ,  8-H ) :   0.7757 B(  4-N ,  9-H ) :   0.7725
B(  4-N , 10-H ) :   0.8853 B(  7-C , 11-H ) :   0.8213 B(  7-C , 12-H ) :   0.8770
B(  7-C , 13-H ) :   0.8746 B( 10-H , 12-H ) :   0.2449

FINAL SINGLE POINT ENERGY      -174.139309830069

DIPOLE MOMENT
-------------
                                X             Y             Z
Electronic contribution:     -1.87418       0.50450       0.93881
Nuclear contribution   :      0.18509      -0.64781      -0.64735
                        -----------------------------------------
Total Dipole Moment    :     -1.68909      -0.14331       0.29146
                        -----------------------------------------
Magnitude (a.u.)       :      1.72003
Magnitude (Debye)      :      4.37197

Rotational constants in cm-1:     0.411855     0.178330     0.145265
Rotational constants in MHz : 12347.103052  5346.196801  4354.936890

                             ****ORCA TERMINATED NORMALLY****
TOTAL RUN TIME: 0 days 0 hours 0 minutes 14 seconds 656 msec
