                         Program Version 5.0.0 -  RELEASE  -
|  1> !LC-PBE RIJCOSX def2-SVPD def2/J TightSCF
|  2> *xyz 0 1
|  3> C         -2.12050        0.88520        1.78951
|  4> C         -0.77894        0.17197        1.80496
|  5> H          0.01569        0.91077        1.93915
|  6> H         -0.74355       -0.50683        2.66542
|  7> C         -0.60249       -0.63071        0.49224
|  8> H          0.31389       -1.24035        0.60350
|  9> H         -0.36383        0.11332       -0.30117
| 10> F         -1.71206       -1.37684        0.20253
| 11> H         -2.16160        1.54956        0.95175
| 12> H         -2.23761        1.44436        2.69423
| 13> H         -2.90702        0.16393        1.71165
| 14> *
| 15> %MaxCore 64000
| 16>
| 17> %pal nprocs 4
| 18> end
| 19> %scf
| 20>   MaxIter 150
| 21> end
| 22>
| 23>                          ****END OF INPUT****

CARTESIAN COORDINATES (ANGSTROEM)
---------------------------------
  C     -2.120500    0.885200    1.789510
  C     -0.778940    0.171970    1.804960
  H      0.015690    0.910770    1.939150
  H     -0.743550   -0.506830    2.665420
  C     -0.602490   -0.630710    0.492240
  H      0.313890   -1.240350    0.603500
  H     -0.363830    0.113320   -0.301170
  F     -1.712060   -1.376840    0.202530
  H     -2.161600    1.549560    0.951750
  H     -2.237610    1.444360    2.694230
  H     -2.907020    0.163930    1.711650

 Total Charge           Charge          ....    0
 Multiplicity           Mult            ....    1
 Number of Electrons    NEL             ....   34
 Basis Dimension        Dim             ....  139

ORBITAL ENERGIES
----------------

  NO   OCC          E(Eh)            E(eV)
   0   2.0000     -24.497103      -666.6001
   1   2.0000     -10.207919      -277.7716
   2   2.0000     -10.133920      -275.7580
   3   2.0000     -10.109953      -275.1058
   4   2.0000      -1.343329       -36.5538
   5   2.0000      -0.962724       -26.1970
   6   2.0000      -0.851772       -23.1779
   7   2.0000      -0.751064       -20.4375
   8   2.0000      -0.662058       -18.0155
   9   2.0000      -0.649651       -17.6779
  10   2.0000      -0.625262       -17.0142
  11   2.0000      -0.580776       -15.8037
  12   2.0000      -0.535844       -14.5811
  13   2.0000      -0.511805       -13.9269
  14   2.0000      -0.484662       -13.1883
  15   2.0000      -0.457904       -12.4602
  16   2.0000      -0.455367       -12.3912
  17   0.0000       0.091364         2.4861
  18   0.0000       0.115378         3.1396
  19   0.0000       0.125042         3.4026
  20   0.0000       0.147126         4.0035
  21   0.0000       0.170537         4.6406

MULLIKEN ATOMIC CHARGES
-----------------------
   0 C :    0.342329
   1 C :   -0.558041
   2 H :    0.006270
   3 H :    0.015571
   4 C :    0.507911
   5 H :   -0.003070
   6 H :    0.061819
   7 F :   -0.413236
   8 H :    0.006848
   9 H :   -0.013967
  10 H :    0.047566
Sum of atomic charges:    0.0000000

LOEWDIN ATOMIC CHARGES
----------------------
   0 C :    0.079200
   1 C :   -0.090589
   2 H :    0.035719
   3 H :    0.034718
   4 C :    0.071435
   5 H :    0.040284
   6 H :    0.047882
   7 F :   -0.202177
   8 H :   -0.001905
   9 H :   -0.007132
  10 H :   -0.007436

  Mayer bond orders larger than 0.100000
B(  0-C ,  1-C ) :   1.2980 B(  0-C ,  8-H ) :   0.8618 B(  0-C ,  9-H ) :   0.8842
B(  0-C , 10-H ) :   0.8655 B(  1-C ,  2-H ) :   0.9911 B(  1-C ,  3-H ) :   0.9873
B(  1-C ,  4-C ) :   1.1543 B(  1-C ,  8-H ) :   0.1382 B(  1-C ,  9-H ) :   0.1388
B(  1-C , 10-H ) :   0.1306 B(  4-C ,  5-H ) :   0.9667 B(  4-C ,  6-H ) :   0.9191
B(  4-C ,  7-F ) :   0.8038

FINAL SINGLE POINT ENERGY      -217.585581122363

DIPOLE MOMENT
-------------
                                X             Y             Z
Electronic contribution:     -0.96955      -4.80494      -3.45103
Nuclear contribution   :      1.51874       5.24801       3.69322
                        -----------------------------------------
Total Dipole Moment    :      0.54919       0.44307       0.24219
                        -----------------------------------------
Magnitude (a.u.)       :      0.74604
Magnitude (Debye)      :      1.89629

Rotational constants in cm-1:     0.461913     0.182549     0.147043
Rotational constants in MHz : 13847.794369  5472.673442  4408.246847

                             ****ORCA TERMINATED NORMALLY****
TOTAL RUN TIME: 0 days 0 hours 0 minutes 9 seconds 275 msec
