                         Program Version 5.0.0 -  RELEASE  -
|  1> !LC-PBE RIJCOSX def2-SVPD def2/J TightSCF
|  2> *xyz 0 1
|  3> C         -2.12050        0.88520        1.78951
|  4> C         -0.77894        0.17197        1.80496
|  5> H         -2.32419        1.47265        2.68608
|  6> H         -2.18770        1.54127        0.91948
|  7> C         -3.17690       -0.15948        1.61070
|  8> H          0.01569        0.91077        1.93915
|  9> H         -0.74355       -0.50683        2.66542
| 10> C         -0.60249       -0.63071        0.49224
| 11> H         -4.06474        0.23127        1.28675
| 12> H         -3.34407       -0.67151        2.48493
| 13> H         -2.71686       -0.78189        0.93588
| 14> H         -0.63812        0.03805       -0.34226
| 15> H         -1.38918       -1.35085        0.40604
| 16> H          0.34172       -1.13388        0.50602
| 17> *
| 18> %MaxCore 64000
| 19>
| 20> %pal nprocs 4
| 21> end
| 22>
| 23> %scf
| 24>   MaxIter 150
| 25> end
| 26>
| 27>
| 28>                          ****END OF INPUT****

CARTESIAN COORDINATES (ANGSTROEM)
---------------------------------
  C     -2.120500    0.885200    1.789510
  C     -0.778940    0.171970    1.804960
  H     -2.324190    1.472650    2.686080
  H     -2.187700    1.541270    0.919480
  C     -3.176900   -0.159480    1.610700
  H      0.015690    0.910770    1.939150
  H     -0.743550   -0.506830    2.665420
  C     -0.602490   -0.630710    0.492240
  H     -4.064740    0.231270    1.286750
  H     -3.344070   -0.671510    2.484930
  H     -2.716860   -0.781890    0.935880
  H     -0.638120    0.038050   -0.342260
  H     -1.389180   -1.350850    0.406040
  H      0.341720   -1.133880    0.506020

 Total Charge           Charge          ....    0
 Multiplicity           Mult            ....    1
 Number of Electrons    NEL             ....   34
 Basis Dimension        Dim             ....  160

ORBITAL ENERGIES
----------------

  NO   OCC          E(Eh)            E(eV)
   0   2.0000     -10.120184      -275.3842
   1   2.0000     -10.112059      -275.1631
   2   2.0000     -10.108541      -275.0674
   3   2.0000     -10.081345      -274.3273
   4   2.0000      -0.986431       -26.8422
   5   2.0000      -0.887123       -24.1398
   6   2.0000      -0.808556       -22.0019
   7   2.0000      -0.719058       -19.5666
   8   2.0000      -0.631596       -17.1866
   9   2.0000      -0.609031       -16.5726
  10   2.0000      -0.563579       -15.3358
  11   2.0000      -0.529410       -14.4060
  12   2.0000      -0.509210       -13.8563
  13   2.0000      -0.492462       -13.4006
  14   2.0000      -0.456683       -12.4270
  15   2.0000      -0.449998       -12.2451
  16   2.0000      -0.439229       -11.9520
  17   0.0000       0.097599         2.6558
  18   0.0000       0.117235         3.1901
  19   0.0000       0.119747         3.2585
  20   0.0000       0.129393         3.5210
  21   0.0000       0.172156         4.6846

MULLIKEN ATOMIC CHARGES
-----------------------
   0 C :   -0.381629
   1 C :   -0.307858
   2 H :   -0.133858
   3 H :    0.082569
   4 C :    1.265186
   5 H :   -0.065043
   6 H :    0.057699
   7 C :    0.395535
   8 H :   -0.062306
   9 H :   -0.009441
  10 H :   -0.898879
  11 H :    0.060968
  12 H :   -0.016494
  13 H :    0.013550
Sum of atomic charges:    0.0000000

LOEWDIN ATOMIC CHARGES
----------------------
   0 C :   -0.100970
   1 C :   -0.087772
   2 H :    0.030804
   3 H :    0.035671
   4 C :    0.104826
   5 H :    0.026679
   6 H :    0.037014
   7 C :    0.098725
   8 H :   -0.016950
   9 H :   -0.009670
  10 H :   -0.083597
  11 H :    0.003709
  12 H :   -0.032390
  13 H :   -0.006080

  Mayer bond orders larger than 0.100000
B(  0-C ,  1-C ) :   1.1149 B(  0-C ,  2-H ) :   1.0677 B(  0-C ,  3-H ) :   0.9185
B(  0-C ,  4-C ) :   1.1277 B(  0-C ,  8-H ) :   0.1169 B(  0-C ,  9-H ) :   0.1863
B(  0-C , 10-H ) :   0.3184 B(  1-C ,  5-H ) :   1.0271 B(  1-C ,  6-H ) :   0.9407
B(  1-C ,  7-C ) :   1.2354 B(  1-C , 11-H ) :   0.1531 B(  1-C , 13-H ) :   0.1337
B(  4-C ,  8-H ) :   0.6206 B(  4-C ,  9-H ) :   0.5630 B(  4-C , 10-H ) :   0.4167
B(  7-C , 10-H ) :   0.1297 B(  7-C , 11-H ) :   0.8120 B(  7-C , 12-H ) :   0.8317
B(  7-C , 13-H ) :   0.8418 B(  8-H , 10-H ) :   0.2209 B(  9-H , 10-H ) :   0.2484
B( 10-H , 12-H ) :   0.3252

FINAL SINGLE POINT ENERGY      -157.750594459172

DIPOLE MOMENT
-------------
                                X             Y             Z
Electronic contribution:      0.31467       0.71659       0.58888
Nuclear contribution   :     -0.27446      -0.71220      -0.58629
                        -----------------------------------------
Total Dipole Moment    :      0.04021       0.00439       0.00260
                        -----------------------------------------
Magnitude (a.u.)       :      0.04053
Magnitude (Debye)      :      0.10302

Rotational constants in cm-1:     0.419751     0.185753     0.151088
Rotational constants in MHz : 12583.819928  5568.732483  4529.512437

                             ****ORCA TERMINATED NORMALLY****
TOTAL RUN TIME: 0 days 0 hours 0 minutes 13 seconds 345 msec
