                         Program Version 5.0.0 -  RELEASE  -
|  1> !LC-BLYP RIJCOSX def2-TZVP def2/J TightSCF
|  2> *xyz -1 1
|  3> C         -7.33044       -2.67899       -3.20681
|  4> S         -6.01966       -2.92697       -4.41913
|  5> O         -5.64583       -1.58838       -4.91931
|  6> O         -4.88196       -3.50370       -3.66724
|  7> O         -6.54927       -3.80515       -5.42507
|  8> C         -7.46900       -1.24615       -2.71383
|  9> H         -7.11825       -3.37982       -2.39805
| 10> H         -8.24184       -3.00474       -3.70651
| 11> H         -7.67580       -0.60214       -3.54292
| 12> H         -6.55749       -0.94096       -2.24382
| 13> H         -8.27114       -1.18777       -2.00810
| 14> *
| 15> %MaxCore 64000
| 16>
| 17> %pal nprocs 4
| 18> end
| 19>
| 20> %scf
| 21>   MaxIter 150
| 22> end
| 23>
| 24>
| 25>                          ****END OF INPUT****

CARTESIAN COORDINATES (ANGSTROEM)
---------------------------------
  C     -7.330440   -2.678990   -3.206810
  S     -6.019660   -2.926970   -4.419130
  O     -5.645830   -1.588380   -4.919310
  O     -4.881960   -3.503700   -3.667240
  O     -6.549270   -3.805150   -5.425070
  C     -7.469000   -1.246150   -2.713830
  H     -7.118250   -3.379820   -2.398050
  H     -8.241840   -3.004740   -3.706510
  H     -7.675800   -0.602140   -3.542920
  H     -6.557490   -0.940960   -2.243820
  H     -8.271140   -1.187770   -2.008100

 Total Charge           Charge          ....   -1
 Multiplicity           Mult            ....    1
 Number of Electrons    NEL             ....   58
 Basis Dimension        Dim             ....  222

ORBITAL ENERGIES
----------------

  NO   OCC          E(Eh)            E(eV)
   0   2.0000     -88.252531     -2401.4734
   1   2.0000     -18.712906      -509.2041
   2   2.0000     -18.701960      -508.9062
   3   2.0000     -18.697770      -508.7922
   4   2.0000      -9.929759      -270.2025
   5   2.0000      -9.922478      -270.0044
   6   2.0000      -7.794300      -212.0937
   7   2.0000      -5.822441      -158.4367
   8   2.0000      -5.821340      -158.4067
   9   2.0000      -5.821064      -158.3992
  10   2.0000      -1.010966       -27.5098
  11   2.0000      -0.874979       -23.8094
  12   2.0000      -0.852843       -23.2070
  13   2.0000      -0.743307       -20.2264
  14   2.0000      -0.614756       -16.7284
  15   2.0000      -0.483424       -13.1546
  16   2.0000      -0.425748       -11.5852
  17   2.0000      -0.415378       -11.3030
  18   2.0000      -0.375406       -10.2153
  19   2.0000      -0.354730        -9.6527
  20   2.0000      -0.351641        -9.5686
  21   2.0000      -0.325795        -8.8653
  22   2.0000      -0.316536        -8.6134
  23   2.0000      -0.245310        -6.6752
  24   2.0000      -0.244316        -6.6482
  25   2.0000      -0.207258        -5.6398
  26   2.0000      -0.201048        -5.4708
  27   2.0000      -0.191686        -5.2160
  28   2.0000      -0.153231        -4.1696
  29   0.0000       0.234818         6.3897
  30   0.0000       0.281466         7.6591
  31   0.0000       0.294770         8.0211
  32   0.0000       0.300704         8.1826
  33   0.0000       0.327093         8.9007

MULLIKEN ATOMIC CHARGES
-----------------------
   0 C :   -0.279059
   1 S :    0.689109
   2 O :   -0.540371
   3 O :   -0.548406
   4 O :   -0.496275
   5 C :   -0.373504
   6 H :    0.109905
   7 H :    0.104454
   8 H :    0.129763
   9 H :    0.125491
  10 H :    0.078892
Sum of atomic charges:   -1.0000000

LOEWDIN ATOMIC CHARGES
----------------------
   0 C :   -0.436706
   1 S :    0.401229
   2 O :   -0.405153
   3 O :   -0.422696
   4 O :   -0.364180
   5 C :   -0.358982
   6 H :    0.123557
   7 H :    0.121305
   8 H :    0.119136
   9 H :    0.119830
  10 H :    0.102659

  Mayer bond orders larger than 0.100000
B(  0-C ,  1-S ) :   0.8861 B(  0-C ,  5-C ) :   0.9236 B(  0-C ,  6-H ) :   0.9662
B(  0-C ,  7-H ) :   0.9616 B(  1-S ,  2-O ) :   1.7939 B(  1-S ,  3-O ) :   1.8141
B(  1-S ,  4-O ) :   1.8784 B(  5-C ,  8-H ) :   0.9745 B(  5-C ,  9-H ) :   0.9772
B(  5-C , 10-H ) :   0.9648

FINAL SINGLE POINT ENERGY      -702.473289031548

DIPOLE MOMENT
-------------
                                X             Y             Z
Electronic contribution:      4.69399      -3.53301      -5.11302
Nuclear contribution   :     -6.18165       4.01759       6.33106
                        -----------------------------------------
Total Dipole Moment    :     -1.48766       0.48459       1.21804
                        -----------------------------------------
Magnitude (a.u.)       :      1.98282
Magnitude (Debye)      :      5.03993

Rotational constants in cm-1:     0.161711     0.082788     0.081165
Rotational constants in MHz :  4847.971521  2481.906910  2433.276832

                             ****ORCA TERMINATED NORMALLY****
TOTAL RUN TIME: 0 days 0 hours 0 minutes 31 seconds 1 msec
