                         Program Version 5.0.0 -  RELEASE  -
|  1> !LC-BLYP RIJCOSX def2-TZVP def2/J TightSCF
|  2> *xyz 1 1
|  3> C         -2.16038       -1.36949       -3.46710
|  4> N         -3.03011       -1.91086       -4.54107
|  5> C         -2.04772        0.14658       -3.51177
|  6> H         -3.47744       -2.79151       -4.25710
|  7> H         -2.53801       -2.01786       -5.43808
|  8> H         -3.89159       -1.37604       -4.71437
|  9> H         -1.18444       -1.84400       -3.56639
| 10> H         -2.59819       -1.70838       -2.52848
| 11> H         -1.61525        0.44478       -4.44395
| 12> H         -1.42718        0.48198       -2.70720
| 13> H         -3.02145        0.57958       -3.41560
| 14> *
| 15> %MaxCore 64000
| 16>
| 17> %pal nprocs 4
| 18> end
| 19>
| 20> %scf
| 21>   MaxIter 150
| 22> end
| 23>
| 24>
| 25>                          ****END OF INPUT****

CARTESIAN COORDINATES (ANGSTROEM)
---------------------------------
  C     -2.160380   -1.369490   -3.467100
  N     -3.030110   -1.910860   -4.541070
  C     -2.047720    0.146580   -3.511770
  H     -3.477440   -2.791510   -4.257100
  H     -2.538010   -2.017860   -5.438080
  H     -3.891590   -1.376040   -4.714370
  H     -1.184440   -1.844000   -3.566390
  H     -2.598190   -1.708380   -2.528480
  H     -1.615250    0.444780   -4.443950
  H     -1.427180    0.481980   -2.707200
  H     -3.021450    0.579580   -3.415600

 Total Charge           Charge          ....    1
 Multiplicity           Mult            ....    1
 Number of Electrons    NEL             ....   26
 Basis Dimension        Dim             ....  141

ORBITAL ENERGIES
----------------

  NO   OCC          E(Eh)            E(eV)
   0   2.0000     -14.503676      -394.6651
   1   2.0000     -10.322229      -280.8821
   2   2.0000     -10.240526      -278.6589
   3   2.0000      -1.319056       -35.8933
   4   2.0000      -1.076703       -29.2986
   5   2.0000      -0.955433       -25.9987
   6   2.0000      -0.914767       -24.8921
   7   2.0000      -0.874602       -23.7991
   8   2.0000      -0.803644       -21.8683
   9   2.0000      -0.746749       -20.3201
  10   2.0000      -0.682469       -18.5709
  11   2.0000      -0.667400       -18.1609
  12   2.0000      -0.647642       -17.6232
  13   0.0000      -0.131329        -3.5736
  14   0.0000      -0.068396        -1.8611
  15   0.0000      -0.065046        -1.7700
  16   0.0000      -0.045553        -1.2396
  17   0.0000      -0.006156        -0.1675

MULLIKEN ATOMIC CHARGES
-----------------------
   0 C :   -0.243104
   1 N :   -0.298319
   2 C :   -0.405351
   3 H :    0.334176
   4 H :    0.339541
   5 H :    0.325204
   6 H :    0.213528
   7 H :    0.202975
   8 H :    0.167767
   9 H :    0.196539
  10 H :    0.167044
Sum of atomic charges:    1.0000000

LOEWDIN ATOMIC CHARGES
----------------------
   0 C :   -0.290549
   1 N :    0.163726
   2 C :   -0.289988
   3 H :    0.227623
   4 H :    0.227041
   5 H :    0.224036
   6 H :    0.158841
   7 H :    0.156773
   8 H :    0.135728
   9 H :    0.152370
  10 H :    0.134399

  Mayer bond orders larger than 0.100000
B(  0-C ,  1-N ) :   0.8307 B(  0-C ,  2-C ) :   0.9553 B(  0-C ,  6-H ) :   0.9554
B(  0-C ,  7-H ) :   0.9549 B(  1-N ,  3-H ) :   0.8812 B(  1-N ,  4-H ) :   0.8727
B(  1-N ,  5-H ) :   0.8767 B(  2-C ,  8-H ) :   0.9550 B(  2-C ,  9-H ) :   0.9581
B(  2-C , 10-H ) :   0.9567

FINAL SINGLE POINT ENERGY      -135.187698731617

DIPOLE MOMENT
-------------
                                X             Y             Z
Electronic contribution:     -0.66016      -1.50769      -0.78165
Nuclear contribution   :     -0.15215       0.37393      -0.04773
                        -----------------------------------------
Total Dipole Moment    :     -0.81230      -1.13376      -0.82938
                        -----------------------------------------
Magnitude (a.u.)       :      1.62269
Magnitude (Debye)      :      4.12455

Rotational constants in cm-1:     1.020762     0.277172     0.247319
Rotational constants in MHz : 30601.664035  8309.399682  7414.438136

                             ****ORCA TERMINATED NORMALLY****
TOTAL RUN TIME: 0 days 0 hours 0 minutes 15 seconds 597 msec
