                         Program Version 5.0.0 -  RELEASE  -
|  1> !LC-BLYP RIJCOSX def2-TZVP def2/J TightSCF xyzfile
|  2>
|  3> *xyzfile 0 1 B.xyz
|  4>
|  5> %MaxCore 64000
|  6>
|  7> %pal nprocs 18
|  8> end
|  9>
| 10> %scf
| 11>   MaxIter 150
| 12> end
| 13>
| 14>
| 15>                          ****END OF INPUT****

CARTESIAN COORDINATES (ANGSTROEM)
---------------------------------
  C     -2.160376   -1.369486   -3.467104
  N     -3.030108   -1.910857   -4.541074
  C     -2.047717    0.146583   -3.511774
  C     -7.330440   -2.678991   -3.206811
  S     -6.019659   -2.926965   -4.419128
  H     -3.477443   -2.791513   -4.257096
  H     -2.538013   -2.017860   -5.438075
  H     -3.891589   -1.376039   -4.714365
  O     -5.645830   -1.588384   -4.919307
  O     -4.881961   -3.503697   -3.667235
  H     -1.184438   -1.843997   -3.566393
  H     -2.598195   -1.708376   -2.528477
  O     -6.549267   -3.805150   -5.425071
  C     -3.328755    0.875037   -3.103669
  H     -1.740034    0.452343   -4.517126
  H     -1.232611    0.434938   -2.842208
  C     -3.628487    0.771601   -1.609363
  H     -4.175106    0.490791   -3.682203
  H     -3.237812    1.928663   -3.381480
  C     -4.975718    1.361432   -1.190644
  H     -2.830700    1.276234   -1.054766
  H     -3.594312   -0.275838   -1.294603
  C     -6.184720    0.784347   -1.926464
  H     -4.956292    2.445725   -1.342200
  H     -5.097256    1.205252   -0.114136
  C     -6.286921   -0.735882   -1.893531
  H     -6.163994    1.100199   -2.974250
  H     -7.094530    1.223459   -1.504509
  C     -7.468999   -1.246153   -2.713833
  H     -6.360641   -1.090347   -0.859176
  H     -5.369848   -1.171853   -2.295982
  H     -7.601914   -0.601349   -3.585329
  H     -8.389791   -1.173436   -2.126922
  H     -7.118254   -3.379818   -2.398055
  H     -8.241838   -3.004745   -3.706513

 Total Charge           Charge          ....    0
 Multiplicity           Mult            ....    1
 Number of Electrons    NEL             ....  122
 Basis Dimension        Dim             ....  566

ORBITAL ENERGIES
----------------

  NO   OCC          E(Eh)            E(eV)
   0   2.0000     -88.425578     -2406.1823
   1   2.0000     -18.890074      -514.0250
   2   2.0000     -18.889780      -514.0170
   3   2.0000     -18.873955      -513.5864
   4   2.0000     -14.271563      -388.3490
   5   2.0000     -10.151781      -276.2440
   6   2.0000     -10.104632      -274.9610
   7   2.0000     -10.084184      -274.4046
   8   2.0000     -10.075860      -274.1781
   9   2.0000     -10.069898      -274.0159
  10   2.0000     -10.068065      -273.9660
  11   2.0000     -10.060336      -273.7557
  12   2.0000     -10.059746      -273.7396
  13   2.0000     -10.056633      -273.6549
  14   2.0000      -7.968399      -216.8312
  15   2.0000      -5.996551      -163.1745
  16   2.0000      -5.995609      -163.1488
  17   2.0000      -5.994656      -163.1229
  18   2.0000      -1.191695       -32.4277
  19   2.0000      -1.107590       -30.1391
  20   2.0000      -1.048081       -28.5197
  21   2.0000      -1.046199       -28.4685
  22   2.0000      -0.948308       -25.8048
  23   2.0000      -0.918744       -25.0003
  24   2.0000      -0.892837       -24.2953
  25   2.0000      -0.848197       -23.0806
  26   2.0000      -0.816027       -22.2052
  27   2.0000      -0.771749       -21.0004
  28   2.0000      -0.733830       -19.9685
  29   2.0000      -0.716772       -19.5044
  30   2.0000      -0.703332       -19.1386
  31   2.0000      -0.678908       -18.4740
  32   2.0000      -0.668866       -18.2008
  33   2.0000      -0.641969       -17.4689
  34   2.0000      -0.618722       -16.8363
  35   2.0000      -0.598331       -16.2814
  36   2.0000      -0.596277       -16.2255
  37   2.0000      -0.580549       -15.7975
  38   2.0000      -0.563973       -15.3465
  39   2.0000      -0.550754       -14.9868
  40   2.0000      -0.543167       -14.7803
  41   2.0000      -0.538416       -14.6511
  42   2.0000      -0.532609       -14.4930
  43   2.0000      -0.516505       -14.0548
  44   2.0000      -0.511378       -13.9153
  45   2.0000      -0.501516       -13.6469
  46   2.0000      -0.488288       -13.2870
  47   2.0000      -0.474560       -12.9134
  48   2.0000      -0.468865       -12.7585
  49   2.0000      -0.453389       -12.3373
  50   2.0000      -0.444396       -12.0926
  51   2.0000      -0.436977       -11.8908
  52   2.0000      -0.424502       -11.5513
  53   2.0000      -0.421301       -11.4642
  54   2.0000      -0.418081       -11.3766
  55   2.0000      -0.413135       -11.2420
  56   2.0000      -0.408224       -11.1083
  57   2.0000      -0.381771       -10.3885
  58   2.0000      -0.373470       -10.1626
  59   2.0000      -0.364040        -9.9060
  60   2.0000      -0.338201        -9.2029
  61   0.0000       0.055243         1.5033
  62   0.0000       0.091322         2.4850
  63   0.0000       0.099747         2.7142
  64   0.0000       0.103968         2.8291
  65   0.0000       0.118364         3.2209

MULLIKEN ATOMIC CHARGES
-----------------------
   0 C :   -0.258237
   1 N :   -0.292507
   2 C :   -0.245283
   3 C :   -0.304609
   4 S :    0.749186
   5 H :    0.309474
   6 H :    0.277284
   7 H :    0.298008
   8 O :   -0.558611
   9 O :   -0.557862
  10 H :    0.172839
  11 H :    0.197389
  12 O :   -0.429865
  13 C :   -0.313994
  14 H :    0.147500
  15 H :    0.146299
  16 C :   -0.296500
  17 H :    0.172846
  18 H :    0.143827
  19 C :   -0.221105
  20 H :    0.135888
  21 H :    0.140628
  22 C :   -0.306902
  23 H :    0.131188
  24 H :    0.132834
  25 C :   -0.247845
  26 H :    0.157890
  27 H :    0.132659
  28 C :   -0.248305
  29 H :    0.123545
  30 H :    0.111429
  31 H :    0.153998
  32 H :    0.128430
  33 H :    0.149242
  34 H :    0.169241
Sum of atomic charges:   -0.0000000

LOEWDIN ATOMIC CHARGES
----------------------
   0 C :   -0.283470
   1 N :    0.133225
   2 C :   -0.280397
   3 C :   -0.382540
   4 S :    0.443012
   5 H :    0.170366
   6 H :    0.198186
   7 H :    0.177868
   8 O :   -0.371913
   9 O :   -0.378256
  10 H :    0.142373
  11 H :    0.148641
  12 O :   -0.304943
  13 C :   -0.275055
  14 H :    0.144406
  15 H :    0.152804
  16 C :   -0.280898
  17 H :    0.145403
  18 H :    0.146671
  19 C :   -0.276863
  20 H :    0.141315
  21 H :    0.138068
  22 C :   -0.281621
  23 H :    0.141433
  24 H :    0.142514
  25 C :   -0.280145
  26 H :    0.142700
  27 H :    0.142373
  28 C :   -0.299701
  29 H :    0.138470
  30 H :    0.134572
  31 H :    0.148053
  32 H :    0.141518
  33 H :    0.139944
  34 H :    0.141888

  Mayer bond orders larger than 0.100000
B(  0-C ,  1-N ) :   0.8651 B(  0-C ,  2-C ) :   0.9069 B(  0-C , 10-H ) :   0.9821
B(  0-C , 11-H ) :   0.9764 B(  1-N ,  5-H ) :   0.7875 B(  1-N ,  6-H ) :   0.8998
B(  1-N ,  7-H ) :   0.8184 B(  2-C , 13-C ) :   0.9338 B(  2-C , 14-H ) :   0.9819
B(  2-C , 15-H ) :   0.9748 B(  3-C ,  4-S ) :   0.9048 B(  3-C , 28-C ) :   0.9267
B(  3-C , 33-H ) :   0.9546 B(  3-C , 34-H ) :   0.9668 B(  4-S ,  8-O ) :   1.5919
B(  4-S ,  9-O ) :   1.5662 B(  4-S , 12-O ) :   2.0158 B(  5-H ,  9-O ) :   0.1742
B(  7-H ,  8-O ) :   0.1338 B( 13-C , 16-C ) :   0.8613 B( 13-C , 17-H ) :   0.9880
B( 13-C , 18-H ) :   0.9764 B( 16-C , 19-C ) :   0.9318 B( 16-C , 20-H ) :   0.9755
B( 16-C , 21-H ) :   0.9930 B( 19-C , 22-C ) :   0.9213 B( 19-C , 23-H ) :   0.9920
B( 19-C , 24-H ) :   0.9881 B( 22-C , 25-C ) :   0.8757 B( 22-C , 26-H ) :   0.9923
B( 22-C , 27-H ) :   0.9840 B( 25-C , 28-C ) :   0.9077 B( 25-C , 29-H ) :   0.9685
B( 25-C , 30-H ) :   0.9865 B( 28-C , 31-H ) :   0.9799 B( 28-C , 32-H ) :   0.9669

FINAL SINGLE POINT ENERGY     -1032.726114524824

DIPOLE MOMENT
-------------
                                X             Y             Z
Electronic contribution:     -5.97150     -15.23316     -11.44514
Nuclear contribution   :      8.59301      16.99497      12.41069
                        -----------------------------------------
Total Dipole Moment    :      2.62152       1.76181       0.96555
                        -----------------------------------------
Magnitude (a.u.)       :      3.30282
Magnitude (Debye)      :      8.39510

Rotational constants in cm-1:     0.025617     0.015295     0.010641
Rotational constants in MHz :   767.991150   458.522408   319.013093

                             ****ORCA TERMINATED NORMALLY****
TOTAL RUN TIME: 0 days 0 hours 1 minutes 0 seconds 513 msec
