                         Program Version 5.0.0 -  RELEASE  -
|  1> !LC-BLYP RIJCOSX def2-TZVP def2/J TightSCF
|  2> *xyz 0 1
|  3> C         -7.33044       -2.67899       -3.20681
|  4> S         -6.01966       -2.92697       -4.41913
|  5> F         -5.64583       -1.58838       -4.91931
|  6> O         -4.88196       -3.50370       -3.66724
|  7> O         -6.54927       -3.80515       -5.42507
|  8> C         -7.46900       -1.24615       -2.71383
|  9> H         -7.11825       -3.37982       -2.39805
| 10> H         -8.24184       -3.00474       -3.70651
| 11> H         -7.67580       -0.60214       -3.54292
| 12> H         -6.55749       -0.94096       -2.24382
| 13> H         -8.27114       -1.18777       -2.00810
| 14> *
| 15> %MaxCore 64000
| 16>
| 17> %pal nprocs 4
| 18> end
| 19>
| 20> %scf
| 21>   MaxIter 150
| 22> end
| 23>
| 24>
| 25>                          ****END OF INPUT****

CARTESIAN COORDINATES (ANGSTROEM)
---------------------------------
  C     -7.330440   -2.678990   -3.206810
  S     -6.019660   -2.926970   -4.419130
  F     -5.645830   -1.588380   -4.919310
  O     -4.881960   -3.503700   -3.667240
  O     -6.549270   -3.805150   -5.425070
  C     -7.469000   -1.246150   -2.713830
  H     -7.118250   -3.379820   -2.398050
  H     -8.241840   -3.004740   -3.706510
  H     -7.675800   -0.602140   -3.542920
  H     -6.557490   -0.940960   -2.243820
  H     -8.271140   -1.187770   -2.008100

 Total Charge           Charge          ....    0
 Multiplicity           Mult            ....    1
 Number of Electrons    NEL             ....   58
 Basis Dimension        Dim             ....  222

ORBITAL ENERGIES
----------------

  NO   OCC          E(Eh)            E(eV)
   0   2.0000     -88.516567     -2408.6582
   1   2.0000     -24.558891      -668.2814
   2   2.0000     -18.953123      -515.7407
   3   2.0000     -18.938107      -515.3321
   4   2.0000     -10.133762      -275.7537
   5   2.0000     -10.095680      -274.7174
   6   2.0000      -8.059035      -219.2975
   7   2.0000      -6.090972      -165.7438
   8   2.0000      -6.083789      -165.5483
   9   2.0000      -6.083625      -165.5439
  10   2.0000      -1.437652       -39.1205
  11   2.0000      -1.202418       -32.7195
  12   2.0000      -1.101328       -29.9687
  13   2.0000      -0.940905       -25.6033
  14   2.0000      -0.830254       -22.5923
  15   2.0000      -0.784427       -21.3453
  16   2.0000      -0.694079       -18.8868
  17   2.0000      -0.671872       -18.2826
  18   2.0000      -0.644930       -17.5494
  19   2.0000      -0.607041       -16.5184
  20   2.0000      -0.576818       -15.6960
  21   2.0000      -0.554907       -15.0998
  22   2.0000      -0.544101       -14.8057
  23   2.0000      -0.518123       -14.0988
  24   2.0000      -0.499370       -13.5886
  25   2.0000      -0.488914       -13.3040
  26   2.0000      -0.435298       -11.8451
  27   2.0000      -0.422308       -11.4916
  28   2.0000      -0.409613       -11.1461
  29   0.0000       0.071989         1.9589
  30   0.0000       0.118658         3.2289
  31   0.0000       0.129839         3.5331
  32   0.0000       0.136352         3.7103
  33   0.0000       0.143485         3.9044

MULLIKEN ATOMIC CHARGES
-----------------------
   0 C :   -0.284850
   1 S :    0.755048
   2 F :   -0.098929
   3 O :   -0.411978
   4 O :   -0.360519
   5 C :   -0.417060
   6 H :    0.184067
   7 H :    0.173882
   8 H :    0.149348
   9 H :    0.161070
  10 H :    0.149922
Sum of atomic charges:   -0.0000000

LOEWDIN ATOMIC CHARGES
----------------------
   0 C :   -0.394226
   1 S :    0.524936
   2 F :    0.072680
   3 O :   -0.305551
   4 O :   -0.249351
   5 C :   -0.332275
   6 H :    0.152636
   7 H :    0.145978
   8 H :    0.124874
   9 H :    0.129130
  10 H :    0.131168

  Mayer bond orders larger than 0.100000
B(  0-C ,  1-S ) :   0.9109 B(  0-C ,  5-C ) :   0.9226 B(  0-C ,  6-H ) :   0.9406
B(  0-C ,  7-H ) :   0.9417 B(  1-S ,  2-F ) :   1.1401 B(  1-S ,  3-O ) :   1.9362
B(  1-S ,  4-O ) :   1.9944 B(  5-C ,  8-H ) :   0.9658 B(  5-C ,  9-H ) :   0.9649
B(  5-C , 10-H ) :   0.9634

FINAL SINGLE POINT ENERGY      -726.991818820915

DIPOLE MOMENT
-------------
                                X             Y             Z
Electronic contribution:      5.63791      -1.71327      -6.37822
Nuclear contribution   :     -6.81251       2.87933       7.15058
                        -----------------------------------------
Total Dipole Moment    :     -1.17460       1.16606       0.77235
                        -----------------------------------------
Magnitude (a.u.)       :      1.82645
Magnitude (Debye)      :      4.64246

Rotational constants in cm-1:     0.152543     0.082494     0.078987
Rotational constants in MHz :  4573.135887  2473.116216  2367.980829

                             ****ORCA TERMINATED NORMALLY****
TOTAL RUN TIME: 0 days 0 hours 0 minutes 32 seconds 89 msec
