                         Program Version 5.0.0 -  RELEASE  -
|  1> !LC-BLYP RIJCOSX def2-TZVP def2/J TightSCF
|  2> *xyz 0 1
|  3> C         -2.16038       -1.36949       -3.46710
|  4> C         -3.03011       -1.91086       -4.54107
|  5> C         -2.04772        0.14658       -3.51177
|  6> H         -3.47744       -2.79151       -4.25710
|  7> H         -2.53801       -2.01786       -5.43808
|  8> H         -3.89159       -1.37604       -4.71437
|  9> H         -1.18444       -1.84400       -3.56639
| 10> H         -2.59819       -1.70838       -2.52848
| 11> H         -1.61525        0.44478       -4.44395
| 12> H         -1.42718        0.48198       -2.70720
| 13> H         -3.02145        0.57958       -3.41560
| 14> *
| 15> %MaxCore 64000
| 16>
| 17> %pal nprocs 4
| 18> end
| 19>
| 20> %scf
| 21>   MaxIter 150
| 22> end
| 23>
| 24>
| 25>                          ****END OF INPUT****

CARTESIAN COORDINATES (ANGSTROEM)
---------------------------------
  C     -2.160380   -1.369490   -3.467100
  C     -3.030110   -1.910860   -4.541070
  C     -2.047720    0.146580   -3.511770
  H     -3.477440   -2.791510   -4.257100
  H     -2.538010   -2.017860   -5.438080
  H     -3.891590   -1.376040   -4.714370
  H     -1.184440   -1.844000   -3.566390
  H     -2.598190   -1.708380   -2.528480
  H     -1.615250    0.444780   -4.443950
  H     -1.427180    0.481980   -2.707200
  H     -3.021450    0.579580   -3.415600

 Total Charge           Charge          ....    0
 Multiplicity           Mult            ....    1
 Number of Electrons    NEL             ....   26
 Basis Dimension        Dim             ....  141

ORBITAL ENERGIES
----------------

  NO   OCC          E(Eh)            E(eV)
   0   2.0000     -10.054408      -273.5943
   1   2.0000     -10.044451      -273.3234
   2   2.0000     -10.026886      -272.8454
   3   2.0000      -0.900883       -24.5143
   4   2.0000      -0.800406       -21.7801
   5   2.0000      -0.696300       -18.9473
   6   2.0000      -0.577386       -15.7115
   7   2.0000      -0.545861       -14.8536
   8   2.0000      -0.504375       -13.7248
   9   2.0000      -0.494878       -13.4663
  10   2.0000      -0.438182       -11.9236
  11   2.0000      -0.425951       -11.5907
  12   2.0000      -0.423804       -11.5323
  13   0.0000       0.103409         2.8139
  14   0.0000       0.146686         3.9915
  15   0.0000       0.152377         4.1464
  16   0.0000       0.158634         4.3167
  17   0.0000       0.182907         4.9772

MULLIKEN ATOMIC CHARGES
-----------------------
   0 C :   -0.191290
   1 C :   -0.405289
   2 C :   -0.379680
   3 H :    0.132720
   4 H :    0.129428
   5 H :    0.127554
   6 H :    0.107725
   7 H :    0.106964
   8 H :    0.121662
   9 H :    0.125934
  10 H :    0.124274
Sum of atomic charges:   -0.0000000

LOEWDIN ATOMIC CHARGES
----------------------
   0 C :   -0.330784
   1 C :   -0.324652
   2 C :   -0.319220
   3 H :    0.116063
   4 H :    0.112472
   5 H :    0.114617
   6 H :    0.136625
   7 H :    0.136655
   8 H :    0.120111
   9 H :    0.118838
  10 H :    0.119275

  Mayer bond orders larger than 0.100000
B(  0-C ,  1-C ) :   0.9221 B(  0-C ,  2-C ) :   0.9448 B(  0-C ,  6-H ) :   0.9789
B(  0-C ,  7-H ) :   0.9846 B(  1-C ,  3-H ) :   0.9853 B(  1-C ,  4-H ) :   0.9773
B(  1-C ,  5-H ) :   0.9804 B(  2-C ,  8-H ) :   0.9754 B(  2-C ,  9-H ) :   0.9836
B(  2-C , 10-H ) :   0.9779

FINAL SINGLE POINT ENERGY      -118.781108149485

DIPOLE MOMENT
-------------
                                X             Y             Z
Electronic contribution:      0.31430      -0.13626       0.27830
Nuclear contribution   :     -0.34625       0.09603      -0.26933
                        -----------------------------------------
Total Dipole Moment    :     -0.03194      -0.04022       0.00897
                        -----------------------------------------
Magnitude (a.u.)       :      0.05214
Magnitude (Debye)      :      0.13253

Rotational constants in cm-1:     1.028617     0.291238     0.258956
Rotational constants in MHz : 30837.159054  8731.095379  7763.318586

                             ****ORCA TERMINATED NORMALLY****
TOTAL RUN TIME: 0 days 0 hours 0 minutes 16 seconds 470 msec
