                         Program Version 5.0.0 -  RELEASE  -
|  1> !LC-BLYP RIJCOSX def2-TZVP def2/J TightSCF
|  2> *xyz 0 1
|  3> C         -7.33044       -2.67899       -3.20681
|  4> S         -6.01966       -2.92697       -4.41913
|  5> O         -5.64583       -1.58838       -4.91931
|  6> F         -4.88196       -3.50370       -3.66724
|  7> O         -6.54927       -3.80515       -5.42507
|  8> C         -7.46900       -1.24615       -2.71383
|  9> H         -7.11825       -3.37982       -2.39805
| 10> H         -8.24184       -3.00474       -3.70651
| 11> H         -7.67580       -0.60214       -3.54292
| 12> H         -6.55749       -0.94096       -2.24382
| 13> H         -8.27114       -1.18777       -2.00810
| 14> *
| 15> %MaxCore 64000
| 16>
| 17> %pal nprocs 4
| 18> end
| 19>
| 20> %scf
| 21>   MaxIter 150
| 22> end
| 23>
| 24>
| 25>                          ****END OF INPUT****

CARTESIAN COORDINATES (ANGSTROEM)
---------------------------------
  C     -7.330440   -2.678990   -3.206810
  S     -6.019660   -2.926970   -4.419130
  O     -5.645830   -1.588380   -4.919310
  F     -4.881960   -3.503700   -3.667240
  O     -6.549270   -3.805150   -5.425070
  C     -7.469000   -1.246150   -2.713830
  H     -7.118250   -3.379820   -2.398050
  H     -8.241840   -3.004740   -3.706510
  H     -7.675800   -0.602140   -3.542920
  H     -6.557490   -0.940960   -2.243820
  H     -8.271140   -1.187770   -2.008100

 Total Charge           Charge          ....    0
 Multiplicity           Mult            ....    1
 Number of Electrons    NEL             ....   58
 Basis Dimension        Dim             ....  222

ORBITAL ENERGIES
----------------

  NO   OCC          E(Eh)            E(eV)
   0   2.0000     -88.516803     -2408.6647
   1   2.0000     -24.556021      -668.2033
   2   2.0000     -18.953254      -515.7443
   3   2.0000     -18.941729      -515.4306
   4   2.0000     -10.134200      -275.7656
   5   2.0000     -10.086530      -274.4684
   6   2.0000      -8.059264      -219.3037
   7   2.0000      -6.091127      -165.7480
   8   2.0000      -6.084219      -165.5600
   9   2.0000      -6.083735      -165.5468
  10   2.0000      -1.434144       -39.0250
  11   2.0000      -1.203569       -32.7508
  12   2.0000      -1.104880       -30.0653
  13   2.0000      -0.936412       -25.4811
  14   2.0000      -0.831728       -22.6325
  15   2.0000      -0.777227       -21.1494
  16   2.0000      -0.684027       -18.6133
  17   2.0000      -0.667873       -18.1738
  18   2.0000      -0.654491       -17.8096
  19   2.0000      -0.601177       -16.3588
  20   2.0000      -0.585965       -15.9449
  21   2.0000      -0.556091       -15.1320
  22   2.0000      -0.531121       -14.4525
  23   2.0000      -0.505518       -13.7558
  24   2.0000      -0.501284       -13.6406
  25   2.0000      -0.485095       -13.2001
  26   2.0000      -0.434648       -11.8274
  27   2.0000      -0.429028       -11.6745
  28   2.0000      -0.412717       -11.2306
  29   0.0000       0.082545         2.2462
  30   0.0000       0.105454         2.8695
  31   0.0000       0.121869         3.3162
  32   0.0000       0.142865         3.8875
  33   0.0000       0.151427         4.1205

MULLIKEN ATOMIC CHARGES
-----------------------
   0 C :   -0.297961
   1 S :    0.757146
   2 O :   -0.407486
   3 F :   -0.101295
   4 O :   -0.362875
   5 C :   -0.386363
   6 H :    0.159513
   7 H :    0.181691
   8 H :    0.167424
   9 H :    0.147134
  10 H :    0.143072
Sum of atomic charges:    0.0000000

LOEWDIN ATOMIC CHARGES
----------------------
   0 C :   -0.400872
   1 S :    0.526088
   2 O :   -0.291595
   3 F :    0.061844
   4 O :   -0.250188
   5 C :   -0.325293
   6 H :    0.140136
   7 H :    0.151538
   8 H :    0.132346
   9 H :    0.127787
  10 H :    0.128208

  Mayer bond orders larger than 0.100000
B(  0-C ,  1-S ) :   0.9049 B(  0-C ,  5-C ) :   0.9275 B(  0-C ,  6-H ) :   0.9468
B(  0-C ,  7-H ) :   0.9402 B(  1-S ,  2-O ) :   1.9258 B(  1-S ,  3-F ) :   1.1429
B(  1-S ,  4-O ) :   1.9944 B(  5-C ,  8-H ) :   0.9640 B(  5-C ,  9-H ) :   0.9685
B(  5-C , 10-H ) :   0.9583

FINAL SINGLE POINT ENERGY      -726.994997024392

DIPOLE MOMENT
-------------
                                X             Y             Z
Electronic contribution:      6.98532      -4.99350      -4.26478
Nuclear contribution   :     -7.60849       4.87515       5.84588
                        -----------------------------------------
Total Dipole Moment    :     -0.62317      -0.11835       1.58110
                        -----------------------------------------
Magnitude (a.u.)       :      1.70359
Magnitude (Debye)      :      4.33019

Rotational constants in cm-1:     0.153704     0.080342     0.079431
Rotational constants in MHz :  4607.928650  2408.599360  2381.267225

                             ****ORCA TERMINATED NORMALLY****
TOTAL RUN TIME: 0 days 0 hours 0 minutes 31 seconds 908 msec
