                         Program Version 5.0.0 -  RELEASE  -
|  1> !LC-BLYP RIJCOSX def2-TZVP def2/J TightSCF
|  2> *xyz 0 1
|  3> C         -7.33044       -2.67899       -3.20681
|  4> S         -6.01966       -2.92697       -4.41913
|  5> O         -5.64583       -1.58838       -4.91931
|  6> O         -4.88196       -3.50370       -3.66724
|  7> F         -6.54927       -3.80515       -5.42507
|  8> C         -7.46900       -1.24615       -2.71383
|  9> H         -7.11825       -3.37982       -2.39805
| 10> H         -8.24184       -3.00474       -3.70651
| 11> H         -7.67580       -0.60214       -3.54292
| 12> H         -6.55749       -0.94096       -2.24382
| 13> H         -8.27114       -1.18777       -2.00810
| 14> *
| 15> %MaxCore 64000
| 16>
| 17> %pal nprocs 4
| 18> end
| 19>
| 20> %scf
| 21>   MaxIter 150
| 22> end
| 23>
| 24>
| 25>                          ****END OF INPUT****

CARTESIAN COORDINATES (ANGSTROEM)
---------------------------------
  C     -7.330440   -2.678990   -3.206810
  S     -6.019660   -2.926970   -4.419130
  O     -5.645830   -1.588380   -4.919310
  O     -4.881960   -3.503700   -3.667240
  F     -6.549270   -3.805150   -5.425070
  C     -7.469000   -1.246150   -2.713830
  H     -7.118250   -3.379820   -2.398050
  H     -8.241840   -3.004740   -3.706510
  H     -7.675800   -0.602140   -3.542920
  H     -6.557490   -0.940960   -2.243820
  H     -8.271140   -1.187770   -2.008100

 Total Charge           Charge          ....    0
 Multiplicity           Mult            ....    1
 Number of Electrons    NEL             ....   58
 Basis Dimension        Dim             ....  222

ORBITAL ENERGIES
----------------

  NO   OCC          E(Eh)            E(eV)
   0   2.0000     -88.519074     -2408.7265
   1   2.0000     -24.578336      -668.8105
   2   2.0000     -18.941975      -515.4373
   3   2.0000     -18.938765      -515.3500
   4   2.0000     -10.134834      -275.7828
   5   2.0000     -10.086524      -274.4683
   6   2.0000      -8.061507      -219.3648
   7   2.0000      -6.093249      -165.8057
   8   2.0000      -6.086350      -165.6180
   9   2.0000      -6.086063      -165.6102
  10   2.0000      -1.470276       -40.0082
  11   2.0000      -1.188435       -32.3390
  12   2.0000      -1.088074       -29.6080
  13   2.0000      -0.936462       -25.4824
  14   2.0000      -0.844793       -22.9880
  15   2.0000      -0.785169       -21.3655
  16   2.0000      -0.697475       -18.9793
  17   2.0000      -0.694121       -18.8880
  18   2.0000      -0.660072       -17.9615
  19   2.0000      -0.603098       -16.4111
  20   2.0000      -0.585045       -15.9199
  21   2.0000      -0.545217       -14.8361
  22   2.0000      -0.527778       -14.3616
  23   2.0000      -0.508241       -13.8299
  24   2.0000      -0.490276       -13.3411
  25   2.0000      -0.482740       -13.1360
  26   2.0000      -0.427476       -11.6322
  27   2.0000      -0.420108       -11.4317
  28   2.0000      -0.398960       -10.8563
  29   0.0000       0.084419         2.2972
  30   0.0000       0.103798         2.8245
  31   0.0000       0.121340         3.3018
  32   0.0000       0.139901         3.8069
  33   0.0000       0.150136         4.0854

MULLIKEN ATOMIC CHARGES
-----------------------
   0 C :   -0.289676
   1 S :    0.757421
   2 O :   -0.400541
   3 O :   -0.404998
   4 F :   -0.067071
   5 C :   -0.391011
   6 H :    0.180443
   7 H :    0.149705
   8 H :    0.157365
   9 H :    0.164486
  10 H :    0.143876
Sum of atomic charges:   -0.0000000

LOEWDIN ATOMIC CHARGES
----------------------
   0 C :   -0.403152
   1 S :    0.518303
   2 O :   -0.288312
   3 O :   -0.301315
   4 F :    0.116205
   5 C :   -0.319927
   6 H :    0.148624
   7 H :    0.137243
   8 H :    0.130281
   9 H :    0.133131
  10 H :    0.128918

  Mayer bond orders larger than 0.100000
B(  0-C ,  1-S ) :   0.9086 B(  0-C ,  5-C ) :   0.9333 B(  0-C ,  6-H ) :   0.9400
B(  0-C ,  7-H ) :   0.9413 B(  1-S ,  2-O ) :   1.9270 B(  1-S ,  3-O ) :   1.9375
B(  1-S ,  4-F ) :   1.1887 B(  5-C ,  8-H ) :   0.9644 B(  5-C ,  9-H ) :   0.9663
B(  5-C , 10-H ) :   0.9580

FINAL SINGLE POINT ENERGY      -726.976616837457

DIPOLE MOMENT
-------------
                                X             Y             Z
Electronic contribution:      4.13408      -5.49260      -7.27587
Nuclear contribution   :     -5.87110       5.18927       7.67759
                        -----------------------------------------
Total Dipole Moment    :     -1.73702      -0.30333       0.40172
                        -----------------------------------------
Magnitude (a.u.)       :      1.80849
Magnitude (Debye)      :      4.59681

Rotational constants in cm-1:     0.155988     0.080452     0.078187
Rotational constants in MHz :  4676.405251  2411.902056  2343.983816

                             ****ORCA TERMINATED NORMALLY****
TOTAL RUN TIME: 0 days 0 hours 0 minutes 31 seconds 237 msec
