                         Program Version 5.0.0 -  RELEASE  -
|  1> !LC-BLYP RIJCOSX def2-TZVP def2/J TightSCF xyzfile
|  2>
|  3> *xyzfile 0 1 D1.xyz
|  4>
|  5> %MaxCore 64000
|  6>
|  7> %pal nprocs 18
|  8> end
|  9>
| 10> %scf
| 11>   MaxIter 150
| 12> end
| 13>
| 14>
| 15>                          ****END OF INPUT****

CARTESIAN COORDINATES (ANGSTROEM)
---------------------------------
  C     -2.160376   -1.369486   -3.467104
  C     -3.030108   -1.910857   -4.541074
  C     -2.047717    0.146583   -3.511774
  C     -7.330440   -2.678991   -3.206811
  S     -6.019659   -2.926965   -4.419128
  H     -3.477443   -2.791513   -4.257096
  H     -2.538013   -2.017860   -5.438075
  H     -3.891589   -1.376039   -4.714365
  F     -5.645830   -1.588384   -4.919307
  O     -4.881961   -3.503697   -3.667235
  H     -1.184438   -1.843997   -3.566393
  H     -2.598195   -1.708376   -2.528477
  O     -6.549267   -3.805150   -5.425071
  C     -3.328755    0.875037   -3.103669
  H     -1.740034    0.452343   -4.517126
  H     -1.232611    0.434938   -2.842208
  C     -3.628487    0.771601   -1.609363
  H     -4.175106    0.490791   -3.682203
  H     -3.237812    1.928663   -3.381480
  C     -4.975718    1.361432   -1.190644
  H     -2.830700    1.276234   -1.054766
  H     -3.594312   -0.275838   -1.294603
  C     -6.184720    0.784347   -1.926464
  H     -4.956292    2.445725   -1.342200
  H     -5.097256    1.205252   -0.114136
  C     -6.286921   -0.735882   -1.893531
  H     -6.163994    1.100199   -2.974250
  H     -7.094530    1.223459   -1.504509
  C     -7.468999   -1.246153   -2.713833
  H     -6.360641   -1.090347   -0.859176
  H     -5.369848   -1.171853   -2.295982
  H     -7.601914   -0.601349   -3.585329
  H     -8.389791   -1.173436   -2.126922
  H     -7.118254   -3.379818   -2.398055
  H     -8.241838   -3.004745   -3.706513

 Total Charge           Charge          ....    0
 Multiplicity           Mult            ....    1
 Number of Electrons    NEL             ....  122
 Basis Dimension        Dim             ....  566

ORBITAL ENERGIES
----------------

  NO   OCC          E(Eh)            E(eV)
   0   2.0000     -88.522438     -2408.8180
   1   2.0000     -24.564436      -668.4323
   2   2.0000     -18.958881      -515.8974
   3   2.0000     -18.943751      -515.4857
   4   2.0000     -10.133457      -275.7454
   5   2.0000     -10.102272      -274.8968
   6   2.0000     -10.080650      -274.3084
   7   2.0000     -10.072854      -274.0963
   8   2.0000     -10.065954      -273.9085
   9   2.0000     -10.058877      -273.7160
  10   2.0000     -10.056519      -273.6518
  11   2.0000     -10.049033      -273.4481
  12   2.0000     -10.039118      -273.1783
  13   2.0000      -9.992125      -271.8996
  14   2.0000      -8.065215      -219.4656
  15   2.0000      -6.097116      -165.9110
  16   2.0000      -6.089923      -165.7152
  17   2.0000      -6.089774      -165.7112
  18   2.0000      -1.446816       -39.3699
  19   2.0000      -1.209909       -32.9233
  20   2.0000      -1.112075       -30.2611
  21   2.0000      -0.959369       -26.1057
  22   2.0000      -0.927863       -25.2484
  23   2.0000      -0.898583       -24.4517
  24   2.0000      -0.870476       -23.6869
  25   2.0000      -0.829097       -22.5609
  26   2.0000      -0.815116       -22.1804
  27   2.0000      -0.780207       -21.2305
  28   2.0000      -0.747019       -20.3274
  29   2.0000      -0.731413       -19.9028
  30   2.0000      -0.700640       -19.0654
  31   2.0000      -0.689675       -18.7670
  32   2.0000      -0.674544       -18.3553
  33   2.0000      -0.656443       -17.8627
  34   2.0000      -0.652941       -17.7674
  35   2.0000      -0.606434       -16.5019
  36   2.0000      -0.598247       -16.2791
  37   2.0000      -0.584366       -15.9014
  38   2.0000      -0.576663       -15.6918
  39   2.0000      -0.568251       -15.4629
  40   2.0000      -0.555038       -15.1034
  41   2.0000      -0.542845       -14.7716
  42   2.0000      -0.535916       -14.5830
  43   2.0000      -0.531713       -14.4686
  44   2.0000      -0.515097       -14.0165
  45   2.0000      -0.499838       -13.6013
  46   2.0000      -0.493194       -13.4205
  47   2.0000      -0.491585       -13.3767
  48   2.0000      -0.476182       -12.9576
  49   2.0000      -0.468032       -12.7358
  50   2.0000      -0.455730       -12.4010
  51   2.0000      -0.452598       -12.3158
  52   2.0000      -0.438990       -11.9455
  53   2.0000      -0.434300       -11.8179
  54   2.0000      -0.428353       -11.6561
  55   2.0000      -0.421808       -11.4780
  56   2.0000      -0.414442       -11.2775
  57   2.0000      -0.410673       -11.1750
  58   2.0000      -0.400545       -10.8994
  59   2.0000      -0.397262       -10.8100
  60   2.0000      -0.373594       -10.1660
  61   0.0000       0.069134         1.8812
  62   0.0000       0.097493         2.6529
  63   0.0000       0.104374         2.8402
  64   0.0000       0.111040         3.0215
  65   0.0000       0.118402         3.2219

MULLIKEN ATOMIC CHARGES
-----------------------
   0 C :   -0.241562
   1 C :   -0.478301
   2 C :   -0.201841
   3 C :   -0.296009
   4 S :    0.795388
   5 H :    0.198454
   6 H :    0.132665
   7 H :    0.098099
   8 F :   -0.099865
   9 O :   -0.413296
  10 H :    0.118937
  11 H :    0.123488
  12 O :   -0.360055
  13 C :   -0.268326
  14 H :    0.121863
  15 H :    0.115702
  16 C :   -0.297561
  17 H :    0.113431
  18 H :    0.128229
  19 C :   -0.219893
  20 H :    0.133277
  21 H :    0.145316
  22 C :   -0.296994
  23 H :    0.131476
  24 H :    0.131042
  25 C :   -0.287485
  26 H :    0.149579
  27 H :    0.135112
  28 C :   -0.314190
  29 H :    0.139850
  30 H :    0.158839
  31 H :    0.167914
  32 H :    0.152529
  33 H :    0.188341
  34 H :    0.195847
Sum of atomic charges:   -0.0000000

LOEWDIN ATOMIC CHARGES
----------------------
   0 C :   -0.308471
   1 C :   -0.354599
   2 C :   -0.276865
   3 C :   -0.363530
   4 S :    0.547146
   5 H :    0.105638
   6 H :    0.108007
   7 H :    0.094747
   8 F :    0.088906
   9 O :   -0.269091
  10 H :    0.139416
  11 H :    0.136594
  12 O :   -0.241781
  13 C :   -0.275379
  14 H :    0.140235
  15 H :    0.138859
  16 C :   -0.279684
  17 H :    0.133326
  18 H :    0.140002
  19 C :   -0.277618
  20 H :    0.142086
  21 H :    0.138624
  22 C :   -0.282350
  23 H :    0.142104
  24 H :    0.141203
  25 C :   -0.279316
  26 H :    0.139857
  27 H :    0.142114
  28 C :   -0.299814
  29 H :    0.144503
  30 H :    0.142346
  31 H :    0.145892
  32 H :    0.150939
  33 H :    0.156103
  34 H :    0.149853

  Mayer bond orders larger than 0.100000
B(  0-C ,  1-C ) :   0.8663 B(  0-C ,  2-C ) :   0.9135 B(  0-C , 10-H ) :   0.9900
B(  0-C , 11-H ) :   1.0120 B(  1-C ,  5-H ) :   0.9603 B(  1-C ,  6-H ) :   0.9695
B(  1-C ,  7-H ) :   0.9945 B(  2-C , 13-C ) :   0.9484 B(  2-C , 14-H ) :   0.9830
B(  2-C , 15-H ) :   0.9857 B(  3-C ,  4-S ) :   0.9126 B(  3-C , 28-C ) :   0.9211
B(  3-C , 33-H ) :   0.9417 B(  3-C , 34-H ) :   0.9591 B(  4-S ,  8-F ) :   1.1030
B(  4-S ,  9-O ) :   1.8160 B(  4-S , 12-O ) :   2.0460 B( 13-C , 16-C ) :   0.8834
B( 13-C , 17-H ) :   0.9925 B( 13-C , 18-H ) :   0.9819 B( 16-C , 19-C ) :   0.9214
B( 16-C , 20-H ) :   0.9802 B( 16-C , 21-H ) :   0.9913 B( 19-C , 22-C ) :   0.9310
B( 19-C , 23-H ) :   0.9904 B( 19-C , 24-H ) :   0.9908 B( 22-C , 25-C ) :   0.8665
B( 22-C , 26-H ) :   0.9886 B( 22-C , 27-H ) :   0.9844 B( 25-C , 28-C ) :   0.8551
B( 25-C , 29-H ) :   0.9657 B( 25-C , 30-H ) :   1.0000 B( 28-C , 31-H ) :   0.9894
B( 28-C , 32-H ) :   0.9648

FINAL SINGLE POINT ENERGY     -1040.610460368535

DIPOLE MOMENT
-------------
                                X             Y             Z
Electronic contribution:    -10.88587     -16.19858     -13.17434
Nuclear contribution   :      9.63012      17.20461      14.03552
                        -----------------------------------------
Total Dipole Moment    :     -1.25575       1.00603       0.86118
                        -----------------------------------------
Magnitude (a.u.)       :      1.82501
Magnitude (Debye)      :      4.63879

Rotational constants in cm-1:     0.025899     0.015189     0.010690
Rotational constants in MHz :   776.424978   455.369614   320.488876

                             ****ORCA TERMINATED NORMALLY****
TOTAL RUN TIME: 0 days 0 hours 1 minutes 27 seconds 92 msec
