                         Program Version 5.0.0 -  RELEASE  -
|  1> !LC-BLYP RIJCOSX def2-TZVP def2/J TightSCF xyzfile
|  2>
|  3> *xyzfile 0 1 D2.xyz
|  4>
|  5> %MaxCore 64000
|  6>
|  7> %pal nprocs 18
|  8> end
|  9>
| 10> %scf
| 11>   MaxIter 150
| 12> end
| 13>
| 14>
| 15>                          ****END OF INPUT****

CARTESIAN COORDINATES (ANGSTROEM)
---------------------------------
  C     -2.160376   -1.369486   -3.467104
  C     -3.030108   -1.910857   -4.541074
  C     -2.047717    0.146583   -3.511774
  C     -7.330440   -2.678991   -3.206811
  S     -6.019659   -2.926965   -4.419128
  H     -3.477443   -2.791513   -4.257096
  H     -2.538013   -2.017860   -5.438075
  H     -3.891589   -1.376039   -4.714365
  O     -5.645830   -1.588384   -4.919307
  F     -4.881961   -3.503697   -3.667235
  H     -1.184438   -1.843997   -3.566393
  H     -2.598195   -1.708376   -2.528477
  O     -6.549267   -3.805150   -5.425071
  C     -3.328755    0.875037   -3.103669
  H     -1.740034    0.452343   -4.517126
  H     -1.232611    0.434938   -2.842208
  C     -3.628487    0.771601   -1.609363
  H     -4.175106    0.490791   -3.682203
  H     -3.237812    1.928663   -3.381480
  C     -4.975718    1.361432   -1.190644
  H     -2.830700    1.276234   -1.054766
  H     -3.594312   -0.275838   -1.294603
  C     -6.184720    0.784347   -1.926464
  H     -4.956292    2.445725   -1.342200
  H     -5.097256    1.205252   -0.114136
  C     -6.286921   -0.735882   -1.893531
  H     -6.163994    1.100199   -2.974250
  H     -7.094530    1.223459   -1.504509
  C     -7.468999   -1.246153   -2.713833
  H     -6.360641   -1.090347   -0.859176
  H     -5.369848   -1.171853   -2.295982
  H     -7.601914   -0.601349   -3.585329
  H     -8.389791   -1.173436   -2.126922
  H     -7.118254   -3.379818   -2.398055
  H     -8.241838   -3.004745   -3.706513

 Total Charge           Charge          ....    0
 Multiplicity           Mult            ....    1
 Number of Electrons    NEL             ....  122
 Basis Dimension        Dim             ....  566

ORBITAL ENERGIES
----------------

  NO   OCC          E(Eh)            E(eV)
   0   2.0000     -88.522743     -2408.8263
   1   2.0000     -24.561885      -668.3629
   2   2.0000     -18.959068      -515.9025
   3   2.0000     -18.947426      -515.5857
   4   2.0000     -10.134271      -275.7675
   5   2.0000     -10.095041      -274.7000
   6   2.0000     -10.077385      -274.2196
   7   2.0000     -10.067178      -273.9418
   8   2.0000     -10.062248      -273.8077
   9   2.0000     -10.056163      -273.6421
  10   2.0000     -10.050671      -273.4927
  11   2.0000     -10.047936      -273.4182
  12   2.0000     -10.041886      -273.2536
  13   2.0000      -9.995433      -271.9896
  14   2.0000      -8.065493      -219.4732
  15   2.0000      -6.097324      -165.9166
  16   2.0000      -6.090357      -165.7270
  17   2.0000      -6.089974      -165.7166
  18   2.0000      -1.444827       -39.3157
  19   2.0000      -1.210904       -32.9504
  20   2.0000      -1.114527       -30.3278
  21   2.0000      -0.954304       -25.9679
  22   2.0000      -0.925062       -25.1722
  23   2.0000      -0.897479       -24.4216
  24   2.0000      -0.870837       -23.6967
  25   2.0000      -0.828740       -22.5512
  26   2.0000      -0.814878       -22.1740
  27   2.0000      -0.776355       -21.1257
  28   2.0000      -0.743444       -20.2301
  29   2.0000      -0.730061       -19.8660
  30   2.0000      -0.689192       -18.7539
  31   2.0000      -0.683713       -18.6048
  32   2.0000      -0.679119       -18.4798
  33   2.0000      -0.662940       -18.0395
  34   2.0000      -0.650822       -17.7098
  35   2.0000      -0.611457       -16.6386
  36   2.0000      -0.593236       -16.1428
  37   2.0000      -0.583282       -15.8719
  38   2.0000      -0.577680       -15.7195
  39   2.0000      -0.567278       -15.4364
  40   2.0000      -0.549539       -14.9537
  41   2.0000      -0.537388       -14.6231
  42   2.0000      -0.534606       -14.5474
  43   2.0000      -0.530546       -14.4369
  44   2.0000      -0.509540       -13.8653
  45   2.0000      -0.502302       -13.6683
  46   2.0000      -0.491269       -13.3681
  47   2.0000      -0.483722       -13.1627
  48   2.0000      -0.473761       -12.8917
  49   2.0000      -0.464139       -12.6299
  50   2.0000      -0.457622       -12.4525
  51   2.0000      -0.444314       -12.0904
  52   2.0000      -0.436951       -11.8901
  53   2.0000      -0.431940       -11.7537
  54   2.0000      -0.426889       -11.6162
  55   2.0000      -0.423893       -11.5347
  56   2.0000      -0.415806       -11.3147
  57   2.0000      -0.409828       -11.1520
  58   2.0000      -0.397585       -10.8189
  59   2.0000      -0.394900       -10.7458
  60   2.0000      -0.382525       -10.4090
  61   0.0000       0.081322         2.2129
  62   0.0000       0.095753         2.6056
  63   0.0000       0.104592         2.8461
  64   0.0000       0.107108         2.9146
  65   0.0000       0.120435         3.2772

MULLIKEN ATOMIC CHARGES
-----------------------
   0 C :   -0.228769
   1 C :   -0.483050
   2 C :   -0.206330
   3 C :   -0.334274
   4 S :    0.798438
   5 H :    0.113767
   6 H :    0.138167
   7 H :    0.183151
   8 O :   -0.416204
   9 F :   -0.098893
  10 H :    0.117943
  11 H :    0.104195
  12 O :   -0.361646
  13 C :   -0.283215
  14 H :    0.124229
  15 H :    0.114591
  16 C :   -0.297880
  17 H :    0.155081
  18 H :    0.125576
  19 C :   -0.218102
  20 H :    0.131416
  21 H :    0.136366
  22 C :   -0.312581
  23 H :    0.130729
  24 H :    0.127821
  25 C :   -0.258644
  26 H :    0.162758
  27 H :    0.131825
  28 C :   -0.250788
  29 H :    0.133786
  30 H :    0.122864
  31 H :    0.174165
  32 H :    0.147064
  33 H :    0.173932
  34 H :    0.202513
Sum of atomic charges:    0.0000000

LOEWDIN ATOMIC CHARGES
----------------------
   0 C :   -0.312567
   1 C :   -0.352481
   2 C :   -0.275387
   3 C :   -0.370785
   4 S :    0.546254
   5 H :    0.095948
   6 H :    0.110320
   7 H :    0.107652
   8 O :   -0.261600
   9 F :    0.080541
  10 H :    0.137762
  11 H :    0.132055
  12 O :   -0.242366
  13 C :   -0.274382
  14 H :    0.141524
  15 H :    0.138244
  16 C :   -0.280809
  17 H :    0.142575
  18 H :    0.139873
  19 C :   -0.278066
  20 H :    0.141060
  21 H :    0.135589
  22 C :   -0.279725
  23 H :    0.142110
  24 H :    0.139923
  25 C :   -0.279082
  26 H :    0.144819
  27 H :    0.141620
  28 C :   -0.291992
  29 H :    0.140693
  30 H :    0.138045
  31 H :    0.153788
  32 H :    0.149482
  33 H :    0.144356
  34 H :    0.155010

  Mayer bond orders larger than 0.100000
B(  0-C ,  1-C ) :   0.8621 B(  0-C ,  2-C ) :   0.9290 B(  0-C , 10-H ) :   0.9908
B(  0-C , 11-H ) :   1.0059 B(  1-C ,  5-H ) :   0.9861 B(  1-C ,  6-H ) :   0.9755
B(  1-C ,  7-H ) :   0.9787 B(  2-C , 13-C ) :   0.9464 B(  2-C , 14-H ) :   0.9824
B(  2-C , 15-H ) :   0.9868 B(  3-C ,  4-S ) :   0.9088 B(  3-C , 28-C ) :   0.9078
B(  3-C , 33-H ) :   0.9470 B(  3-C , 34-H ) :   0.9556 B(  4-S ,  8-O ) :   1.8215
B(  4-S ,  9-F ) :   1.0983 B(  4-S , 12-O ) :   2.0441 B( 13-C , 16-C ) :   0.8809
B( 13-C , 17-H ) :   0.9873 B( 13-C , 18-H ) :   0.9810 B( 16-C , 19-C ) :   0.9234
B( 16-C , 20-H ) :   0.9803 B( 16-C , 21-H ) :   0.9932 B( 19-C , 22-C ) :   0.9271
B( 19-C , 23-H ) :   0.9898 B( 19-C , 24-H ) :   0.9915 B( 22-C , 25-C ) :   0.8881
B( 22-C , 26-H ) :   0.9877 B( 22-C , 27-H ) :   0.9841 B( 25-C , 28-C ) :   0.8911
B( 25-C , 29-H ) :   0.9657 B( 25-C , 30-H ) :   0.9923 B( 28-C , 31-H ) :   0.9753
B( 28-C , 32-H ) :   0.9596

FINAL SINGLE POINT ENERGY     -1040.613923799501

DIPOLE MOMENT
-------------
                                X             Y             Z
Electronic contribution:     -9.54783     -19.52469     -11.08919
Nuclear contribution   :      8.71934      19.48829      12.54264
                        -----------------------------------------
Total Dipole Moment    :     -0.82849      -0.03641       1.45345
                        -----------------------------------------
Magnitude (a.u.)       :      1.67339
Magnitude (Debye)      :      4.25341

Rotational constants in cm-1:     0.025810     0.015137     0.010647
Rotational constants in MHz :   773.773140   453.802427   319.195213

                             ****ORCA TERMINATED NORMALLY****
TOTAL RUN TIME: 0 days 0 hours 1 minutes 19 seconds 788 msec
