                         Program Version 5.0.0 -  RELEASE  -
|  1> !LC-BLYP RIJCOSX def2-TZVP def2/J TightSCF xyzfile
|  2>
|  3> *xyzfile 0 1 D3.xyz
|  4>
|  5> %MaxCore 64000
|  6>
|  7> %pal nprocs 18
|  8> end
|  9>
| 10> %scf
| 11>   MaxIter 150
| 12> end
| 13>
| 14>
| 15>                          ****END OF INPUT****

CARTESIAN COORDINATES (ANGSTROEM)
---------------------------------
  C     -2.160376   -1.369486   -3.467104
  C     -3.030108   -1.910857   -4.541074
  C     -2.047717    0.146583   -3.511774
  C     -7.330440   -2.678991   -3.206811
  S     -6.019659   -2.926965   -4.419128
  H     -3.477443   -2.791513   -4.257096
  H     -2.538013   -2.017860   -5.438075
  H     -3.891589   -1.376039   -4.714365
  O     -5.645830   -1.588384   -4.919307
  O     -4.881961   -3.503697   -3.667235
  H     -1.184438   -1.843997   -3.566393
  H     -2.598195   -1.708376   -2.528477
  F     -6.549267   -3.805150   -5.425071
  C     -3.328755    0.875037   -3.103669
  H     -1.740034    0.452343   -4.517126
  H     -1.232611    0.434938   -2.842208
  C     -3.628487    0.771601   -1.609363
  H     -4.175106    0.490791   -3.682203
  H     -3.237812    1.928663   -3.381480
  C     -4.975718    1.361432   -1.190644
  H     -2.830700    1.276234   -1.054766
  H     -3.594312   -0.275838   -1.294603
  C     -6.184720    0.784347   -1.926464
  H     -4.956292    2.445725   -1.342200
  H     -5.097256    1.205252   -0.114136
  C     -6.286921   -0.735882   -1.893531
  H     -6.163994    1.100199   -2.974250
  H     -7.094530    1.223459   -1.504509
  C     -7.468999   -1.246153   -2.713833
  H     -6.360641   -1.090347   -0.859176
  H     -5.369848   -1.171853   -2.295982
  H     -7.601914   -0.601349   -3.585329
  H     -8.389791   -1.173436   -2.126922
  H     -7.118254   -3.379818   -2.398055
  H     -8.241838   -3.004745   -3.706513

 Total Charge           Charge          ....    0
 Multiplicity           Mult            ....    1
 Number of Electrons    NEL             ....  122
 Basis Dimension        Dim             ....  566

ORBITAL ENERGIES
----------------

  NO   OCC          E(Eh)            E(eV)
   0   2.0000     -88.529109     -2408.9995
   1   2.0000     -24.586433      -669.0309
   2   2.0000     -18.952118      -515.7134
   3   2.0000     -18.948872      -515.6250
   4   2.0000     -10.136391      -275.8252
   5   2.0000     -10.095646      -274.7165
   6   2.0000     -10.069519      -274.0056
   7   2.0000     -10.061720      -273.7933
   8   2.0000     -10.056022      -273.6383
   9   2.0000     -10.047783      -273.4141
  10   2.0000     -10.041895      -273.2539
  11   2.0000     -10.036197      -273.0988
  12   2.0000     -10.025008      -272.7943
  13   2.0000      -9.969945      -271.2960
  14   2.0000      -8.071766      -219.6439
  15   2.0000      -6.103570      -166.0866
  16   2.0000      -6.096570      -165.8961
  17   2.0000      -6.096258      -165.8876
  18   2.0000      -1.478330       -40.2274
  19   2.0000      -1.203878       -32.7592
  20   2.0000      -1.103460       -30.0267
  21   2.0000      -0.953146       -25.9364
  22   2.0000      -0.918568       -24.9955
  23   2.0000      -0.888439       -24.1757
  24   2.0000      -0.867208       -23.5979
  25   2.0000      -0.831508       -22.6265
  26   2.0000      -0.808127       -21.9903
  27   2.0000      -0.772235       -21.0136
  28   2.0000      -0.738131       -20.0856
  29   2.0000      -0.718983       -19.5645
  30   2.0000      -0.705076       -19.1861
  31   2.0000      -0.697171       -18.9710
  32   2.0000      -0.673193       -18.3185
  33   2.0000      -0.666392       -18.1334
  34   2.0000      -0.640204       -17.4208
  35   2.0000      -0.607719       -16.5369
  36   2.0000      -0.595330       -16.1997
  37   2.0000      -0.579839       -15.7782
  38   2.0000      -0.574064       -15.6211
  39   2.0000      -0.566973       -15.4281
  40   2.0000      -0.551408       -15.0046
  41   2.0000      -0.535248       -14.5648
  42   2.0000      -0.523893       -14.2558
  43   2.0000      -0.520764       -14.1707
  44   2.0000      -0.508420       -13.8348
  45   2.0000      -0.489577       -13.3221
  46   2.0000      -0.485276       -13.2050
  47   2.0000      -0.478379       -13.0174
  48   2.0000      -0.464543       -12.6408
  49   2.0000      -0.454262       -12.3611
  50   2.0000      -0.447203       -12.1690
  51   2.0000      -0.436534       -11.8787
  52   2.0000      -0.432612       -11.7720
  53   2.0000      -0.429284       -11.6814
  54   2.0000      -0.421050       -11.4574
  55   2.0000      -0.411016       -11.1843
  56   2.0000      -0.404543       -11.0082
  57   2.0000      -0.399377       -10.8676
  58   2.0000      -0.384365       -10.4591
  59   2.0000      -0.375365       -10.2142
  60   2.0000      -0.361443        -9.8354
  61   0.0000       0.080754         2.1974
  62   0.0000       0.092008         2.5037
  63   0.0000       0.107574         2.9272
  64   0.0000       0.115718         3.1489
  65   0.0000       0.117163         3.1882

MULLIKEN ATOMIC CHARGES
-----------------------
   0 C :   -0.241427
   1 C :   -0.467164
   2 C :   -0.195738
   3 C :   -0.315840
   4 S :    0.808232
   5 H :    0.162345
   6 H :    0.117159
   7 H :    0.154854
   8 O :   -0.409849
   9 O :   -0.406207
  10 H :    0.109088
  11 H :    0.115408
  12 F :   -0.065363
  13 C :   -0.279439
  14 H :    0.117047
  15 H :    0.108855
  16 C :   -0.298942
  17 H :    0.147986
  18 H :    0.120337
  19 C :   -0.215073
  20 H :    0.128040
  21 H :    0.141343
  22 C :   -0.308262
  23 H :    0.127678
  24 H :    0.125884
  25 C :   -0.270137
  26 H :    0.158952
  27 H :    0.127404
  28 C :   -0.270168
  29 H :    0.131385
  30 H :    0.162300
  31 H :    0.167579
  32 H :    0.148558
  33 H :    0.186976
  34 H :    0.176198
Sum of atomic charges:    0.0000000

LOEWDIN ATOMIC CHARGES
----------------------
   0 C :   -0.312594
   1 C :   -0.355260
   2 C :   -0.277603
   3 C :   -0.373637
   4 S :    0.544822
   5 H :    0.101925
   6 H :    0.103571
   7 H :    0.104340
   8 O :   -0.259808
   9 O :   -0.266677
  10 H :    0.135762
  11 H :    0.134301
  12 F :    0.121673
  13 C :   -0.274930
  14 H :    0.139439
  15 H :    0.136333
  16 C :   -0.280472
  17 H :    0.141407
  18 H :    0.138045
  19 C :   -0.278533
  20 H :    0.140258
  21 H :    0.137690
  22 C :   -0.281225
  23 H :    0.141129
  24 H :    0.139435
  25 C :   -0.276114
  26 H :    0.143570
  27 H :    0.139812
  28 C :   -0.290237
  29 H :    0.140939
  30 H :    0.146644
  31 H :    0.151994
  32 H :    0.149993
  33 H :    0.152562
  34 H :    0.141442

  Mayer bond orders larger than 0.100000
B(  0-C ,  1-C ) :   0.8664 B(  0-C ,  2-C ) :   0.9204 B(  0-C , 10-H ) :   0.9900
B(  0-C , 11-H ) :   1.0122 B(  1-C ,  5-H ) :   0.9681 B(  1-C ,  6-H ) :   0.9752
B(  1-C ,  7-H ) :   0.9832 B(  2-C , 13-C ) :   0.9498 B(  2-C , 14-H ) :   0.9820
B(  2-C , 15-H ) :   0.9871 B(  3-C ,  4-S ) :   0.9130 B(  3-C , 28-C ) :   0.9196
B(  3-C , 33-H ) :   0.9393 B(  3-C , 34-H ) :   0.9566 B(  4-S ,  8-O ) :   1.8475
B(  4-S ,  9-O ) :   1.8463 B(  4-S , 12-F ) :   1.2028 B( 13-C , 16-C ) :   0.8862
B( 13-C , 17-H ) :   0.9869 B( 13-C , 18-H ) :   0.9816 B( 16-C , 19-C ) :   0.9233
B( 16-C , 20-H ) :   0.9811 B( 16-C , 21-H ) :   0.9912 B( 19-C , 22-C ) :   0.9316
B( 19-C , 23-H ) :   0.9902 B( 19-C , 24-H ) :   0.9913 B( 22-C , 25-C ) :   0.8815
B( 22-C , 26-H ) :   0.9874 B( 22-C , 27-H ) :   0.9842 B( 25-C , 28-C ) :   0.8919
B( 25-C , 29-H ) :   0.9677 B( 25-C , 30-H ) :   0.9882 B( 28-C , 31-H ) :   0.9773
B( 28-C , 32-H ) :   0.9622

FINAL SINGLE POINT ENERGY     -1040.595455357412

DIPOLE MOMENT
-------------
                                X             Y             Z
Electronic contribution:    -12.69021     -20.30297     -14.31271
Nuclear contribution   :     10.70731      19.84772      14.63855
                        -----------------------------------------
Total Dipole Moment    :     -1.98289      -0.45525       0.32584
                        -----------------------------------------
Magnitude (a.u.)       :      2.06041
Magnitude (Debye)      :      5.23715

Rotational constants in cm-1:     0.026014     0.014812     0.010477
Rotational constants in MHz :   779.874765   444.063394   314.081855

                             ****ORCA TERMINATED NORMALLY****
TOTAL RUN TIME: 0 days 0 hours 1 minutes 24 seconds 155 msec
