                         Program Version 5.0.0 -  RELEASE  -
|  1> !LC-PBE RIJCOSX def2-TZVPD def2/J TightSCF
|  2> *xyz -1 1
|  3> C          2.49556        1.81615       -2.13636
|  4> C          1.87218        0.42790       -2.07750
|  5> H          2.61427       -0.36583       -2.19889
|  6> H          1.38995        0.27309       -1.11236
|  7> S          0.57902        0.14047       -3.29794
|  8> O          0.22886       -1.24687       -3.12787
|  9> O         -0.43927        1.11897       -3.01455
| 10> O          1.24788        0.40347       -4.59565
| 11> H          2.96535        1.95613       -3.08747
| 12> H          3.22581        1.91242       -1.36024
| 13> H          1.73350        2.55528       -2.00274
| 14> *
| 15>
| 16> %MaxCore 64000
| 17>
| 18> %pal nprocs 4
| 19> end
| 20>
| 21> %scf
| 22>   MaxIter 150
| 23> end
| 24>
| 25>
| 26>                          ****END OF INPUT****

CARTESIAN COORDINATES (ANGSTROEM)
---------------------------------
  C      2.495560    1.816150   -2.136360
  C      1.872180    0.427900   -2.077500
  H      2.614270   -0.365830   -2.198890
  H      1.389950    0.273090   -1.112360
  S      0.579020    0.140470   -3.297940
  O      0.228860   -1.246870   -3.127870
  O     -0.439270    1.118970   -3.014550
  O      1.247880    0.403470   -4.595650
  H      2.965350    1.956130   -3.087470
  H      3.225810    1.912420   -1.360240
  H      1.733500    2.555280   -2.002740

 Total Charge           Charge          ....   -1
 Multiplicity           Mult            ....    1
 Number of Electrons    NEL             ....   58
 Basis Dimension        Dim             ....  285

ORBITAL ENERGIES
----------------

  NO   OCC          E(Eh)            E(eV)
   0   2.0000     -88.270314     -2401.9573
   1   2.0000     -18.760205      -510.4911
   2   2.0000     -18.760002      -510.4856
   3   2.0000     -18.744887      -510.0743
   4   2.0000      -9.976169      -271.4654
   5   2.0000      -9.966340      -271.1979
   6   2.0000      -7.881285      -214.4607
   7   2.0000      -5.898238      -160.4992
   8   2.0000      -5.896673      -160.4566
   9   2.0000      -5.896334      -160.4474
  10   2.0000      -1.102727       -30.0067
  11   2.0000      -0.960930       -26.1482
  12   2.0000      -0.934516       -25.4295
  13   2.0000      -0.809706       -22.0332
  14   2.0000      -0.669871       -18.2281
  15   2.0000      -0.533111       -14.5067
  16   2.0000      -0.466826       -12.7030
  17   2.0000      -0.463076       -12.6009
  18   2.0000      -0.421923       -11.4811
  19   2.0000      -0.410250       -11.1635
  20   2.0000      -0.395743       -10.7687
  21   2.0000      -0.365452        -9.9444
  22   2.0000      -0.342363        -9.3162
  23   2.0000      -0.297146        -8.0858
  24   2.0000      -0.294712        -8.0195
  25   2.0000      -0.256637        -6.9834
  26   2.0000      -0.242844        -6.6081
  27   2.0000      -0.231809        -6.3079
  28   2.0000      -0.199851        -5.4382
  29   0.0000       0.172151         4.6845
  30   0.0000       0.181604         4.9417
  31   0.0000       0.182523         4.9667
  32   0.0000       0.189724         5.1627
  33   0.0000       0.217273         5.9123

MULLIKEN ATOMIC CHARGES
-----------------------
   0 C :   -1.163094
   1 C :   -0.632124
   2 H :    0.363027
   3 H :    0.364876
   4 S :    1.061287
   5 O :   -0.663532
   6 O :   -0.667009
   7 O :   -0.713863
   8 H :    0.343921
   9 H :    0.366444
  10 H :    0.340067
Sum of atomic charges:   -1.0000000

LOEWDIN ATOMIC CHARGES
----------------------
   0 C :   -0.170652
   1 C :   -0.349136
   2 H :    0.095417
   3 H :    0.091162
   4 S :    0.315997
   5 O :   -0.384913
   6 O :   -0.378327
   7 O :   -0.414547
   8 H :    0.067676
   9 H :    0.058219
  10 H :    0.069104

  Mayer bond orders larger than 0.100000
B(  0-C ,  1-C ) :   0.6132 B(  0-C ,  8-H ) :   0.9526 B(  0-C ,  9-H ) :   0.9064
B(  0-C , 10-H ) :   0.9478 B(  1-C ,  2-H ) :   0.9011 B(  1-C ,  3-H ) :   0.9051
B(  1-C ,  4-S ) :   0.9300 B(  1-C ,  5-O ) :   0.1172 B(  1-C ,  6-O ) :   0.1044
B(  4-S ,  5-O ) :   1.5162 B(  4-S ,  6-O ) :   1.5177 B(  4-S ,  7-O ) :   1.4703

FINAL SINGLE POINT ENERGY      -702.108874751402

DIPOLE MOMENT
-------------
                                X             Y             Z
Electronic contribution:     -5.62625      -3.57258      -4.02157
Nuclear contribution   :      6.89220       4.11756       5.35566
                        -----------------------------------------
Total Dipole Moment    :      1.26595       0.54498       1.33409
                        -----------------------------------------
Magnitude (a.u.)       :      1.91818
Magnitude (Debye)      :      4.87564

Rotational constants in cm-1:     0.162183     0.084017     0.082390
Rotational constants in MHz :  4862.117324  2518.774315  2469.980309

                             ****ORCA TERMINATED NORMALLY****
TOTAL RUN TIME: 0 days 0 hours 0 minutes 39 seconds 254 msec
