                         Program Version 5.0.0 -  RELEASE  -
|  1> !LC-PBE RIJCOSX def2-TZVPD def2/J TightSCF
|  2> *xyz 1 1
|  3> C          3.38093        2.08304       -3.35013
|  4> N          4.53592        1.18245       -3.42852
|  5> C          2.49556        1.81615       -2.13636
|  6> C          4.67196        0.12227       -4.22060
|  7> N          5.86602       -0.50785       -4.22428
|  8> N          3.69888       -0.31284       -4.98699
|  9> H          2.73141       -0.05009       -4.84900
| 10> H          3.89005       -1.05517       -5.64373
| 11> H          5.25193        1.30346       -2.72101
| 12> H          6.69516       -0.06232       -3.85160
| 13> H          5.97538       -1.39688       -4.69141
| 14> H          2.80646        1.98651       -4.26848
| 15> H          3.77871        3.09828       -3.30738
| 16> H          2.11090        0.81901       -2.18783
| 17> H          1.68276        2.51198       -2.12786
| 18> H          3.07216        1.93031       -1.24227
| 19> *
| 20>
| 21> %MaxCore 64000
| 22>
| 23> %pal nprocs 4
| 24> end
| 25>
| 26> %scf
| 27>   MaxIter 150
| 28> end
| 29>
| 30>
| 31>                          ****END OF INPUT****

CARTESIAN COORDINATES (ANGSTROEM)
---------------------------------
  C      3.380930    2.083040   -3.350130
  N      4.535920    1.182450   -3.428520
  C      2.495560    1.816150   -2.136360
  C      4.671960    0.122270   -4.220600
  N      5.866020   -0.507850   -4.224280
  N      3.698880   -0.312840   -4.986990
  H      2.731410   -0.050090   -4.849000
  H      3.890050   -1.055170   -5.643730
  H      5.251930    1.303460   -2.721010
  H      6.695160   -0.062320   -3.851600
  H      5.975380   -1.396880   -4.691410
  H      2.806460    1.986510   -4.268480
  H      3.778710    3.098280   -3.307380
  H      2.110900    0.819010   -2.187830
  H      1.682760    2.511980   -2.127860
  H      3.072160    1.930310   -1.242270

 Total Charge           Charge          ....    1
 Multiplicity           Mult            ....    1
 Number of Electrons    NEL             ....   48
 Basis Dimension        Dim             ....  312

ORBITAL ENERGIES
----------------

  NO   OCC          E(Eh)            E(eV)
   0   2.0000     -14.440909      -392.9571
   1   2.0000     -14.438527      -392.8923
   2   2.0000     -14.432749      -392.7351
   3   2.0000     -10.460569      -284.6465
   4   2.0000     -10.321151      -280.8528
   5   2.0000     -10.246471      -278.8207
   6   2.0000      -1.394239       -37.9392
   7   2.0000      -1.275905       -34.7192
   8   2.0000      -1.259482       -34.2722
   9   2.0000      -1.103550       -30.0291
  10   2.0000      -1.000153       -27.2155
  11   2.0000      -0.961983       -26.1769
  12   2.0000      -0.938826       -25.5468
  13   2.0000      -0.891462       -24.2579
  14   2.0000      -0.838942       -22.8288
  15   2.0000      -0.832739       -22.6600
  16   2.0000      -0.787583       -21.4312
  17   2.0000      -0.778280       -21.1781
  18   2.0000      -0.744841       -20.2682
  19   2.0000      -0.696562       -18.9544
  20   2.0000      -0.662723       -18.0336
  21   2.0000      -0.643626       -17.5140
  22   2.0000      -0.611469       -16.6389
  23   2.0000      -0.573948       -15.6179
  24   0.0000      -0.088650        -2.4123
  25   0.0000      -0.078038        -2.1235
  26   0.0000      -0.056531        -1.5383
  27   0.0000      -0.049450        -1.3456
  28   0.0000      -0.024928        -0.6783

MULLIKEN ATOMIC CHARGES
-----------------------
   0 C :   -0.683034
   1 N :   -0.229338
   2 C :   -1.065877
   3 C :    0.837034
   4 N :   -0.462721
   5 N :   -0.388740
   6 H :    0.249138
   7 H :    0.226862
   8 H :    0.225116
   9 H :    0.240386
  10 H :    0.224079
  11 H :    0.399416
  12 H :    0.331418
  13 H :    0.335495
  14 H :    0.383018
  15 H :    0.377751
Sum of atomic charges:    1.0000000

LOEWDIN ATOMIC CHARGES
----------------------
   0 C :   -0.218857
   1 N :    0.079060
   2 C :   -0.084964
   3 C :   -0.437527
   4 N :    0.185671
   5 N :    0.214507
   6 H :    0.143116
   7 H :    0.147779
   8 H :    0.174282
   9 H :    0.142478
  10 H :    0.138527
  11 H :    0.123028
  12 H :    0.137200
  13 H :    0.080640
  14 H :    0.090194
  15 H :    0.084864

  Mayer bond orders larger than 0.100000
B(  0-C ,  1-N ) :   0.8153 B(  0-C ,  2-C ) :   0.6193 B(  0-C ,  3-C ) :  -0.1706
B(  0-C , 11-H ) :   0.8656 B(  0-C , 12-H ) :   0.9479 B(  1-N ,  3-C ) :   1.1753
B(  1-N ,  4-N ) :   0.1000 B(  1-N ,  8-H ) :   1.0261 B(  2-C , 13-H ) :   0.9327
B(  2-C , 14-H ) :   0.9373 B(  2-C , 15-H ) :   0.8943 B(  3-C ,  4-N ) :   0.9389
B(  3-C ,  5-N ) :   1.0740 B(  4-N ,  9-H ) :   0.9806 B(  4-N , 10-H ) :   1.0214
B(  5-N ,  6-H ) :   0.9446 B(  5-N ,  7-H ) :   1.0157

FINAL SINGLE POINT ENERGY      -283.603566607310

DIPOLE MOMENT
-------------
                                X             Y             Z
Electronic contribution:      3.56404      -2.66065      -2.82614
Nuclear contribution   :     -2.93277       1.85779       2.25966
                        -----------------------------------------
Total Dipole Moment    :      0.63127      -0.80285      -0.56648
                        -----------------------------------------
Magnitude (a.u.)       :      1.16789
Magnitude (Debye)      :      2.96855

Rotational constants in cm-1:     0.245511     0.068839     0.059711
Rotational constants in MHz :  7360.233487  2063.743353  1790.088408

                             ****ORCA TERMINATED NORMALLY****
TOTAL RUN TIME: 0 days 0 hours 0 minutes 53 seconds 838 msec
