                         Program Version 5.0.0 -  RELEASE  -
|  1> !LC-PBE RIJCOSX def2-TZVPD def2/J TightSCF xyzfile
|  2>
|  3> *xyzfile 0 1 B.xyz
|  4>
|  5> %MaxCore 64000
|  6>
|  7> %pal nprocs 4
|  8> end
|  9>
| 10> %scf
| 11>   MaxIter 150
| 12> end
| 13>
| 14>
| 15>                          ****END OF INPUT****

CARTESIAN COORDINATES (ANGSTROEM)
---------------------------------
  C      3.380928    2.083045   -3.350127
  N      4.535924    1.182447   -3.428518
  C      2.495557    1.816150   -2.136364
  C      1.872181    0.427903   -2.077497
  H      2.614270   -0.365825   -2.198894
  H      1.389953    0.273087   -1.112360
  S      0.579024    0.140472   -3.297943
  C      4.671956    0.122273   -4.220598
  N      5.866023   -0.507849   -4.224284
  N      3.698881   -0.312844   -4.986988
  H      2.731405   -0.050091   -4.849000
  H      3.890046   -1.055172   -5.643730
  H      5.251933    1.303459   -2.721014
  H      6.695165   -0.062322   -3.851596
  H      5.975383   -1.396884   -4.691414
  O      0.228860   -1.246868   -3.127871
  O     -0.439269    1.118966   -3.014550
  O      1.247881    0.403474   -4.595647
  H      1.697003    2.561969   -2.141109
  H      3.080787    1.987436   -1.225838
  H      2.806463    1.986511   -4.268484
  H      3.778714    3.098282   -3.307383

 Total Charge           Charge          ....    0
 Multiplicity           Mult            ....    1
 Number of Electrons    NEL             ....   96
 Basis Dimension        Dim             ....  524

ORBITAL ENERGIES
----------------

  NO   OCC          E(Eh)            E(eV)
   0   2.0000     -88.417200     -2405.9543
   1   2.0000     -18.912817      -514.6439
   2   2.0000     -18.896792      -514.2079
   3   2.0000     -18.896521      -514.2005
   4   2.0000     -14.310824      -389.4173
   5   2.0000     -14.307323      -389.3221
   6   2.0000     -14.274689      -388.4340
   7   2.0000     -10.322614      -280.8926
   8   2.0000     -10.180994      -277.0389
   9   2.0000     -10.132015      -275.7061
  10   2.0000     -10.119087      -275.3544
  11   2.0000      -8.028255      -218.4599
  12   2.0000      -6.045449      -164.5050
  13   2.0000      -6.044081      -164.4678
  14   2.0000      -6.042599      -164.4275
  15   2.0000      -1.258728       -34.2517
  16   2.0000      -1.249314       -33.9955
  17   2.0000      -1.141530       -31.0626
  18   2.0000      -1.123454       -30.5707
  19   2.0000      -1.097623       -29.8678
  20   2.0000      -1.096870       -29.8474
  21   2.0000      -0.988397       -26.8957
  22   2.0000      -0.909174       -24.7399
  23   2.0000      -0.845461       -23.0062
  24   2.0000      -0.807390       -21.9702
  25   2.0000      -0.798894       -21.7390
  26   2.0000      -0.757740       -20.6191
  27   2.0000      -0.712696       -19.3934
  28   2.0000      -0.694898       -18.9091
  29   2.0000      -0.680884       -18.5278
  30   2.0000      -0.662011       -18.0142
  31   2.0000      -0.631890       -17.1946
  32   2.0000      -0.621035       -16.8992
  33   2.0000      -0.597984       -16.2720
  34   2.0000      -0.582546       -15.8519
  35   2.0000      -0.566057       -15.4032
  36   2.0000      -0.545455       -14.8426
  37   2.0000      -0.516115       -14.0442
  38   2.0000      -0.510243       -13.8844
  39   2.0000      -0.496038       -13.4979
  40   2.0000      -0.475014       -12.9258
  41   2.0000      -0.445208       -12.1147
  42   2.0000      -0.441152       -12.0044
  43   2.0000      -0.436814       -11.8863
  44   2.0000      -0.400608       -10.9011
  45   2.0000      -0.392102       -10.6696
  46   2.0000      -0.377027       -10.2594
  47   2.0000      -0.349916        -9.5217
  48   0.0000       0.014396         0.3917
  49   0.0000       0.045542         1.2393
  50   0.0000       0.051074         1.3898
  51   0.0000       0.062895         1.7114
  52   0.0000       0.073797         2.0081

MULLIKEN ATOMIC CHARGES
-----------------------
   0 C :   -0.887255
   1 N :   -0.224769
   2 C :   -0.629953
   3 C :   -0.834712
   4 H :    0.347244
   5 H :    0.410735
   6 S :    1.133295
   7 C :    0.789728
   8 N :   -0.490756
   9 N :   -0.247347
  10 H :    0.210932
  11 H :    0.212269
  12 H :    0.229164
  13 H :    0.227974
  14 H :    0.217744
  15 O :   -0.660082
  16 O :   -0.639980
  17 O :   -0.826435
  18 H :    0.393245
  19 H :    0.376767
  20 H :    0.570569
  21 H :    0.321622
Sum of atomic charges:   -0.0000000

LOEWDIN ATOMIC CHARGES
----------------------
   0 C :   -0.177086
   1 N :    0.081427
   2 C :   -0.220720
   3 C :   -0.267898
   4 H :    0.100856
   5 H :    0.111740
   6 S :    0.390485
   7 C :   -0.448076
   8 N :    0.160089
   9 N :    0.227127
  10 H :    0.025429
  11 H :    0.144426
  12 H :    0.165385
  13 H :    0.128172
  14 H :    0.127843
  15 O :   -0.335823
  16 O :   -0.325376
  17 O :   -0.390111
  18 H :    0.128515
  19 H :    0.119511
  20 H :    0.121567
  21 H :    0.132518

  Mayer bond orders larger than 0.100000
B(  0-C ,  1-N ) :   0.7917 B(  0-C ,  2-C ) :   0.7181 B(  0-C ,  7-C ) :  -0.1646
B(  0-C , 20-H ) :   0.7658 B(  0-C , 21-H ) :   0.9550 B(  1-N ,  7-C ) :   1.1693
B(  1-N ,  8-N ) :   0.1125 B(  1-N , 12-H ) :   1.0041 B(  2-C ,  3-C ) :   0.8427
B(  2-C , 18-H ) :   0.9276 B(  2-C , 19-H ) :   0.8681 B(  3-C ,  4-H ) :   0.8607
B(  3-C ,  5-H ) :   0.9026 B(  3-C ,  6-S ) :   0.9399 B(  3-C , 15-O ) :   0.1286
B(  6-S , 15-O ) :   1.5113 B(  6-S , 16-O ) :   1.5233 B(  6-S , 17-O ) :   1.3169
B(  7-C ,  8-N ) :   0.8799 B(  7-C ,  9-N ) :   1.1454 B(  8-N , 13-H ) :   0.9895
B(  8-N , 14-H ) :   1.0222 B(  9-N , 10-H ) :   0.8039 B(  9-N , 11-H ) :   1.0350
B(  9-N , 17-O ) :  -0.1483 B( 10-H , 17-O ) :   0.1328

FINAL SINGLE POINT ENERGY      -945.480329623998

DIPOLE MOMENT
-------------
                                X             Y             Z
Electronic contribution:     -6.97136      -3.18791      -2.40705
Nuclear contribution   :     13.40759       3.44219       2.21042
                        -----------------------------------------
Total Dipole Moment    :      6.43623       0.25428      -0.19663
                        -----------------------------------------
Magnitude (a.u.)       :      6.44426
Magnitude (Debye)      :     16.38000

Rotational constants in cm-1:     0.059860     0.020817     0.017914
Rotational constants in MHz :  1794.564877   624.092098   537.039275

                             ****ORCA TERMINATED NORMALLY****
TOTAL RUN TIME: 0 days 0 hours 3 minutes 19 seconds 919 msec
