                         Program Version 5.0.0 -  RELEASE  -
|  1> !LC-PBE RIJCOSX def2-TZVPD def2/J TightSCF
|  2> *xyz 0 1
|  3> C          2.49556        1.81615       -2.13636
|  4> C          1.87218        0.42790       -2.07750
|  5> H          2.61427       -0.36583       -2.19889
|  6> H          1.38995        0.27309       -1.11236
|  7> S          0.57902        0.14047       -3.29794
|  8> F          0.22886       -1.24687       -3.12787
|  9> O         -0.43927        1.11897       -3.01455
| 10> O          1.24788        0.40347       -4.59565
| 11> H          2.96535        1.95613       -3.08747
| 12> H          3.22581        1.91242       -1.36024
| 13> H          1.73350        2.55528       -2.00274
| 14> *
| 15>
| 16> %MaxCore 64000
| 17>
| 18> %pal nprocs 4
| 19> end
| 20>
| 21> %scf
| 22>   MaxIter 150
| 23> end
| 24>
| 25>
| 26>                          ****END OF INPUT****

CARTESIAN COORDINATES (ANGSTROEM)
---------------------------------
  C      2.495560    1.816150   -2.136360
  C      1.872180    0.427900   -2.077500
  H      2.614270   -0.365830   -2.198890
  H      1.389950    0.273090   -1.112360
  S      0.579020    0.140470   -3.297940
  F      0.228860   -1.246870   -3.127870
  O     -0.439270    1.118970   -3.014550
  O      1.247880    0.403470   -4.595650
  H      2.965350    1.956130   -3.087470
  H      3.225810    1.912420   -1.360240
  H      1.733500    2.555280   -2.002740

 Total Charge           Charge          ....    0
 Multiplicity           Mult            ....    1
 Number of Electrons    NEL             ....   58
 Basis Dimension        Dim             ....  285

ORBITAL ENERGIES
----------------

  NO   OCC          E(Eh)            E(eV)
   0   2.0000     -88.535285     -2409.1676
   1   2.0000     -24.619521      -669.9312
   2   2.0000     -18.995869      -516.9039
   3   2.0000     -18.980440      -516.4840
   4   2.0000     -10.179351      -276.9942
   5   2.0000     -10.130056      -275.6528
   6   2.0000      -8.146746      -221.6842
   7   2.0000      -6.167031      -167.8135
   8   2.0000      -6.160137      -167.6258
   9   2.0000      -6.159625      -167.6119
  10   2.0000      -1.550749       -42.1980
  11   2.0000      -1.280358       -34.8403
  12   2.0000      -1.170852       -31.8605
  13   2.0000      -1.000878       -27.2353
  14   2.0000      -0.902541       -24.5594
  15   2.0000      -0.838853       -22.8263
  16   2.0000      -0.748544       -20.3689
  17   2.0000      -0.746338       -20.3089
  18   2.0000      -0.708676       -19.2841
  19   2.0000      -0.642275       -17.4772
  20   2.0000      -0.632396       -17.2084
  21   2.0000      -0.587305       -15.9814
  22   2.0000      -0.570928       -15.5358
  23   2.0000      -0.546421       -14.8689
  24   2.0000      -0.530325       -14.4309
  25   2.0000      -0.519371       -14.1328
  26   2.0000      -0.473423       -12.8825
  27   2.0000      -0.456376       -12.4186
  28   2.0000      -0.444303       -12.0901
  29   0.0000       0.044773         1.2183
  30   0.0000       0.059777         1.6266
  31   0.0000       0.063790         1.7358
  32   0.0000       0.069534         1.8921
  33   0.0000       0.098461         2.6793

MULLIKEN ATOMIC CHARGES
-----------------------
   0 C :   -1.216928
   1 C :   -0.640225
   2 H :    0.425732
   3 H :    0.428270
   4 S :    1.039130
   5 F :   -0.076887
   6 O :   -0.528674
   7 O :   -0.573131
   8 H :    0.382126
   9 H :    0.376530
  10 H :    0.384057
Sum of atomic charges:    0.0000000

LOEWDIN ATOMIC CHARGES
----------------------
   0 C :   -0.126779
   1 C :   -0.305470
   2 H :    0.111812
   3 H :    0.107761
   4 S :    0.563102
   5 F :   -0.034624
   6 O :   -0.265871
   7 O :   -0.300505
   8 H :    0.083029
   9 H :    0.083346
  10 H :    0.084200

  Mayer bond orders larger than 0.100000
B(  0-C ,  1-C ) :   0.6863 B(  0-C ,  8-H ) :   0.9098 B(  0-C ,  9-H ) :   0.9096
B(  0-C , 10-H ) :   0.9005 B(  1-C ,  2-H ) :   0.8215 B(  1-C ,  3-H ) :   0.8258
B(  1-C ,  4-S ) :   0.9050 B(  4-S ,  5-F ) :   1.0306 B(  4-S ,  6-O ) :   1.7132
B(  4-S ,  7-O ) :   1.6629

FINAL SINGLE POINT ENERGY      -726.593714710783

DIPOLE MOMENT
-------------
                                X             Y             Z
Electronic contribution:     -6.79346      -6.43234      -4.04398
Nuclear contribution   :      7.60530       5.82028       5.38743
                        -----------------------------------------
Total Dipole Moment    :      0.81183      -0.61206       1.34346
                        -----------------------------------------
Magnitude (a.u.)       :      1.68481
Magnitude (Debye)      :      4.28243

Rotational constants in cm-1:     0.157861     0.081452     0.078859
Rotational constants in MHz :  4732.562506  2441.865430  2364.129821

                             ****ORCA TERMINATED NORMALLY****
TOTAL RUN TIME: 0 days 0 hours 0 minutes 34 seconds 218 msec
