                         Program Version 5.0.0 -  RELEASE  -
|  1> !LC-PBE RIJCOSX def2-TZVPD def2/J TightSCF
|  2> *xyz 0 1
|  3> C          3.38093        2.08304       -3.35013
|  4> C          4.53592        1.18245       -3.42852
|  5> C          2.49556        1.81615       -2.13636
|  6> C          4.67196        0.12227       -4.22060
|  7> N          5.86602       -0.50785       -4.22428
|  8> N          3.69888       -0.31284       -4.98699
|  9> H          2.73141       -0.05009       -4.84900
| 10> H          3.89005       -1.05517       -5.64373
| 11> H          5.25193        1.30346       -2.72101
| 12> H          6.69516       -0.06232       -3.85160
| 13> H          5.97538       -1.39688       -4.69141
| 14> H          2.80646        1.98651       -4.26848
| 15> H          3.77871        3.09828       -3.30738
| 16> H          2.11090        0.81901       -2.18783
| 17> H          1.68276        2.51198       -2.12786
| 18> H          3.07216        1.93031       -1.24227
| 19> *
| 20>
| 21> %MaxCore 64000
| 22>
| 23> %pal nprocs 4
| 24> end
| 25>
| 26> %scf
| 27>   MaxIter 150
| 28> end
| 29>
| 30>
| 31>                          ****END OF INPUT****

CARTESIAN COORDINATES (ANGSTROEM)
---------------------------------
  C      3.380930    2.083040   -3.350130
  C      4.535920    1.182450   -3.428520
  C      2.495560    1.816150   -2.136360
  C      4.671960    0.122270   -4.220600
  N      5.866020   -0.507850   -4.224280
  N      3.698880   -0.312840   -4.986990
  H      2.731410   -0.050090   -4.849000
  H      3.890050   -1.055170   -5.643730
  H      5.251930    1.303460   -2.721010
  H      6.695160   -0.062320   -3.851600
  H      5.975380   -1.396880   -4.691410
  H      2.806460    1.986510   -4.268480
  H      3.778710    3.098280   -3.307380
  H      2.110900    0.819010   -2.187830
  H      1.682760    2.511980   -2.127860
  H      3.072160    1.930310   -1.242270

 Total Charge           Charge          ....    0
 Multiplicity           Mult            ....    1
 Number of Electrons    NEL             ....   48
 Basis Dimension        Dim             ....  312

ORBITAL ENERGIES
----------------

  NO   OCC          E(Eh)            E(eV)
   0   2.0000     -14.216000      -386.8370
   1   2.0000     -14.208767      -386.6402
   2   2.0000     -10.163022      -276.5499
   3   2.0000     -10.087097      -274.4839
   4   2.0000     -10.076338      -274.1911
   5   2.0000     -10.035431      -273.0780
   6   2.0000      -1.138090       -30.9690
   7   2.0000      -1.036822       -28.2134
   8   2.0000      -0.949171       -25.8283
   9   2.0000      -0.862235       -23.4626
  10   2.0000      -0.775870       -21.1125
  11   2.0000      -0.731607       -19.9080
  12   2.0000      -0.692353       -18.8399
  13   2.0000      -0.653284       -17.7768
  14   2.0000      -0.618695       -16.8355
  15   2.0000      -0.583949       -15.8901
  16   2.0000      -0.557245       -15.1634
  17   2.0000      -0.539098       -14.6696
  18   2.0000      -0.513820       -13.9818
  19   2.0000      -0.485506       -13.2113
  20   2.0000      -0.454920       -12.3790
  21   2.0000      -0.446801       -12.1581
  22   2.0000      -0.398823       -10.8525
  23   2.0000      -0.273852        -7.4519
  24   0.0000       0.062084         1.6894
  25   0.0000       0.085407         2.3240
  26   0.0000       0.091379         2.4865
  27   0.0000       0.101425         2.7599
  28   0.0000       0.115214         3.1351

MULLIKEN ATOMIC CHARGES
-----------------------
   0 C :   -0.763844
   1 C :   -0.754364
   2 C :   -1.008313
   3 C :    0.756778
   4 N :   -0.523208
   5 N :   -0.453256
   6 H :    0.200762
   7 H :    0.187271
   8 H :    0.316133
   9 H :    0.201242
  10 H :    0.191126
  11 H :    0.360259
  12 H :    0.295453
  13 H :    0.313049
  14 H :    0.329033
  15 H :    0.351876
Sum of atomic charges:   -0.0000000

LOEWDIN ATOMIC CHARGES
----------------------
   0 C :   -0.299283
   1 C :   -0.159012
   2 C :   -0.131842
   3 C :   -0.555951
   4 N :    0.088084
   5 N :    0.118505
   6 H :    0.115985
   7 H :    0.109993
   8 H :    0.076955
   9 H :    0.113136
  10 H :    0.099336
  11 H :    0.102173
  12 H :    0.110587
  13 H :    0.071930
  14 H :    0.065908
  15 H :    0.073496

  Mayer bond orders larger than 0.100000
B(  0-C ,  1-C ) :   0.6096 B(  0-C ,  2-C ) :   0.5372 B(  0-C , 11-H ) :   0.9124
B(  0-C , 12-H ) :   1.0574 B(  1-C ,  2-C ) :  -0.1144 B(  1-C ,  3-C ) :   1.2843
B(  1-C ,  4-N ) :   0.1925 B(  1-C ,  5-N ) :   0.1368 B(  1-C ,  8-H ) :   1.0317
B(  2-C , 13-H ) :   0.9664 B(  2-C , 14-H ) :   0.9520 B(  2-C , 15-H ) :   0.9462
B(  3-C ,  4-N ) :   0.7174 B(  3-C ,  5-N ) :   0.8190 B(  3-C ,  8-H ) :  -0.1595
B(  4-N ,  9-H ) :   1.0172 B(  4-N , 10-H ) :   1.0564 B(  5-N ,  6-H ) :   0.9863
B(  5-N ,  7-H ) :   1.0535

FINAL SINGLE POINT ENERGY      -267.137986860602

DIPOLE MOMENT
-------------
                                X             Y             Z
Electronic contribution:      2.97709      -2.77488      -2.87842
Nuclear contribution   :     -2.84307       1.95814       2.32378
                        -----------------------------------------
Total Dipole Moment    :      0.13401      -0.81675      -0.55464
                        -----------------------------------------
Magnitude (a.u.)       :      0.99632
Magnitude (Debye)      :      2.53245

Rotational constants in cm-1:     0.248902     0.068887     0.059904
Rotational constants in MHz :  7461.898926  2065.183281  1795.882140

                             ****ORCA TERMINATED NORMALLY****
TOTAL RUN TIME: 0 days 0 hours 0 minutes 56 seconds 171 msec
