                         Program Version 5.0.0 -  RELEASE  -
|  1> !LC-PBE RIJCOSX def2-TZVPD def2/J TightSCF
|  2> *xyz 0 1
|  3> C          2.49556        1.81615       -2.13636
|  4> C          1.87218        0.42790       -2.07750
|  5> H          2.61427       -0.36583       -2.19889
|  6> H          1.38995        0.27309       -1.11236
|  7> S          0.57902        0.14047       -3.29794
|  8> O          0.22886       -1.24687       -3.12787
|  9> F         -0.43927        1.11897       -3.01455
| 10> O          1.24788        0.40347       -4.59565
| 11> H          2.96535        1.95613       -3.08747
| 12> H          3.22581        1.91242       -1.36024
| 13> H          1.73350        2.55528       -2.00274
| 14> *
| 15>
| 16> %MaxCore 64000
| 17>
| 18> %pal nprocs 4
| 19> end
| 20>
| 21> %scf
| 22>   MaxIter 150
| 23> end
| 24>
| 25>
| 26>                          ****END OF INPUT****

CARTESIAN COORDINATES (ANGSTROEM)
---------------------------------
  C      2.495560    1.816150   -2.136360
  C      1.872180    0.427900   -2.077500
  H      2.614270   -0.365830   -2.198890
  H      1.389950    0.273090   -1.112360
  S      0.579020    0.140470   -3.297940
  O      0.228860   -1.246870   -3.127870
  F     -0.439270    1.118970   -3.014550
  O      1.247880    0.403470   -4.595650
  H      2.965350    1.956130   -3.087470
  H      3.225810    1.912420   -1.360240
  H      1.733500    2.555280   -2.002740

 Total Charge           Charge          ....    0
 Multiplicity           Mult            ....    1
 Number of Electrons    NEL             ....   58
 Basis Dimension        Dim             ....  285

ORBITAL ENERGIES
----------------

  NO   OCC          E(Eh)            E(eV)
   0   2.0000     -88.535376     -2409.1701
   1   2.0000     -24.619284      -669.9248
   2   2.0000     -18.996259      -516.9145
   3   2.0000     -18.980976      -516.4986
   4   2.0000     -10.179213      -276.9905
   5   2.0000     -10.133519      -275.7471
   6   2.0000      -8.146790      -221.6854
   7   2.0000      -6.167218      -167.8185
   8   2.0000      -6.160182      -167.6271
   9   2.0000      -6.159560      -167.6101
  10   2.0000      -1.550892       -42.2019
  11   2.0000      -1.279869       -34.8270
  12   2.0000      -1.171884       -31.8886
  13   2.0000      -1.004096       -27.3228
  14   2.0000      -0.897730       -24.4285
  15   2.0000      -0.844025       -22.9671
  16   2.0000      -0.757821       -20.6214
  17   2.0000      -0.746726       -20.3195
  18   2.0000      -0.700719       -19.0675
  19   2.0000      -0.642095       -17.4723
  20   2.0000      -0.627347       -17.0710
  21   2.0000      -0.598639       -16.2898
  22   2.0000      -0.575217       -15.6525
  23   2.0000      -0.548240       -14.9184
  24   2.0000      -0.536363       -14.5952
  25   2.0000      -0.515770       -14.0348
  26   2.0000      -0.472960       -12.8699
  27   2.0000      -0.456032       -12.4093
  28   2.0000      -0.446641       -12.1537
  29   0.0000       0.046843         1.2747
  30   0.0000       0.058473         1.5911
  31   0.0000       0.065264         1.7759
  32   0.0000       0.068548         1.8653
  33   0.0000       0.096708         2.6316

MULLIKEN ATOMIC CHARGES
-----------------------
   0 C :   -1.201272
   1 C :   -0.620349
   2 H :    0.404412
   3 H :    0.431669
   4 S :    1.028380
   5 O :   -0.527189
   6 F :   -0.089049
   7 O :   -0.571684
   8 H :    0.381432
   9 H :    0.376351
  10 H :    0.387299
Sum of atomic charges:    0.0000000

LOEWDIN ATOMIC CHARGES
----------------------
   0 C :   -0.137719
   1 C :   -0.297316
   2 H :    0.122795
   3 H :    0.108289
   4 S :    0.561264
   5 O :   -0.270021
   6 F :   -0.030687
   7 O :   -0.298483
   8 H :    0.081188
   9 H :    0.081965
  10 H :    0.078725

  Mayer bond orders larger than 0.100000
B(  0-C ,  1-C ) :   0.6044 B(  0-C ,  8-H ) :   0.9391 B(  0-C ,  9-H ) :   0.9235
B(  0-C , 10-H ) :   0.8788 B(  1-C ,  2-H ) :   0.8540 B(  1-C ,  3-H ) :   0.8415
B(  1-C ,  4-S ) :   0.9190 B(  4-S ,  5-O ) :   1.7166 B(  4-S ,  6-F ) :   1.0306
B(  4-S ,  7-O ) :   1.6694

FINAL SINGLE POINT ENERGY      -726.593948028562

DIPOLE MOMENT
-------------
                                X             Y             Z
Electronic contribution:     -7.92418      -2.37754      -3.84272
Nuclear contribution   :      8.30151       3.35500       5.26935
                        -----------------------------------------
Total Dipole Moment    :      0.37733       0.97746       1.42663
                        -----------------------------------------
Magnitude (a.u.)       :      1.77005
Magnitude (Debye)      :      4.49912

Rotational constants in cm-1:     0.152913     0.083043     0.080351
Rotational constants in MHz :  4584.227971  2489.580280  2408.872860

                             ****ORCA TERMINATED NORMALLY****
TOTAL RUN TIME: 0 days 0 hours 0 minutes 34 seconds 218 msec
