                         Program Version 5.0.0 -  RELEASE  -
|  1> !LC-PBE RIJCOSX def2-TZVPD def2/J TightSCF
|  2> *xyz 0 1
|  3> C          3.38093        2.08304       -3.35013
|  4> N          4.53592        1.18245       -3.42852
|  5> C          2.49556        1.81615       -2.13636
|  6> C          4.67196        0.12227       -4.22060
|  7> C          5.86602       -0.50785       -4.22428
|  8> N          3.69888       -0.31284       -4.98699
|  9> H          2.73141       -0.05009       -4.84900
| 10> H          3.89005       -1.05517       -5.64373
| 11> H          5.25193        1.30346       -2.72101
| 12> H          6.69516       -0.06232       -3.85160
| 13> H          5.97538       -1.39688       -4.69141
| 14> H          2.80646        1.98651       -4.26848
| 15> H          3.77871        3.09828       -3.30738
| 16> H          2.11090        0.81901       -2.18783
| 17> H          1.68276        2.51198       -2.12786
| 18> H          3.07216        1.93031       -1.24227
| 19> *
| 20>
| 21> %MaxCore 64000
| 22>
| 23> %pal nprocs 4
| 24> end
| 25>
| 26> %scf
| 27>   MaxIter 150
| 28> end
| 29>
| 30>
| 31>                          ****END OF INPUT****

CARTESIAN COORDINATES (ANGSTROEM)
---------------------------------
  C      3.380930    2.083040   -3.350130
  N      4.535920    1.182450   -3.428520
  C      2.495560    1.816150   -2.136360
  C      4.671960    0.122270   -4.220600
  C      5.866020   -0.507850   -4.224280
  N      3.698880   -0.312840   -4.986990
  H      2.731410   -0.050090   -4.849000
  H      3.890050   -1.055170   -5.643730
  H      5.251930    1.303460   -2.721010
  H      6.695160   -0.062320   -3.851600
  H      5.975380   -1.396880   -4.691410
  H      2.806460    1.986510   -4.268480
  H      3.778710    3.098280   -3.307380
  H      2.110900    0.819010   -2.187830
  H      1.682760    2.511980   -2.127860
  H      3.072160    1.930310   -1.242270

 Total Charge           Charge          ....    0
 Multiplicity           Mult            ....    1
 Number of Electrons    NEL             ....   48
 Basis Dimension        Dim             ....  312

ORBITAL ENERGIES
----------------

  NO   OCC          E(Eh)            E(eV)
   0   2.0000     -14.216526      -386.8513
   1   2.0000     -14.214847      -386.8056
   2   2.0000     -10.168704      -276.7045
   3   2.0000     -10.155506      -276.3454
   4   2.0000     -10.105374      -274.9812
   5   2.0000     -10.019207      -272.6365
   6   2.0000      -1.146805       -31.2061
   7   2.0000      -1.058610       -28.8063
   8   2.0000      -0.946712       -25.7613
   9   2.0000      -0.865664       -23.5559
  10   2.0000      -0.789068       -21.4716
  11   2.0000      -0.757366       -20.6090
  12   2.0000      -0.693304       -18.8658
  13   2.0000      -0.644080       -17.5263
  14   2.0000      -0.623129       -16.9562
  15   2.0000      -0.589217       -16.0334
  16   2.0000      -0.571518       -15.5518
  17   2.0000      -0.541385       -14.7318
  18   2.0000      -0.525608       -14.3025
  19   2.0000      -0.499526       -13.5928
  20   2.0000      -0.494699       -13.4614
  21   2.0000      -0.487001       -13.2520
  22   2.0000      -0.384646       -10.4668
  23   2.0000      -0.274559        -7.4711
  24   0.0000       0.060224         1.6388
  25   0.0000       0.085136         2.3167
  26   0.0000       0.089614         2.4385
  27   0.0000       0.091046         2.4775
  28   0.0000       0.117036         3.1847

MULLIKEN ATOMIC CHARGES
-----------------------
   0 C :   -0.676773
   1 N :   -0.297087
   2 C :   -1.028813
   3 C :    0.925714
   4 C :   -1.384222
   5 N :   -0.460794
   6 H :    0.218094
   7 H :    0.192211
   8 H :    0.187183
   9 H :    0.296672
  10 H :    0.296869
  11 H :    0.387004
  12 H :    0.325418
  13 H :    0.310493
  14 H :    0.370442
  15 H :    0.337588
Sum of atomic charges:    0.0000000

LOEWDIN ATOMIC CHARGES
----------------------
   0 C :   -0.255187
   1 N :    0.010489
   2 C :   -0.112094
   3 C :   -0.576452
   4 C :   -0.030347
   5 N :    0.115866
   6 H :    0.107368
   7 H :    0.120836
   8 H :    0.151974
   9 H :    0.011463
  10 H :    0.006740
  11 H :    0.111456
  12 H :    0.118173
  13 H :    0.073908
  14 H :    0.072152
  15 H :    0.073655

  Mayer bond orders larger than 0.100000
B(  0-C ,  1-N ) :   0.7983 B(  0-C ,  2-C ) :   0.5761 B(  0-C ,  3-C ) :  -0.1643
B(  0-C ,  5-N ) :   0.1084 B(  0-C , 11-H ) :   0.9029 B(  0-C , 12-H ) :   0.9643
B(  1-N ,  3-C ) :   0.9840 B(  1-N ,  4-C ) :   0.1677 B(  1-N ,  8-H ) :   1.0445
B(  2-C , 13-H ) :   0.9699 B(  2-C , 14-H ) :   0.9447 B(  2-C , 15-H ) :   0.9273
B(  3-C ,  4-C ) :   0.8799 B(  3-C ,  5-N ) :   0.8843 B(  3-C , 10-H ) :  -0.1628
B(  4-C ,  5-N ) :   0.1130 B(  4-C ,  9-H ) :   0.9769 B(  4-C , 10-H ) :   1.1008
B(  5-N ,  6-H ) :   0.9964 B(  5-N ,  7-H ) :   1.0205

FINAL SINGLE POINT ENERGY      -267.124977505313

DIPOLE MOMENT
-------------
                                X             Y             Z
Electronic contribution:      1.47074      -1.08485      -2.03072
Nuclear contribution   :     -2.56090       1.59955       2.15496
                        -----------------------------------------
Total Dipole Moment    :     -1.09017       0.51470       0.12424
                        -----------------------------------------
Magnitude (a.u.)       :      1.21195
Magnitude (Debye)      :      3.08053

Rotational constants in cm-1:     0.249834     0.071381     0.061833
Rotational constants in MHz :  7489.842787  2139.945635  1853.706310

                             ****ORCA TERMINATED NORMALLY****
TOTAL RUN TIME: 0 days 0 hours 0 minutes 56 seconds 256 msec
