                         Program Version 5.0.0 -  RELEASE  -
|  1> !LC-PBE RIJCOSX def2-TZVPD def2/J TightSCF
|  2> *xyz 0 1
|  3> C          2.49556        1.81615       -2.13636
|  4> C          1.87218        0.42790       -2.07750
|  5> H          2.61427       -0.36583       -2.19889
|  6> H          1.38995        0.27309       -1.11236
|  7> S          0.57902        0.14047       -3.29794
|  8> O          0.22886       -1.24687       -3.12787
|  9> O         -0.43927        1.11897       -3.01455
| 10> F          1.24788        0.40347       -4.59565
| 11> H          2.96535        1.95613       -3.08747
| 12> H          3.22581        1.91242       -1.36024
| 13> H          1.73350        2.55528       -2.00274
| 14> *
| 15>
| 16> %MaxCore 64000
| 17>
| 18> %pal nprocs 4
| 19> end
| 20>
| 21> %scf
| 22>   MaxIter 150
| 23> end
| 24>
| 25>
| 26>                          ****END OF INPUT****

CARTESIAN COORDINATES (ANGSTROEM)
---------------------------------
  C      2.495560    1.816150   -2.136360
  C      1.872180    0.427900   -2.077500
  H      2.614270   -0.365830   -2.198890
  H      1.389950    0.273090   -1.112360
  S      0.579020    0.140470   -3.297940
  O      0.228860   -1.246870   -3.127870
  O     -0.439270    1.118970   -3.014550
  F      1.247880    0.403470   -4.595650
  H      2.965350    1.956130   -3.087470
  H      3.225810    1.912420   -1.360240
  H      1.733500    2.555280   -2.002740

 Total Charge           Charge          ....    0
 Multiplicity           Mult            ....    1
 Number of Electrons    NEL             ....   58
 Basis Dimension        Dim             ....  285

ORBITAL ENERGIES
----------------

  NO   OCC          E(Eh)            E(eV)
   0   2.0000     -88.532845     -2409.1012
   1   2.0000     -24.596225      -669.2973
   2   2.0000     -18.995779      -516.9014
   3   2.0000     -18.995659      -516.8982
   4   2.0000     -10.178059      -276.9591
   5   2.0000     -10.134020      -275.7607
   6   2.0000      -8.144259      -221.6165
   7   2.0000      -6.164803      -167.7528
   8   2.0000      -6.157785      -167.5619
   9   2.0000      -6.156938      -167.5388
  10   2.0000      -1.514965       -41.2243
  11   2.0000      -1.289933       -35.1008
  12   2.0000      -1.192659       -32.4539
  13   2.0000      -1.003572       -27.3086
  14   2.0000      -0.884914       -24.0797
  15   2.0000      -0.835551       -22.7365
  16   2.0000      -0.739609       -20.1258
  17   2.0000      -0.721345       -19.6288
  18   2.0000      -0.698903       -19.0181
  19   2.0000      -0.644037       -17.5251
  20   2.0000      -0.624076       -16.9820
  21   2.0000      -0.602273       -16.3887
  22   2.0000      -0.579994       -15.7824
  23   2.0000      -0.551672       -15.0118
  24   2.0000      -0.541207       -14.7270
  25   2.0000      -0.516723       -14.0607
  26   2.0000      -0.483087       -13.1455
  27   2.0000      -0.464897       -12.6505
  28   2.0000      -0.461672       -12.5627
  29   0.0000       0.050311         1.3690
  30   0.0000       0.059056         1.6070
  31   0.0000       0.065817         1.7910
  32   0.0000       0.067423         1.8347
  33   0.0000       0.097996         2.6666

MULLIKEN ATOMIC CHARGES
-----------------------
   0 C :   -1.206975
   1 C :   -0.617537
   2 H :    0.426882
   3 H :    0.408164
   4 S :    1.049460
   5 O :   -0.534403
   6 O :   -0.536965
   7 F :   -0.134215
   8 H :    0.386953
   9 H :    0.374467
  10 H :    0.384168
Sum of atomic charges:   -0.0000000

LOEWDIN ATOMIC CHARGES
----------------------
   0 C :   -0.137590
   1 C :   -0.296290
   2 H :    0.113418
   3 H :    0.118458
   4 S :    0.561439
   5 O :   -0.270472
   6 O :   -0.264772
   7 F :   -0.066011
   8 H :    0.078084
   9 H :    0.082021
  10 H :    0.081715

  Mayer bond orders larger than 0.100000
B(  0-C ,  1-C ) :   0.6006 B(  0-C ,  8-H ) :   0.8869 B(  0-C ,  9-H ) :   0.9242
B(  0-C , 10-H ) :   0.9279 B(  1-C ,  2-H ) :   0.8444 B(  1-C ,  3-H ) :   0.8572
B(  1-C ,  4-S ) :   0.9146 B(  4-S ,  5-O ) :   1.7086 B(  4-S ,  6-O ) :   1.7105
B(  4-S ,  7-F ) :   0.9872

FINAL SINGLE POINT ENERGY      -726.612918354393

DIPOLE MOMENT
-------------
                                X             Y             Z
Electronic contribution:     -5.02530      -3.59470      -6.56630
Nuclear contribution   :      6.54345       4.10057       6.91691
                        -----------------------------------------
Total Dipole Moment    :      1.51814       0.50587       0.35061
                        -----------------------------------------
Magnitude (a.u.)       :      1.63817
Magnitude (Debye)      :      4.16389

Rotational constants in cm-1:     0.152835     0.082826     0.080611
Rotational constants in MHz :  4581.878371  2483.049050  2416.647141

                             ****ORCA TERMINATED NORMALLY****
TOTAL RUN TIME: 0 days 0 hours 0 minutes 33 seconds 946 msec
