                         Program Version 5.0.0 -  RELEASE  -
|  1> !LC-PBE RIJCOSX def2-TZVPD def2/J TightSCF
|  2> *xyz 0 1
|  3> C          3.38093        2.08304       -3.35013
|  4> N          4.53592        1.18245       -3.42852
|  5> C          2.49556        1.81615       -2.13636
|  6> C          4.67196        0.12227       -4.22060
|  7> N          5.86602       -0.50785       -4.22428
|  8> C          3.69888       -0.31284       -4.98699
|  9> H          2.73141       -0.05009       -4.84900
| 10> H          3.89005       -1.05517       -5.64373
| 11> H          5.25193        1.30346       -2.72101
| 12> H          6.69516       -0.06232       -3.85160
| 13> H          5.97538       -1.39688       -4.69141
| 14> H          2.80646        1.98651       -4.26848
| 15> H          3.77871        3.09828       -3.30738
| 16> H          2.11090        0.81901       -2.18783
| 17> H          1.68276        2.51198       -2.12786
| 18> H          3.07216        1.93031       -1.24227
| 19> *
| 20>
| 21> %MaxCore 64000
| 22>
| 23> %pal nprocs 4
| 24> end
| 25>
| 26> %scf
| 27>   MaxIter 150
| 28> end
| 29>
| 30>
| 31>                          ****END OF INPUT****

CARTESIAN COORDINATES (ANGSTROEM)
---------------------------------
  C      3.380930    2.083040   -3.350130
  N      4.535920    1.182450   -3.428520
  C      2.495560    1.816150   -2.136360
  C      4.671960    0.122270   -4.220600
  N      5.866020   -0.507850   -4.224280
  C      3.698880   -0.312840   -4.986990
  H      2.731410   -0.050090   -4.849000
  H      3.890050   -1.055170   -5.643730
  H      5.251930    1.303460   -2.721010
  H      6.695160   -0.062320   -3.851600
  H      5.975380   -1.396880   -4.691410
  H      2.806460    1.986510   -4.268480
  H      3.778710    3.098280   -3.307380
  H      2.110900    0.819010   -2.187830
  H      1.682760    2.511980   -2.127860
  H      3.072160    1.930310   -1.242270

 Total Charge           Charge          ....    0
 Multiplicity           Mult            ....    1
 Number of Electrons    NEL             ....   48
 Basis Dimension        Dim             ....  312

ORBITAL ENERGIES
----------------

  NO   OCC          E(Eh)            E(eV)
   0   2.0000     -14.215137      -386.8136
   1   2.0000     -14.209897      -386.6710
   2   2.0000     -10.165416      -276.6150
   3   2.0000     -10.146858      -276.1100
   4   2.0000     -10.097451      -274.7656
   5   2.0000     -10.023967      -272.7660
   6   2.0000      -1.140207       -31.0266
   7   2.0000      -1.050203       -28.5775
   8   2.0000      -0.929737       -25.2994
   9   2.0000      -0.881151       -23.9773
  10   2.0000      -0.801284       -21.8040
  11   2.0000      -0.717348       -19.5200
  12   2.0000      -0.693392       -18.8682
  13   2.0000      -0.660780       -17.9807
  14   2.0000      -0.598265       -16.2796
  15   2.0000      -0.592859       -16.1325
  16   2.0000      -0.566880       -15.4256
  17   2.0000      -0.538034       -14.6407
  18   2.0000      -0.515444       -14.0259
  19   2.0000      -0.508010       -13.8237
  20   2.0000      -0.489308       -13.3148
  21   2.0000      -0.479017       -13.0347
  22   2.0000      -0.377181       -10.2636
  23   2.0000      -0.288104        -7.8397
  24   0.0000       0.064539         1.7562
  25   0.0000       0.082145         2.2353
  26   0.0000       0.090884         2.4731
  27   0.0000       0.093383         2.5411
  28   0.0000       0.117992         3.2107

MULLIKEN ATOMIC CHARGES
-----------------------
   0 C :   -0.668901
   1 N :   -0.323167
   2 C :   -1.051540
   3 C :    0.980547
   4 N :   -0.502879
   5 C :   -1.383550
   6 H :    0.315592
   7 H :    0.281641
   8 H :    0.202846
   9 H :    0.207379
  10 H :    0.191469
  11 H :    0.405347
  12 H :    0.322512
  13 H :    0.306102
  14 H :    0.368648
  15 H :    0.347953
Sum of atomic charges:    0.0000000

LOEWDIN ATOMIC CHARGES
----------------------
   0 C :   -0.251281
   1 N :    0.002380
   2 C :   -0.109361
   3 C :   -0.569710
   4 N :    0.093108
   5 C :   -0.016355
   6 H :    0.019155
   7 H :    0.020155
   8 H :    0.144734
   9 H :    0.104151
  10 H :    0.110726
  11 H :    0.114633
  12 H :    0.117668
  13 H :    0.076564
  14 H :    0.072522
  15 H :    0.070910

  Mayer bond orders larger than 0.100000
B(  0-C ,  1-N ) :   0.7973 B(  0-C ,  2-C ) :   0.5751 B(  0-C ,  3-C ) :  -0.1279
B(  0-C ,  5-C ) :   0.1837 B(  0-C , 11-H ) :   0.9001 B(  0-C , 12-H ) :   0.9259
B(  1-N ,  3-C ) :   0.9397 B(  1-N ,  5-C ) :   0.1093 B(  1-N ,  8-H ) :   1.0542
B(  2-C , 13-H ) :   0.9876 B(  2-C , 14-H ) :   0.9333 B(  2-C , 15-H ) :   0.9170
B(  3-C ,  4-N ) :   0.7763 B(  3-C ,  5-C ) :   1.0349 B(  3-C ,  7-H ) :  -0.1617
B(  4-N ,  5-C ) :   0.1118 B(  4-N ,  9-H ) :   1.0249 B(  4-N , 10-H ) :   1.0308
B(  5-C ,  6-H ) :   0.9247 B(  5-C ,  7-H ) :   1.1478

FINAL SINGLE POINT ENERGY      -267.130515965830

DIPOLE MOMENT
-------------
                                X             Y             Z
Electronic contribution:      3.65924      -1.31315      -1.34499
Nuclear contribution   :     -3.02065       1.64092       1.99316
                        -----------------------------------------
Total Dipole Moment    :      0.63859       0.32777       0.64817
                        -----------------------------------------
Magnitude (a.u.)       :      0.96714
Magnitude (Debye)      :      2.45827

Rotational constants in cm-1:     0.259304     0.069422     0.060943
Rotational constants in MHz :  7773.747720  2081.225169  1827.013389

                             ****ORCA TERMINATED NORMALLY****
TOTAL RUN TIME: 0 days 0 hours 0 minutes 56 seconds 446 msec
