                         Program Version 5.0.0 -  RELEASE  -
|  1> !LC-PBE RIJCOSX def2-TZVPD def2/J TightSCF xyzfile
|  2>
|  3> *xyzfile 0 1 D1.xyz
|  4>
|  5> %MaxCore 64000
|  6>
|  7> %pal nprocs 4
|  8> end
|  9>
| 10> %scf
| 11>   MaxIter 150
| 12> end
| 13>
| 14>
| 15>                          ****END OF INPUT****

CARTESIAN COORDINATES (ANGSTROEM)
---------------------------------
  C      3.380928    2.083045   -3.350127
  C      4.535924    1.182447   -3.428518
  C      2.495557    1.816150   -2.136364
  C      1.872181    0.427903   -2.077497
  H      2.614270   -0.365825   -2.198894
  H      1.389953    0.273087   -1.112360
  S      0.579024    0.140472   -3.297943
  C      4.671956    0.122273   -4.220598
  N      5.866023   -0.507849   -4.224284
  N      3.698881   -0.312844   -4.986988
  H      2.731405   -0.050091   -4.849000
  H      3.890046   -1.055172   -5.643730
  H      5.251933    1.303459   -2.721014
  H      6.695165   -0.062322   -3.851596
  H      5.975383   -1.396884   -4.691414
  F      0.228860   -1.246868   -3.127871
  O     -0.439269    1.118966   -3.014550
  O      1.247881    0.403474   -4.595647
  H      1.697003    2.561969   -2.141109
  H      3.080787    1.987436   -1.225838
  H      2.806463    1.986511   -4.268484
  H      3.778714    3.098282   -3.307383

 Total Charge           Charge          ....    0
 Multiplicity           Mult            ....    1
 Number of Electrons    NEL             ....   96
 Basis Dimension        Dim             ....  524

ORBITAL ENERGIES
----------------

  NO   OCC          E(Eh)            E(eV)
   0   2.0000     -88.545283     -2409.4396
   1   2.0000     -24.626549      -670.1225
   2   2.0000     -19.003582      -517.1138
   3   2.0000     -18.998317      -516.9705
   4   2.0000     -14.206862      -386.5884
   5   2.0000     -14.189204      -386.1079
   6   2.0000     -10.171524      -276.7813
   7   2.0000     -10.160941      -276.4933
   8   2.0000     -10.126063      -275.5442
   9   2.0000     -10.090914      -274.5877
  10   2.0000     -10.034545      -273.0539
  11   2.0000      -8.157017      -221.9637
  12   2.0000      -6.177260      -168.0918
  13   2.0000      -6.170499      -167.9078
  14   2.0000      -6.169795      -167.8887
  15   2.0000      -1.558178       -42.4002
  16   2.0000      -1.293111       -35.1874
  17   2.0000      -1.191036       -32.4097
  18   2.0000      -1.129342       -30.7310
  19   2.0000      -1.028062       -27.9750
  20   2.0000      -1.006416       -27.3860
  21   2.0000      -0.938117       -25.5274
  22   2.0000      -0.892691       -24.2914
  23   2.0000      -0.847568       -23.0635
  24   2.0000      -0.790489       -21.5103
  25   2.0000      -0.758886       -20.6503
  26   2.0000      -0.747050       -20.3283
  27   2.0000      -0.736320       -20.0363
  28   2.0000      -0.704949       -19.1826
  29   2.0000      -0.686474       -18.6799
  30   2.0000      -0.664485       -18.0816
  31   2.0000      -0.636362       -17.3163
  32   2.0000      -0.633410       -17.2360
  33   2.0000      -0.613056       -16.6821
  34   2.0000      -0.597065       -16.2470
  35   2.0000      -0.578200       -15.7336
  36   2.0000      -0.548987       -14.9387
  37   2.0000      -0.546129       -14.8609
  38   2.0000      -0.535071       -14.5600
  39   2.0000      -0.522155       -14.2086
  40   2.0000      -0.494809       -13.4644
  41   2.0000      -0.489719       -13.3259
  42   2.0000      -0.470870       -12.8130
  43   2.0000      -0.467106       -12.7106
  44   2.0000      -0.453121       -12.3301
  45   2.0000      -0.438966       -11.9449
  46   2.0000      -0.388507       -10.5718
  47   2.0000      -0.274252        -7.4628
  48   0.0000       0.040918         1.1134
  49   0.0000       0.057301         1.5592
  50   0.0000       0.061508         1.6737
  51   0.0000       0.071445         1.9441
  52   0.0000       0.086697         2.3591

MULLIKEN ATOMIC CHARGES
-----------------------
   0 C :   -0.895997
   1 C :   -0.955571
   2 C :   -0.666794
   3 C :   -0.833341
   4 H :    0.487499
   5 H :    0.432755
   6 S :    1.083138
   7 C :    0.915855
   8 N :   -0.532693
   9 N :   -0.353176
  10 H :    0.208905
  11 H :    0.170583
  12 H :    0.282603
  13 H :    0.212234
  14 H :    0.188978
  15 F :   -0.094564
  16 O :   -0.537515
  17 O :   -0.687575
  18 H :    0.335894
  19 H :    0.420244
  20 H :    0.482814
  21 H :    0.335725
Sum of atomic charges:   -0.0000000

LOEWDIN ATOMIC CHARGES
----------------------
   0 C :   -0.238294
   1 C :   -0.150851
   2 C :   -0.225682
   3 C :   -0.234355
   4 H :    0.117153
   5 H :    0.113351
   6 S :    0.616735
   7 C :   -0.549398
   8 N :    0.092096
   9 N :    0.133587
  10 H :    0.014270
  11 H :    0.115175
  12 H :    0.076824
  13 H :    0.111987
  14 H :    0.099758
  15 F :   -0.022945
  16 O :   -0.247947
  17 O :   -0.302954
  18 H :    0.120857
  19 H :    0.131723
  20 H :    0.107827
  21 H :    0.121083

  Mayer bond orders larger than 0.100000
B(  0-C ,  1-C ) :   0.4674 B(  0-C ,  2-C ) :   0.6688 B(  0-C , 20-H ) :   0.8555
B(  0-C , 21-H ) :   1.0153 B(  1-C ,  7-C ) :   1.1161 B(  1-C ,  8-N ) :   0.2051
B(  1-C ,  9-N ) :   0.1245 B(  1-C , 12-H ) :   1.1301 B(  2-C ,  3-C ) :   0.9055
B(  2-C , 18-H ) :   0.8998 B(  2-C , 19-H ) :   0.8617 B(  3-C ,  4-H ) :   0.7519
B(  3-C ,  5-H ) :   0.8499 B(  3-C ,  6-S ) :   0.8952 B(  6-S , 15-F ) :   0.9964
B(  6-S , 16-O ) :   1.6977 B(  6-S , 17-O ) :   1.5814 B(  7-C ,  8-N ) :   0.6848
B(  7-C ,  9-N ) :   0.7636 B(  7-C , 10-H ) :  -0.1243 B(  7-C , 12-H ) :  -0.2032
B(  8-N , 13-H ) :   1.0041 B(  8-N , 14-H ) :   1.0651 B(  9-N , 10-H ) :   0.8922
B(  9-N , 11-H ) :   1.0740 B(  9-N , 17-O ) :  -0.1150

FINAL SINGLE POINT ENERGY      -953.362198718901

DIPOLE MOMENT
-------------
                                X             Y             Z
Electronic contribution:    -15.28731      -6.72189      -1.09767
Nuclear contribution   :     15.92508       5.34175       1.81950
                        -----------------------------------------
Total Dipole Moment    :      0.63777      -1.38014       0.72183
                        -----------------------------------------
Magnitude (a.u.)       :      1.68303
Magnitude (Debye)      :      4.27791

Rotational constants in cm-1:     0.058561     0.020662     0.017762
Rotational constants in MHz :  1755.621534   619.433801   532.501507

                             ****ORCA TERMINATED NORMALLY****
TOTAL RUN TIME: 0 days 0 hours 3 minutes 40 seconds 355 msec
