                         Program Version 5.0.0 -  RELEASE  -
|  1> !LC-PBE RIJCOSX def2-TZVPD def2/J TightSCF xyzfile
|  2>
|  3> *xyzfile 0 1 D2.xyz
|  4>
|  5> %MaxCore 64000
|  6>
|  7> %pal nprocs 4
|  8> end
|  9>
| 10> %scf
| 11>   MaxIter 150
| 12> end
| 13>
| 14>
| 15>                          ****END OF INPUT****

CARTESIAN COORDINATES (ANGSTROEM)
---------------------------------
  C      3.380928    2.083045   -3.350127
  N      4.535924    1.182447   -3.428518
  C      2.495557    1.816150   -2.136364
  C      1.872181    0.427903   -2.077497
  H      2.614270   -0.365825   -2.198894
  H      1.389953    0.273087   -1.112360
  S      0.579024    0.140472   -3.297943
  C      4.671956    0.122273   -4.220598
  C      5.866023   -0.507849   -4.224284
  N      3.698881   -0.312844   -4.986988
  H      2.731405   -0.050091   -4.849000
  H      3.890046   -1.055172   -5.643730
  H      5.251933    1.303459   -2.721014
  H      6.695165   -0.062322   -3.851596
  H      5.975383   -1.396884   -4.691414
  F      0.228860   -1.246868   -3.127871
  O     -0.439269    1.118966   -3.014550
  O      1.247881    0.403474   -4.595647
  H      1.697003    2.561969   -2.141109
  H      3.080787    1.987436   -1.225838
  H      2.806463    1.986511   -4.268484
  H      3.778714    3.098282   -3.307383

 Total Charge           Charge          ....    0
 Multiplicity           Mult            ....    1
 Number of Electrons    NEL             ....   96
 Basis Dimension        Dim             ....  524

ORBITAL ENERGIES
----------------

  NO   OCC          E(Eh)            E(eV)
   0   2.0000     -88.559274     -2409.8203
   1   2.0000     -24.638058      -670.4356
   2   2.0000     -19.016676      -517.4701
   3   2.0000     -19.010551      -517.3034
   4   2.0000     -14.216974      -386.8635
   5   2.0000     -14.187086      -386.0502
   6   2.0000     -10.190584      -277.2999
   7   2.0000     -10.161741      -276.5150
   8   2.0000     -10.159190      -276.4456
   9   2.0000     -10.153940      -276.3028
  10   2.0000     -10.013337      -272.4768
  11   2.0000      -8.170833      -222.3397
  12   2.0000      -6.191007      -168.4659
  13   2.0000      -6.184369      -168.2852
  14   2.0000      -6.183696      -168.2669
  15   2.0000      -1.569564       -42.7100
  16   2.0000      -1.306166       -35.5426
  17   2.0000      -1.203779       -32.7565
  18   2.0000      -1.141045       -31.0494
  19   2.0000      -1.054099       -28.6835
  20   2.0000      -1.014446       -27.6045
  21   2.0000      -0.942173       -25.6378
  22   2.0000      -0.892669       -24.2908
  23   2.0000      -0.856014       -23.2933
  24   2.0000      -0.800937       -21.7946
  25   2.0000      -0.769173       -20.9302
  26   2.0000      -0.754966       -20.5437
  27   2.0000      -0.752927       -20.4882
  28   2.0000      -0.736534       -20.0421
  29   2.0000      -0.698205       -18.9991
  30   2.0000      -0.660173       -17.9642
  31   2.0000      -0.639429       -17.3997
  32   2.0000      -0.633665       -17.2429
  33   2.0000      -0.626187       -17.0394
  34   2.0000      -0.608907       -16.5692
  35   2.0000      -0.587788       -15.9945
  36   2.0000      -0.560396       -15.2491
  37   2.0000      -0.552537       -15.0353
  38   2.0000      -0.544125       -14.8064
  39   2.0000      -0.526367       -14.3232
  40   2.0000      -0.519549       -14.1376
  41   2.0000      -0.504680       -13.7330
  42   2.0000      -0.492959       -13.4141
  43   2.0000      -0.484057       -13.1718
  44   2.0000      -0.470539       -12.8040
  45   2.0000      -0.461325       -12.5533
  46   2.0000      -0.378340       -10.2952
  47   2.0000      -0.269500        -7.3335
  48   0.0000       0.035668         0.9706
  49   0.0000       0.050960         1.3867
  50   0.0000       0.059036         1.6065
  51   0.0000       0.063255         1.7213
  52   0.0000       0.084016         2.2862

MULLIKEN ATOMIC CHARGES
-----------------------
   0 C :   -0.939526
   1 N :   -0.261395
   2 C :   -0.630881
   3 C :   -0.842830
   4 H :    0.472338
   5 H :    0.436124
   6 S :    1.089377
   7 C :    0.827752
   8 C :   -1.392842
   9 N :   -0.355385
  10 H :    0.259524
  11 H :    0.163350
  12 H :    0.200772
  13 H :    0.295984
  14 H :    0.309207
  15 F :   -0.089872
  16 O :   -0.536636
  17 O :   -0.685107
  18 H :    0.374745
  19 H :    0.402242
  20 H :    0.541314
  21 H :    0.361744
Sum of atomic charges:    0.0000000

LOEWDIN ATOMIC CHARGES
----------------------
   0 C :   -0.193658
   1 N :    0.024906
   2 C :   -0.210035
   3 C :   -0.231834
   4 H :    0.120111
   5 H :    0.115479
   6 S :    0.617731
   7 C :   -0.576827
   8 C :   -0.034290
   9 N :    0.130693
  10 H :    0.009723
  11 H :    0.125459
  12 H :    0.152924
  13 H :    0.007836
  14 H :    0.005469
  15 F :   -0.016799
  16 O :   -0.245721
  17 O :   -0.303248
  18 H :    0.125500
  19 H :    0.131051
  20 H :    0.116424
  21 H :    0.129105

  Mayer bond orders larger than 0.100000
B(  0-C ,  1-N ) :   0.7564 B(  0-C ,  2-C ) :   0.7228 B(  0-C ,  7-C ) :  -0.1550
B(  0-C , 20-H ) :   0.8027 B(  0-C , 21-H ) :   0.9484 B(  1-N ,  7-C ) :   0.9666
B(  1-N ,  8-C ) :   0.1912 B(  1-N , 12-H ) :   1.0206 B(  2-C ,  3-C ) :   0.8815
B(  2-C , 18-H ) :   0.9246 B(  2-C , 19-H ) :   0.8506 B(  3-C ,  4-H ) :   0.7459
B(  3-C ,  5-H ) :   0.8472 B(  3-C ,  6-S ) :   0.9043 B(  6-S , 15-F ) :   1.0042
B(  6-S , 16-O ) :   1.6976 B(  6-S , 17-O ) :   1.5806 B(  7-C ,  8-C ) :   0.9159
B(  7-C ,  9-N ) :   0.8625 B(  7-C , 10-H ) :  -0.1198 B(  7-C , 14-H ) :  -0.1371
B(  8-C ,  9-N ) :   0.1165 B(  8-C , 13-H ) :   1.0278 B(  8-C , 14-H ) :   1.0651
B(  9-N , 10-H ) :   0.8416 B(  9-N , 11-H ) :   1.0559 B(  9-N , 17-O ) :  -0.1142

FINAL SINGLE POINT ENERGY      -953.344581102113

DIPOLE MOMENT
-------------
                                X             Y             Z
Electronic contribution:    -16.76881      -5.25224      -0.32157
Nuclear contribution   :     16.05479       5.17692       1.74190
                        -----------------------------------------
Total Dipole Moment    :     -0.71402      -0.07532       1.42032
                        -----------------------------------------
Magnitude (a.u.)       :      1.59148
Magnitude (Debye)      :      4.04522

Rotational constants in cm-1:     0.058652     0.021107     0.018077
Rotational constants in MHz :  1758.344290   632.763813   541.920558

                             ****ORCA TERMINATED NORMALLY****
TOTAL RUN TIME: 0 days 0 hours 3 minutes 43 seconds 629 msec
