                         Program Version 5.0.0 -  RELEASE  -
|  1> !LC-PBE RIJCOSX def2-TZVPD def2/J TightSCF xyzfile
|  2>
|  3> *xyzfile 0 1 D3.xyz
|  4>
|  5> %MaxCore 64000
|  6>
|  7> %pal nprocs 4
|  8> end
|  9>
| 10> %scf
| 11>   MaxIter 150
| 12> end
| 13>
| 14>
| 15>                          ****END OF INPUT****

CARTESIAN COORDINATES (ANGSTROEM)
---------------------------------
  C      3.380928    2.083045   -3.350127
  N      4.535924    1.182447   -3.428518
  C      2.495557    1.816150   -2.136364
  C      1.872181    0.427903   -2.077497
  H      2.614270   -0.365825   -2.198894
  H      1.389953    0.273087   -1.112360
  S      0.579024    0.140472   -3.297943
  C      4.671956    0.122273   -4.220598
  N      5.866023   -0.507849   -4.224284
  C      3.698881   -0.312844   -4.986988
  H      2.731405   -0.050091   -4.849000
  H      3.890046   -1.055172   -5.643730
  H      5.251933    1.303459   -2.721014
  H      6.695165   -0.062322   -3.851596
  H      5.975383   -1.396884   -4.691414
  F      0.228860   -1.246868   -3.127871
  O     -0.439269    1.118966   -3.014550
  O      1.247881    0.403474   -4.595647
  H      1.697003    2.561969   -2.141109
  H      3.080787    1.987436   -1.225838
  H      2.806463    1.986511   -4.268484
  H      3.778714    3.098282   -3.307383

 Total Charge           Charge          ....    0
 Multiplicity           Mult            ....    1
 Number of Electrons    NEL             ....   96
 Basis Dimension        Dim             ....  524

ORBITAL ENERGIES
----------------

  NO   OCC          E(Eh)            E(eV)
   0   2.0000     -88.537042     -2409.2154
   1   2.0000     -24.619141      -669.9209
   2   2.0000     -18.996680      -516.9259
   3   2.0000     -18.980595      -516.4882
   4   2.0000     -14.216986      -386.8639
   5   2.0000     -14.205378      -386.5480
   6   2.0000     -10.175905      -276.9005
   7   2.0000     -10.157010      -276.3863
   8   2.0000     -10.152018      -276.2505
   9   2.0000     -10.145045      -276.0607
  10   2.0000     -10.001739      -272.1612
  11   2.0000      -8.148593      -221.7345
  12   2.0000      -6.168853      -167.8630
  13   2.0000      -6.161880      -167.6733
  14   2.0000      -6.161608      -167.6659
  15   2.0000      -1.550454       -42.1900
  16   2.0000      -1.283595       -34.9284
  17   2.0000      -1.178142       -32.0589
  18   2.0000      -1.139312       -31.0023
  19   2.0000      -1.053064       -28.6553
  20   2.0000      -1.001004       -27.2387
  21   2.0000      -0.922636       -25.1062
  22   2.0000      -0.883621       -24.0445
  23   2.0000      -0.861131       -23.4326
  24   2.0000      -0.806196       -21.9377
  25   2.0000      -0.749296       -20.3894
  26   2.0000      -0.744297       -20.2533
  27   2.0000      -0.727510       -19.7965
  28   2.0000      -0.706993       -19.2383
  29   2.0000      -0.687334       -18.7033
  30   2.0000      -0.665154       -18.0997
  31   2.0000      -0.643136       -17.5006
  32   2.0000      -0.637426       -17.3452
  33   2.0000      -0.599739       -16.3197
  34   2.0000      -0.594056       -16.1651
  35   2.0000      -0.588874       -16.0241
  36   2.0000      -0.548182       -14.9168
  37   2.0000      -0.539588       -14.6829
  38   2.0000      -0.532271       -14.4838
  39   2.0000      -0.518087       -14.0979
  40   2.0000      -0.512777       -13.9534
  41   2.0000      -0.503205       -13.6929
  42   2.0000      -0.486102       -13.2275
  43   2.0000      -0.472546       -12.8586
  44   2.0000      -0.450924       -12.2703
  45   2.0000      -0.413963       -11.2645
  46   2.0000      -0.378666       -10.3040
  47   2.0000      -0.280307        -7.6275
  48   0.0000       0.043023         1.1707
  49   0.0000       0.056970         1.5502
  50   0.0000       0.065029         1.7695
  51   0.0000       0.066902         1.8205
  52   0.0000       0.085433         2.3247

MULLIKEN ATOMIC CHARGES
-----------------------
   0 C :   -0.948552
   1 N :   -0.280414
   2 C :   -0.652736
   3 C :   -0.828921
   4 H :    0.485837
   5 H :    0.440189
   6 S :    1.064746
   7 C :    1.148532
   8 N :   -0.534912
   9 C :   -1.414216
  10 H :    0.220026
  11 H :    0.265562
  12 H :    0.201738
  13 H :    0.197257
  14 H :    0.197490
  15 F :   -0.098508
  16 O :   -0.549181
  17 O :   -0.572374
  18 H :    0.365416
  19 H :    0.395941
  20 H :    0.548503
  21 H :    0.348576
Sum of atomic charges:    0.0000000

LOEWDIN ATOMIC CHARGES
----------------------
   0 C :   -0.189000
   1 N :    0.015633
   2 C :   -0.209531
   3 C :   -0.232996
   4 H :    0.117348
   5 H :    0.112816
   6 S :    0.608207
   7 C :   -0.563586
   8 N :    0.090486
   9 C :    0.000679
  10 H :   -0.053162
  11 H :    0.033603
  12 H :    0.145342
  13 H :    0.101247
  14 H :    0.109610
  15 F :   -0.021300
  16 O :   -0.256654
  17 O :   -0.311360
  18 H :    0.125220
  19 H :    0.127871
  20 H :    0.120764
  21 H :    0.128765

  Mayer bond orders larger than 0.100000
B(  0-C ,  1-N ) :   0.8148 B(  0-C ,  2-C ) :   0.7323 B(  0-C ,  7-C ) :  -0.1504
B(  0-C ,  9-C ) :   0.1661 B(  0-C , 20-H ) :   0.7952 B(  0-C , 21-H ) :   0.9461
B(  1-N ,  7-C ) :   0.8983 B(  1-N , 12-H ) :   1.0376 B(  2-C ,  3-C ) :   0.8841
B(  2-C , 18-H ) :   0.9168 B(  2-C , 19-H ) :   0.8588 B(  3-C ,  4-H ) :   0.7574
B(  3-C ,  5-H ) :   0.8518 B(  3-C ,  6-S ) :   0.8813 B(  6-S , 15-F ) :   0.9850
B(  6-S , 16-O ) :   1.6941 B(  6-S , 17-O ) :   1.6477 B(  7-C ,  8-N ) :   0.7274
B(  7-C ,  9-C ) :   0.6988 B(  7-C , 10-H ) :  -0.1992 B(  7-C , 11-H ) :  -0.2092
B(  8-N ,  9-C ) :   0.1178 B(  8-N , 13-H ) :   1.0426 B(  8-N , 14-H ) :   1.0259
B(  9-C , 10-H ) :   1.3251 B(  9-C , 11-H ) :   1.2097 B(  9-C , 17-O ) :   0.1453
B( 10-H , 17-O ) :  -0.4131

FINAL SINGLE POINT ENERGY      -953.328650826899

DIPOLE MOMENT
-------------
                                X             Y             Z
Electronic contribution:    -14.69132      -5.50592       0.09657
Nuclear contribution   :     15.84345       5.19593       1.66752
                        -----------------------------------------
Total Dipole Moment    :      1.15213      -0.30998       1.76409
                        -----------------------------------------
Magnitude (a.u.)       :      2.12968
Magnitude (Debye)      :      5.41321

Rotational constants in cm-1:     0.059060     0.020573     0.017713
Rotational constants in MHz :  1770.576058   616.749938   531.036486

                             ****ORCA TERMINATED NORMALLY****
TOTAL RUN TIME: 0 days 0 hours 3 minutes 40 seconds 880 msec
