                         Program Version 5.0.0 -  RELEASE  -
|  1> !LC-PBE RIJCOSX def2-TZVPD def2/J TightSCF xyzfile
|  2>
|  3> *xyzfile 0 1 D4.xyz
|  4>
|  5> %MaxCore 64000
|  6>
|  7> %pal nprocs 4
|  8> end
|  9>
| 10> %scf
| 11>   MaxIter 150
| 12> end
| 13>
| 14>
| 15>                          ****END OF INPUT****

CARTESIAN COORDINATES (ANGSTROEM)
---------------------------------
  C      3.380928    2.083045   -3.350127
  C      4.535924    1.182447   -3.428518
  C      2.495557    1.816150   -2.136364
  C      1.872181    0.427903   -2.077497
  H      2.614270   -0.365825   -2.198894
  H      1.389953    0.273087   -1.112360
  S      0.579024    0.140472   -3.297943
  C      4.671956    0.122273   -4.220598
  N      5.866023   -0.507849   -4.224284
  N      3.698881   -0.312844   -4.986988
  H      2.731405   -0.050091   -4.849000
  H      3.890046   -1.055172   -5.643730
  H      5.251933    1.303459   -2.721014
  H      6.695165   -0.062322   -3.851596
  H      5.975383   -1.396884   -4.691414
  O      0.228860   -1.246868   -3.127871
  F     -0.439269    1.118966   -3.014550
  O      1.247881    0.403474   -4.595647
  H      1.697003    2.561969   -2.141109
  H      3.080787    1.987436   -1.225838
  H      2.806463    1.986511   -4.268484
  H      3.778714    3.098282   -3.307383

 Total Charge           Charge          ....    0
 Multiplicity           Mult            ....    1
 Number of Electrons    NEL             ....   96
 Basis Dimension        Dim             ....  524

ORBITAL ENERGIES
----------------

  NO   OCC          E(Eh)            E(eV)
   0   2.0000     -88.545550     -2409.4469
   1   2.0000     -24.626054      -670.1090
   2   2.0000     -19.004097      -517.1278
   3   2.0000     -18.997674      -516.9530
   4   2.0000     -14.205907      -386.5624
   5   2.0000     -14.188050      -386.0765
   6   2.0000     -10.170948      -276.7656
   7   2.0000     -10.160961      -276.4938
   8   2.0000     -10.128766      -275.6177
   9   2.0000     -10.093240      -274.6510
  10   2.0000     -10.034506      -273.0528
  11   2.0000      -8.157149      -221.9673
  12   2.0000      -6.177486      -168.0979
  13   2.0000      -6.170645      -167.9118
  14   2.0000      -6.169865      -167.8906
  15   2.0000      -1.557700       -42.3872
  16   2.0000      -1.292788       -35.1785
  17   2.0000      -1.191185       -32.4138
  18   2.0000      -1.128296       -30.7025
  19   2.0000      -1.026879       -27.9428
  20   2.0000      -1.009408       -27.4674
  21   2.0000      -0.936064       -25.4716
  22   2.0000      -0.891418       -24.2567
  23   2.0000      -0.850066       -23.1315
  24   2.0000      -0.789011       -21.4701
  25   2.0000      -0.762611       -20.7517
  26   2.0000      -0.751436       -20.4476
  27   2.0000      -0.735440       -20.0123
  28   2.0000      -0.700964       -19.0742
  29   2.0000      -0.682918       -18.5831
  30   2.0000      -0.663177       -18.0460
  31   2.0000      -0.635020       -17.2798
  32   2.0000      -0.626870       -17.0580
  33   2.0000      -0.621229       -16.9045
  34   2.0000      -0.598496       -16.2859
  35   2.0000      -0.582781       -15.8583
  36   2.0000      -0.549220       -14.9450
  37   2.0000      -0.545607       -14.8467
  38   2.0000      -0.540738       -14.7142
  39   2.0000      -0.520419       -14.1613
  40   2.0000      -0.496159       -13.5012
  41   2.0000      -0.481706       -13.1079
  42   2.0000      -0.477485       -12.9930
  43   2.0000      -0.466815       -12.7027
  44   2.0000      -0.460002       -12.5173
  45   2.0000      -0.436384       -11.8746
  46   2.0000      -0.387051       -10.5322
  47   2.0000      -0.274164        -7.4604
  48   0.0000       0.043388         1.1806
  49   0.0000       0.058004         1.5784
  50   0.0000       0.062735         1.7071
  51   0.0000       0.069908         1.9023
  52   0.0000       0.087389         2.3780

MULLIKEN ATOMIC CHARGES
-----------------------
   0 C :   -0.879355
   1 C :   -0.991438
   2 C :   -0.599650
   3 C :   -0.814163
   4 H :    0.448892
   5 H :    0.441176
   6 S :    1.072136
   7 C :    0.936814
   8 N :   -0.532993
   9 N :   -0.340732
  10 H :    0.172868
  11 H :    0.171669
  12 H :    0.283032
  13 H :    0.212385
  14 H :    0.190897
  15 O :   -0.558037
  16 F :   -0.077242
  17 O :   -0.681383
  18 H :    0.325581
  19 H :    0.405293
  20 H :    0.481097
  21 H :    0.333153
Sum of atomic charges:   -0.0000000

LOEWDIN ATOMIC CHARGES
----------------------
   0 C :   -0.243831
   1 C :   -0.151730
   2 C :   -0.236751
   3 C :   -0.228114
   4 H :    0.127333
   5 H :    0.113741
   6 S :    0.614356
   7 C :   -0.545947
   8 N :    0.093687
   9 N :    0.139954
  10 H :    0.019968
  11 H :    0.117640
  12 H :    0.076548
  13 H :    0.112089
  14 H :    0.100965
  15 O :   -0.254051
  16 F :   -0.017442
  17 O :   -0.307846
  18 H :    0.115102
  19 H :    0.129492
  20 H :    0.104972
  21 H :    0.119866

  Mayer bond orders larger than 0.100000
B(  0-C ,  1-C ) :   0.4934 B(  0-C ,  2-C ) :   0.6868 B(  0-C , 20-H ) :   0.8499
B(  0-C , 21-H ) :   1.0291 B(  1-C ,  7-C ) :   1.1067 B(  1-C ,  8-N ) :   0.2041
B(  1-C ,  9-N ) :   0.1272 B(  1-C , 12-H ) :   1.1288 B(  2-C ,  3-C ) :   0.8073
B(  2-C , 18-H ) :   0.8898 B(  2-C , 19-H ) :   0.8812 B(  3-C ,  4-H ) :   0.8027
B(  3-C ,  5-H ) :   0.8696 B(  3-C ,  6-S ) :   0.9075 B(  6-S , 15-O ) :   1.6853
B(  6-S , 16-F ) :   1.0359 B(  6-S , 17-O ) :   1.5896 B(  7-C ,  8-N ) :   0.6885
B(  7-C ,  9-N ) :   0.7664 B(  7-C , 10-H ) :  -0.1307 B(  7-C , 12-H ) :  -0.2007
B(  8-N , 13-H ) :   1.0039 B(  8-N , 14-H ) :   1.0635 B(  9-N , 10-H ) :   0.8950
B(  9-N , 11-H ) :   1.0691 B(  9-N , 17-O ) :  -0.1083

FINAL SINGLE POINT ENERGY      -953.362672205444

DIPOLE MOMENT
-------------
                                X             Y             Z
Electronic contribution:    -16.42079      -2.62243      -0.91755
Nuclear contribution   :     16.65743       2.74852       1.69529
                        -----------------------------------------
Total Dipole Moment    :      0.23664       0.12609       0.77773
                        -----------------------------------------
Magnitude (a.u.)       :      0.82266
Magnitude (Debye)      :      2.09103

Rotational constants in cm-1:     0.059907     0.020458     0.017675
Rotational constants in MHz :  1795.978106   613.328205   529.885290

                             ****ORCA TERMINATED NORMALLY****
TOTAL RUN TIME: 0 days 0 hours 3 minutes 44 seconds 452 msec
