                         Program Version 5.0.0 -  RELEASE  -
|  1> !LC-PBE RIJCOSX def2-TZVPD def2/J TightSCF xyzfile
|  2>
|  3> *xyzfile 0 1 D5.xyz
|  4>
|  5> %MaxCore 64000
|  6>
|  7> %pal nprocs 4
|  8> end
|  9>
| 10> %scf
| 11>   MaxIter 150
| 12> end
| 13>
| 14>
| 15>                          ****END OF INPUT****

CARTESIAN COORDINATES (ANGSTROEM)
---------------------------------
  C      3.380928    2.083045   -3.350127
  N      4.535924    1.182447   -3.428518
  C      2.495557    1.816150   -2.136364
  C      1.872181    0.427903   -2.077497
  H      2.614270   -0.365825   -2.198894
  H      1.389953    0.273087   -1.112360
  S      0.579024    0.140472   -3.297943
  C      4.671956    0.122273   -4.220598
  C      5.866023   -0.507849   -4.224284
  N      3.698881   -0.312844   -4.986988
  H      2.731405   -0.050091   -4.849000
  H      3.890046   -1.055172   -5.643730
  H      5.251933    1.303459   -2.721014
  H      6.695165   -0.062322   -3.851596
  H      5.975383   -1.396884   -4.691414
  O      0.228860   -1.246868   -3.127871
  F     -0.439269    1.118966   -3.014550
  O      1.247881    0.403474   -4.595647
  H      1.697003    2.561969   -2.141109
  H      3.080787    1.987436   -1.225838
  H      2.806463    1.986511   -4.268484
  H      3.778714    3.098282   -3.307383

 Total Charge           Charge          ....    0
 Multiplicity           Mult            ....    1
 Number of Electrons    NEL             ....   96
 Basis Dimension        Dim             ....  524

ORBITAL ENERGIES
----------------

  NO   OCC          E(Eh)            E(eV)
   0   2.0000     -88.558870     -2409.8094
   1   2.0000     -24.638866      -670.4576
   2   2.0000     -19.015798      -517.4462
   3   2.0000     -19.010252      -517.2952
   4   2.0000     -14.217666      -386.8824
   5   2.0000     -14.185417      -386.0048
   6   2.0000     -10.190246      -277.2907
   7   2.0000     -10.161679      -276.5134
   8   2.0000     -10.160526      -276.4820
   9   2.0000     -10.156866      -276.3824
  10   2.0000     -10.011941      -272.4388
  11   2.0000      -8.170363      -222.3269
  12   2.0000      -6.190663      -168.4565
  13   2.0000      -6.183895      -168.2723
  14   2.0000      -6.183123      -168.2513
  15   2.0000      -1.570569       -42.7374
  16   2.0000      -1.304912       -35.5085
  17   2.0000      -1.203351       -32.7449
  18   2.0000      -1.140711       -31.0403
  19   2.0000      -1.054289       -28.6887
  20   2.0000      -1.016339       -27.6560
  21   2.0000      -0.939734       -25.5715
  22   2.0000      -0.893575       -24.3154
  23   2.0000      -0.857710       -23.3395
  24   2.0000      -0.799858       -21.7652
  25   2.0000      -0.772151       -21.0113
  26   2.0000      -0.768919       -20.9233
  27   2.0000      -0.750523       -20.4228
  28   2.0000      -0.727230       -19.7889
  29   2.0000      -0.692442       -18.8423
  30   2.0000      -0.659449       -17.9445
  31   2.0000      -0.645768       -17.5722
  32   2.0000      -0.634692       -17.2708
  33   2.0000      -0.624169       -16.9845
  34   2.0000      -0.605289       -16.4708
  35   2.0000      -0.592273       -16.1166
  36   2.0000      -0.564534       -15.3618
  37   2.0000      -0.554532       -15.0896
  38   2.0000      -0.545476       -14.8431
  39   2.0000      -0.527210       -14.3461
  40   2.0000      -0.520871       -14.1736
  41   2.0000      -0.500482       -13.6188
  42   2.0000      -0.489615       -13.3231
  43   2.0000      -0.477962       -13.0060
  44   2.0000      -0.473733       -12.8909
  45   2.0000      -0.465666       -12.6714
  46   2.0000      -0.377719       -10.2783
  47   2.0000      -0.268215        -7.2985
  48   0.0000       0.034034         0.9261
  49   0.0000       0.050820         1.3829
  50   0.0000       0.057664         1.5691
  51   0.0000       0.064178         1.7464
  52   0.0000       0.082925         2.2565

MULLIKEN ATOMIC CHARGES
-----------------------
   0 C :   -0.928330
   1 N :   -0.270122
   2 C :   -0.581637
   3 C :   -0.829140
   4 H :    0.438749
   5 H :    0.443263
   6 S :    1.081377
   7 C :    0.834730
   8 C :   -1.399423
   9 N :   -0.344139
  10 H :    0.227953
  11 H :    0.164156
  12 H :    0.202717
  13 H :    0.297207
  14 H :    0.310534
  15 O :   -0.550434
  16 F :   -0.079025
  17 O :   -0.679571
  18 H :    0.365850
  19 H :    0.394300
  20 H :    0.538787
  21 H :    0.362195
Sum of atomic charges:   -0.0000000

LOEWDIN ATOMIC CHARGES
----------------------
   0 C :   -0.198795
   1 N :    0.025206
   2 C :   -0.220650
   3 C :   -0.225341
   4 H :    0.130302
   5 H :    0.115910
   6 S :    0.614114
   7 C :   -0.574766
   8 C :   -0.032955
   9 N :    0.136172
  10 H :    0.015089
  11 H :    0.127488
  12 H :    0.152981
  13 H :    0.007834
  14 H :    0.006587
  15 O :   -0.245927
  16 F :   -0.016151
  17 O :   -0.307683
  18 H :    0.120078
  19 H :    0.128930
  20 H :    0.113523
  21 H :    0.128055

  Mayer bond orders larger than 0.100000
B(  0-C ,  1-N ) :   0.7626 B(  0-C ,  2-C ) :   0.7431 B(  0-C ,  7-C ) :  -0.1483
B(  0-C , 20-H ) :   0.8071 B(  0-C , 21-H ) :   0.9555 B(  1-N ,  7-C ) :   0.9573
B(  1-N ,  8-C ) :   0.1921 B(  1-N , 12-H ) :   1.0208 B(  2-C ,  3-C ) :   0.7820
B(  2-C , 18-H ) :   0.9222 B(  2-C , 19-H ) :   0.8654 B(  3-C ,  4-H ) :   0.7905
B(  3-C ,  5-H ) :   0.8696 B(  3-C ,  6-S ) :   0.9232 B(  6-S , 15-O ) :   1.6923
B(  6-S , 16-F ) :   1.0376 B(  6-S , 17-O ) :   1.5858 B(  7-C ,  8-C ) :   0.9110
B(  7-C ,  9-N ) :   0.8630 B(  7-C , 10-H ) :  -0.1199 B(  7-C , 14-H ) :  -0.1351
B(  8-C ,  9-N ) :   0.1174 B(  8-C , 13-H ) :   1.0290 B(  8-C , 14-H ) :   1.0628
B(  9-N , 10-H ) :   0.8430 B(  9-N , 11-H ) :   1.0505 B(  9-N , 17-O ) :  -0.1067

FINAL SINGLE POINT ENERGY      -953.343546417157

DIPOLE MOMENT
-------------
                                X             Y             Z
Electronic contribution:    -17.90556      -1.14786      -0.12867
Nuclear contribution   :     16.78714       2.58368       1.61768
                        -----------------------------------------
Total Dipole Moment    :     -1.11842       1.43582       1.48902
                        -----------------------------------------
Magnitude (a.u.)       :      2.35152
Magnitude (Debye)      :      5.97708

Rotational constants in cm-1:     0.059928     0.020911     0.017993
Rotational constants in MHz :  1796.610847   626.896941   539.414615

                             ****ORCA TERMINATED NORMALLY****
TOTAL RUN TIME: 0 days 0 hours 3 minutes 53 seconds 330 msec
