                         Program Version 5.0.0 -  RELEASE  -
|  1> !LC-PBE RIJCOSX def2-TZVPD def2/J TightSCF xyzfile
|  2>
|  3> *xyzfile 0 1 D6.xyz
|  4>
|  5> %MaxCore 64000
|  6>
|  7> %pal nprocs 4
|  8> end
|  9>
| 10> %scf
| 11>   MaxIter 150
| 12> end
| 13>
| 14>
| 15>                          ****END OF INPUT****

CARTESIAN COORDINATES (ANGSTROEM)
---------------------------------
  C      3.380928    2.083045   -3.350127
  N      4.535924    1.182447   -3.428518
  C      2.495557    1.816150   -2.136364
  C      1.872181    0.427903   -2.077497
  H      2.614270   -0.365825   -2.198894
  H      1.389953    0.273087   -1.112360
  S      0.579024    0.140472   -3.297943
  C      4.671956    0.122273   -4.220598
  N      5.866023   -0.507849   -4.224284
  C      3.698881   -0.312844   -4.986988
  H      2.731405   -0.050091   -4.849000
  H      3.890046   -1.055172   -5.643730
  H      5.251933    1.303459   -2.721014
  H      6.695165   -0.062322   -3.851596
  H      5.975383   -1.396884   -4.691414
  O      0.228860   -1.246868   -3.127871
  F     -0.439269    1.118966   -3.014550
  O      1.247881    0.403474   -4.595647
  H      1.697003    2.561969   -2.141109
  H      3.080787    1.987436   -1.225838
  H      2.806463    1.986511   -4.268484
  H      3.778714    3.098282   -3.307383

 Total Charge           Charge          ....    0
 Multiplicity           Mult            ....    1
 Number of Electrons    NEL             ....   96
 Basis Dimension        Dim             ....  524

ORBITAL ENERGIES
----------------

  NO   OCC          E(Eh)            E(eV)
   0   2.0000     -88.536067     -2409.1889
   1   2.0000     -24.619142      -669.9209
   2   2.0000     -18.996010      -516.9077
   3   2.0000     -18.982033      -516.5274
   4   2.0000     -14.217245      -386.8709
   5   2.0000     -14.203516      -386.4973
   6   2.0000     -10.175688      -276.8946
   7   2.0000     -10.155087      -276.3340
   8   2.0000     -10.154456      -276.3168
   9   2.0000     -10.148068      -276.1430
  10   2.0000     -10.000899      -272.1383
  11   2.0000      -8.147653      -221.7089
  12   2.0000      -6.168059      -167.8414
  13   2.0000      -6.160938      -167.6477
  14   2.0000      -6.160544      -167.6369
  15   2.0000      -1.551124       -42.2082
  16   2.0000      -1.282258       -34.8920
  17   2.0000      -1.178430       -32.0667
  18   2.0000      -1.138716       -30.9860
  19   2.0000      -1.052948       -28.6522
  20   2.0000      -1.003657       -27.3109
  21   2.0000      -0.919287       -25.0151
  22   2.0000      -0.884686       -24.0735
  23   2.0000      -0.861761       -23.4497
  24   2.0000      -0.806808       -21.9544
  25   2.0000      -0.758136       -20.6299
  26   2.0000      -0.749273       -20.3887
  27   2.0000      -0.721384       -19.6298
  28   2.0000      -0.706040       -19.2123
  29   2.0000      -0.682642       -18.5756
  30   2.0000      -0.662963       -18.0401
  31   2.0000      -0.643945       -17.5226
  32   2.0000      -0.632874       -17.2214
  33   2.0000      -0.608873       -16.5683
  34   2.0000      -0.593992       -16.1634
  35   2.0000      -0.584483       -15.9046
  36   2.0000      -0.560613       -15.2550
  37   2.0000      -0.541183       -14.7263
  38   2.0000      -0.530110       -14.4250
  39   2.0000      -0.521912       -14.2019
  40   2.0000      -0.509019       -13.8511
  41   2.0000      -0.503523       -13.7016
  42   2.0000      -0.489557       -13.3215
  43   2.0000      -0.456851       -12.4316
  44   2.0000      -0.445121       -12.1123
  45   2.0000      -0.427703       -11.6384
  46   2.0000      -0.378440       -10.2979
  47   2.0000      -0.278566        -7.5802
  48   0.0000       0.041470         1.1284
  49   0.0000       0.056213         1.5296
  50   0.0000       0.063078         1.7164
  51   0.0000       0.068344         1.8597
  52   0.0000       0.086508         2.3540

MULLIKEN ATOMIC CHARGES
-----------------------
   0 C :   -0.938931
   1 N :   -0.288179
   2 C :   -0.597233
   3 C :   -0.805580
   4 H :    0.443455
   5 H :    0.439487
   6 S :    1.057439
   7 C :    1.133924
   8 N :   -0.535394
   9 C :   -1.324719
  10 H :    0.122362
  11 H :    0.270485
  12 H :    0.202356
  13 H :    0.196110
  14 H :    0.198127
  15 O :   -0.565704
  16 F :   -0.085590
  17 O :   -0.561084
  18 H :    0.355146
  19 H :    0.388839
  20 H :    0.545283
  21 H :    0.349403
Sum of atomic charges:   -0.0000000

LOEWDIN ATOMIC CHARGES
----------------------
   0 C :   -0.194237
   1 N :    0.015345
   2 C :   -0.219999
   3 C :   -0.226372
   4 H :    0.127576
   5 H :    0.113312
   6 S :    0.603840
   7 C :   -0.561932
   8 N :    0.090788
   9 C :    0.008018
  10 H :   -0.047528
  11 H :    0.036217
  12 H :    0.145262
  13 H :    0.100926
  14 H :    0.110299
  15 O :   -0.253435
  16 F :   -0.024770
  17 O :   -0.314518
  18 H :    0.119840
  19 H :    0.125838
  20 H :    0.117821
  21 H :    0.127709

  Mayer bond orders larger than 0.100000
B(  0-C ,  1-N ) :   0.8209 B(  0-C ,  2-C ) :   0.7541 B(  0-C ,  7-C ) :  -0.1407
B(  0-C ,  9-C ) :   0.1581 B(  0-C , 20-H ) :   0.8010 B(  0-C , 21-H ) :   0.9524
B(  1-N ,  7-C ) :   0.8833 B(  1-N , 12-H ) :   1.0392 B(  2-C ,  3-C ) :   0.7885
B(  2-C , 18-H ) :   0.9144 B(  2-C , 19-H ) :   0.8723 B(  3-C ,  4-H ) :   0.8087
B(  3-C ,  5-H ) :   0.8810 B(  3-C ,  6-S ) :   0.8974 B(  3-C , 15-O ) :   0.1021
B(  6-S , 15-O ) :   1.6617 B(  6-S , 16-F ) :   1.0351 B(  6-S , 17-O ) :   1.6369
B(  7-C ,  8-N ) :   0.7214 B(  7-C ,  9-C ) :   0.7144 B(  7-C , 10-H ) :  -0.2212
B(  7-C , 11-H ) :  -0.2041 B(  8-N ,  9-C ) :   0.1231 B(  8-N , 13-H ) :   1.0437
B(  8-N , 14-H ) :   1.0262 B(  9-C , 10-H ) :   1.3253 B(  9-C , 11-H ) :   1.1796
B( 10-H , 17-O ) :  -0.2889

FINAL SINGLE POINT ENERGY      -953.328130174221

DIPOLE MOMENT
-------------
                                X             Y             Z
Electronic contribution:    -15.84157      -1.39174       0.28629
Nuclear contribution   :     16.57580       2.60270       1.54331
                        -----------------------------------------
Total Dipole Moment    :      0.73423       1.21096       1.82959
                        -----------------------------------------
Magnitude (a.u.)       :      2.31364
Magnitude (Debye)      :      5.88081

Rotational constants in cm-1:     0.060402     0.020377     0.017632
Rotational constants in MHz :  1810.792194   610.900365   528.582827

                             ****ORCA TERMINATED NORMALLY****
TOTAL RUN TIME: 0 days 0 hours 3 minutes 42 seconds 218 msec
