                         Program Version 5.0.0 -  RELEASE  -
|  1> !LC-PBE RIJCOSX def2-TZVPD def2/J TightSCF xyzfile
|  2>
|  3> *xyzfile 0 1 D7.xyz
|  4>
|  5> %MaxCore 64000
|  6>
|  7> %pal nprocs 4
|  8> end
|  9>
| 10> %scf
| 11>   MaxIter 150
| 12> end
| 13>
| 14>
| 15>                          ****END OF INPUT****

CARTESIAN COORDINATES (ANGSTROEM)
---------------------------------
  C      3.380928    2.083045   -3.350127
  C      4.535924    1.182447   -3.428518
  C      2.495557    1.816150   -2.136364
  C      1.872181    0.427903   -2.077497
  H      2.614270   -0.365825   -2.198894
  H      1.389953    0.273087   -1.112360
  S      0.579024    0.140472   -3.297943
  C      4.671956    0.122273   -4.220598
  N      5.866023   -0.507849   -4.224284
  N      3.698881   -0.312844   -4.986988
  H      2.731405   -0.050091   -4.849000
  H      3.890046   -1.055172   -5.643730
  H      5.251933    1.303459   -2.721014
  H      6.695165   -0.062322   -3.851596
  H      5.975383   -1.396884   -4.691414
  O      0.228860   -1.246868   -3.127871
  O     -0.439269    1.118966   -3.014550
  F      1.247881    0.403474   -4.595647
  H      1.697003    2.561969   -2.141109
  H      3.080787    1.987436   -1.225838
  H      2.806463    1.986511   -4.268484
  H      3.778714    3.098282   -3.307383

 Total Charge           Charge          ....    0
 Multiplicity           Mult            ....    1
 Number of Electrons    NEL             ....   96
 Basis Dimension        Dim             ....  524

ORBITAL ENERGIES
----------------

  NO   OCC          E(Eh)            E(eV)
   0   2.0000     -88.534840     -2409.1555
   1   2.0000     -24.613099      -669.7565
   2   2.0000     -18.998492      -516.9752
   3   2.0000     -18.997771      -516.9556
   4   2.0000     -14.219944      -386.9443
   5   2.0000     -14.219453      -386.9310
   6   2.0000     -10.177794      -276.9518
   7   2.0000     -10.167363      -276.6680
   8   2.0000     -10.128306      -275.6052
   9   2.0000     -10.108605      -275.0691
  10   2.0000     -10.050619      -273.4912
  11   2.0000      -8.146851      -221.6871
  12   2.0000      -6.167838      -167.8354
  13   2.0000      -6.159842      -167.6178
  14   2.0000      -6.159366      -167.6049
  15   2.0000      -1.535742       -41.7897
  16   2.0000      -1.294286       -35.2193
  17   2.0000      -1.194946       -32.5161
  18   2.0000      -1.149482       -31.2790
  19   2.0000      -1.048548       -28.5324
  20   2.0000      -1.010906       -27.5081
  21   2.0000      -0.941059       -25.6075
  22   2.0000      -0.895763       -24.3750
  23   2.0000      -0.854880       -23.2625
  24   2.0000      -0.807513       -21.9736
  25   2.0000      -0.756853       -20.5950
  26   2.0000      -0.745929       -20.2978
  27   2.0000      -0.728775       -19.8310
  28   2.0000      -0.704586       -19.1728
  29   2.0000      -0.697926       -18.9915
  30   2.0000      -0.663000       -18.0412
  31   2.0000      -0.642516       -17.4838
  32   2.0000      -0.623675       -16.9711
  33   2.0000      -0.617843       -16.8124
  34   2.0000      -0.605050       -16.4643
  35   2.0000      -0.597920       -16.2702
  36   2.0000      -0.556154       -15.1337
  37   2.0000      -0.552643       -15.0382
  38   2.0000      -0.548298       -14.9199
  39   2.0000      -0.531078       -14.4514
  40   2.0000      -0.498705       -13.5704
  41   2.0000      -0.488404       -13.2902
  42   2.0000      -0.478701       -13.0261
  43   2.0000      -0.469966       -12.7884
  44   2.0000      -0.464876       -12.6499
  45   2.0000      -0.452176       -12.3043
  46   2.0000      -0.408245       -11.1089
  47   2.0000      -0.290183        -7.8963
  48   0.0000       0.051814         1.4099
  49   0.0000       0.058515         1.5923
  50   0.0000       0.062796         1.7088
  51   0.0000       0.070205         1.9104
  52   0.0000       0.085202         2.3185

MULLIKEN ATOMIC CHARGES
-----------------------
   0 C :   -0.847471
   1 C :   -0.932216
   2 C :   -0.646293
   3 C :   -0.778123
   4 H :    0.445765
   5 H :    0.416459
   6 S :    1.037062
   7 C :    0.936839
   8 N :   -0.537400
   9 N :   -0.385783
  10 H :    0.237722
  11 H :    0.178087
  12 H :    0.286743
  13 H :    0.215200
  14 H :    0.192242
  15 O :   -0.559762
  16 O :   -0.537952
  17 F :   -0.233047
  18 H :    0.342168
  19 H :    0.422310
  20 H :    0.422380
  21 H :    0.325073
Sum of atomic charges:   -0.0000000

LOEWDIN ATOMIC CHARGES
----------------------
   0 C :   -0.239211
   1 C :   -0.146320
   2 C :   -0.235897
   3 C :   -0.230631
   4 H :    0.118106
   5 H :    0.123530
   6 S :    0.582085
   7 C :   -0.544416
   8 N :    0.097229
   9 N :    0.140307
  10 H :    0.048095
  11 H :    0.120758
  12 H :    0.081002
  13 H :    0.114931
  14 H :    0.102677
  15 O :   -0.260059
  16 O :   -0.252092
  17 F :   -0.098724
  18 H :    0.118785
  19 H :    0.130451
  20 H :    0.106452
  21 H :    0.122941

  Mayer bond orders larger than 0.100000
B(  0-C ,  1-C ) :   0.4837 B(  0-C ,  2-C ) :   0.6519 B(  0-C , 20-H ) :   0.8701
B(  0-C , 21-H ) :   1.0278 B(  1-C ,  2-C ) :  -0.1109 B(  1-C ,  7-C ) :   1.1280
B(  1-C ,  8-N ) :   0.2048 B(  1-C ,  9-N ) :   0.1286 B(  1-C , 12-H ) :   1.1194
B(  2-C ,  3-C ) :   0.8675 B(  2-C , 18-H ) :   0.9335 B(  2-C , 19-H ) :   0.8549
B(  3-C ,  4-H ) :   0.8368 B(  3-C ,  5-H ) :   0.8669 B(  3-C ,  6-S ) :   0.8887
B(  6-S , 15-O ) :   1.6741 B(  6-S , 16-O ) :   1.6827 B(  6-S , 17-F ) :   1.0098
B(  7-C ,  8-N ) :   0.6792 B(  7-C ,  9-N ) :   0.7480 B(  7-C , 10-H ) :  -0.1226
B(  7-C , 12-H ) :  -0.1931 B(  8-N , 13-H ) :   1.0033 B(  8-N , 14-H ) :   1.0630
B(  9-N , 10-H ) :   0.8965 B(  9-N , 11-H ) :   1.0695

FINAL SINGLE POINT ENERGY      -953.368233631437

DIPOLE MOMENT
-------------
                                X             Y             Z
Electronic contribution:    -13.17203      -3.82464      -3.64172
Nuclear contribution   :     14.80811       3.53278       3.42836
                        -----------------------------------------
Total Dipole Moment    :      1.63609      -0.29186      -0.21336
                        -----------------------------------------
Magnitude (a.u.)       :      1.67555
Magnitude (Debye)      :      4.25892

Rotational constants in cm-1:     0.059173     0.020923     0.018056
Rotational constants in MHz :  1773.956621   627.264018   541.303397

                             ****ORCA TERMINATED NORMALLY****
TOTAL RUN TIME: 0 days 0 hours 3 minutes 22 seconds 623 msec
