                         Program Version 5.0.0 -  RELEASE  -
|  1> !LC-PBE RIJCOSX def2-TZVPD def2/J TightSCF xyzfile
|  2>
|  3> *xyzfile 0 1 D8.xyz
|  4>
|  5> %MaxCore 64000
|  6>
|  7> %pal nprocs 4
|  8> end
|  9>
| 10> %scf
| 11>   MaxIter 150
| 12> end
| 13>
| 14>
| 15>                          ****END OF INPUT****

CARTESIAN COORDINATES (ANGSTROEM)
---------------------------------
  C      3.380928    2.083045   -3.350127
  N      4.535924    1.182447   -3.428518
  C      2.495557    1.816150   -2.136364
  C      1.872181    0.427903   -2.077497
  H      2.614270   -0.365825   -2.198894
  H      1.389953    0.273087   -1.112360
  S      0.579024    0.140472   -3.297943
  C      4.671956    0.122273   -4.220598
  C      5.866023   -0.507849   -4.224284
  N      3.698881   -0.312844   -4.986988
  H      2.731405   -0.050091   -4.849000
  H      3.890046   -1.055172   -5.643730
  H      5.251933    1.303459   -2.721014
  H      6.695165   -0.062322   -3.851596
  H      5.975383   -1.396884   -4.691414
  O      0.228860   -1.246868   -3.127871
  O     -0.439269    1.118966   -3.014550
  F      1.247881    0.403474   -4.595647
  H      1.697003    2.561969   -2.141109
  H      3.080787    1.987436   -1.225838
  H      2.806463    1.986511   -4.268484
  H      3.778714    3.098282   -3.307383

 Total Charge           Charge          ....    0
 Multiplicity           Mult            ....    1
 Number of Electrons    NEL             ....   96
 Basis Dimension        Dim             ....  524

ORBITAL ENERGIES
----------------

  NO   OCC          E(Eh)            E(eV)
   0   2.0000     -88.547954     -2409.5123
   1   2.0000     -24.624828      -670.0756
   2   2.0000     -19.010538      -517.3030
   3   2.0000     -19.009704      -517.2804
   4   2.0000     -14.230909      -387.2427
   5   2.0000     -14.217558      -386.8794
   6   2.0000     -10.185944      -277.1736
   7   2.0000     -10.178481      -276.9705
   8   2.0000     -10.175783      -276.8971
   9   2.0000     -10.155267      -276.3389
  10   2.0000     -10.028967      -272.9021
  11   2.0000      -8.159842      -222.0406
  12   2.0000      -6.180785      -168.1877
  13   2.0000      -6.173005      -167.9760
  14   2.0000      -6.172275      -167.9561
  15   2.0000      -1.547678       -42.1144
  16   2.0000      -1.306300       -35.5462
  17   2.0000      -1.206798       -32.8386
  18   2.0000      -1.160195       -31.5705
  19   2.0000      -1.073532       -29.2123
  20   2.0000      -1.018751       -27.7216
  21   2.0000      -0.944204       -25.6931
  22   2.0000      -0.890934       -24.2435
  23   2.0000      -0.873337       -23.7647
  24   2.0000      -0.808050       -21.9882
  25   2.0000      -0.773861       -21.0578
  26   2.0000      -0.768344       -20.9077
  27   2.0000      -0.751832       -20.4584
  28   2.0000      -0.716476       -19.4963
  29   2.0000      -0.688589       -18.7375
  30   2.0000      -0.667683       -18.1686
  31   2.0000      -0.645976       -17.5779
  32   2.0000      -0.639122       -17.3914
  33   2.0000      -0.630398       -17.1540
  34   2.0000      -0.615226       -16.7412
  35   2.0000      -0.601569       -16.3695
  36   2.0000      -0.575189       -15.6517
  37   2.0000      -0.553551       -15.0629
  38   2.0000      -0.546690       -14.8762
  39   2.0000      -0.530542       -14.4368
  40   2.0000      -0.523146       -14.2355
  41   2.0000      -0.514897       -14.0111
  42   2.0000      -0.499114       -13.5816
  43   2.0000      -0.494031       -13.4433
  44   2.0000      -0.477645       -12.9974
  45   2.0000      -0.471313       -12.8251
  46   2.0000      -0.397503       -10.8166
  47   2.0000      -0.285412        -7.7665
  48   0.0000       0.047125         1.2823
  49   0.0000       0.050842         1.3835
  50   0.0000       0.060460         1.6452
  51   0.0000       0.063731         1.7342
  52   0.0000       0.084525         2.3000

MULLIKEN ATOMIC CHARGES
-----------------------
   0 C :   -0.915251
   1 N :   -0.250847
   2 C :   -0.604629
   3 C :   -0.790945
   4 H :    0.434483
   5 H :    0.417814
   6 S :    1.047796
   7 C :    0.878354
   8 C :   -1.398693
   9 N :   -0.389498
  10 H :    0.290221
  11 H :    0.169199
  12 H :    0.202548
  13 H :    0.298714
  14 H :    0.311863
  15 O :   -0.552584
  16 O :   -0.537659
  17 F :   -0.239074
  18 H :    0.381264
  19 H :    0.406311
  20 H :    0.486830
  21 H :    0.353783
Sum of atomic charges:   -0.0000000

LOEWDIN ATOMIC CHARGES
----------------------
   0 C :   -0.196007
   1 N :    0.025781
   2 C :   -0.221079
   3 C :   -0.228663
   4 H :    0.120635
   5 H :    0.125446
   6 S :    0.582411
   7 C :   -0.571663
   8 C :   -0.022596
   9 N :    0.136427
  10 H :    0.042752
  11 H :    0.130353
  12 H :    0.155843
  13 H :    0.013150
  14 H :    0.010210
  15 O :   -0.252247
  16 O :   -0.249980
  17 F :   -0.099507
  18 H :    0.123239
  19 H :    0.129711
  20 H :    0.115372
  21 H :    0.130412

  Mayer bond orders larger than 0.100000
B(  0-C ,  1-N ) :   0.7681 B(  0-C ,  2-C ) :   0.6940 B(  0-C ,  7-C ) :  -0.1586
B(  0-C , 20-H ) :   0.8138 B(  0-C , 21-H ) :   0.9709 B(  1-N ,  7-C ) :   0.9527
B(  1-N ,  8-C ) :   0.1935 B(  1-N , 12-H ) :   1.0174 B(  2-C ,  3-C ) :   0.8309
B(  2-C , 18-H ) :   0.9579 B(  2-C , 19-H ) :   0.8444 B(  3-C ,  4-H ) :   0.8222
B(  3-C ,  5-H ) :   0.8691 B(  3-C ,  6-S ) :   0.9055 B(  6-S , 15-O ) :   1.6831
B(  6-S , 16-O ) :   1.6814 B(  6-S , 17-F ) :   1.0052 B(  7-C ,  8-C ) :   0.8701
B(  7-C ,  9-N ) :   0.8353 B(  7-C , 10-H ) :  -0.1154 B(  7-C , 14-H ) :  -0.1434
B(  8-C ,  9-N ) :   0.1178 B(  8-C , 13-H ) :   1.0239 B(  8-C , 14-H ) :   1.0647
B(  9-N , 10-H ) :   0.8426 B(  9-N , 11-H ) :   1.0487

FINAL SINGLE POINT ENERGY      -953.349922090551

DIPOLE MOMENT
-------------
                                X             Y             Z
Electronic contribution:    -14.61072      -2.39814      -2.87779
Nuclear contribution   :     14.93782       3.36795       3.35075
                        -----------------------------------------
Total Dipole Moment    :      0.32710       0.96981       0.47297
                        -----------------------------------------
Magnitude (a.u.)       :      1.12748
Magnitude (Debye)      :      2.86584

Rotational constants in cm-1:     0.059219     0.021387     0.018380
Rotational constants in MHz :  1775.354399   641.172207   551.019443

                             ****ORCA TERMINATED NORMALLY****
TOTAL RUN TIME: 0 days 0 hours 3 minutes 40 seconds 651 msec
