                         Program Version 5.0.0 -  RELEASE  -
|  1> !LC-PBE RIJCOSX def2-TZVPD def2/J TightSCF xyzfile
|  2>
|  3> *xyzfile 0 1 D9.xyz
|  4>
|  5> %MaxCore 64000
|  6>
|  7> %pal nprocs 4
|  8> end
|  9>
| 10> %scf
| 11>   MaxIter 150
| 12> end
| 13>
| 14>
| 15>                          ****END OF INPUT****

CARTESIAN COORDINATES (ANGSTROEM)
---------------------------------
  C      3.380928    2.083045   -3.350127
  N      4.535924    1.182447   -3.428518
  C      2.495557    1.816150   -2.136364
  C      1.872181    0.427903   -2.077497
  H      2.614270   -0.365825   -2.198894
  H      1.389953    0.273087   -1.112360
  S      0.579024    0.140472   -3.297943
  C      4.671956    0.122273   -4.220598
  N      5.866023   -0.507849   -4.224284
  C      3.698881   -0.312844   -4.986988
  H      2.731405   -0.050091   -4.849000
  H      3.890046   -1.055172   -5.643730
  H      5.251933    1.303459   -2.721014
  H      6.695165   -0.062322   -3.851596
  H      5.975383   -1.396884   -4.691414
  O      0.228860   -1.246868   -3.127871
  O     -0.439269    1.118966   -3.014550
  F      1.247881    0.403474   -4.595647
  H      1.697003    2.561969   -2.141109
  H      3.080787    1.987436   -1.225838
  H      2.806463    1.986511   -4.268484
  H      3.778714    3.098282   -3.307383

 Total Charge           Charge          ....    0
 Multiplicity           Mult            ....    1
 Number of Electrons    NEL             ....   96
 Basis Dimension        Dim             ....  524

ORBITAL ENERGIES
----------------

  NO   OCC          E(Eh)            E(eV)
   0   2.0000     -88.530045     -2409.0250
   1   2.0000     -24.593620      -669.2264
   2   2.0000     -18.993511      -516.8397
   3   2.0000     -18.991919      -516.7964
   4   2.0000     -14.232364      -387.2823
   5   2.0000     -14.219934      -386.9441
   6   2.0000     -10.177145      -276.9342
   7   2.0000     -10.172194      -276.7995
   8   2.0000     -10.168710      -276.7047
   9   2.0000     -10.147298      -276.1220
  10   2.0000     -10.028147      -272.8797
  11   2.0000      -8.141619      -221.5447
  12   2.0000      -6.162259      -167.6836
  13   2.0000      -6.155084      -167.4883
  14   2.0000      -6.154216      -167.4647
  15   2.0000      -1.518378       -41.3172
  16   2.0000      -1.287932       -35.0464
  17   2.0000      -1.189648       -32.3720
  18   2.0000      -1.155558       -31.4443
  19   2.0000      -1.067379       -29.0448
  20   2.0000      -1.004397       -27.3310
  21   2.0000      -0.920593       -25.0506
  22   2.0000      -0.900987       -24.5171
  23   2.0000      -0.858490       -23.3607
  24   2.0000      -0.816295       -22.2125
  25   2.0000      -0.746534       -20.3142
  26   2.0000      -0.740801       -20.1582
  27   2.0000      -0.718847       -19.5608
  28   2.0000      -0.707363       -19.2483
  29   2.0000      -0.694420       -18.8961
  30   2.0000      -0.665026       -18.0963
  31   2.0000      -0.647262       -17.6129
  32   2.0000      -0.627586       -17.0775
  33   2.0000      -0.613183       -16.6856
  34   2.0000      -0.604608       -16.4522
  35   2.0000      -0.590406       -16.0658
  36   2.0000      -0.562989       -15.3197
  37   2.0000      -0.549745       -14.9593
  38   2.0000      -0.543035       -14.7767
  39   2.0000      -0.519172       -14.1274
  40   2.0000      -0.514920       -14.0117
  41   2.0000      -0.508525       -13.8377
  42   2.0000      -0.492730       -13.4079
  43   2.0000      -0.478184       -13.0121
  44   2.0000      -0.461462       -12.5570
  45   2.0000      -0.455185       -12.3862
  46   2.0000      -0.392504       -10.6806
  47   2.0000      -0.300269        -8.1707
  48   0.0000       0.049532         1.3478
  49   0.0000       0.062169         1.6917
  50   0.0000       0.063511         1.7282
  51   0.0000       0.067102         1.8260
  52   0.0000       0.085061         2.3146

MULLIKEN ATOMIC CHARGES
-----------------------
   0 C :   -0.930704
   1 N :   -0.268676
   2 C :   -0.625343
   3 C :   -0.773698
   4 H :    0.450236
   5 H :    0.419712
   6 S :    1.050677
   7 C :    1.161116
   8 N :   -0.534908
   9 C :   -1.494649
  10 H :    0.286651
  11 H :    0.271454
  12 H :    0.205733
  13 H :    0.200754
  14 H :    0.200734
  15 O :   -0.565128
  16 O :   -0.549616
  17 F :   -0.124744
  18 H :    0.374164
  19 H :    0.398478
  20 H :    0.507118
  21 H :    0.340638
Sum of atomic charges:    0.0000000

LOEWDIN ATOMIC CHARGES
----------------------
   0 C :   -0.191275
   1 N :    0.019314
   2 C :   -0.220007
   3 C :   -0.229357
   4 H :    0.118541
   5 H :    0.122925
   6 S :    0.579515
   7 C :   -0.556278
   8 N :    0.099285
   9 C :    0.004897
  10 H :   -0.026053
  11 H :    0.036482
  12 H :    0.149001
  13 H :    0.105356
  14 H :    0.113129
  15 O :   -0.257280
  16 O :   -0.258289
  17 F :   -0.109239
  18 H :    0.123055
  19 H :    0.126700
  20 H :    0.119407
  21 H :    0.130171

  Mayer bond orders larger than 0.100000
B(  0-C ,  1-N ) :   0.8224 B(  0-C ,  2-C ) :   0.7102 B(  0-C ,  7-C ) :  -0.1428
B(  0-C ,  9-C ) :   0.1664 B(  0-C , 20-H ) :   0.8008 B(  0-C , 21-H ) :   0.9704
B(  1-N ,  7-C ) :   0.9008 B(  1-N , 12-H ) :   1.0331 B(  2-C ,  3-C ) :   0.8369
B(  2-C , 18-H ) :   0.9481 B(  2-C , 19-H ) :   0.8557 B(  3-C ,  4-H ) :   0.8289
B(  3-C ,  5-H ) :   0.8769 B(  3-C ,  6-S ) :   0.8896 B(  3-C , 15-O ) :   0.1037
B(  6-S , 15-O ) :   1.6596 B(  6-S , 16-O ) :   1.6713 B(  6-S , 17-F ) :   1.0473
B(  7-C ,  8-N ) :   0.7227 B(  7-C ,  9-C ) :   0.7288 B(  7-C , 10-H ) :  -0.1470
B(  7-C , 11-H ) :  -0.1785 B(  8-N ,  9-C ) :   0.1263 B(  8-N , 13-H ) :   1.0382
B(  8-N , 14-H ) :   1.0224 B(  9-C , 10-H ) :   1.1363 B(  9-C , 11-H ) :   1.1694
B(  9-C , 17-F ) :   0.1330 B( 10-H , 17-F ) :  -0.2937

FINAL SINGLE POINT ENERGY      -953.348029053300

DIPOLE MOMENT
-------------
                                X             Y             Z
Electronic contribution:    -12.59030      -2.61759      -2.41474
Nuclear contribution   :     14.72648       3.38697       3.27638
                        -----------------------------------------
Total Dipole Moment    :      2.13619       0.76938       0.86163
                        -----------------------------------------
Magnitude (a.u.)       :      2.42851
Magnitude (Debye)      :      6.17277

Rotational constants in cm-1:     0.059651     0.020833     0.018010
Rotational constants in MHz :  1788.283887   624.555661   539.921162

                             ****ORCA TERMINATED NORMALLY****
TOTAL RUN TIME: 0 days 0 hours 3 minutes 41 seconds 77 msec
