                         Program Version 5.0.0 -  RELEASE  -
|  1> !TPSS D3BJ RIJCOSX def2-SVPD def2/J TightSCF
|  2> *xyz -1 1
|  3> C          1.87218        0.42790       -2.07750
|  4> S          0.57902        0.14047       -3.29794
|  5> O          0.22886       -1.24687       -3.12787
|  6> O         -0.43927        1.11897       -3.01455
|  7> O          1.24788        0.40347       -4.59565
|  8> H          2.66832       -0.27048       -2.23022
|  9> H          1.46951        0.30034       -1.09440
| 10> H          2.24690        1.42458       -2.18288
| 11> *
| 12>
| 13> %MaxCore 64000
| 14>
| 15> %pal nprocs 8
| 16> end
| 17>
| 18> %scf
| 19>   MaxIter 150
| 20> end
| 21>
| 22>
| 23>                          ****END OF INPUT****

CARTESIAN COORDINATES (ANGSTROEM)
---------------------------------
  C      1.872180    0.427900   -2.077500
  S      0.579020    0.140470   -3.297940
  O      0.228860   -1.246870   -3.127870
  O     -0.439270    1.118970   -3.014550
  O      1.247880    0.403470   -4.595650
  H      2.668320   -0.270480   -2.230220
  H      1.469510    0.300340   -1.094400
  H      2.246900    1.424580   -2.182880

 Total Charge           Charge          ....   -1
 Multiplicity           Mult            ....    1
 Number of Electrons    NEL             ....   50
 Basis Dimension        Dim             ....  140

ORBITAL ENERGIES
----------------

  NO   OCC          E(Eh)            E(eV)
   0   2.0000     -88.365668     -2404.5521
   1   2.0000     -18.678720      -508.2738
   2   2.0000     -18.678659      -508.2722
   3   2.0000     -18.665443      -507.9125
   4   2.0000      -9.848499      -267.9913
   5   2.0000      -7.725563      -210.2232
   6   2.0000      -5.711571      -155.4198
   7   2.0000      -5.711374      -155.4144
   8   2.0000      -5.710744      -155.3973
   9   2.0000      -0.853838       -23.2341
  10   2.0000      -0.723730       -19.6937
  11   2.0000      -0.697761       -18.9871
  12   2.0000      -0.518622       -14.1124
  13   2.0000      -0.332506        -9.0479
  14   2.0000      -0.253117        -6.8877
  15   2.0000      -0.243843        -6.6353
  16   2.0000      -0.242831        -6.6078
  17   2.0000      -0.202017        -5.4972
  18   2.0000      -0.199727        -5.4348
  19   2.0000      -0.105645        -2.8748
  20   2.0000      -0.105158        -2.8615
  21   2.0000      -0.073169        -1.9910
  22   2.0000      -0.068733        -1.8703
  23   2.0000      -0.057044        -1.5522
  24   2.0000      -0.021045        -0.5727
  25   0.0000       0.143486         3.9045
  26   0.0000       0.176442         4.8012
  27   0.0000       0.176925         4.8144
  28   0.0000       0.179048         4.8722
  29   0.0000       0.205249         5.5851

MULLIKEN ATOMIC CHARGES
-----------------------
   0 C :    0.422064
   1 S :    1.018553
   2 O :   -0.741512
   3 O :   -0.738241
   4 O :   -0.783351
   5 H :   -0.055338
   6 H :   -0.062356
   7 H :   -0.059819
Sum of atomic charges:   -1.0000000

LOEWDIN ATOMIC CHARGES
----------------------
   0 C :    0.057813
   1 S :    0.814739
   2 O :   -0.571502
   3 O :   -0.570435
   4 O :   -0.593027
   5 H :   -0.044929
   6 H :   -0.047281
   7 H :   -0.045377

  Mayer bond orders larger than 0.100000
B(  0-C ,  1-S ) :   0.9199 B(  0-C ,  5-H ) :   0.9362 B(  0-C ,  6-H ) :   0.9348
B(  0-C ,  7-H ) :   0.9383 B(  1-S ,  2-O ) :   1.3662 B(  1-S ,  3-O ) :   1.3662
B(  1-S ,  4-O ) :   1.3335 B(  1-S ,  5-H ) :   0.1127 B(  1-S ,  6-H ) :   0.1055
B(  1-S ,  7-H ) :   0.1136

Dispersion correction           -0.007897842
FINAL SINGLE POINT ENERGY      -663.551060792180

DIPOLE MOMENT
-------------
                                X             Y             Z
Electronic contribution:     -3.24506      -0.73088      -2.88975
Nuclear contribution   :      4.08143       0.90272       3.93680
                        -----------------------------------------
Total Dipole Moment    :      0.83637       0.17184       1.04705
                        -----------------------------------------
Magnitude (a.u.)       :      1.35106
Magnitude (Debye)      :      3.43412

Rotational constants in cm-1:     0.171796     0.158241     0.155560
Rotational constants in MHz :  5150.307583  4743.954688  4663.569252

                             ****ORCA TERMINATED NORMALLY****
TOTAL RUN TIME: 0 days 0 hours 0 minutes 4 seconds 249 msec
