                         Program Version 5.0.0 -  RELEASE  -
|  1> !TPSS D3BJ RIJCOSX def2-SVPD def2/J TightSCF
|  2> *xyz 1 1
|  3> C          3.38093        2.08304       -3.35013
|  4> N          4.53592        1.18245       -3.42852
|  5> C          4.67196        0.12227       -4.22060
|  6> N          5.86602       -0.50785       -4.22428
|  7> N          3.69888       -0.31284       -4.98699
|  8> H          2.73141       -0.05009       -4.84900
|  9> H          3.89005       -1.05517       -5.64373
| 10> H          5.25193        1.30346       -2.72101
| 11> H          6.69516       -0.06232       -3.85160
| 12> H          5.97538       -1.39688       -4.69141
| 13> H          2.69962        1.85926       -4.14426
| 14> H          3.71221        3.09654       -3.43937
| 15> H          2.88835        1.95032       -2.40957
| 16> *
| 17>
| 18> %MaxCore 64000
| 19>
| 20> %pal nprocs 8
| 21> end
| 22>
| 23> %scf
| 24>   MaxIter 150
| 25> end
| 26>
| 27>
| 28>                          ****END OF INPUT****

CARTESIAN COORDINATES (ANGSTROEM)
---------------------------------
  C      3.380930    2.083040   -3.350130
  N      4.535920    1.182450   -3.428520
  C      4.671960    0.122270   -4.220600
  N      5.866020   -0.507850   -4.224280
  N      3.698880   -0.312840   -4.986990
  H      2.731410   -0.050090   -4.849000
  H      3.890050   -1.055170   -5.643730
  H      5.251930    1.303460   -2.721010
  H      6.695160   -0.062320   -3.851600
  H      5.975380   -1.396880   -4.691410
  H      2.699620    1.859260   -4.144260
  H      3.712210    3.096540   -3.439370
  H      2.888350    1.950320   -2.409570

 Total Charge           Charge          ....    1
 Multiplicity           Mult            ....    1
 Number of Electrons    NEL             ....   40
 Basis Dimension        Dim             ....  164

ORBITAL ENERGIES
----------------

  NO   OCC          E(Eh)            E(eV)
   0   2.0000     -14.347156      -390.4060
   1   2.0000     -14.344718      -390.3396
   2   2.0000     -14.339636      -390.2013
   3   2.0000     -10.328914      -281.0640
   4   2.0000     -10.209246      -277.8077
   5   2.0000      -1.140917       -31.0459
   6   2.0000      -1.037993       -28.2452
   7   2.0000      -1.023435       -27.8491
   8   2.0000      -0.849180       -23.1074
   9   2.0000      -0.780583       -21.2408
  10   2.0000      -0.742569       -20.2063
  11   2.0000      -0.707465       -19.2511
  12   2.0000      -0.657116       -17.8810
  13   2.0000      -0.653714       -17.7885
  14   2.0000      -0.607529       -16.5317
  15   2.0000      -0.594654       -16.1814
  16   2.0000      -0.552232       -15.0270
  17   2.0000      -0.546033       -14.8583
  18   2.0000      -0.442918       -12.0524
  19   2.0000      -0.419192       -11.4068
  20   0.0000      -0.197664        -5.3787
  21   0.0000      -0.168572        -4.5871
  22   0.0000      -0.135463        -3.6861
  23   0.0000      -0.127192        -3.4611
  24   0.0000      -0.110394        -3.0040

MULLIKEN ATOMIC CHARGES
-----------------------
   0 C :    1.129853
   1 N :   -0.630095
   2 C :    1.467206
   3 N :   -0.136747
   4 N :   -0.070555
   5 H :   -0.047123
   6 H :   -0.051555
   7 H :   -0.235841
   8 H :   -0.056134
   9 H :   -0.015581
  10 H :   -0.163949
  11 H :   -0.091747
  12 H :   -0.097732
Sum of atomic charges:    1.0000000

LOEWDIN ATOMIC CHARGES
----------------------
   0 C :    0.282334
   1 N :    0.017443
   2 C :   -0.037787
   3 N :    0.261146
   4 N :    0.277877
   5 H :    0.031570
   6 H :    0.042182
   7 H :    0.057626
   8 H :    0.035896
   9 H :    0.032843
  10 H :   -0.016332
  11 H :    0.008214
  12 H :    0.006988

  Mayer bond orders larger than 0.100000
B(  0-C ,  1-N ) :   0.9153 B(  0-C ,  7-H ) :  -0.1634 B(  0-C , 10-H ) :   0.8610
B(  0-C , 11-H ) :   0.7970 B(  0-C , 12-H ) :   0.8158 B(  1-N ,  2-C ) :   0.9625
B(  1-N ,  3-N ) :   0.2725 B(  1-N ,  4-N ) :   0.2675 B(  1-N ,  7-H ) :   1.3445
B(  1-N , 10-H ) :   0.1771 B(  1-N , 11-H ) :   0.1854 B(  1-N , 12-H ) :   0.1645
B(  2-C ,  3-N ) :   0.7561 B(  2-C ,  4-N ) :   0.9395 B(  2-C ,  5-H ) :  -0.1554
B(  2-C ,  6-H ) :  -0.1404 B(  2-C ,  7-H ) :  -0.2307 B(  2-C ,  8-H ) :  -0.1712
B(  2-C ,  9-H ) :  -0.1048 B(  3-N ,  4-N ) :   0.2078 B(  3-N ,  8-H ) :   1.2056
B(  3-N ,  9-H ) :   1.1710 B(  4-N ,  5-H ) :   1.1702 B(  4-N ,  6-H ) :   1.1951
B(  5-H ,  6-H ) :  -0.1769 B(  8-H ,  9-H ) :  -0.1617

Dispersion correction           -0.011037847
FINAL SINGLE POINT ENERGY      -244.966378858792

DIPOLE MOMENT
-------------
                                X             Y             Z
Electronic contribution:      1.69087      -1.96977      -0.72217
Nuclear contribution   :     -1.49827       1.51766       0.59175
                        -----------------------------------------
Total Dipole Moment    :      0.19260      -0.45211      -0.13042
                        -----------------------------------------
Magnitude (a.u.)       :      0.50843
Magnitude (Debye)      :      1.29233

Rotational constants in cm-1:     0.316446     0.130424     0.094259
Rotational constants in MHz :  9486.821695  3910.013387  2825.801764

                             ****ORCA TERMINATED NORMALLY****
TOTAL RUN TIME: 0 days 0 hours 0 minutes 5 seconds 790 msec
