                         Program Version 5.0.0 -  RELEASE  -
|  1> !TPSS D3BJ RIJCOSX def2-SVPD def2/J TightSCF
|  2> *xyz 0 1
|  3> C          1.87218        0.42790       -2.07750
|  4> S          0.57902        0.14047       -3.29794
|  5> F          0.22886       -1.24687       -3.12787
|  6> O         -0.43927        1.11897       -3.01455
|  7> O          1.24788        0.40347       -4.59565
|  8> H          2.66832       -0.27048       -2.23022
|  9> H          1.46951        0.30034       -1.09440
| 10> H          2.24690        1.42458       -2.18288
| 11> *
| 12>
| 13> %MaxCore 64000
| 14>
| 15> %pal nprocs 8
| 16> end
| 17>
| 18> %scf
| 19>   MaxIter 150
| 20> end
| 21>
| 22>
| 23>                          ****END OF INPUT****

CARTESIAN COORDINATES (ANGSTROEM)
---------------------------------
  C      1.872180    0.427900   -2.077500
  S      0.579020    0.140470   -3.297940
  F      0.228860   -1.246870   -3.127870
  O     -0.439270    1.118970   -3.014550
  O      1.247880    0.403470   -4.595650
  H      2.668320   -0.270480   -2.230220
  H      1.469510    0.300340   -1.094400
  H      2.246900    1.424580   -2.182880

 Total Charge           Charge          ....    0
 Multiplicity           Mult            ....    1
 Number of Electrons    NEL             ....   50
 Basis Dimension        Dim             ....  140

ORBITAL ENERGIES
----------------

  NO   OCC          E(Eh)            E(eV)
   0   2.0000     -88.628649     -2411.7082
   1   2.0000     -24.546693      -667.9495
   2   2.0000     -18.917224      -514.7638
   3   2.0000     -18.903606      -514.3933
   4   2.0000     -10.058759      -273.7127
   5   2.0000      -7.989510      -217.4056
   6   2.0000      -5.979851      -162.7200
   7   2.0000      -5.973133      -162.5372
   8   2.0000      -5.971600      -162.4955
   9   2.0000      -1.298903       -35.3449
  10   2.0000      -1.038974       -28.2719
  11   2.0000      -0.937607       -25.5136
  12   2.0000      -0.741362       -20.1735
  13   2.0000      -0.663402       -18.0521
  14   2.0000      -0.552715       -15.0401
  15   2.0000      -0.534296       -14.5389
  16   2.0000      -0.507081       -13.7984
  17   2.0000      -0.436664       -11.8822
  18   2.0000      -0.434718       -11.8293
  19   2.0000      -0.423940       -11.5360
  20   2.0000      -0.397078       -10.8050
  21   2.0000      -0.347563        -9.4577
  22   2.0000      -0.301074        -8.1926
  23   2.0000      -0.287172        -7.8144
  24   2.0000      -0.267290        -7.2733
  25   0.0000      -0.027204        -0.7403
  26   0.0000       0.013252         0.3606
  27   0.0000       0.014819         0.4032
  28   0.0000       0.034632         0.9424
  29   0.0000       0.035742         0.9726

MULLIKEN ATOMIC CHARGES
-----------------------
   0 C :    0.413392
   1 S :    1.196590
   2 F :   -0.357720
   3 O :   -0.603105
   4 O :   -0.643036
   5 H :    0.001966
   6 H :   -0.000931
   7 H :   -0.007155
Sum of atomic charges:    0.0000000

LOEWDIN ATOMIC CHARGES
----------------------
   0 C :    0.128062
   1 S :    1.085767
   2 F :   -0.251300
   3 O :   -0.449962
   4 O :   -0.470626
   5 H :   -0.018195
   6 H :   -0.019489
   7 H :   -0.004258

  Mayer bond orders larger than 0.100000
B(  0-C ,  1-S ) :   0.9776 B(  0-C ,  5-H ) :   0.9238 B(  0-C ,  6-H ) :   0.9223
B(  0-C ,  7-H ) :   0.9269 B(  1-S ,  2-F ) :   0.7215 B(  1-S ,  3-O ) :   1.5604
B(  1-S ,  4-O ) :   1.5285 B(  1-S ,  7-H ) :   0.1092

Dispersion correction           -0.007404362
FINAL SINGLE POINT ENERGY      -688.039144407709

DIPOLE MOMENT
-------------
                                X             Y             Z
Electronic contribution:     -3.81550      -2.99737      -2.56790
Nuclear contribution   :      4.52607       2.31146       3.82544
                        -----------------------------------------
Total Dipole Moment    :      0.71057      -0.68591       1.25755
                        -----------------------------------------
Magnitude (a.u.)       :      1.59900
Magnitude (Debye)      :      4.06435

Rotational constants in cm-1:     0.162724     0.156586     0.147157
Rotational constants in MHz :  4878.333818  4694.318771  4411.658495

                             ****ORCA TERMINATED NORMALLY****
TOTAL RUN TIME: 0 days 0 hours 0 minutes 4 seconds 726 msec
