                         Program Version 5.0.0 -  RELEASE  -
|  1> !TPSS D3BJ RIJCOSX def2-SVPD def2/J TightSCF
|  2> *xyz 0 1
|  3> C          3.38093        2.08304       -3.35013
|  4> C          4.53592        1.18245       -3.42852
|  5> C          4.67196        0.12227       -4.22060
|  6> N          5.86602       -0.50785       -4.22428
|  7> N          3.69888       -0.31284       -4.98699
|  8> H          2.73141       -0.05009       -4.84900
|  9> H          3.89005       -1.05517       -5.64373
| 10> H          5.25193        1.30346       -2.72101
| 11> H          6.69516       -0.06232       -3.85160
| 12> H          5.97538       -1.39688       -4.69141
| 13> H          2.69962        1.85926       -4.14426
| 14> H          3.71221        3.09654       -3.43937
| 15> H          2.88835        1.95032       -2.40957
| 16> *
| 17>
| 18> %MaxCore 64000
| 19>
| 20> %pal nprocs 8
| 21> end
| 22>
| 23> %scf
| 24>   MaxIter 150
| 25> end
| 26>
| 27>
| 28>                          ****END OF INPUT****

CARTESIAN COORDINATES (ANGSTROEM)
---------------------------------
  C      3.380930    2.083040   -3.350130
  C      4.535920    1.182450   -3.428520
  C      4.671960    0.122270   -4.220600
  N      5.866020   -0.507850   -4.224280
  N      3.698880   -0.312840   -4.986990
  H      2.731410   -0.050090   -4.849000
  H      3.890050   -1.055170   -5.643730
  H      5.251930    1.303460   -2.721010
  H      6.695160   -0.062320   -3.851600
  H      5.975380   -1.396880   -4.691410
  H      2.699620    1.859260   -4.144260
  H      3.712210    3.096540   -3.439370
  H      2.888350    1.950320   -2.409570

 Total Charge           Charge          ....    0
 Multiplicity           Mult            ....    1
 Number of Electrons    NEL             ....   40
 Basis Dimension        Dim             ....  164

ORBITAL ENERGIES
----------------

  NO   OCC          E(Eh)            E(eV)
   0   2.0000     -14.120004      -384.2249
   1   2.0000     -14.112773      -384.0281
   2   2.0000     -10.033563      -273.0271
   3   2.0000      -9.966771      -271.2096
   4   2.0000      -9.921047      -269.9654
   5   2.0000      -0.884710       -24.0742
   6   2.0000      -0.798748       -21.7351
   7   2.0000      -0.683712       -18.6048
   8   2.0000      -0.598763       -16.2932
   9   2.0000      -0.534653       -14.5486
  10   2.0000      -0.495812       -13.4917
  11   2.0000      -0.458991       -12.4898
  12   2.0000      -0.435960       -11.8631
  13   2.0000      -0.383748       -10.4423
  14   2.0000      -0.361018        -9.8238
  15   2.0000      -0.329878        -8.9764
  16   2.0000      -0.319284        -8.6882
  17   2.0000      -0.300893        -8.1877
  18   2.0000      -0.222488        -6.0542
  19   2.0000      -0.125221        -3.4074
  20   0.0000       0.003329         0.0906
  21   0.0000       0.031439         0.8555
  22   0.0000       0.043952         1.1960
  23   0.0000       0.058257         1.5852
  24   0.0000       0.069667         1.8957

MULLIKEN ATOMIC CHARGES
-----------------------
   0 C :    0.887639
   1 C :   -0.809605
   2 C :    1.094329
   3 N :   -0.041280
   4 N :    0.000904
   5 H :   -0.087643
   6 H :   -0.204106
   7 H :   -0.328058
   8 H :   -0.088379
   9 H :   -0.119582
  10 H :   -0.219662
  11 H :   -0.024541
  12 H :   -0.060016
Sum of atomic charges:    0.0000000

LOEWDIN ATOMIC CHARGES
----------------------
   0 C :    0.109705
   1 C :   -0.062068
   2 C :   -0.228897
   3 N :    0.176964
   4 N :    0.191351
   5 H :   -0.002058
   6 H :   -0.009399
   7 H :   -0.055579
   8 H :    0.000539
   9 H :   -0.020424
  10 H :   -0.046383
  11 H :   -0.027056
  12 H :   -0.026696

  Mayer bond orders larger than 0.100000
B(  0-C ,  1-C ) :   1.1141 B(  0-C ,  7-H ) :   0.1715 B(  0-C , 10-H ) :   0.8087
B(  0-C , 11-H ) :   0.7206 B(  0-C , 12-H ) :   0.7264 B(  1-C ,  2-C ) :   1.4909
B(  1-C ,  3-N ) :   0.4795 B(  1-C ,  4-N ) :   0.3088 B(  1-C ,  7-H ) :   0.9756
B(  1-C , 10-H ) :   0.3734 B(  1-C , 11-H ) :   0.2021 B(  1-C , 12-H ) :   0.1826
B(  2-C ,  3-N ) :   0.7098 B(  2-C ,  4-N ) :   0.9833 B(  2-C ,  6-H ) :  -0.1522
B(  2-C ,  7-H ) :   0.1324 B(  2-C ,  8-H ) :  -0.1363 B(  2-C , 10-H ) :  -0.1190
B(  3-N ,  4-N ) :   0.1419 B(  3-N ,  8-H ) :   1.2138 B(  3-N ,  9-H ) :   1.1555
B(  4-N ,  5-H ) :   1.1617 B(  4-N ,  6-H ) :   1.2903 B(  5-H ,  6-H ) :  -0.1660
B(  8-H ,  9-H ) :  -0.1526 B( 10-H , 11-H ) :   0.1390

Dispersion correction           -0.011556966
FINAL SINGLE POINT ENERGY      -228.494013126989

DIPOLE MOMENT
-------------
                                X             Y             Z
Electronic contribution:      1.57609      -2.46080      -1.22215
Nuclear contribution   :     -1.47697       1.65537       0.71722
                        -----------------------------------------
Total Dipole Moment    :      0.09912      -0.80544      -0.50494
                        -----------------------------------------
Magnitude (a.u.)       :      0.95578
Magnitude (Debye)      :      2.42940

Rotational constants in cm-1:     0.321284     0.131400     0.095192
Rotational constants in MHz :  9631.850868  3939.260061  2853.789421

                             ****ORCA TERMINATED NORMALLY****
TOTAL RUN TIME: 0 days 0 hours 0 minutes 6 seconds 363 msec
