                         Program Version 5.0.0 -  RELEASE  -
|  1> !TPSS D3BJ RIJCOSX def2-SVPD def2/J TightSCF
|  2> *xyz 0 1
|  3> C          1.87218        0.42790       -2.07750
|  4> S          0.57902        0.14047       -3.29794
|  5> O          0.22886       -1.24687       -3.12787
|  6> F         -0.43927        1.11897       -3.01455
|  7> O          1.24788        0.40347       -4.59565
|  8> H          2.66832       -0.27048       -2.23022
|  9> H          1.46951        0.30034       -1.09440
| 10> H          2.24690        1.42458       -2.18288
| 11> *
| 12>
| 13> %MaxCore 64000
| 14>
| 15> %pal nprocs 8
| 16> end
| 17>
| 18> %scf
| 19>   MaxIter 150
| 20> end
| 21>
| 22>
| 23>                          ****END OF INPUT****

CARTESIAN COORDINATES (ANGSTROEM)
---------------------------------
  C      1.872180    0.427900   -2.077500
  S      0.579020    0.140470   -3.297940
  O      0.228860   -1.246870   -3.127870
  F     -0.439270    1.118970   -3.014550
  O      1.247880    0.403470   -4.595650
  H      2.668320   -0.270480   -2.230220
  H      1.469510    0.300340   -1.094400
  H      2.246900    1.424580   -2.182880

 Total Charge           Charge          ....    0
 Multiplicity           Mult            ....    1
 Number of Electrons    NEL             ....   50
 Basis Dimension        Dim             ....  140

ORBITAL ENERGIES
----------------

  NO   OCC          E(Eh)            E(eV)
   0   2.0000     -88.628763     -2411.7112
   1   2.0000     -24.546738      -667.9507
   2   2.0000     -18.917304      -514.7660
   3   2.0000     -18.903760      -514.3975
   4   2.0000     -10.058641      -273.7095
   5   2.0000      -7.989601      -217.4081
   6   2.0000      -5.979949      -162.7227
   7   2.0000      -5.973207      -162.5392
   8   2.0000      -5.971706      -162.4984
   9   2.0000      -1.299139       -35.3514
  10   2.0000      -1.038546       -28.2603
  11   2.0000      -0.938398       -25.5351
  12   2.0000      -0.740630       -20.1536
  13   2.0000      -0.663485       -18.0544
  14   2.0000      -0.552876       -15.0445
  15   2.0000      -0.534075       -14.5329
  16   2.0000      -0.507372       -13.8063
  17   2.0000      -0.436534       -11.8787
  18   2.0000      -0.434233       -11.8161
  19   2.0000      -0.424698       -11.5566
  20   2.0000      -0.397171       -10.8076
  21   2.0000      -0.346955        -9.4411
  22   2.0000      -0.300222        -8.1695
  23   2.0000      -0.287248        -7.8164
  24   2.0000      -0.268394        -7.3034
  25   0.0000      -0.027301        -0.7429
  26   0.0000       0.012678         0.3450
  27   0.0000       0.014135         0.3846
  28   0.0000       0.034790         0.9467
  29   0.0000       0.035715         0.9719

MULLIKEN ATOMIC CHARGES
-----------------------
   0 C :    0.413875
   1 S :    1.198478
   2 O :   -0.606182
   3 F :   -0.355525
   4 O :   -0.644570
   5 H :   -0.003347
   6 H :   -0.001814
   7 H :   -0.000914
Sum of atomic charges:    0.0000000

LOEWDIN ATOMIC CHARGES
----------------------
   0 C :    0.127998
   1 S :    1.086019
   2 O :   -0.451071
   3 F :   -0.250157
   4 O :   -0.470705
   5 H :   -0.003980
   6 H :   -0.019905
   7 H :   -0.018199

  Mayer bond orders larger than 0.100000
B(  0-C ,  1-S ) :   0.9786 B(  0-C ,  5-H ) :   0.9247 B(  0-C ,  6-H ) :   0.9216
B(  0-C ,  7-H ) :   0.9266 B(  1-S ,  2-O ) :   1.5613 B(  1-S ,  3-F ) :   0.7196
B(  1-S ,  4-O ) :   1.5279 B(  1-S ,  5-H ) :   0.1082

Dispersion correction           -0.007405521
FINAL SINGLE POINT ENERGY      -688.039160367255

DIPOLE MOMENT
-------------
                                X             Y             Z
Electronic contribution:     -4.90701       0.86456      -2.38020
Nuclear contribution   :      5.19357      -0.05217       3.71223
                        -----------------------------------------
Total Dipole Moment    :      0.28656       0.81239       1.33203
                        -----------------------------------------
Magnitude (a.u.)       :      1.58632
Magnitude (Debye)      :      4.03209

Rotational constants in cm-1:     0.163837     0.155047     0.147593
Rotational constants in MHz :  4911.724022  4648.196128  4424.713532

                             ****ORCA TERMINATED NORMALLY****
TOTAL RUN TIME: 0 days 0 hours 0 minutes 4 seconds 655 msec
