                         Program Version 5.0.0 -  RELEASE  -
|  1> !TPSS D3BJ RIJCOSX def2-SVPD def2/J TightSCF
|  2> *xyz 0 1
|  3> C          3.38093        2.08304       -3.35013
|  4> N          4.53592        1.18245       -3.42852
|  5> C          4.67196        0.12227       -4.22060
|  6> C          5.86602       -0.50785       -4.22428
|  7> N          3.69888       -0.31284       -4.98699
|  8> H          2.73141       -0.05009       -4.84900
|  9> H          3.89005       -1.05517       -5.64373
| 10> H          5.25193        1.30346       -2.72101
| 11> H          6.69516       -0.06232       -3.85160
| 12> H          5.97538       -1.39688       -4.69141
| 13> H          2.69962        1.85926       -4.14426
| 14> H          3.71221        3.09654       -3.43937
| 15> H          2.88835        1.95032       -2.40957
| 16> *
| 17>
| 18> %MaxCore 64000
| 19>
| 20> %pal nprocs 8
| 21> end
| 22>
| 23> %scf
| 24>   MaxIter 150
| 25> end
| 26>
| 27>
| 28>                          ****END OF INPUT****

CARTESIAN COORDINATES (ANGSTROEM)
---------------------------------
  C      3.380930    2.083040   -3.350130
  N      4.535920    1.182450   -3.428520
  C      4.671960    0.122270   -4.220600
  C      5.866020   -0.507850   -4.224280
  N      3.698880   -0.312840   -4.986990
  H      2.731410   -0.050090   -4.849000
  H      3.890050   -1.055170   -5.643730
  H      5.251930    1.303460   -2.721010
  H      6.695160   -0.062320   -3.851600
  H      5.975380   -1.396880   -4.691410
  H      2.699620    1.859260   -4.144260
  H      3.712210    3.096540   -3.439370
  H      2.888350    1.950320   -2.409570

 Total Charge           Charge          ....    0
 Multiplicity           Mult            ....    1
 Number of Electrons    NEL             ....   40
 Basis Dimension        Dim             ....  164

ORBITAL ENERGIES
----------------

  NO   OCC          E(Eh)            E(eV)
   0   2.0000     -14.120921      -384.2498
   1   2.0000     -14.117353      -384.1527
   2   2.0000     -10.038740      -273.1680
   3   2.0000     -10.035443      -273.0783
   4   2.0000      -9.908924      -269.6355
   5   2.0000      -0.892336       -24.2817
   6   2.0000      -0.815746       -22.1976
   7   2.0000      -0.678013       -18.4497
   8   2.0000      -0.605277       -16.4704
   9   2.0000      -0.551654       -15.0113
  10   2.0000      -0.496285       -13.5046
  11   2.0000      -0.448605       -12.2072
  12   2.0000      -0.435182       -11.8419
  13   2.0000      -0.408582       -11.1181
  14   2.0000      -0.370527       -10.0826
  15   2.0000      -0.350905        -9.5486
  16   2.0000      -0.339200        -9.2301
  17   2.0000      -0.315623        -8.5885
  18   2.0000      -0.214986        -5.8501
  19   2.0000      -0.125656        -3.4193
  20   0.0000       0.001372         0.0373
  21   0.0000       0.033121         0.9013
  22   0.0000       0.036268         0.9869
  23   0.0000       0.051784         1.4091
  24   0.0000       0.077154         2.0995

MULLIKEN ATOMIC CHARGES
-----------------------
   0 C :    1.153774
   1 N :   -0.572405
   2 C :    0.817603
   3 C :    0.289081
   4 N :    0.047029
   5 H :   -0.155645
   6 H :   -0.076887
   7 H :   -0.273447
   8 H :   -0.375854
   9 H :   -0.336433
  10 H :   -0.202257
  11 H :   -0.154735
  12 H :   -0.159824
Sum of atomic charges:   -0.0000000

LOEWDIN ATOMIC CHARGES
----------------------
   0 C :    0.227659
   1 N :   -0.039792
   2 C :   -0.240496
   3 C :    0.141797
   4 N :    0.191499
   5 H :   -0.016862
   6 H :    0.010446
   7 H :    0.032107
   8 H :   -0.110069
   9 H :   -0.113802
  10 H :   -0.035122
  11 H :   -0.023226
  12 H :   -0.024140

  Mayer bond orders larger than 0.100000
B(  0-C ,  1-N ) :   0.9006 B(  0-C ,  7-H ) :  -0.1615 B(  0-C , 10-H ) :   0.8599
B(  0-C , 11-H ) :   0.7943 B(  0-C , 12-H ) :   0.8122 B(  1-N ,  2-C ) :   1.0012
B(  1-N ,  3-C ) :   0.2603 B(  1-N ,  4-N ) :   0.2073 B(  1-N ,  7-H ) :   1.3050
B(  1-N , 10-H ) :   0.1975 B(  1-N , 11-H ) :   0.1946 B(  1-N , 12-H ) :   0.1871
B(  2-C ,  3-C ) :   1.3181 B(  2-C ,  4-N ) :   1.0362 B(  2-C ,  5-H ) :  -0.1021
B(  2-C ,  7-H ) :  -0.2086 B(  2-C ,  9-H ) :   0.1520 B(  3-C ,  4-N ) :   0.2310
B(  3-C ,  8-H ) :   0.9472 B(  3-C ,  9-H ) :   0.8382 B(  4-N ,  5-H ) :   1.1936
B(  4-N ,  6-H ) :   1.1699 B(  5-H ,  6-H ) :  -0.1692

Dispersion correction           -0.011478088
FINAL SINGLE POINT ENERGY      -228.482643998691

DIPOLE MOMENT
-------------
                                X             Y             Z
Electronic contribution:      0.18020      -0.81782      -0.46360
Nuclear contribution   :     -1.20756       1.31300       0.55604
                        -----------------------------------------
Total Dipole Moment    :     -1.02737       0.49519       0.09244
                        -----------------------------------------
Magnitude (a.u.)       :      1.14422
Magnitude (Debye)      :      2.90838

Rotational constants in cm-1:     0.323683     0.135884     0.097747
Rotational constants in MHz :  9703.770798  4073.695357  2930.389562

                             ****ORCA TERMINATED NORMALLY****
TOTAL RUN TIME: 0 days 0 hours 0 minutes 6 seconds 168 msec
