                         Program Version 5.0.0 -  RELEASE  -
|  1> !TPSS D3BJ RIJCOSX def2-SVPD def2/J TightSCF
|  2> *xyz 0 1
|  3> C          1.87218        0.42790       -2.07750
|  4> S          0.57902        0.14047       -3.29794
|  5> O          0.22886       -1.24687       -3.12787
|  6> O         -0.43927        1.11897       -3.01455
|  7> F          1.24788        0.40347       -4.59565
|  8> H          2.66832       -0.27048       -2.23022
|  9> H          1.46951        0.30034       -1.09440
| 10> H          2.24690        1.42458       -2.18288
| 11> *
| 12>
| 13> %MaxCore 64000
| 14>
| 15> %pal nprocs 8
| 16> end
| 17>
| 18> %scf
| 19>   MaxIter 150
| 20> end
| 21>
| 22>
| 23>                          ****END OF INPUT****

CARTESIAN COORDINATES (ANGSTROEM)
---------------------------------
  C      1.872180    0.427900   -2.077500
  S      0.579020    0.140470   -3.297940
  O      0.228860   -1.246870   -3.127870
  O     -0.439270    1.118970   -3.014550
  F      1.247880    0.403470   -4.595650
  H      2.668320   -0.270480   -2.230220
  H      1.469510    0.300340   -1.094400
  H      2.246900    1.424580   -2.182880

 Total Charge           Charge          ....    0
 Multiplicity           Mult            ....    1
 Number of Electrons    NEL             ....   50
 Basis Dimension        Dim             ....  140

ORBITAL ENERGIES
----------------

  NO   OCC          E(Eh)            E(eV)
   0   2.0000     -88.626392     -2411.6467
   1   2.0000     -24.526162      -667.3908
   2   2.0000     -18.916892      -514.7548
   3   2.0000     -18.916849      -514.7536
   4   2.0000     -10.057606      -273.6814
   5   2.0000      -7.987256      -217.3443
   6   2.0000      -5.977270      -162.6498
   7   2.0000      -5.971149      -162.4832
   8   2.0000      -5.969589      -162.4408
   9   2.0000      -1.263819       -34.3903
  10   2.0000      -1.048462       -28.5301
  11   2.0000      -0.959101       -26.0985
  12   2.0000      -0.738525       -20.0963
  13   2.0000      -0.646432       -17.5903
  14   2.0000      -0.538582       -14.6556
  15   2.0000      -0.510223       -13.8839
  16   2.0000      -0.502448       -13.6723
  17   2.0000      -0.435736       -11.8570
  18   2.0000      -0.435290       -11.8448
  19   2.0000      -0.422168       -11.4878
  20   2.0000      -0.402478       -10.9520
  21   2.0000      -0.352999        -9.6056
  22   2.0000      -0.304837        -8.2950
  23   2.0000      -0.300323        -8.1722
  24   2.0000      -0.283387        -7.7114
  25   0.0000      -0.024735        -0.6731
  26   0.0000       0.012184         0.3315
  27   0.0000       0.015239         0.4147
  28   0.0000       0.036067         0.9814
  29   0.0000       0.037401         1.0177

MULLIKEN ATOMIC CHARGES
-----------------------
   0 C :    0.411493
   1 S :    1.210165
   2 O :   -0.618551
   3 O :   -0.616904
   4 F :   -0.377847
   5 H :    0.002754
   6 H :   -0.007871
   7 H :   -0.003240
Sum of atomic charges:    0.0000000

LOEWDIN ATOMIC CHARGES
----------------------
   0 C :    0.128440
   1 S :    1.083977
   2 O :   -0.451545
   3 O :   -0.450639
   4 F :   -0.268132
   5 H :   -0.017848
   6 H :   -0.005506
   7 H :   -0.018747

  Mayer bond orders larger than 0.100000
B(  0-C ,  1-S ) :   0.9773 B(  0-C ,  5-H ) :   0.9256 B(  0-C ,  6-H ) :   0.9222
B(  0-C ,  7-H ) :   0.9270 B(  1-S ,  2-O ) :   1.5582 B(  1-S ,  3-O ) :   1.5572
B(  1-S ,  4-F ) :   0.6717 B(  1-S ,  6-H ) :   0.1029 B(  2-O ,  3-O ) :   0.1053

Dispersion correction           -0.007405479
FINAL SINGLE POINT ENERGY      -688.057042571858

DIPOLE MOMENT
-------------
                                X             Y             Z
Electronic contribution:     -2.13611      -0.29984      -4.98505
Nuclear contribution   :      3.50800       0.66266       5.29185
                        -----------------------------------------
Total Dipole Moment    :      1.37190       0.36282       0.30680
                        -----------------------------------------
Magnitude (a.u.)       :      1.45185
Magnitude (Debye)      :      3.69030

Rotational constants in cm-1:     0.163942     0.153101     0.149133
Rotational constants in MHz :  4914.860621  4589.839477  4470.901507

                             ****ORCA TERMINATED NORMALLY****
TOTAL RUN TIME: 0 days 0 hours 0 minutes 4 seconds 301 msec
