                         Program Version 5.0.0 -  RELEASE  -
|  1> !TPSS D3BJ RIJCOSX def2-SVPD def2/J TightSCF
|  2> *xyz 0 1
|  3> C          3.38093        2.08304       -3.35013
|  4> N          4.53592        1.18245       -3.42852
|  5> C          4.67196        0.12227       -4.22060
|  6> N          5.86602       -0.50785       -4.22428
|  7> C          3.69888       -0.31284       -4.98699
|  8> H          2.73141       -0.05009       -4.84900
|  9> H          3.89005       -1.05517       -5.64373
| 10> H          5.25193        1.30346       -2.72101
| 11> H          6.69516       -0.06232       -3.85160
| 12> H          5.97538       -1.39688       -4.69141
| 13> H          2.69962        1.85926       -4.14426
| 14> H          3.71221        3.09654       -3.43937
| 15> H          2.88835        1.95032       -2.40957
| 16> *
| 17>
| 18> %MaxCore 64000
| 19>
| 20> %pal nprocs 8
| 21> end
| 22>
| 23> %scf
| 24>   MaxIter 150
| 25> end
| 26>
| 27>
| 28>                          ****END OF INPUT****

CARTESIAN COORDINATES (ANGSTROEM)
---------------------------------
  C      3.380930    2.083040   -3.350130
  N      4.535920    1.182450   -3.428520
  C      4.671960    0.122270   -4.220600
  N      5.866020   -0.507850   -4.224280
  C      3.698880   -0.312840   -4.986990
  H      2.731410   -0.050090   -4.849000
  H      3.890050   -1.055170   -5.643730
  H      5.251930    1.303460   -2.721010
  H      6.695160   -0.062320   -3.851600
  H      5.975380   -1.396880   -4.691410
  H      2.699620    1.859260   -4.144260
  H      3.712210    3.096540   -3.439370
  H      2.888350    1.950320   -2.409570

 Total Charge           Charge          ....    0
 Multiplicity           Mult            ....    1
 Number of Electrons    NEL             ....   40
 Basis Dimension        Dim             ....  164

ORBITAL ENERGIES
----------------

  NO   OCC          E(Eh)            E(eV)
   0   2.0000     -14.118017      -384.1708
   1   2.0000     -14.114799      -384.0832
   2   2.0000     -10.036779      -273.1146
   3   2.0000     -10.027507      -272.8623
   4   2.0000      -9.913052      -269.7479
   5   2.0000      -0.886327       -24.1182
   6   2.0000      -0.806911       -21.9572
   7   2.0000      -0.661102       -17.9895
   8   2.0000      -0.636767       -17.3273
   9   2.0000      -0.517539       -14.0829
  10   2.0000      -0.497401       -13.5350
  11   2.0000      -0.470144       -12.7933
  12   2.0000      -0.410352       -11.1662
  13   2.0000      -0.398452       -10.8424
  14   2.0000      -0.377205       -10.2643
  15   2.0000      -0.346045        -9.4163
  16   2.0000      -0.342037        -9.3073
  17   2.0000      -0.314210        -8.5501
  18   2.0000      -0.207931        -5.6581
  19   2.0000      -0.137435        -3.7398
  20   0.0000       0.006362         0.1731
  21   0.0000       0.028652         0.7797
  22   0.0000       0.043339         1.1793
  23   0.0000       0.054422         1.4809
  24   0.0000       0.071080         1.9342

MULLIKEN ATOMIC CHARGES
-----------------------
   0 C :    1.119417
   1 N :   -0.536748
   2 C :    1.009502
   3 N :   -0.024186
   4 C :   -0.016150
   5 H :   -0.196340
   6 H :   -0.349139
   7 H :   -0.352666
   8 H :   -0.184125
   9 H :   -0.028996
  10 H :   -0.138653
  11 H :   -0.136322
  12 H :   -0.165593
Sum of atomic charges:   -0.0000000

LOEWDIN ATOMIC CHARGES
----------------------
   0 C :    0.237473
   1 N :   -0.049916
   2 C :   -0.240576
   3 N :    0.180782
   4 C :    0.150791
   5 H :   -0.105912
   6 H :   -0.100313
   7 H :    0.015197
   8 H :   -0.016387
   9 H :   -0.000358
  10 H :   -0.028907
  11 H :   -0.021490
  12 H :   -0.020385

  Mayer bond orders larger than 0.100000
B(  0-C ,  1-N ) :   0.9011 B(  0-C ,  7-H ) :  -0.1490 B(  0-C , 10-H ) :   0.8781
B(  0-C , 11-H ) :   0.7791 B(  0-C , 12-H ) :   0.7965 B(  1-N ,  2-C ) :   0.9100
B(  1-N ,  3-N ) :   0.1906 B(  1-N ,  4-C ) :   0.3439 B(  1-N ,  7-H ) :   1.3725
B(  1-N , 10-H ) :   0.1555 B(  1-N , 11-H ) :   0.1987 B(  1-N , 12-H ) :   0.2008
B(  2-C ,  3-N ) :   0.8689 B(  2-C ,  4-C ) :   1.3917 B(  2-C ,  6-H ) :   0.1265
B(  2-C ,  7-H ) :  -0.2292 B(  2-C ,  8-H ) :  -0.1241 B(  3-N ,  4-C ) :   0.2807
B(  3-N ,  8-H ) :   1.2453 B(  3-N ,  9-H ) :   1.1485 B(  4-C ,  5-H ) :   0.8089
B(  4-C ,  6-H ) :   0.9855 B(  8-H ,  9-H ) :  -0.1562

Dispersion correction           -0.011529525
FINAL SINGLE POINT ENERGY      -228.486882467807

DIPOLE MOMENT
-------------
                                X             Y             Z
Electronic contribution:      2.30121      -1.01823       0.22801
Nuclear contribution   :     -1.64651       1.35250       0.40156
                        -----------------------------------------
Total Dipole Moment    :      0.65471       0.33427       0.62957
                        -----------------------------------------
Magnitude (a.u.)       :      0.96785
Magnitude (Debye)      :      2.46008

Rotational constants in cm-1:     0.339624     0.131069     0.096565
Rotational constants in MHz : 10181.679558  3929.342810  2894.941560

                             ****ORCA TERMINATED NORMALLY****
TOTAL RUN TIME: 0 days 0 hours 0 minutes 5 seconds 992 msec
