                         Program Version 5.0.0 -  RELEASE  -
|  1> !TPSS D3BJ RIJCOSX def2-SVPD def2/J TightSCF xyzfile
|  2>
|  3> *xyzfile 0 1 D2.xyz
|  4>
|  5> %MaxCore 64000
|  6>
|  7> %pal nprocs 4
|  8> end
|  9>
| 10> %scf
| 11>   MaxIter 150
| 12> end
| 13>
| 14>
| 15>                          ****END OF INPUT****

CARTESIAN COORDINATES (ANGSTROEM)
---------------------------------
  C      3.380928    2.083045   -3.350127
  N      4.535924    1.182447   -3.428518
  C      2.495557    1.816150   -2.136364
  C      1.872181    0.427903   -2.077497
  H      2.614270   -0.365825   -2.198894
  H      1.389953    0.273087   -1.112360
  S      0.579024    0.140472   -3.297943
  C      4.671956    0.122273   -4.220598
  C      5.866023   -0.507849   -4.224284
  N      3.698881   -0.312844   -4.986988
  H      2.731405   -0.050091   -4.849000
  H      3.890046   -1.055172   -5.643730
  H      5.251933    1.303459   -2.721014
  H      6.695165   -0.062322   -3.851596
  H      5.975383   -1.396884   -4.691414
  F      0.228860   -1.246868   -3.127871
  O     -0.439269    1.118966   -3.014550
  O      1.247881    0.403474   -4.595647
  H      1.697003    2.561969   -2.141109
  H      3.080787    1.987436   -1.225838
  H      2.806463    1.986511   -4.268484
  H      3.778714    3.098282   -3.307383

 Total Charge           Charge          ....    0
 Multiplicity           Mult            ....    1
 Number of Electrons    NEL             ....   96
 Basis Dimension        Dim             ....  324

ORBITAL ENERGIES
----------------

  NO   OCC          E(Eh)            E(eV)
   0   2.0000     -88.644915     -2412.1508
   1   2.0000     -24.560986      -668.3384
   2   2.0000     -18.933602      -515.2095
   3   2.0000     -18.928267      -515.0643
   4   2.0000     -14.118091      -384.1728
   5   2.0000     -14.092327      -383.4717
   6   2.0000     -10.071659      -274.0638
   7   2.0000     -10.044672      -273.3294
   8   2.0000     -10.038816      -273.1701
   9   2.0000     -10.031724      -272.9771
  10   2.0000      -9.903384      -269.4848
  11   2.0000      -8.005388      -217.8377
  12   2.0000      -5.995704      -163.1514
  13   2.0000      -5.989461      -162.9815
  14   2.0000      -5.987072      -162.9165
  15   2.0000      -1.312369       -35.7114
  16   2.0000      -1.059117       -28.8200
  17   2.0000      -0.964171       -26.2364
  18   2.0000      -0.887242       -24.1431
  19   2.0000      -0.811317       -22.0771
  20   2.0000      -0.773179       -21.0393
  21   2.0000      -0.710730       -19.3399
  22   2.0000      -0.668081       -18.1794
  23   2.0000      -0.629512       -17.1299
  24   2.0000      -0.583983       -15.8910
  25   2.0000      -0.551308       -15.0018
  26   2.0000      -0.546713       -14.8768
  27   2.0000      -0.542086       -14.7509
  28   2.0000      -0.532208       -14.4821
  29   2.0000      -0.496306       -13.5052
  30   2.0000      -0.465718       -12.6728
  31   2.0000      -0.447954       -12.1894
  32   2.0000      -0.444802       -12.1037
  33   2.0000      -0.439153       -11.9499
  34   2.0000      -0.420661       -11.4468
  35   2.0000      -0.406129       -11.0513
  36   2.0000      -0.376501       -10.2451
  37   2.0000      -0.369539       -10.0557
  38   2.0000      -0.365927        -9.9574
  39   2.0000      -0.349593        -9.5129
  40   2.0000      -0.343587        -9.3495
  41   2.0000      -0.329864        -8.9761
  42   2.0000      -0.316079        -8.6009
  43   2.0000      -0.307177        -8.3587
  44   2.0000      -0.301334        -8.1997
  45   2.0000      -0.284487        -7.7413
  46   2.0000      -0.209372        -5.6973
  47   2.0000      -0.121128        -3.2961
  48   0.0000      -0.036400        -0.9905
  49   0.0000      -0.009991        -0.2719
  50   0.0000       0.008653         0.2354
  51   0.0000       0.015534         0.4227
  52   0.0000       0.018738         0.5099

MULLIKEN ATOMIC CHARGES
-----------------------
   0 C :    0.900052
   1 N :   -0.389967
   2 C :    0.085619
   3 C :    0.044858
   4 H :    0.179431
   5 H :   -0.101543
   6 S :    1.529304
   7 C :    0.580022
   8 C :    0.289986
   9 N :    0.573097
  10 H :   -0.407729
  11 H :   -0.186339
  12 H :   -0.252148
  13 H :   -0.336449
  14 H :   -0.244027
  15 F :   -0.405362
  16 O :   -0.678550
  17 O :   -0.849118
  18 H :    0.035984
  19 H :   -0.003153
  20 H :   -0.043504
  21 H :   -0.320466
Sum of atomic charges:   -0.0000000

LOEWDIN ATOMIC CHARGES
----------------------
   0 C :    0.084261
   1 N :   -0.003946
   2 C :   -0.001564
   3 C :   -0.036430
   4 H :    0.018898
   5 H :    0.016246
   6 S :    1.153364
   7 C :   -0.241385
   8 C :    0.140121
   9 N :    0.229461
  10 H :   -0.151554
  11 H :    0.014108
  12 H :    0.033570
  13 H :   -0.113866
  14 H :   -0.113574
  15 F :   -0.234864
  16 O :   -0.430211
  17 O :   -0.444240
  18 H :    0.027446
  19 H :    0.033086
  20 H :    0.001526
  21 H :    0.019549

  Mayer bond orders larger than 0.100000
B(  0-C ,  1-N ) :   0.9259 B(  0-C ,  2-C ) :   1.0933 B(  0-C , 12-H ) :  -0.1978
B(  0-C , 18-H ) :   0.1512 B(  0-C , 19-H ) :   0.1366 B(  0-C , 20-H ) :   0.7579
B(  0-C , 21-H ) :   0.8584 B(  1-N ,  7-C ) :   0.9774 B(  1-N ,  8-C ) :   0.2190
B(  1-N ,  9-N ) :   0.1500 B(  1-N , 12-H ) :   1.2704 B(  1-N , 20-H ) :   0.2282
B(  1-N , 21-H ) :   0.1630 B(  2-C ,  3-C ) :   1.2945 B(  2-C ,  4-H ) :   0.1424
B(  2-C ,  5-H ) :   0.1741 B(  2-C , 18-H ) :   0.8381 B(  2-C , 19-H ) :   0.8057
B(  2-C , 20-H ) :   0.1394 B(  3-C ,  4-H ) :   0.8792 B(  3-C ,  5-H ) :   0.8098
B(  3-C ,  6-S ) :   0.9253 B(  3-C , 17-O ) :   0.1655 B(  3-C , 18-H ) :   0.1280
B(  3-C , 19-H ) :   0.1077 B(  6-S , 15-F ) :   0.6506 B(  6-S , 16-O ) :   1.5255
B(  6-S , 17-O ) :   1.3843 B(  7-C ,  8-C ) :   1.3698 B(  7-C ,  9-N ) :   1.0834
B(  7-C , 10-H ) :  -0.1033 B(  7-C , 11-H ) :  -0.1176 B(  7-C , 12-H ) :  -0.2096
B(  7-C , 13-H ) :   0.1183 B(  7-C , 14-H ) :   0.1899 B(  8-C ,  9-N ) :   0.1608
B(  8-C , 13-H ) :   0.8040 B(  8-C , 14-H ) :   0.8174 B(  9-N , 10-H ) :   0.9239
B(  9-N , 11-H ) :   1.1892 B(  9-N , 20-H ) :   0.1240 B( 10-H , 11-H ) :  -0.2243
B( 10-H , 17-O ) :   0.1038 B( 13-H , 14-H ) :   0.1679 B( 20-H , 21-H ) :  -0.1344

Dispersion correction           -0.031520597
FINAL SINGLE POINT ENERGY      -954.632035090483

DIPOLE MOMENT
-------------
                                X             Y             Z
Electronic contribution:    -16.72360      -5.21677      -0.41119
Nuclear contribution   :     16.05479       5.17692       1.74190
                        -----------------------------------------
Total Dipole Moment    :     -0.66882      -0.03985       1.33070
                        -----------------------------------------
Magnitude (a.u.)       :      1.48986
Magnitude (Debye)      :      3.78691

Rotational constants in cm-1:     0.058652     0.021107     0.018077
Rotational constants in MHz :  1758.344290   632.763813   541.920558

                             ****ORCA TERMINATED NORMALLY****
TOTAL RUN TIME: 0 days 0 hours 0 minutes 35 seconds 786 msec
