                         Program Version 5.0.0 -  RELEASE  -
|  1> !TPSS D3BJ RIJCOSX def2-SVPD def2/J TightSCF xyzfile
|  2>
|  3> *xyzfile 0 1 D5.xyz
|  4>
|  5> %MaxCore 64000
|  6>
|  7> %pal nprocs 4
|  8> end
|  9>
| 10> %scf
| 11>   MaxIter 150
| 12> end
| 13>
| 14>
| 15>                          ****END OF INPUT****

CARTESIAN COORDINATES (ANGSTROEM)
---------------------------------
  C      3.380928    2.083045   -3.350127
  N      4.535924    1.182447   -3.428518
  C      2.495557    1.816150   -2.136364
  C      1.872181    0.427903   -2.077497
  H      2.614270   -0.365825   -2.198894
  H      1.389953    0.273087   -1.112360
  S      0.579024    0.140472   -3.297943
  C      4.671956    0.122273   -4.220598
  C      5.866023   -0.507849   -4.224284
  N      3.698881   -0.312844   -4.986988
  H      2.731405   -0.050091   -4.849000
  H      3.890046   -1.055172   -5.643730
  H      5.251933    1.303459   -2.721014
  H      6.695165   -0.062322   -3.851596
  H      5.975383   -1.396884   -4.691414
  O      0.228860   -1.246868   -3.127871
  F     -0.439269    1.118966   -3.014550
  O      1.247881    0.403474   -4.595647
  H      1.697003    2.561969   -2.141109
  H      3.080787    1.987436   -1.225838
  H      2.806463    1.986511   -4.268484
  H      3.778714    3.098282   -3.307383

 Total Charge           Charge          ....    0
 Multiplicity           Mult            ....    1
 Number of Electrons    NEL             ....   96
 Basis Dimension        Dim             ....  324

ORBITAL ENERGIES
----------------

  NO   OCC          E(Eh)            E(eV)
   0   2.0000     -88.644459     -2412.1384
   1   2.0000     -24.561658      -668.3567
   2   2.0000     -18.932650      -515.1836
   3   2.0000     -18.928013      -515.0574
   4   2.0000     -14.119098      -384.2002
   5   2.0000     -14.091644      -383.4531
   6   2.0000     -10.071354      -274.0555
   7   2.0000     -10.046562      -273.3808
   8   2.0000     -10.040586      -273.2182
   9   2.0000     -10.031186      -272.9625
  10   2.0000      -9.902748      -269.4675
  11   2.0000      -8.004881      -217.8239
  12   2.0000      -5.995238      -163.1387
  13   2.0000      -5.988970      -162.9682
  14   2.0000      -5.986515      -162.9014
  15   2.0000      -1.313285       -35.7363
  16   2.0000      -1.057757       -28.7830
  17   2.0000      -0.963720       -26.2242
  18   2.0000      -0.887329       -24.1455
  19   2.0000      -0.811459       -22.0809
  20   2.0000      -0.774953       -21.0876
  21   2.0000      -0.708347       -19.2751
  22   2.0000      -0.669789       -18.2259
  23   2.0000      -0.630640       -17.1606
  24   2.0000      -0.583347       -15.8737
  25   2.0000      -0.555142       -15.1062
  26   2.0000      -0.553340       -15.0572
  27   2.0000      -0.545228       -14.8364
  28   2.0000      -0.523131       -14.2351
  29   2.0000      -0.492471       -13.4008
  30   2.0000      -0.465326       -12.6622
  31   2.0000      -0.452775       -12.3206
  32   2.0000      -0.444877       -12.1057
  33   2.0000      -0.437655       -11.9092
  34   2.0000      -0.417451       -11.3594
  35   2.0000      -0.411279       -11.1915
  36   2.0000      -0.377889       -10.2829
  37   2.0000      -0.374718       -10.1966
  38   2.0000      -0.365589        -9.9482
  39   2.0000      -0.353926        -9.6308
  40   2.0000      -0.340924        -9.2770
  41   2.0000      -0.327598        -8.9144
  42   2.0000      -0.312744        -8.5102
  43   2.0000      -0.303445        -8.2572
  44   2.0000      -0.299547        -8.1511
  45   2.0000      -0.289979        -7.8907
  46   2.0000      -0.209060        -5.6888
  47   2.0000      -0.120495        -3.2788
  48   0.0000      -0.038572        -1.0496
  49   0.0000      -0.007123        -0.1938
  50   0.0000       0.005015         0.1365
  51   0.0000       0.014736         0.4010
  52   0.0000       0.015010         0.4084

MULLIKEN ATOMIC CHARGES
-----------------------
   0 C :    0.910320
   1 N :   -0.395518
   2 C :    0.123775
   3 C :    0.058974
   4 H :    0.172243
   5 H :   -0.103271
   6 S :    1.540616
   7 C :    0.583330
   8 C :    0.288947
   9 N :    0.565844
  10 H :   -0.403035
  11 H :   -0.179775
  12 H :   -0.247461
  13 H :   -0.339501
  14 H :   -0.241671
  15 O :   -0.639642
  16 F :   -0.449457
  17 O :   -0.869774
  18 H :    0.014702
  19 H :   -0.022051
  20 H :   -0.043577
  21 H :   -0.324019
Sum of atomic charges:   -0.0000000

LOEWDIN ATOMIC CHARGES
----------------------
   0 C :    0.079872
   1 N :   -0.002989
   2 C :   -0.017692
   3 C :   -0.026937
   4 H :    0.033111
   5 H :    0.016582
   6 S :    1.150096
   7 C :   -0.239363
   8 C :    0.141763
   9 N :    0.233069
  10 H :   -0.143355
  11 H :    0.016860
  12 H :    0.033679
  13 H :   -0.113631
  14 H :   -0.111959
  15 O :   -0.427953
  16 F :   -0.236174
  17 O :   -0.449819
  18 H :    0.019767
  19 H :    0.029362
  20 H :   -0.002422
  21 H :    0.018131

  Mayer bond orders larger than 0.100000
B(  0-C ,  1-N ) :   0.9245 B(  0-C ,  2-C ) :   1.0996 B(  0-C , 12-H ) :  -0.1954
B(  0-C , 18-H ) :   0.1521 B(  0-C , 19-H ) :   0.1338 B(  0-C , 20-H ) :   0.7521
B(  0-C , 21-H ) :   0.8573 B(  1-N ,  7-C ) :   0.9734 B(  1-N ,  8-C ) :   0.2208
B(  1-N ,  9-N ) :   0.1503 B(  1-N , 12-H ) :   1.2666 B(  1-N , 20-H ) :   0.2280
B(  1-N , 21-H ) :   0.1671 B(  2-C ,  3-C ) :   1.2424 B(  2-C ,  4-H ) :   0.1294
B(  2-C ,  5-H ) :   0.1569 B(  2-C , 18-H ) :   0.8304 B(  2-C , 19-H ) :   0.8125
B(  2-C , 20-H ) :   0.1404 B(  3-C ,  4-H ) :   0.9067 B(  3-C ,  5-H ) :   0.8256
B(  3-C ,  6-S ) :   0.9568 B(  3-C , 17-O ) :   0.1459 B(  3-C , 18-H ) :   0.1207
B(  3-C , 19-H ) :   0.1029 B(  6-S , 15-O ) :   1.5419 B(  6-S , 16-F ) :   0.6175
B(  6-S , 17-O ) :   1.3773 B(  7-C ,  8-C ) :   1.3656 B(  7-C ,  9-N ) :   1.0883
B(  7-C , 10-H ) :  -0.1005 B(  7-C , 11-H ) :  -0.1186 B(  7-C , 12-H ) :  -0.2074
B(  7-C , 13-H ) :   0.1128 B(  7-C , 14-H ) :   0.1919 B(  8-C ,  9-N ) :   0.1643
B(  8-C , 13-H ) :   0.8084 B(  8-C , 14-H ) :   0.8126 B(  9-N , 10-H ) :   0.9194
B(  9-N , 11-H ) :   1.1863 B(  9-N , 20-H ) :   0.1225 B( 10-H , 11-H ) :  -0.2247
B( 10-H , 17-O ) :   0.1204 B( 13-H , 14-H ) :   0.1645 B( 20-H , 21-H ) :  -0.1317

Dispersion correction           -0.031483100
FINAL SINGLE POINT ENERGY      -954.630978400729

DIPOLE MOMENT
-------------
                                X             Y             Z
Electronic contribution:    -17.81279      -1.24679      -0.23421
Nuclear contribution   :     16.78714       2.58368       1.61768
                        -----------------------------------------
Total Dipole Moment    :     -1.02565       1.33689       1.38348
                        -----------------------------------------
Magnitude (a.u.)       :      2.18020
Magnitude (Debye)      :      5.54162

Rotational constants in cm-1:     0.059928     0.020911     0.017993
Rotational constants in MHz :  1796.610847   626.896941   539.414615

                             ****ORCA TERMINATED NORMALLY****
TOTAL RUN TIME: 0 days 0 hours 0 minutes 39 seconds 217 msec
