                         Program Version 5.0.0 -  RELEASE  -
|  1> !PBE D3BJ RIJCOSX def2-SVPD def2/J TightSCF
|  2> *xyz -1 1
|  3> C          0.70466        1.44313       -4.50363
|  4> C          1.72854        1.42432       -5.63944
|  5> H          2.64672        1.95379       -5.38105
|  6> H          1.29992        1.93061       -6.50361
|  7> S          2.25263       -0.18811       -6.27184
|  8> O          3.56261       -0.44446       -5.63155
|  9> O          2.34494       -0.03374       -7.69650
| 10> O          1.26606       -1.15918       -5.80536
| 11> H         -0.17385        0.91270       -4.80656
| 12> H          0.44778        2.45562       -4.27173
| 13> H          1.12367        0.97423       -3.63791
| 14> *
| 15>
| 16> %MaxCore 64000
| 17>
| 18> %pal nprocs 4
| 19> end
| 20>
| 21> %scf
| 22>   MaxIter 150
| 23> end
| 24>
| 25>
| 26>                          ****END OF INPUT****

CARTESIAN COORDINATES (ANGSTROEM)
---------------------------------
  C      0.704660    1.443130   -4.503630
  C      1.728540    1.424320   -5.639440
  H      2.646720    1.953790   -5.381050
  H      1.299920    1.930610   -6.503610
  S      2.252630   -0.188110   -6.271840
  O      3.562610   -0.444460   -5.631550
  O      2.344940   -0.033740   -7.696500
  O      1.266060   -1.159180   -5.805360
  H     -0.173850    0.912700   -4.806560
  H      0.447780    2.455620   -4.271730
  H      1.123670    0.974230   -3.637910

 Total Charge           Charge          ....   -1
 Multiplicity           Mult            ....    1
 Number of Electrons    NEL             ....   58
 Basis Dimension        Dim             ....  176

ORBITAL ENERGIES
----------------

  NO   OCC          E(Eh)            E(eV)
   0   2.0000     -88.053498     -2396.0575
   1   2.0000     -18.547872      -504.7133
   2   2.0000     -18.541431      -504.5380
   3   2.0000     -18.533048      -504.3099
   4   2.0000      -9.757040      -265.5026
   5   2.0000      -9.755177      -265.4519
   6   2.0000      -7.657804      -208.3794
   7   2.0000      -5.684799      -154.6912
   8   2.0000      -5.684678      -154.6879
   9   2.0000      -5.684094      -154.6721
  10   2.0000      -0.839629       -22.8475
  11   2.0000      -0.704964       -19.1830
  12   2.0000      -0.682213       -18.5640
  13   2.0000      -0.556346       -15.1390
  14   2.0000      -0.441120       -12.0035
  15   2.0000      -0.323226        -8.7954
  16   2.0000      -0.270200        -7.3525
  17   2.0000      -0.262735        -7.1494
  18   2.0000      -0.229986        -6.2582
  19   2.0000      -0.211385        -5.7521
  20   2.0000      -0.209071        -5.6891
  21   2.0000      -0.184709        -5.0262
  22   2.0000      -0.175091        -4.7645
  23   2.0000      -0.103574        -2.8184
  24   2.0000      -0.101794        -2.7699
  25   2.0000      -0.071355        -1.9417
  26   2.0000      -0.066273        -1.8034
  27   2.0000      -0.054159        -1.4737
  28   2.0000      -0.018842        -0.5127
  29   0.0000       0.124377         3.3845
  30   0.0000       0.155429         4.2294
  31   0.0000       0.164109         4.4656
  32   0.0000       0.168717         4.5910
  33   0.0000       0.190844         5.1931

MULLIKEN ATOMIC CHARGES
-----------------------
   0 C :    0.769241
   1 C :   -0.389041
   2 H :   -0.039747
   3 H :    0.013247
   4 S :    1.165490
   5 O :   -0.783887
   6 O :   -0.725755
   7 O :   -0.770735
   8 H :   -0.041571
   9 H :   -0.134430
  10 H :   -0.062811
Sum of atomic charges:   -1.0000000

LOEWDIN ATOMIC CHARGES
----------------------
   0 C :    0.096551
   1 C :   -0.130484
   2 H :   -0.001774
   3 H :   -0.009658
   4 S :    0.813830
   5 O :   -0.580219
   6 O :   -0.553575
   7 O :   -0.558647
   8 H :   -0.023466
   9 H :   -0.035889
  10 H :   -0.016669

  Mayer bond orders larger than 0.100000
B(  0-C ,  1-C ) :   1.3459 B(  0-C ,  8-H ) :   0.7957 B(  0-C ,  9-H ) :   0.7562
B(  0-C , 10-H ) :   0.8077 B(  1-C ,  2-H ) :   0.9721 B(  1-C ,  3-H ) :   0.9586
B(  1-C ,  4-S ) :   0.8665 B(  1-C ,  6-O ) :   0.1021 B(  1-C ,  8-H ) :   0.2207
B(  1-C ,  9-H ) :   0.2311 B(  1-C , 10-H ) :   0.2013 B(  4-S ,  5-O ) :   1.3155
B(  4-S ,  6-O ) :   1.3749 B(  4-S ,  7-O ) :   1.3242

Dispersion correction           -0.009551711
FINAL SINGLE POINT ENERGY      -702.284273250788

DIPOLE MOMENT
-------------
                                X             Y             Z
Electronic contribution:      3.66148      -5.65177      -4.31190
Nuclear contribution   :     -4.50297       7.24642       5.01775
                        -----------------------------------------
Total Dipole Moment    :     -0.84149       1.59464       0.70585
                        -----------------------------------------
Magnitude (a.u.)       :      1.93629
Magnitude (Debye)      :      4.92166

Rotational constants in cm-1:     0.162459     0.081286     0.079601
Rotational constants in MHz :  4870.394399  2436.893583  2386.374948

                             ****ORCA TERMINATED NORMALLY****
TOTAL RUN TIME: 0 days 0 hours 0 minutes 10 seconds 281 msec
