                         Program Version 5.0.0 -  RELEASE  -
|  1> !PBE D3BJ RIJCOSX def2-SVPD def2/J TightSCF
|  2> *xyz 1 1
|  3> C          2.91632       -1.24259       -1.54313
|  4> C          3.46659       -1.59097       -2.88908
|  5> N          4.65227       -1.14316       -3.25969
|  6> N          2.75226       -2.29204       -3.72803
|  7> H          1.77836       -2.48960       -3.51274
|  8> H          2.94861       -2.20854       -4.71681
|  9> H          5.14672       -0.51251       -2.63385
| 10> H          4.78303       -1.00720       -4.25350
| 11> C          2.80408        0.29070       -1.35924
| 12> H          1.94047       -1.71653       -1.44116
| 13> H          3.55857       -1.66343       -0.76637
| 14> H          2.17393        0.69633       -2.12297
| 15> H          3.77707        0.73043       -1.42880
| 16> H          2.38369        0.50492       -0.39889
| 17> *
| 18>
| 19> %MaxCore 64000
| 20>
| 21> %pal nprocs 4
| 22> end
| 23>
| 24> %scf
| 25>   MaxIter 150
| 26> end
| 27>
| 28>
| 29>                          ****END OF INPUT****

CARTESIAN COORDINATES (ANGSTROEM)
---------------------------------
  C      2.916320   -1.242590   -1.543130
  C      3.466590   -1.590970   -2.889080
  N      4.652270   -1.143160   -3.259690
  N      2.752260   -2.292040   -3.728030
  H      1.778360   -2.489600   -3.512740
  H      2.948610   -2.208540   -4.716810
  H      5.146720   -0.512510   -2.633850
  H      4.783030   -1.007200   -4.253500
  C      2.804080    0.290700   -1.359240
  H      1.940470   -1.716530   -1.441160
  H      3.558570   -1.663430   -0.766370
  H      2.173930    0.696330   -2.122970
  H      3.777070    0.730430   -1.428800
  H      2.383690    0.504920   -0.398890

 Total Charge           Charge          ....    1
 Multiplicity           Mult            ....    1
 Number of Electrons    NEL             ....   40
 Basis Dimension        Dim             ....  172

ORBITAL ENERGIES
----------------

  NO   OCC          E(Eh)            E(eV)
   0   2.0000     -14.249614      -387.7517
   1   2.0000     -14.244685      -387.6176
   2   2.0000     -10.211755      -277.8760
   3   2.0000     -10.099025      -274.8084
   4   2.0000     -10.059966      -273.7456
   5   2.0000      -1.121978       -30.5306
   6   2.0000      -1.028622       -27.9902
   7   2.0000      -0.895853       -24.3774
   8   2.0000      -0.799645       -21.7595
   9   2.0000      -0.758759       -20.6469
  10   2.0000      -0.719974       -19.5915
  11   2.0000      -0.698434       -19.0054
  12   2.0000      -0.652986       -17.7687
  13   2.0000      -0.617992       -16.8164
  14   2.0000      -0.579679       -15.7739
  15   2.0000      -0.557150       -15.1608
  16   2.0000      -0.513368       -13.9694
  17   2.0000      -0.501304       -13.6412
  18   2.0000      -0.488697       -13.2981
  19   2.0000      -0.462097       -12.5743
  20   0.0000      -0.257620        -7.0102
  21   0.0000      -0.183908        -5.0044
  22   0.0000      -0.142339        -3.8732
  23   0.0000      -0.140753        -3.8301
  24   0.0000      -0.107406        -2.9227

MULLIKEN ATOMIC CHARGES
-----------------------
   0 C :   -0.217611
   1 C :    0.479159
   2 N :    0.141119
   3 N :    0.103826
   4 H :    0.030617
   5 H :   -0.104270
   6 H :    0.030008
   7 H :   -0.077873
   8 C :    0.727194
   9 H :    0.024751
  10 H :    0.039254
  11 H :   -0.069590
  12 H :   -0.096753
  13 H :   -0.009830
Sum of atomic charges:    1.0000000

LOEWDIN ATOMIC CHARGES
----------------------
   0 C :    0.018553
   1 C :   -0.071115
   2 N :    0.300031
   3 N :    0.296632
   4 H :    0.054948
   5 H :    0.047413
   6 H :    0.045302
   7 H :    0.045465
   8 C :    0.177581
   9 H :    0.035844
  10 H :    0.055185
  11 H :    0.001018
  12 H :   -0.016732
  13 H :    0.009875

  Mayer bond orders larger than 0.100000
B(  0-C ,  1-C ) :   1.2447 B(  0-C ,  8-C ) :   1.3108 B(  0-C ,  9-H ) :   0.8712
B(  0-C , 10-H ) :   0.8088 B(  0-C , 11-H ) :   0.1644 B(  0-C , 12-H ) :   0.1909
B(  0-C , 13-H ) :   0.1609 B(  1-C ,  2-N ) :   1.1236 B(  1-C ,  3-N ) :   1.1073
B(  1-C ,  5-H ) :  -0.1234 B(  1-C ,  9-H ) :   0.1588 B(  1-C , 10-H ) :   0.1526
B(  2-N ,  3-N ) :   0.2067 B(  2-N ,  6-H ) :   0.9884 B(  2-N ,  7-H ) :   1.1930
B(  3-N ,  4-H ) :   1.0390 B(  3-N ,  5-H ) :   1.2023 B(  4-H ,  5-H ) :  -0.1361
B(  6-H ,  7-H ) :  -0.1317 B(  8-C ,  9-H ) :   0.1077 B(  8-C , 11-H ) :   0.8129
B(  8-C , 12-H ) :   0.7963 B(  8-C , 13-H ) :   0.8371

Dispersion correction           -0.010225062
FINAL SINGLE POINT ENERGY      -228.585909530727

DIPOLE MOMENT
-------------
                                X             Y             Z
Electronic contribution:      1.32489      -2.86046      -2.78044
Nuclear contribution   :     -1.30215       2.77761       1.84194
                        -----------------------------------------
Total Dipole Moment    :      0.02274      -0.08285      -0.93851
                        -----------------------------------------
Magnitude (a.u.)       :      0.94243
Magnitude (Debye)      :      2.39547

Rotational constants in cm-1:     0.267442     0.127541     0.099068
Rotational constants in MHz :  8017.703171  3823.592522  2969.992494

                             ****ORCA TERMINATED NORMALLY****
TOTAL RUN TIME: 0 days 0 hours 0 minutes 11 seconds 159 msec
