                         Program Version 5.0.0 -  RELEASE  -
|  1> !PBE D3BJ RIJCOSX def2-SVPD def2/J TightSCF
|  2> *xyz 0 1
|  3> C          0.70466        1.44313       -4.50363
|  4> C          1.72854        1.42432       -5.63944
|  5> H          2.64672        1.95379       -5.38105
|  6> H          1.29992        1.93061       -6.50361
|  7> S          2.25263       -0.18811       -6.27184
|  8> F          3.56261       -0.44446       -5.63155
|  9> O          2.34494       -0.03374       -7.69650
| 10> O          1.26606       -1.15918       -5.80536
| 11> H         -0.17385        0.91270       -4.80656
| 12> H          0.44778        2.45562       -4.27173
| 13> H          1.12367        0.97423       -3.63791
| 14> *
| 15>
| 16> %MaxCore 64000
| 17>
| 18> %pal nprocs 4
| 19> end
| 20>
| 21> %scf
| 22>   MaxIter 150
| 23> end
| 24>
| 25>
| 26>                          ****END OF INPUT****

CARTESIAN COORDINATES (ANGSTROEM)
---------------------------------
  C      0.704660    1.443130   -4.503630
  C      1.728540    1.424320   -5.639440
  H      2.646720    1.953790   -5.381050
  H      1.299920    1.930610   -6.503610
  S      2.252630   -0.188110   -6.271840
  F      3.562610   -0.444460   -5.631550
  O      2.344940   -0.033740   -7.696500
  O      1.266060   -1.159180   -5.805360
  H     -0.173850    0.912700   -4.806560
  H      0.447780    2.455620   -4.271730
  H      1.123670    0.974230   -3.637910

 Total Charge           Charge          ....    0
 Multiplicity           Mult            ....    1
 Number of Electrons    NEL             ....   58
 Basis Dimension        Dim             ....  176

ORBITAL ENERGIES
----------------

  NO   OCC          E(Eh)            E(eV)
   0   2.0000     -88.307599     -2402.9719
   1   2.0000     -24.369320      -663.1229
   2   2.0000     -18.780486      -511.0430
   3   2.0000     -18.773550      -510.8543
   4   2.0000      -9.957673      -270.9621
   5   2.0000      -9.916675      -269.8464
   6   2.0000      -7.912944      -215.3221
   7   2.0000      -5.943986      -161.7441
   8   2.0000      -5.937846      -161.5770
   9   2.0000      -5.936370      -161.5368
  10   2.0000      -1.240145       -33.7461
  11   2.0000      -1.025910       -27.9164
  12   2.0000      -0.932909       -25.3857
  13   2.0000      -0.746093       -20.3022
  14   2.0000      -0.657866       -17.9014
  15   2.0000      -0.607656       -16.5352
  16   2.0000      -0.518753       -14.1160
  17   2.0000      -0.500591       -13.6218
  18   2.0000      -0.493415       -13.4265
  19   2.0000      -0.444316       -12.0905
  20   2.0000      -0.430290       -11.7088
  21   2.0000      -0.407214       -11.0809
  22   2.0000      -0.387837       -10.5536
  23   2.0000      -0.362060        -9.8521
  24   2.0000      -0.354943        -9.6585
  25   2.0000      -0.340016        -9.2523
  26   2.0000      -0.293926        -7.9981
  27   2.0000      -0.289652        -7.8818
  28   2.0000      -0.273166        -7.4332
  29   0.0000      -0.027774        -0.7558
  30   0.0000      -0.007689        -0.2092
  31   0.0000       0.011902         0.3239
  32   0.0000       0.022934         0.6241
  33   0.0000       0.026205         0.7131

MULLIKEN ATOMIC CHARGES
-----------------------
   0 C :    0.806739
   1 C :   -0.399384
   2 H :   -0.004244
   3 H :    0.053084
   4 S :    1.350252
   5 F :   -0.383477
   6 O :   -0.601259
   7 O :   -0.645372
   8 H :   -0.018809
   9 H :   -0.102505
  10 H :   -0.055025
Sum of atomic charges:   -0.0000000

LOEWDIN ATOMIC CHARGES
----------------------
   0 C :    0.134076
   1 C :   -0.090540
   2 H :    0.016617
   3 H :    0.021486
   4 S :    1.078563
   5 F :   -0.262047
   6 O :   -0.437875
   7 O :   -0.445453
   8 H :   -0.005138
   9 H :   -0.005337
  10 H :   -0.004353

  Mayer bond orders larger than 0.100000
B(  0-C ,  1-C ) :   1.3961 B(  0-C ,  8-H ) :   0.7955 B(  0-C ,  9-H ) :   0.7448
B(  0-C , 10-H ) :   0.8040 B(  1-C ,  2-H ) :   0.9452 B(  1-C ,  3-H ) :   0.9524
B(  1-C ,  4-S ) :   0.9375 B(  1-C ,  8-H ) :   0.2151 B(  1-C ,  9-H ) :   0.2252
B(  1-C , 10-H ) :   0.1986 B(  4-S ,  5-F ) :   0.6700 B(  4-S ,  6-O ) :   1.5759
B(  4-S ,  7-O ) :   1.5285 B(  6-O ,  7-O ) :   0.1084

Dispersion correction           -0.009128552
FINAL SINGLE POINT ENERGY      -726.774029671567

DIPOLE MOMENT
-------------
                                X             Y             Z
Electronic contribution:      6.27089      -6.50883      -3.72917
Nuclear contribution   :     -6.09914       7.80989       4.64238
                        -----------------------------------------
Total Dipole Moment    :      0.17176       1.30106       0.91322
                        -----------------------------------------
Magnitude (a.u.)       :      1.59882
Magnitude (Debye)      :      4.06388

Rotational constants in cm-1:     0.154372     0.078826     0.078033
Rotational constants in MHz :  4627.943144  2363.154585  2339.382767

                             ****ORCA TERMINATED NORMALLY****
TOTAL RUN TIME: 0 days 0 hours 0 minutes 10 seconds 737 msec
