                         Program Version 5.0.0 -  RELEASE  -
|  1> !PBE D3BJ RIJCOSX def2-SVPD def2/J TightSCF
|  2> *xyz 0 1
|  3> C          2.91632       -1.24259       -1.54313
|  4> C          3.46659       -1.59097       -2.88908
|  5> C          4.65227       -1.14316       -3.25969
|  6> N          2.75226       -2.29204       -3.72803
|  7> H          1.77836       -2.48960       -3.51274
|  8> H          2.94861       -2.20854       -4.71681
|  9> H          5.14672       -0.51251       -2.63385
| 10> H          4.78303       -1.00720       -4.25350
| 11> C          2.80408        0.29070       -1.35924
| 12> H          1.94047       -1.71653       -1.44116
| 13> H          3.55857       -1.66343       -0.76637
| 14> H          2.17393        0.69633       -2.12297
| 15> H          3.77707        0.73043       -1.42880
| 16> H          2.38369        0.50492       -0.39889
| 17> *
| 18>
| 19> %MaxCore 64000
| 20>
| 21> %pal nprocs 4
| 22> end
| 23>
| 24> %scf
| 25>   MaxIter 150
| 26> end
| 27>
| 28>
| 29>                          ****END OF INPUT****

CARTESIAN COORDINATES (ANGSTROEM)
---------------------------------
  C      2.916320   -1.242590   -1.543130
  C      3.466590   -1.590970   -2.889080
  C      4.652270   -1.143160   -3.259690
  N      2.752260   -2.292040   -3.728030
  H      1.778360   -2.489600   -3.512740
  H      2.948610   -2.208540   -4.716810
  H      5.146720   -0.512510   -2.633850
  H      4.783030   -1.007200   -4.253500
  C      2.804080    0.290700   -1.359240
  H      1.940470   -1.716530   -1.441160
  H      3.558570   -1.663430   -0.766370
  H      2.173930    0.696330   -2.122970
  H      3.777070    0.730430   -1.428800
  H      2.383690    0.504920   -0.398890

 Total Charge           Charge          ....    0
 Multiplicity           Mult            ....    1
 Number of Electrons    NEL             ....   40
 Basis Dimension        Dim             ....  172

ORBITAL ENERGIES
----------------

  NO   OCC          E(Eh)            E(eV)
   0   2.0000     -14.005976      -381.1220
   1   2.0000      -9.913118      -269.7496
   2   2.0000      -9.899721      -269.3851
   3   2.0000      -9.883918      -268.9551
   4   2.0000      -9.826508      -267.3929
   5   2.0000      -0.851242       -23.1635
   6   2.0000      -0.704512       -19.1707
   7   2.0000      -0.638578       -17.3766
   8   2.0000      -0.577423       -15.7125
   9   2.0000      -0.509878       -13.8745
  10   2.0000      -0.472464       -12.8564
  11   2.0000      -0.429067       -11.6755
  12   2.0000      -0.402243       -10.9456
  13   2.0000      -0.363886        -9.9018
  14   2.0000      -0.346384        -9.4256
  15   2.0000      -0.333354        -9.0710
  16   2.0000      -0.315255        -8.5785
  17   2.0000      -0.301948        -8.2164
  18   2.0000      -0.286077        -7.7846
  19   2.0000      -0.160707        -4.3730
  20   0.0000      -0.002584        -0.0703
  21   0.0000       0.000797         0.0217
  22   0.0000       0.030856         0.8396
  23   0.0000       0.038440         1.0460
  24   0.0000       0.051551         1.4028

MULLIKEN ATOMIC CHARGES
-----------------------
   0 C :   -0.051623
   1 C :   -0.172494
   2 C :    0.422000
   3 N :    0.180919
   4 H :   -0.099711
   5 H :   -0.122530
   6 H :   -0.110640
   7 H :   -0.403633
   8 C :    0.697295
   9 H :   -0.065635
  10 H :   -0.016628
  11 H :   -0.114253
  12 H :   -0.120468
  13 H :   -0.022599
Sum of atomic charges:   -0.0000000

LOEWDIN ATOMIC CHARGES
----------------------
   0 C :   -0.023977
   1 C :   -0.272761
   2 C :    0.171377
   3 N :    0.181771
   4 H :   -0.002252
   5 H :    0.005663
   6 H :   -0.084783
   7 H :   -0.086709
   8 C :    0.139467
   9 H :    0.007800
  10 H :    0.028396
  11 H :   -0.014317
  12 H :   -0.027946
  13 H :   -0.021729

  Mayer bond orders larger than 0.100000
B(  0-C ,  1-C ) :   1.2125 B(  0-C ,  8-C ) :   1.3199 B(  0-C ,  9-H ) :   0.7876
B(  0-C , 10-H ) :   0.8176 B(  0-C , 11-H ) :   0.1796 B(  0-C , 12-H ) :   0.1941
B(  0-C , 13-H ) :   0.1752 B(  1-C ,  2-C ) :   1.8442 B(  1-C ,  3-N ) :   1.1069
B(  1-C ,  6-H ) :   0.1431 B(  1-C ,  7-H ) :   0.2152 B(  1-C ,  9-H ) :   0.2066
B(  1-C , 10-H ) :   0.1831 B(  2-C ,  3-N ) :   0.2870 B(  2-C ,  6-H ) :   0.6903
B(  2-C ,  7-H ) :   0.8288 B(  3-N ,  4-H ) :   1.0458 B(  3-N ,  5-H ) :   1.1105
B(  4-H ,  5-H ) :  -0.1210 B(  6-H ,  7-H ) :   0.1355 B(  8-C ,  9-H ) :   0.1025
B(  8-C , 11-H ) :   0.8287 B(  8-C , 12-H ) :   0.8357 B(  8-C , 13-H ) :   0.7951

Dispersion correction           -0.010613096
FINAL SINGLE POINT ENERGY      -212.129457325062

DIPOLE MOMENT
-------------
                                X             Y             Z
Electronic contribution:      0.11152      -2.75658      -1.83478
Nuclear contribution   :     -0.99366       2.78648       1.68526
                        -----------------------------------------
Total Dipole Moment    :     -0.88214       0.02989      -0.14952
                        -----------------------------------------
Magnitude (a.u.)       :      0.89522
Magnitude (Debye)      :      2.27546

Rotational constants in cm-1:     0.282898     0.128664     0.101801
Rotational constants in MHz :  8481.061354  3857.240210  3051.924245

                             ****ORCA TERMINATED NORMALLY****
TOTAL RUN TIME: 0 days 0 hours 0 minutes 11 seconds 791 msec
