                         Program Version 5.0.0 -  RELEASE  -
|  1> !PBE D3BJ RIJCOSX def2-SVPD def2/J TightSCF
|  2> *xyz 0 1
|  3> C          0.70466        1.44313       -4.50363
|  4> C          1.72854        1.42432       -5.63944
|  5> H          2.64672        1.95379       -5.38105
|  6> H          1.29992        1.93061       -6.50361
|  7> S          2.25263       -0.18811       -6.27184
|  8> O          3.56261       -0.44446       -5.63155
|  9> F          2.34494       -0.03374       -7.69650
| 10> O          1.26606       -1.15918       -5.80536
| 11> H         -0.17385        0.91270       -4.80656
| 12> H          0.44778        2.45562       -4.27173
| 13> H          1.12367        0.97423       -3.63791
| 14> *
| 15>
| 16> %MaxCore 64000
| 17>
| 18> %pal nprocs 4
| 19> end
| 20>
| 21> %scf
| 22>   MaxIter 150
| 23> end
| 24>
| 25>
| 26>                          ****END OF INPUT****

CARTESIAN COORDINATES (ANGSTROEM)
---------------------------------
  C      0.704660    1.443130   -4.503630
  C      1.728540    1.424320   -5.639440
  H      2.646720    1.953790   -5.381050
  H      1.299920    1.930610   -6.503610
  S      2.252630   -0.188110   -6.271840
  O      3.562610   -0.444460   -5.631550
  F      2.344940   -0.033740   -7.696500
  O      1.266060   -1.159180   -5.805360
  H     -0.173850    0.912700   -4.806560
  H      0.447780    2.455620   -4.271730
  H      1.123670    0.974230   -3.637910

 Total Charge           Charge          ....    0
 Multiplicity           Mult            ....    1
 Number of Electrons    NEL             ....   58
 Basis Dimension        Dim             ....  176

ORBITAL ENERGIES
----------------

  NO   OCC          E(Eh)            E(eV)
   0   2.0000     -88.310089     -2403.0397
   1   2.0000     -24.391637      -663.7302
   2   2.0000     -18.773797      -510.8610
   3   2.0000     -18.765786      -510.6430
   4   2.0000      -9.958855      -270.9942
   5   2.0000      -9.917454      -269.8677
   6   2.0000      -7.915377      -215.3883
   7   2.0000      -5.946670      -161.8171
   8   2.0000      -5.940055      -161.6371
   9   2.0000      -5.938578      -161.5969
  10   2.0000      -1.277410       -34.7601
  11   2.0000      -1.012782       -27.5592
  12   2.0000      -0.913347       -24.8534
  13   2.0000      -0.747227       -20.3331
  14   2.0000      -0.672255       -18.2930
  15   2.0000      -0.615092       -16.7375
  16   2.0000      -0.530197       -14.4274
  17   2.0000      -0.526881       -14.3372
  18   2.0000      -0.499457       -13.5909
  19   2.0000      -0.445156       -12.1133
  20   2.0000      -0.432533       -11.7698
  21   2.0000      -0.398800       -10.8519
  22   2.0000      -0.385937       -10.5019
  23   2.0000      -0.364482        -9.9181
  24   2.0000      -0.348088        -9.4720
  25   2.0000      -0.336907        -9.1677
  26   2.0000      -0.287982        -7.8364
  27   2.0000      -0.278012        -7.5651
  28   2.0000      -0.257722        -7.0130
  29   0.0000      -0.028453        -0.7742
  30   0.0000      -0.010893        -0.2964
  31   0.0000       0.011292         0.3073
  32   0.0000       0.020244         0.5509
  33   0.0000       0.025387         0.6908

MULLIKEN ATOMIC CHARGES
-----------------------
   0 C :    0.781984
   1 C :   -0.398600
   2 H :   -0.004235
   3 H :    0.053170
   4 S :    1.347795
   5 O :   -0.643368
   6 F :   -0.347342
   7 O :   -0.634065
   8 H :   -0.018338
   9 H :   -0.100752
  10 H :   -0.036250
Sum of atomic charges:    0.0000000

LOEWDIN ATOMIC CHARGES
----------------------
   0 C :    0.141093
   1 C :   -0.095644
   2 H :    0.021766
   3 H :    0.009093
   4 S :    1.081358
   5 O :   -0.460781
   6 F :   -0.241966
   7 O :   -0.446222
   8 H :   -0.006455
   9 H :   -0.003891
  10 H :    0.001650

  Mayer bond orders larger than 0.100000
B(  0-C ,  1-C ) :   1.4086 B(  0-C ,  3-H ) :   0.1003 B(  0-C ,  8-H ) :   0.7919
B(  0-C ,  9-H ) :   0.7477 B(  0-C , 10-H ) :   0.8091 B(  1-C ,  2-H ) :   0.9696
B(  1-C ,  3-H ) :   0.9191 B(  1-C ,  4-S ) :   0.9279 B(  1-C ,  8-H ) :   0.2171
B(  1-C ,  9-H ) :   0.2216 B(  1-C , 10-H ) :   0.1918 B(  4-S ,  5-O ) :   1.5163
B(  4-S ,  6-F ) :   0.7382 B(  4-S ,  7-O ) :   1.5241

Dispersion correction           -0.009140731
FINAL SINGLE POINT ENERGY      -726.754553462191

DIPOLE MOMENT
-------------
                                X             Y             Z
Electronic contribution:      4.21482      -5.82409      -7.16787
Nuclear contribution   :     -4.83029       7.38191       6.79413
                        -----------------------------------------
Total Dipole Moment    :     -0.61547       1.55781      -0.37374
                        -----------------------------------------
Magnitude (a.u.)       :      1.71618
Magnitude (Debye)      :      4.36218

Rotational constants in cm-1:     0.156575     0.079070     0.076729
Rotational constants in MHz :  4694.010604  2370.444114  2300.280155

                             ****ORCA TERMINATED NORMALLY****
TOTAL RUN TIME: 0 days 0 hours 0 minutes 10 seconds 708 msec
