                         Program Version 5.0.0 -  RELEASE  -
|  1> !PBE D3BJ RIJCOSX def2-SVPD def2/J TightSCF
|  2> *xyz 0 1
|  3> C          2.91632       -1.24259       -1.54313
|  4> C          3.46659       -1.59097       -2.88908
|  5> N          4.65227       -1.14316       -3.25969
|  6> C          2.75226       -2.29204       -3.72803
|  7> H          1.77836       -2.48960       -3.51274
|  8> H          2.94861       -2.20854       -4.71681
|  9> H          5.14672       -0.51251       -2.63385
| 10> H          4.78303       -1.00720       -4.25350
| 11> C          2.80408        0.29070       -1.35924
| 12> H          1.94047       -1.71653       -1.44116
| 13> H          3.55857       -1.66343       -0.76637
| 14> H          2.17393        0.69633       -2.12297
| 15> H          3.77707        0.73043       -1.42880
| 16> H          2.38369        0.50492       -0.39889
| 17> *
| 18>
| 19> %MaxCore 64000
| 20>
| 21> %pal nprocs 4
| 22> end
| 23>
| 24> %scf
| 25>   MaxIter 150
| 26> end
| 27>
| 28>
| 29>                          ****END OF INPUT****

CARTESIAN COORDINATES (ANGSTROEM)
---------------------------------
  C      2.916320   -1.242590   -1.543130
  C      3.466590   -1.590970   -2.889080
  N      4.652270   -1.143160   -3.259690
  C      2.752260   -2.292040   -3.728030
  H      1.778360   -2.489600   -3.512740
  H      2.948610   -2.208540   -4.716810
  H      5.146720   -0.512510   -2.633850
  H      4.783030   -1.007200   -4.253500
  C      2.804080    0.290700   -1.359240
  H      1.940470   -1.716530   -1.441160
  H      3.558570   -1.663430   -0.766370
  H      2.173930    0.696330   -2.122970
  H      3.777070    0.730430   -1.428800
  H      2.383690    0.504920   -0.398890

 Total Charge           Charge          ....    0
 Multiplicity           Mult            ....    1
 Number of Electrons    NEL             ....   40
 Basis Dimension        Dim             ....  172

ORBITAL ENERGIES
----------------

  NO   OCC          E(Eh)            E(eV)
   0   2.0000     -14.002396      -381.0246
   1   2.0000      -9.911844      -269.7150
   2   2.0000      -9.897950      -269.3369
   3   2.0000      -9.888977      -269.0928
   4   2.0000      -9.829619      -267.4775
   5   2.0000      -0.846409       -23.0320
   6   2.0000      -0.702148       -19.1064
   7   2.0000      -0.648981       -17.6597
   8   2.0000      -0.569931       -15.5086
   9   2.0000      -0.509317       -13.8592
  10   2.0000      -0.476340       -12.9619
  11   2.0000      -0.426288       -11.5999
  12   2.0000      -0.391226       -10.6458
  13   2.0000      -0.387280       -10.5384
  14   2.0000      -0.343053        -9.3349
  15   2.0000      -0.337584        -9.1861
  16   2.0000      -0.315174        -8.5763
  17   2.0000      -0.301693        -8.2095
  18   2.0000      -0.280622        -7.6361
  19   2.0000      -0.166950        -4.5429
  20   0.0000      -0.005426        -0.1476
  21   0.0000       0.003733         0.1016
  22   0.0000       0.036332         0.9886
  23   0.0000       0.038722         1.0537
  24   0.0000       0.049093         1.3359

MULLIKEN ATOMIC CHARGES
-----------------------
   0 C :   -0.175339
   1 C :   -0.301531
   2 N :    0.249180
   3 C :    0.345047
   4 H :   -0.019054
   5 H :   -0.393666
   6 H :   -0.108683
   7 H :   -0.112443
   8 C :    0.743140
   9 H :    0.106544
  10 H :   -0.059708
  11 H :   -0.057728
  12 H :   -0.109614
  13 H :   -0.106145
Sum of atomic charges:   -0.0000000

LOEWDIN ATOMIC CHARGES
----------------------
   0 C :   -0.025510
   1 C :   -0.280289
   2 N :    0.188458
   3 C :    0.170802
   4 H :   -0.079008
   5 H :   -0.083556
   6 H :   -0.007645
   7 H :    0.004106
   8 C :    0.137212
   9 H :    0.020463
  10 H :    0.022217
  11 H :   -0.012186
  12 H :   -0.035173
  13 H :   -0.019892

  Mayer bond orders larger than 0.100000
B(  0-C ,  1-C ) :   1.3270 B(  0-C ,  8-C ) :   1.2856 B(  0-C ,  9-H ) :   0.8710
B(  0-C , 10-H ) :   0.8051 B(  0-C , 11-H ) :   0.1679 B(  0-C , 12-H ) :   0.2175
B(  0-C , 13-H ) :   0.2217 B(  1-C ,  2-N ) :   1.1134 B(  1-C ,  3-C ) :   1.8993
B(  1-C ,  5-H ) :   0.2909 B(  1-C ,  9-H ) :   0.1231 B(  1-C , 10-H ) :   0.2256
B(  2-N ,  3-C ) :   0.3118 B(  2-N ,  6-H ) :   0.9925 B(  2-N ,  7-H ) :   1.0800
B(  3-C ,  4-H ) :   0.8772 B(  3-C ,  5-H ) :   0.6753 B(  4-H ,  5-H ) :   0.1562
B(  6-H ,  7-H ) :  -0.1076 B(  8-C ,  9-H ) :   0.1160 B(  8-C , 11-H ) :   0.8117
B(  8-C , 12-H ) :   0.7858 B(  8-C , 13-H ) :   0.8201

Dispersion correction           -0.010589082
FINAL SINGLE POINT ENERGY      -212.132557299925

DIPOLE MOMENT
-------------
                                X             Y             Z
Electronic contribution:      1.74866      -1.75194      -1.42483
Nuclear contribution   :     -1.43372       2.52039       1.57679
                        -----------------------------------------
Total Dipole Moment    :      0.31495       0.76845       0.15196
                        -----------------------------------------
Magnitude (a.u.)       :      0.84427
Magnitude (Debye)      :      2.14596

Rotational constants in cm-1:     0.274962     0.131786     0.102554
Rotational constants in MHz :  8243.150005  3950.846092  3074.493018

                             ****ORCA TERMINATED NORMALLY****
TOTAL RUN TIME: 0 days 0 hours 0 minutes 10 seconds 624 msec
