                         Program Version 5.0.0 -  RELEASE  -
|  1> !PBE D3BJ RIJCOSX def2-SVPD def2/J TightSCF
|  2> *xyz 0 1
|  3> C          0.70466        1.44313       -4.50363
|  4> C          1.72854        1.42432       -5.63944
|  5> H          2.64672        1.95379       -5.38105
|  6> H          1.29992        1.93061       -6.50361
|  7> S          2.25263       -0.18811       -6.27184
|  8> O          3.56261       -0.44446       -5.63155
|  9> O          2.34494       -0.03374       -7.69650
| 10> F          1.26606       -1.15918       -5.80536
| 11> H         -0.17385        0.91270       -4.80656
| 12> H          0.44778        2.45562       -4.27173
| 13> H          1.12367        0.97423       -3.63791
| 14> *
| 15>
| 16> %MaxCore 64000
| 17>
| 18> %pal nprocs 4
| 19> end
| 20>
| 21> %scf
| 22>   MaxIter 150
| 23> end
| 24>
| 25>
| 26>                          ****END OF INPUT****

CARTESIAN COORDINATES (ANGSTROEM)
---------------------------------
  C      0.704660    1.443130   -4.503630
  C      1.728540    1.424320   -5.639440
  H      2.646720    1.953790   -5.381050
  H      1.299920    1.930610   -6.503610
  S      2.252630   -0.188110   -6.271840
  O      3.562610   -0.444460   -5.631550
  O      2.344940   -0.033740   -7.696500
  F      1.266060   -1.159180   -5.805360
  H     -0.173850    0.912700   -4.806560
  H      0.447780    2.455620   -4.271730
  H      1.123670    0.974230   -3.637910

 Total Charge           Charge          ....    0
 Multiplicity           Mult            ....    1
 Number of Electrons    NEL             ....   58
 Basis Dimension        Dim             ....  176

ORBITAL ENERGIES
----------------

  NO   OCC          E(Eh)            E(eV)
   0   2.0000     -88.308555     -2402.9980
   1   2.0000     -24.379886      -663.4104
   2   2.0000     -18.780572      -511.0453
   3   2.0000     -18.765390      -510.6322
   4   2.0000      -9.957718      -270.9633
   5   2.0000      -9.924060      -270.0474
   6   2.0000      -7.913873      -215.3474
   7   2.0000      -5.945126      -161.7751
   8   2.0000      -5.938672      -161.5995
   9   2.0000      -5.937130      -161.5575
  10   2.0000      -1.256540       -34.1922
  11   2.0000      -1.022297       -27.8181
  12   2.0000      -0.921430       -25.0734
  13   2.0000      -0.749834       -20.4040
  14   2.0000      -0.661640       -18.0041
  15   2.0000      -0.616012       -16.7625
  16   2.0000      -0.531918       -14.4742
  17   2.0000      -0.512794       -13.9538
  18   2.0000      -0.488442       -13.2912
  19   2.0000      -0.448276       -12.1982
  20   2.0000      -0.425618       -11.5817
  21   2.0000      -0.405857       -11.0439
  22   2.0000      -0.397057       -10.8045
  23   2.0000      -0.370462       -10.0808
  24   2.0000      -0.353882        -9.6296
  25   2.0000      -0.341033        -9.2800
  26   2.0000      -0.293888        -7.9971
  27   2.0000      -0.278702        -7.5839
  28   2.0000      -0.264108        -7.1867
  29   0.0000      -0.036099        -0.9823
  30   0.0000       0.004744         0.1291
  31   0.0000       0.014492         0.3943
  32   0.0000       0.020393         0.5549
  33   0.0000       0.024376         0.6633

MULLIKEN ATOMIC CHARGES
-----------------------
   0 C :    0.781340
   1 C :   -0.367312
   2 H :   -0.002527
   3 H :    0.058185
   4 S :    1.329339
   5 O :   -0.646387
   6 O :   -0.591484
   7 F :   -0.384183
   8 H :   -0.036848
   9 H :   -0.093304
  10 H :   -0.046820
Sum of atomic charges:    0.0000000

LOEWDIN ATOMIC CHARGES
----------------------
   0 C :    0.128390
   1 C :   -0.084359
   2 H :    0.029895
   3 H :    0.016406
   4 S :    1.078121
   5 O :   -0.461738
   6 O :   -0.437207
   7 F :   -0.250169
   8 H :   -0.010818
   9 H :   -0.004833
  10 H :   -0.003686

  Mayer bond orders larger than 0.100000
B(  0-C ,  1-C ) :   1.3710 B(  0-C ,  8-H ) :   0.7980 B(  0-C ,  9-H ) :   0.7486
B(  0-C , 10-H ) :   0.8135 B(  1-C ,  2-H ) :   0.9607 B(  1-C ,  3-H ) :   0.9477
B(  1-C ,  4-S ) :   0.9447 B(  1-C ,  8-H ) :   0.2036 B(  1-C ,  9-H ) :   0.2264
B(  1-C , 10-H ) :   0.1851 B(  4-S ,  5-O ) :   1.5163 B(  4-S ,  6-O ) :   1.5762
B(  4-S ,  7-F ) :   0.7005

Dispersion correction           -0.009086514
FINAL SINGLE POINT ENERGY      -726.764248106504

DIPOLE MOMENT
-------------
                                X             Y             Z
Electronic contribution:      2.42375      -7.66370      -4.02120
Nuclear contribution   :     -3.70606       8.55465       4.82350
                        -----------------------------------------
Total Dipole Moment    :     -1.28231       0.89095       0.80230
                        -----------------------------------------
Magnitude (a.u.)       :      1.75550
Magnitude (Debye)      :      4.46214

Rotational constants in cm-1:     0.153201     0.080978     0.077494
Rotational constants in MHz :  4592.852844  2427.650814  2323.207507

                             ****ORCA TERMINATED NORMALLY****
TOTAL RUN TIME: 0 days 0 hours 0 minutes 9 seconds 905 msec
