                         Program Version 5.0.0 -  RELEASE  -
|  1> !PBE D3BJ RIJCOSX def2-SVPD def2/J TightSCF xyzfile
|  2>
|  3> *xyzfile 0 1 D3.xyz
|  4>
|  5> %MaxCore 64000
|  6>
|  7> %pal nprocs 4
|  8> end
|  9>
| 10> %scf
| 11>   MaxIter 150
| 12> end
| 13>
| 14>
| 15>                          ****END OF INPUT****

CARTESIAN COORDINATES (ANGSTROEM)
---------------------------------
  C      2.916324   -1.242589   -1.543125
  C      0.704661    1.443129   -4.503630
  C      1.728539    1.424320   -5.639443
  H      2.646718    1.953794   -5.381054
  H      1.299916    1.930613   -6.503614
  S      2.252625   -0.188115   -6.271840
  C      3.466585   -1.590971   -2.889082
  C      4.652275   -1.143164   -3.259692
  N      2.752264   -2.292043   -3.728029
  H      1.778364   -2.489604   -3.512738
  H      2.948612   -2.208544   -4.716813
  H      5.146723   -0.512508   -2.633852
  H      4.783030   -1.007203   -4.253498
  O      3.562607   -0.444464   -5.631552
  F      2.344944   -0.033742   -7.696501
  C      2.804084    0.290698   -1.359243
  C      1.052550    0.695659   -3.214915
  H     -0.232483    1.032925   -4.884449
  H      0.511700    2.495794   -4.267966
  C      2.388380    1.093669   -2.597108
  H      3.763425    0.674718   -0.999889
  H      2.094788    0.461222   -0.545756
  O      1.266058   -1.159177   -5.805365
  H      3.167316    1.013242   -3.359430
  H      2.357690    2.149375   -2.310997
  H      1.039284   -0.368429   -3.449329
  H      0.250787    0.865605   -2.488283
  H      1.940472   -1.716529   -1.441161
  H      3.558569   -1.663433   -0.766371

 Total Charge           Charge          ....    0
 Multiplicity           Mult            ....    1
 Number of Electrons    NEL             ....  112
 Basis Dimension        Dim             ....  404

ORBITAL ENERGIES
----------------

  NO   OCC          E(Eh)            E(eV)
   0   2.0000     -88.322998     -2403.3910
   1   2.0000     -24.400929      -663.9830
   2   2.0000     -18.788095      -511.2501
   3   2.0000     -18.779596      -511.0188
   4   2.0000     -13.976470      -380.3191
   5   2.0000      -9.962567      -271.0952
   6   2.0000      -9.928252      -270.1615
   7   2.0000      -9.898908      -269.3630
   8   2.0000      -9.890757      -269.1412
   9   2.0000      -9.890394      -269.1313
  10   2.0000      -9.888855      -269.0894
  11   2.0000      -9.885550      -268.9995
  12   2.0000      -9.800718      -266.6911
  13   2.0000      -7.927104      -215.7075
  14   2.0000      -5.958404      -162.1364
  15   2.0000      -5.952068      -161.9640
  16   2.0000      -5.950226      -161.9139
  17   2.0000      -1.285963       -34.9928
  18   2.0000      -1.028271       -27.9807
  19   2.0000      -0.928985       -25.2790
  20   2.0000      -0.826428       -22.4883
  21   2.0000      -0.763184       -20.7673
  22   2.0000      -0.720008       -19.5924
  23   2.0000      -0.691638       -18.8204
  24   2.0000      -0.659090       -17.9348
  25   2.0000      -0.629325       -17.1248
  26   2.0000      -0.605070       -16.4648
  27   2.0000      -0.571842       -15.5606
  28   2.0000      -0.539587       -14.6829
  29   2.0000      -0.534689       -14.5496
  30   2.0000      -0.513057       -13.9610
  31   2.0000      -0.506274       -13.7764
  32   2.0000      -0.481883       -13.1127
  33   2.0000      -0.454692       -12.3728
  34   2.0000      -0.448062       -12.1924
  35   2.0000      -0.444581       -12.0977
  36   2.0000      -0.428445       -11.6586
  37   2.0000      -0.420952       -11.4547
  38   2.0000      -0.402419       -10.9504
  39   2.0000      -0.392552       -10.6819
  40   2.0000      -0.382242       -10.4013
  41   2.0000      -0.368949       -10.0396
  42   2.0000      -0.355627        -9.6771
  43   2.0000      -0.343659        -9.3514
  44   2.0000      -0.336006        -9.1432
  45   2.0000      -0.322346        -8.7715
  46   2.0000      -0.316008        -8.5990
  47   2.0000      -0.309727        -8.4281
  48   2.0000      -0.298750        -8.1294
  49   2.0000      -0.294686        -8.0188
  50   2.0000      -0.287265        -7.8169
  51   2.0000      -0.278011        -7.5651
  52   2.0000      -0.275473        -7.4960
  53   2.0000      -0.267683        -7.2840
  54   2.0000      -0.260572        -7.0905
  55   2.0000      -0.136768        -3.7217
  56   0.0000      -0.035300        -0.9606
  57   0.0000      -0.019117        -0.5202
  58   0.0000       0.002791         0.0759
  59   0.0000       0.006234         0.1696
  60   0.0000       0.009376         0.2551

MULLIKEN ATOMIC CHARGES
-----------------------
   0 C :    0.599244
   1 C :    0.493587
   2 C :    0.110670
   3 H :    0.137753
   4 H :   -0.192702
   5 S :    1.481907
   6 C :   -0.538446
   7 C :    0.608130
   8 N :    0.381773
   9 H :   -0.021379
  10 H :   -0.194809
  11 H :    0.012987
  12 H :   -0.568988
  13 O :   -0.752290
  14 F :   -0.421591
  15 C :    0.359636
  16 C :    0.185850
  17 H :    0.039975
  18 H :   -0.057360
  19 C :   -0.051063
  20 H :    0.003700
  21 H :   -0.141730
  22 O :   -0.728028
  23 H :   -0.002875
  24 H :   -0.176046
  25 H :   -0.296637
  26 H :   -0.115087
  27 H :    0.089432
  28 H :   -0.245616
Sum of atomic charges:   -0.0000000

LOEWDIN ATOMIC CHARGES
----------------------
   0 C :    0.023218
   1 C :   -0.023431
   2 C :   -0.040584
   3 H :    0.021808
   4 H :    0.011353
   5 S :    1.126617
   6 C :   -0.258829
   7 C :    0.175178
   8 N :    0.206557
   9 H :   -0.000408
  10 H :   -0.048336
  11 H :   -0.075003
  12 H :   -0.132247
  13 O :   -0.449201
  14 F :   -0.231976
  15 C :   -0.011724
  16 C :   -0.016260
  17 H :    0.031098
  18 H :    0.037872
  19 C :   -0.023973
  20 H :    0.020218
  21 H :    0.015787
  22 O :   -0.440805
  23 H :   -0.000303
  24 H :    0.025321
  25 H :   -0.011415
  26 H :    0.033828
  27 H :    0.009581
  28 H :    0.026059

  Mayer bond orders larger than 0.100000
B(  0-C ,  6-C ) :   1.2797 B(  0-C ,  8-N ) :   0.1258 B(  0-C , 15-C ) :   1.1466
B(  0-C , 19-C ) :   0.1065 B(  0-C , 20-H ) :   0.1081 B(  0-C , 21-H ) :   0.2098
B(  0-C , 27-H ) :   0.5515 B(  0-C , 28-H ) :   0.6854 B(  1-C ,  2-C ) :   1.2944
B(  1-C ,  4-H ) :   0.2476 B(  1-C , 16-C ) :   1.2682 B(  1-C , 17-H ) :   0.6303
B(  1-C , 18-H ) :   0.6882 B(  2-C ,  3-H ) :   0.8571 B(  2-C ,  4-H ) :   0.8133
B(  2-C ,  5-S ) :   0.9684 B(  2-C , 17-H ) :   0.1195 B(  2-C , 18-H ) :   0.1804
B(  5-S , 13-O ) :   1.3808 B(  5-S , 14-F ) :   0.6215 B(  5-S , 22-O ) :   1.4318
B(  6-C ,  7-C ) :   2.0889 B(  6-C ,  8-N ) :   0.9858 B(  6-C , 11-H ) :   0.1250
B(  6-C , 12-H ) :   0.3985 B(  6-C , 27-H ) :   0.2937 B(  6-C , 28-H ) :   0.2661
B(  7-C ,  8-N ) :   0.4086 B(  7-C , 11-H ) :   0.5457 B(  7-C , 12-H ) :   0.4346
B(  8-N ,  9-H ) :   0.8972 B(  8-N , 10-H ) :   0.9311 B(  8-N , 11-H ) :   0.1720
B(  9-H , 10-H ) :  -0.1451 B( 10-H , 12-H ) :   0.1168 B( 10-H , 13-O ) :   0.1105
B( 12-H , 13-O ) :   0.2444 B( 13-O , 22-O ) :   0.1540 B( 15-C , 19-C ) :   1.2457
B( 15-C , 20-H ) :   0.6492 B( 15-C , 21-H ) :   0.7959 B( 15-C , 23-H ) :   0.1984
B( 15-C , 24-H ) :   0.1041 B( 15-C , 27-H ) :   0.1450 B( 16-C , 17-H ) :   0.2909
B( 16-C , 18-H ) :   0.1050 B( 16-C , 19-C ) :   1.2774 B( 16-C , 23-H ) :   0.1555
B( 16-C , 24-H ) :   0.1941 B( 16-C , 25-H ) :   0.8902 B( 16-C , 26-H ) :   0.6768
B( 17-H , 18-H ) :  -0.1098 B( 19-C , 20-H ) :   0.2871 B( 19-C , 21-H ) :   0.2010
B( 19-C , 23-H ) :   0.8197 B( 19-C , 24-H ) :   0.7926 B( 19-C , 25-H ) :   0.1585
B( 19-C , 26-H ) :   0.2278 B( 20-H , 21-H ) :  -0.1425

Dispersion correction           -0.036918150
FINAL SINGLE POINT ENERGY     -1016.167110317057

DIPOLE MOMENT
-------------
                                X             Y             Z
Electronic contribution:      0.07271      -4.22103     -22.48400
Nuclear contribution   :     -1.50273       5.82595      21.72909
                        -----------------------------------------
Total Dipole Moment    :     -1.43002       1.60492      -0.75491
                        -----------------------------------------
Magnitude (a.u.)       :      2.27829
Magnitude (Debye)      :      5.79096

Rotational constants in cm-1:     0.036883     0.018294     0.014745
Rotational constants in MHz :  1105.724679   548.429785   442.050481

                             ****ORCA TERMINATED NORMALLY****
TOTAL RUN TIME: 0 days 0 hours 0 minutes 39 seconds 5 msec
