                         Program Version 5.0.0 -  RELEASE  -
|  1> !PBE D3BJ RIJCOSX def2-SVPD def2/J TightSCF xyzfile
|  2>
|  3> *xyzfile 0 1 D4.xyz
|  4>
|  5> %MaxCore 64000
|  6>
|  7> %pal nprocs 4
|  8> end
|  9>
| 10> %scf
| 11>   MaxIter 150
| 12> end
| 13>
| 14>
| 15>                          ****END OF INPUT****

CARTESIAN COORDINATES (ANGSTROEM)
---------------------------------
  C      2.916324   -1.242589   -1.543125
  C      0.704661    1.443129   -4.503630
  C      1.728539    1.424320   -5.639443
  H      2.646718    1.953794   -5.381054
  H      1.299916    1.930613   -6.503614
  S      2.252625   -0.188115   -6.271840
  C      3.466585   -1.590971   -2.889082
  N      4.652275   -1.143164   -3.259692
  C      2.752264   -2.292043   -3.728029
  H      1.778364   -2.489604   -3.512738
  H      2.948612   -2.208544   -4.716813
  H      5.146723   -0.512508   -2.633852
  H      4.783030   -1.007203   -4.253498
  O      3.562607   -0.444464   -5.631552
  F      2.344944   -0.033742   -7.696501
  C      2.804084    0.290698   -1.359243
  C      1.052550    0.695659   -3.214915
  H     -0.232483    1.032925   -4.884449
  H      0.511700    2.495794   -4.267966
  C      2.388380    1.093669   -2.597108
  H      3.763425    0.674718   -0.999889
  H      2.094788    0.461222   -0.545756
  O      1.266058   -1.159177   -5.805365
  H      3.167316    1.013242   -3.359430
  H      2.357690    2.149375   -2.310997
  H      1.039284   -0.368429   -3.449329
  H      0.250787    0.865605   -2.488283
  H      1.940472   -1.716529   -1.441161
  H      3.558569   -1.663433   -0.766371

 Total Charge           Charge          ....    0
 Multiplicity           Mult            ....    1
 Number of Electrons    NEL             ....  112
 Basis Dimension        Dim             ....  404

ORBITAL ENERGIES
----------------

  NO   OCC          E(Eh)            E(eV)
   0   2.0000     -88.319059     -2403.2838
   1   2.0000     -24.397231      -663.8824
   2   2.0000     -18.779083      -511.0048
   3   2.0000     -18.776217      -510.9268
   4   2.0000     -13.975915      -380.3040
   5   2.0000      -9.959264      -271.0054
   6   2.0000      -9.924455      -270.0581
   7   2.0000      -9.893818      -269.2245
   8   2.0000      -9.893102      -269.2050
   9   2.0000      -9.892055      -269.1765
  10   2.0000      -9.888947      -269.0919
  11   2.0000      -9.883449      -268.9423
  12   2.0000      -9.804250      -266.7872
  13   2.0000      -7.922777      -215.5897
  14   2.0000      -5.954092      -162.0191
  15   2.0000      -5.947747      -161.8464
  16   2.0000      -5.945957      -161.7977
  17   2.0000      -1.282049       -34.8863
  18   2.0000      -1.021455       -27.7952
  19   2.0000      -0.923290       -25.1240
  20   2.0000      -0.823337       -22.4042
  21   2.0000      -0.759559       -20.6687
  22   2.0000      -0.718767       -19.5587
  23   2.0000      -0.687162       -18.6986
  24   2.0000      -0.657735       -17.8979
  25   2.0000      -0.635714       -17.2986
  26   2.0000      -0.604088       -16.4381
  27   2.0000      -0.564549       -15.3621
  28   2.0000      -0.536617       -14.6021
  29   2.0000      -0.530358       -14.4318
  30   2.0000      -0.509586       -13.8665
  31   2.0000      -0.505689       -13.7605
  32   2.0000      -0.480242       -13.0681
  33   2.0000      -0.457474       -12.4485
  34   2.0000      -0.446588       -12.1523
  35   2.0000      -0.444532       -12.0963
  36   2.0000      -0.421855       -11.4793
  37   2.0000      -0.407702       -11.0941
  38   2.0000      -0.402771       -10.9600
  39   2.0000      -0.396259       -10.7828
  40   2.0000      -0.382194       -10.4000
  41   2.0000      -0.364224        -9.9111
  42   2.0000      -0.355705        -9.6792
  43   2.0000      -0.340375        -9.2621
  44   2.0000      -0.334770        -9.1096
  45   2.0000      -0.325707        -8.8629
  46   2.0000      -0.316541        -8.6135
  47   2.0000      -0.310089        -8.4380
  48   2.0000      -0.295510        -8.0412
  49   2.0000      -0.287388        -7.8202
  50   2.0000      -0.283102        -7.7036
  51   2.0000      -0.278225        -7.5709
  52   2.0000      -0.271178        -7.3791
  53   2.0000      -0.263471        -7.1694
  54   2.0000      -0.256375        -6.9763
  55   2.0000      -0.143762        -3.9120
  56   0.0000      -0.031466        -0.8562
  57   0.0000      -0.016595        -0.4516
  58   0.0000       0.001376         0.0374
  59   0.0000       0.008246         0.2244
  60   0.0000       0.010025         0.2728

MULLIKEN ATOMIC CHARGES
-----------------------
   0 C :    0.467204
   1 C :    0.465362
   2 C :    0.102272
   3 H :    0.160273
   4 H :   -0.198262
   5 S :    1.438637
   6 C :   -0.651769
   7 N :    0.400089
   8 C :    0.704016
   9 H :   -0.040901
  10 H :   -0.466695
  11 H :   -0.041169
  12 H :   -0.261693
  13 O :   -0.706308
  14 F :   -0.430605
  15 C :    0.485428
  16 C :    0.193857
  17 H :    0.030851
  18 H :   -0.062289
  19 C :   -0.118181
  20 H :   -0.014107
  21 H :   -0.136339
  22 O :   -0.700843
  23 H :    0.049103
  24 H :   -0.239350
  25 H :   -0.359692
  26 H :   -0.071691
  27 H :    0.289177
  28 H :   -0.286376
Sum of atomic charges:   -0.0000000

LOEWDIN ATOMIC CHARGES
----------------------
   0 C :    0.022204
   1 C :   -0.023375
   2 C :   -0.043228
   3 H :    0.018707
   4 H :    0.010795
   5 S :    1.128249
   6 C :   -0.265488
   7 N :    0.208521
   8 C :    0.168976
   9 H :   -0.068113
  10 H :   -0.120465
  11 H :   -0.000053
  12 H :   -0.056084
  13 O :   -0.457848
  14 F :   -0.232479
  15 C :   -0.015845
  16 C :   -0.012290
  17 H :    0.031880
  18 H :    0.036293
  19 C :   -0.026253
  20 H :    0.012899
  21 H :    0.017509
  22 O :   -0.422906
  23 H :   -0.003260
  24 H :    0.024503
  25 H :   -0.007795
  26 H :    0.033992
  27 H :    0.021320
  28 H :    0.019633

  Mayer bond orders larger than 0.100000
B(  0-C ,  6-C ) :   1.3466 B(  0-C ,  8-C ) :   0.1256 B(  0-C , 15-C ) :   1.1393
B(  0-C , 20-H ) :   0.1351 B(  0-C , 21-H ) :   0.2232 B(  0-C , 27-H ) :   0.7545
B(  0-C , 28-H ) :   0.5451 B(  1-C ,  2-C ) :   1.2951 B(  1-C ,  4-H ) :   0.2486
B(  1-C , 16-C ) :   1.2799 B(  1-C , 17-H ) :   0.6356 B(  1-C , 18-H ) :   0.6985
B(  2-C ,  3-H ) :   0.8461 B(  2-C ,  4-H ) :   0.8069 B(  2-C ,  5-S ) :   0.9596
B(  2-C , 17-H ) :   0.1220 B(  2-C , 18-H ) :   0.1798 B(  5-S , 13-O ) :   1.3823
B(  5-S , 14-F ) :   0.6104 B(  5-S , 22-O ) :   1.4836 B(  6-C ,  7-N ) :   0.9578
B(  6-C ,  8-C ) :   1.9579 B(  6-C ,  9-H ) :   0.1342 B(  6-C , 10-H ) :   0.5664
B(  6-C , 15-C ) :   0.2169 B(  6-C , 21-H ) :  -0.1022 B(  6-C , 28-H ) :   0.4221
B(  7-N ,  8-C ) :   0.4919 B(  7-N ,  9-H ) :   0.1462 B(  7-N , 11-H ) :   0.9664
B(  7-N , 12-H ) :   0.8968 B(  8-C ,  9-H ) :   0.5769 B(  8-C , 27-H ) :  -0.1048
B(  9-H , 10-H ) :   0.1109 B( 10-H , 12-H ) :   0.1728 B( 11-H , 12-H ) :  -0.1520
B( 12-H , 13-O ) :   0.1042 B( 13-O , 22-O ) :   0.1606 B( 15-C , 19-C ) :   1.2370
B( 15-C , 20-H ) :   0.6313 B( 15-C , 21-H ) :   0.7649 B( 15-C , 23-H ) :   0.1273
B( 15-C , 27-H ) :   0.1191 B( 16-C , 17-H ) :   0.2835 B( 16-C , 18-H ) :   0.1024
B( 16-C , 19-C ) :   1.3024 B( 16-C , 23-H ) :   0.1423 B( 16-C , 24-H ) :   0.1816
B( 16-C , 25-H ) :   0.9465 B( 16-C , 26-H ) :   0.6414 B( 17-H , 18-H ) :  -0.1099
B( 19-C , 20-H ) :   0.2926 B( 19-C , 21-H ) :   0.1858 B( 19-C , 23-H ) :   0.8360
B( 19-C , 24-H ) :   0.8280 B( 19-C , 25-H ) :   0.1606 B( 19-C , 26-H ) :   0.2056
B( 20-H , 21-H ) :  -0.1466

Dispersion correction           -0.036971258
FINAL SINGLE POINT ENERGY     -1016.169160028461

DIPOLE MOMENT
-------------
                                X             Y             Z
Electronic contribution:      1.36643      -3.51424     -22.15668
Nuclear contribution   :     -1.74760       5.67788      21.66873
                        -----------------------------------------
Total Dipole Moment    :     -0.38118       2.16364      -0.48795
                        -----------------------------------------
Magnitude (a.u.)       :      2.25049
Magnitude (Debye)      :      5.72030

Rotational constants in cm-1:     0.036818     0.018222     0.014682
Rotational constants in MHz :  1103.783048   546.296792   440.157914

                             ****ORCA TERMINATED NORMALLY****
TOTAL RUN TIME: 0 days 0 hours 0 minutes 37 seconds 138 msec
