                         Program Version 5.0.0 -  RELEASE  -
|  1> !PBE D3BJ RIJCOSX def2-SVPD def2/J TightSCF xyzfile
|  2>
|  3> *xyzfile 0 1 D5.xyz
|  4>
|  5> %MaxCore 64000
|  6>
|  7> %pal nprocs 4
|  8> end
|  9>
| 10> %scf
| 11>   MaxIter 150
| 12> end
| 13>
| 14>
| 15>                          ****END OF INPUT****

CARTESIAN COORDINATES (ANGSTROEM)
---------------------------------
  C      2.916324   -1.242589   -1.543125
  C      0.704661    1.443129   -4.503630
  C      1.728539    1.424320   -5.639443
  H      2.646718    1.953794   -5.381054
  H      1.299916    1.930613   -6.503614
  S      2.252625   -0.188115   -6.271840
  C      3.466585   -1.590971   -2.889082
  C      4.652275   -1.143164   -3.259692
  N      2.752264   -2.292043   -3.728029
  H      1.778364   -2.489604   -3.512738
  H      2.948612   -2.208544   -4.716813
  H      5.146723   -0.512508   -2.633852
  H      4.783030   -1.007203   -4.253498
  O      3.562607   -0.444464   -5.631552
  O      2.344944   -0.033742   -7.696501
  C      2.804084    0.290698   -1.359243
  C      1.052550    0.695659   -3.214915
  H     -0.232483    1.032925   -4.884449
  H      0.511700    2.495794   -4.267966
  C      2.388380    1.093669   -2.597108
  H      3.763425    0.674718   -0.999889
  H      2.094788    0.461222   -0.545756
  F      1.266058   -1.159177   -5.805365
  H      3.167316    1.013242   -3.359430
  H      2.357690    2.149375   -2.310997
  H      1.039284   -0.368429   -3.449329
  H      0.250787    0.865605   -2.488283
  H      1.940472   -1.716529   -1.441161
  H      3.558569   -1.663433   -0.766371

 Total Charge           Charge          ....    0
 Multiplicity           Mult            ....    1
 Number of Electrons    NEL             ....  112
 Basis Dimension        Dim             ....  404

ORBITAL ENERGIES
----------------

  NO   OCC          E(Eh)            E(eV)
   0   2.0000     -88.319224     -2403.2883
   1   2.0000     -24.391941      -663.7385
   2   2.0000     -18.789208      -511.2803
   3   2.0000     -18.776321      -510.9297
   4   2.0000     -13.993253      -380.7758
   5   2.0000      -9.960131      -271.0289
   6   2.0000      -9.932783      -270.2848
   7   2.0000      -9.910500      -269.6784
   8   2.0000      -9.900381      -269.4031
   9   2.0000      -9.897636      -269.3284
  10   2.0000      -9.896447      -269.2960
  11   2.0000      -9.894240      -269.2359
  12   2.0000      -9.809697      -266.9354
  13   2.0000      -7.923349      -215.6053
  14   2.0000      -5.954727      -162.0364
  15   2.0000      -5.948311      -161.8618
  16   2.0000      -5.946437      -161.8108
  17   2.0000      -1.268798       -34.5258
  18   2.0000      -1.031927       -28.0802
  19   2.0000      -0.934052       -25.4168
  20   2.0000      -0.841148       -22.8888
  21   2.0000      -0.767490       -20.8845
  22   2.0000      -0.725053       -19.7297
  23   2.0000      -0.691324       -18.8119
  24   2.0000      -0.659493       -17.9457
  25   2.0000      -0.636780       -17.3277
  26   2.0000      -0.611542       -16.6409
  27   2.0000      -0.577555       -15.7161
  28   2.0000      -0.542383       -14.7590
  29   2.0000      -0.530520       -14.4362
  30   2.0000      -0.517854       -14.0915
  31   2.0000      -0.501556       -13.6480
  32   2.0000      -0.490617       -13.3504
  33   2.0000      -0.462392       -12.5823
  34   2.0000      -0.450171       -12.2498
  35   2.0000      -0.445692       -12.1279
  36   2.0000      -0.429598       -11.6900
  37   2.0000      -0.422480       -11.4963
  38   2.0000      -0.409512       -11.1434
  39   2.0000      -0.403240       -10.9727
  40   2.0000      -0.388094       -10.5606
  41   2.0000      -0.375103       -10.2071
  42   2.0000      -0.357406        -9.7255
  43   2.0000      -0.347634        -9.4596
  44   2.0000      -0.344841        -9.3836
  45   2.0000      -0.335167        -9.1203
  46   2.0000      -0.327022        -8.8987
  47   2.0000      -0.312555        -8.5051
  48   2.0000      -0.308114        -8.3842
  49   2.0000      -0.298478        -8.1220
  50   2.0000      -0.292098        -7.9484
  51   2.0000      -0.287405        -7.8207
  52   2.0000      -0.282798        -7.6953
  53   2.0000      -0.271399        -7.3851
  54   2.0000      -0.264141        -7.1877
  55   2.0000      -0.148146        -4.0313
  56   0.0000      -0.041711        -1.1350
  57   0.0000      -0.008307        -0.2260
  58   0.0000      -0.005010        -0.1363
  59   0.0000       0.005499         0.1496
  60   0.0000       0.006862         0.1867

MULLIKEN ATOMIC CHARGES
-----------------------
   0 C :    0.601215
   1 C :    0.505650
   2 C :    0.149735
   3 H :    0.132153
   4 H :   -0.208439
   5 S :    1.310671
   6 C :   -0.518737
   7 C :    0.624304
   8 N :    0.366136
   9 H :   -0.025944
  10 H :   -0.220777
  11 H :    0.005410
  12 H :   -0.565089
  13 O :   -0.702539
  14 O :   -0.590258
  15 C :    0.358755
  16 C :    0.215599
  17 H :    0.015335
  18 H :   -0.047331
  19 C :   -0.055261
  20 H :    0.006895
  21 H :   -0.141766
  22 F :   -0.455407
  23 H :    0.001591
  24 H :   -0.173669
  25 H :   -0.324516
  26 H :   -0.104231
  27 H :    0.086231
  28 H :   -0.245715
Sum of atomic charges:   -0.0000000

LOEWDIN ATOMIC CHARGES
----------------------
   0 C :    0.023590
   1 C :   -0.036498
   2 C :   -0.029459
   3 H :    0.029244
   4 H :    0.018218
   5 S :    1.108042
   6 C :   -0.261013
   7 C :    0.182403
   8 N :    0.196241
   9 H :   -0.003743
  10 H :   -0.046774
  11 H :   -0.071261
  12 H :   -0.129113
  13 O :   -0.443255
  14 O :   -0.419348
  15 C :   -0.010861
  16 C :   -0.022449
  17 H :    0.027654
  18 H :    0.036505
  19 C :   -0.021846
  20 H :    0.021532
  21 H :    0.016560
  22 F :   -0.248620
  23 H :    0.000879
  24 H :    0.027802
  25 H :   -0.014982
  26 H :    0.034294
  27 H :    0.008914
  28 H :    0.027343

  Mayer bond orders larger than 0.100000
B(  0-C ,  6-C ) :   1.2731 B(  0-C ,  8-N ) :   0.1218 B(  0-C , 15-C ) :   1.1479
B(  0-C , 19-C ) :   0.1084 B(  0-C , 20-H ) :   0.1086 B(  0-C , 21-H ) :   0.2097
B(  0-C , 27-H ) :   0.5534 B(  0-C , 28-H ) :   0.6851 B(  1-C ,  2-C ) :   1.2541
B(  1-C ,  4-H ) :   0.2315 B(  1-C , 16-C ) :   1.2642 B(  1-C , 17-H ) :   0.6327
B(  1-C , 18-H ) :   0.6864 B(  2-C ,  3-H ) :   0.8551 B(  2-C ,  4-H ) :   0.8679
B(  2-C ,  5-S ) :   0.9611 B(  2-C , 17-H ) :   0.1167 B(  2-C , 18-H ) :   0.1818
B(  5-S , 13-O ) :   1.4392 B(  5-S , 14-O ) :   1.5777 B(  5-S , 22-F ) :   0.6505
B(  6-C ,  7-C ) :   2.0990 B(  6-C ,  8-N ) :   0.9766 B(  6-C , 11-H ) :   0.1214
B(  6-C , 12-H ) :   0.3917 B(  6-C , 27-H ) :   0.2915 B(  6-C , 28-H ) :   0.2625
B(  7-C ,  8-N ) :   0.4027 B(  7-C , 11-H ) :   0.5477 B(  7-C , 12-H ) :   0.4391
B(  8-N ,  9-H ) :   0.9063 B(  8-N , 10-H ) :   0.9326 B(  8-N , 11-H ) :   0.1662
B(  9-H , 10-H ) :  -0.1484 B( 10-H , 12-H ) :   0.1041 B( 10-H , 13-O ) :   0.1175
B( 12-H , 13-O ) :   0.2623 B( 13-O , 14-O ) :   0.1037 B( 15-C , 19-C ) :   1.2519
B( 15-C , 20-H ) :   0.6476 B( 15-C , 21-H ) :   0.7963 B( 15-C , 23-H ) :   0.1985
B( 15-C , 24-H ) :   0.1090 B( 15-C , 27-H ) :   0.1447 B( 16-C , 17-H ) :   0.2785
B( 16-C , 18-H ) :   0.1141 B( 16-C , 19-C ) :   1.2796 B( 16-C , 23-H ) :   0.1595
B( 16-C , 24-H ) :   0.1891 B( 16-C , 25-H ) :   0.8729 B( 16-C , 26-H ) :   0.6774
B( 17-H , 18-H ) :  -0.1215 B( 19-C , 20-H ) :   0.2871 B( 19-C , 21-H ) :   0.2027
B( 19-C , 23-H ) :   0.8151 B( 19-C , 24-H ) :   0.7955 B( 19-C , 25-H ) :   0.1673
B( 19-C , 26-H ) :   0.2287 B( 20-H , 21-H ) :  -0.1415

Dispersion correction           -0.036622405
FINAL SINGLE POINT ENERGY     -1016.171862504287

DIPOLE MOMENT
-------------
                                X             Y             Z
Electronic contribution:     -1.66475      -6.09936     -19.04223
Nuclear contribution   :     -0.26930       7.11259      19.56706
                        -----------------------------------------
Total Dipole Moment    :     -1.93405       1.01323       0.52484
                        -----------------------------------------
Magnitude (a.u.)       :      2.24558
Magnitude (Debye)      :      5.70781

Rotational constants in cm-1:     0.036519     0.018683     0.015073
Rotational constants in MHz :  1094.801738   560.111127   451.890222

                             ****ORCA TERMINATED NORMALLY****
TOTAL RUN TIME: 0 days 0 hours 0 minutes 39 seconds 947 msec
