                         Program Version 5.0.0 -  RELEASE  -
|  1> !PBE D3BJ RIJCOSX def2-SVPD def2/J TightSCF
|  2> *xyz -1 1
|  3> C         -0.77455        2.78833       -0.54394
|  4> C          0.69721        3.22791       -0.52513
|  5> O          1.48929        2.37470        0.19919
|  6> H          0.71600        4.26403       -0.13077
|  7> H          1.03615        3.33092       -1.58367
|  8> H         -1.34746        3.48478       -1.11982
|  9> H         -1.15078        2.75876        0.45729
| 10> H         -0.85058        1.81526       -0.98241
| 11> *
| 12>
| 13> %MaxCore 64000
| 14> %pal nprocs 4
| 15> end
| 16>
| 17> %scf
| 18>   MaxIter 150
| 19> end
| 20>
| 21>
| 22>                          ****END OF INPUT****

CARTESIAN COORDINATES (ANGSTROEM)
---------------------------------
  C     -0.774550    2.788330   -0.543940
  C      0.697210    3.227910   -0.525130
  O      1.489290    2.374700    0.199190
  H      0.716000    4.264030   -0.130770
  H      1.036150    3.330920   -1.583670
  H     -1.347460    3.484780   -1.119820
  H     -1.150780    2.758760    0.457290
  H     -0.850580    1.815260   -0.982410

 Total Charge           Charge          ....   -1
 Multiplicity           Mult            ....    1
 Number of Electrons    NEL             ....   26
 Basis Dimension        Dim             ....  103

ORBITAL ENERGIES
----------------

  NO   OCC          E(Eh)            E(eV)
   0   2.0000     -18.444047      -501.8880
   1   2.0000      -9.711512      -264.2637
   2   2.0000      -9.688298      -263.6320
   3   2.0000      -0.593824       -16.1588
   4   2.0000      -0.451669       -12.2905
   5   2.0000      -0.309631        -8.4255
   6   2.0000      -0.202858        -5.5200
   7   2.0000      -0.181597        -4.9415
   8   2.0000      -0.133098        -3.6218
   9   2.0000      -0.113440        -3.0869
  10   2.0000      -0.073102        -1.9892
  11   2.0000       0.065696         1.7877
  12   2.0000       0.069285         1.8853
  13   0.0000       0.163335         4.4446
  14   0.0000       0.192956         5.2506
  15   0.0000       0.223994         6.0952
  16   0.0000       0.236679         6.4404
  17   0.0000       0.255108         6.9419

MULLIKEN ATOMIC CHARGES
-----------------------
   0 C :    0.209020
   1 C :    0.103193
   2 O :   -0.859783
   3 H :   -0.151137
   4 H :   -0.139487
   5 H :   -0.027971
   6 H :   -0.066053
   7 H :   -0.067783
Sum of atomic charges:   -1.0000000

LOEWDIN ATOMIC CHARGES
----------------------
   0 C :    0.054850
   1 C :   -0.273240
   2 O :   -0.547411
   3 H :   -0.040061
   4 H :   -0.036283
   5 H :   -0.067036
   6 H :   -0.045088
   7 H :   -0.045731

  Mayer bond orders larger than 0.100000
B(  0-C ,  1-C ) :   1.2199 B(  0-C ,  2-O ) :   0.3064 B(  0-C ,  3-H ) :   0.1594
B(  0-C ,  4-H ) :   0.1499 B(  0-C ,  5-H ) :   0.9323 B(  0-C ,  6-H ) :   0.9124
B(  0-C ,  7-H ) :   0.9173 B(  1-C ,  2-O ) :   1.0961 B(  1-C ,  3-H ) :   0.9729
B(  1-C ,  4-H ) :   0.9812 B(  1-C ,  5-H ) :   0.1366 B(  1-C ,  6-H ) :   0.1857
B(  1-C ,  7-H ) :   0.1845 B(  3-H ,  4-H ) :   0.1037

Dispersion correction           -0.003763028
FINAL SINGLE POINT ENERGY      -154.134385618539

DIPOLE MOMENT
-------------
                                X             Y             Z
Electronic contribution:      2.51017      -1.06483       1.22195
Nuclear contribution   :     -3.69910       1.55962      -1.78699
                        -----------------------------------------
Total Dipole Moment    :     -1.18892       0.49479      -0.56504
                        -----------------------------------------
Magnitude (a.u.)       :      1.40628
Magnitude (Debye)      :      3.57448

Rotational constants in cm-1:     1.268893     0.327436     0.287754
Rotational constants in MHz : 38040.440181  9816.269339  8626.646564

                             ****ORCA TERMINATED NORMALLY****
TOTAL RUN TIME: 0 days 0 hours 0 minutes 8 seconds 12 msec
