                         Program Version 5.0.0 -  RELEASE  -
|  1> !PBE D3BJ RIJCOSX def2-SVPD def2/J TightSCF
|  2> *xyz 1 1
|  3> C          3.95643        0.50147       -0.37910
|  4> H          3.16840        0.02920        0.20738
|  5> N          3.80389        1.96157       -0.15675
|  6> C          3.84232        0.14849       -1.85406
|  7> H          4.92323        0.17798        0.00937
|  8> H          4.20643        2.24441        0.74536
|  9> H          2.80827        2.21132       -0.09610
| 10> H          4.28076        2.50155       -0.89104
| 11> H          4.62951        0.62800       -2.39748
| 12> H          2.89665        0.48102       -2.22825
| 13> H          3.92053       -0.91187       -1.97413
| 14> *
| 15>
| 16> %MaxCore 64000
| 17> %pal nprocs 4
| 18> end
| 19>
| 20> %scf
| 21>   MaxIter 150
| 22> end
| 23>
| 24>
| 25>                          ****END OF INPUT****

CARTESIAN COORDINATES (ANGSTROEM)
---------------------------------
  C      3.956430    0.501470   -0.379100
  H      3.168400    0.029200    0.207380
  N      3.803890    1.961570   -0.156750
  C      3.842320    0.148490   -1.854060
  H      4.923230    0.177980    0.009370
  H      4.206430    2.244410    0.745360
  H      2.808270    2.211320   -0.096100
  H      4.280760    2.501550   -0.891040
  H      4.629510    0.628000   -2.397480
  H      2.896650    0.481020   -2.228250
  H      3.920530   -0.911870   -1.974130

 Total Charge           Charge          ....    1
 Multiplicity           Mult            ....    1
 Number of Electrons    NEL             ....   26
 Basis Dimension        Dim             ....  124

ORBITAL ENERGIES
----------------

  NO   OCC          E(Eh)            E(eV)
   0   2.0000     -14.335147      -390.0792
   1   2.0000     -10.149860      -276.1917
   2   2.0000     -10.072996      -274.1002
   3   2.0000      -1.131211       -30.7818
   4   2.0000      -0.893704       -24.3189
   5   2.0000      -0.783071       -21.3084
   6   2.0000      -0.753445       -20.5023
   7   2.0000      -0.735504       -20.0141
   8   2.0000      -0.651858       -17.7380
   9   2.0000      -0.596879       -16.2419
  10   2.0000      -0.541506       -14.7351
  11   2.0000      -0.527108       -14.3433
  12   2.0000      -0.508840       -13.8462
  13   0.0000      -0.217741        -5.9250
  14   0.0000      -0.163846        -4.4585
  15   0.0000      -0.158080        -4.3016
  16   0.0000      -0.145543        -3.9604
  17   0.0000      -0.113009        -3.0751

MULLIKEN ATOMIC CHARGES
-----------------------
   0 C :    0.234491
   1 H :   -0.090061
   2 N :   -0.812599
   3 C :    0.628497
   4 H :   -0.069684
   5 H :    0.355694
   6 H :    0.401860
   7 H :    0.413463
   8 H :   -0.030119
   9 H :    0.006183
  10 H :   -0.037725
Sum of atomic charges:    1.0000000

LOEWDIN ATOMIC CHARGES
----------------------
   0 C :    0.045421
   1 H :    0.054465
   2 N :    0.333060
   3 C :    0.172433
   4 H :    0.055367
   5 H :    0.104882
   6 H :    0.108621
   7 H :    0.104652
   8 H :    0.001729
   9 H :    0.002476
  10 H :    0.016894

  Mayer bond orders larger than 0.100000
B(  0-C ,  1-H ) :   0.8960 B(  0-C ,  2-N ) :   0.7789 B(  0-C ,  3-C ) :   1.3682
B(  0-C ,  4-H ) :   0.9161 B(  0-C ,  8-H ) :   0.1696 B(  0-C ,  9-H ) :   0.1532
B(  0-C , 10-H ) :   0.1969 B(  1-H ,  2-N ) :   0.1289 B(  2-N ,  5-H ) :   0.7558
B(  2-N ,  6-H ) :   0.6984 B(  2-N ,  7-H ) :   0.6640 B(  3-C ,  8-H ) :   0.8289
B(  3-C ,  9-H ) :   0.8157 B(  3-C , 10-H ) :   0.8134

Dispersion correction           -0.006160709
FINAL SINGLE POINT ENERGY      -135.257936968923

DIPOLE MOMENT
-------------
                                X             Y             Z
Electronic contribution:     -0.01305       1.32356       1.23988
Nuclear contribution   :     -0.06214      -0.04120      -0.39947
                        -----------------------------------------
Total Dipole Moment    :     -0.07519       1.28236       0.84041
                        -----------------------------------------
Magnitude (a.u.)       :      1.53505
Magnitude (Debye)      :      3.90178

Rotational constants in cm-1:     1.011771     0.281435     0.249812
Rotational constants in MHz : 30332.138762  8437.210602  7489.166323

                             ****ORCA TERMINATED NORMALLY****
TOTAL RUN TIME: 0 days 0 hours 0 minutes 7 seconds 517 msec
