                         Program Version 5.0.0 -  RELEASE  -
|  1> !PBE D3BJ RIJCOSX def2-SVPD def2/J TightSCF
|  2> *xyz 0 1
|  3> C         -0.77455        2.78833       -0.54394
|  4> C          0.69721        3.22791       -0.52513
|  5> F          1.48929        2.37470        0.19919
|  6> H          0.71600        4.26403       -0.13077
|  7> H          1.03615        3.33092       -1.58367
|  8> H         -1.34746        3.48478       -1.11982
|  9> H         -1.15078        2.75876        0.45729
| 10> H         -0.85058        1.81526       -0.98241
| 11> *
| 12>
| 13> %MaxCore 64000
| 14> %pal nprocs 4
| 15> end
| 16>
| 17> %scf
| 18>   MaxIter 150
| 19> end
| 20>
| 21>
| 22>                          ****END OF INPUT****

CARTESIAN COORDINATES (ANGSTROEM)
---------------------------------
  C     -0.774550    2.788330   -0.543940
  C      0.697210    3.227910   -0.525130
  F      1.489290    2.374700    0.199190
  H      0.716000    4.264030   -0.130770
  H      1.036150    3.330920   -1.583670
  H     -1.347460    3.484780   -1.119820
  H     -1.150780    2.758760    0.457290
  H     -0.850580    1.815260   -0.982410

 Total Charge           Charge          ....    0
 Multiplicity           Mult            ....    1
 Number of Electrons    NEL             ....   26
 Basis Dimension        Dim             ....  103

ORBITAL ENERGIES
----------------

  NO   OCC          E(Eh)            E(eV)
   0   2.0000     -24.265196      -660.2895
   1   2.0000      -9.974776      -271.4275
   2   2.0000      -9.893078      -269.2043
   3   2.0000      -1.085894       -29.5487
   4   2.0000      -0.689128       -18.7521
   5   2.0000      -0.564911       -15.3720
   6   2.0000      -0.459235       -12.4964
   7   2.0000      -0.441150       -12.0043
   8   2.0000      -0.405854       -11.0438
   9   2.0000      -0.356651        -9.7050
  10   2.0000      -0.355392        -9.6707
  11   2.0000      -0.290920        -7.9163
  12   2.0000      -0.284329        -7.7370
  13   0.0000       0.005098         0.1387
  14   0.0000       0.037072         1.0088
  15   0.0000       0.049692         1.3522
  16   0.0000       0.060914         1.6575
  17   0.0000       0.084187         2.2909

MULLIKEN ATOMIC CHARGES
-----------------------
   0 C :    0.346255
   1 C :    0.385809
   2 F :   -0.417308
   3 H :   -0.073957
   4 H :   -0.061741
   5 H :   -0.044396
   6 H :   -0.065932
   7 H :   -0.068730
Sum of atomic charges:   -0.0000000

LOEWDIN ATOMIC CHARGES
----------------------
   0 C :    0.133597
   1 C :    0.045649
   2 F :   -0.196855
   3 H :    0.027823
   4 H :    0.032700
   5 H :   -0.013182
   6 H :   -0.014601
   7 H :   -0.015131

  Mayer bond orders larger than 0.100000
B(  0-C ,  1-C ) :   1.3757 B(  0-C ,  5-H ) :   0.8538 B(  0-C ,  6-H ) :   0.8813
B(  0-C ,  7-H ) :   0.8853 B(  1-C ,  2-F ) :   0.7794 B(  1-C ,  3-H ) :   0.9301
B(  1-C ,  4-H ) :   0.9336 B(  1-C ,  5-H ) :   0.1270 B(  1-C ,  6-H ) :   0.1500
B(  1-C ,  7-H ) :   0.1480

Dispersion correction           -0.003481434
FINAL SINGLE POINT ENERGY      -178.727441850805

DIPOLE MOMENT
-------------
                                X             Y             Z
Electronic contribution:      4.42198      -1.66575       2.01061
Nuclear contribution   :     -4.89513       2.05627      -2.36166
                        -----------------------------------------
Total Dipole Moment    :     -0.47315       0.39052      -0.35106
                        -----------------------------------------
Magnitude (a.u.)       :      0.70684
Magnitude (Debye)      :      1.79663

Rotational constants in cm-1:     1.247826     0.304622     0.269019
Rotational constants in MHz : 37408.889506  9132.346906  8064.979146

                             ****ORCA TERMINATED NORMALLY****
TOTAL RUN TIME: 0 days 0 hours 0 minutes 6 seconds 631 msec
