                         Program Version 5.0.0 -  RELEASE  -
|  1> !PBE D3BJ RIJCOSX def2-SVPD def2/J TightSCF
|  2> *xyz 0 1
|  3> C          3.95643        0.50147       -0.37910
|  4> H          3.16840        0.02920        0.20738
|  5> C          3.80389        1.96157       -0.15675
|  6> C          3.84232        0.14849       -1.85406
|  7> H          4.92323        0.17798        0.00937
|  8> H          4.20643        2.24441        0.74536
|  9> H          2.80827        2.21132       -0.09610
| 10> H          4.28076        2.50155       -0.89104
| 11> H          4.62951        0.62800       -2.39748
| 12> H          2.89665        0.48102       -2.22825
| 13> H          3.92053       -0.91187       -1.97413
| 14> *
| 15>
| 16> %MaxCore 64000
| 17> %pal nprocs 4
| 18> end
| 19>
| 20> %scf
| 21>   MaxIter 150
| 22> end
| 23>
| 24>
| 25>                          ****END OF INPUT****

CARTESIAN COORDINATES (ANGSTROEM)
---------------------------------
  C      3.956430    0.501470   -0.379100
  H      3.168400    0.029200    0.207380
  C      3.803890    1.961570   -0.156750
  C      3.842320    0.148490   -1.854060
  H      4.923230    0.177980    0.009370
  H      4.206430    2.244410    0.745360
  H      2.808270    2.211320   -0.096100
  H      4.280760    2.501550   -0.891040
  H      4.629510    0.628000   -2.397480
  H      2.896650    0.481020   -2.228250
  H      3.920530   -0.911870   -1.974130

 Total Charge           Charge          ....    0
 Multiplicity           Mult            ....    1
 Number of Electrons    NEL             ....   26
 Basis Dimension        Dim             ....  124

ORBITAL ENERGIES
----------------

  NO   OCC          E(Eh)            E(eV)
   0   2.0000      -9.883705      -268.9493
   1   2.0000      -9.874876      -268.7090
   2   2.0000      -9.858265      -268.2570
   3   2.0000      -0.714104       -19.4318
   4   2.0000      -0.617917       -16.8144
   5   2.0000      -0.520741       -14.1701
   6   2.0000      -0.419976       -11.4281
   7   2.0000      -0.398153       -10.8343
   8   2.0000      -0.357326        -9.7233
   9   2.0000      -0.345276        -9.3954
  10   2.0000      -0.296738        -8.0747
  11   2.0000      -0.294025        -8.0008
  12   2.0000      -0.283658        -7.7187
  13   0.0000       0.009383         0.2553
  14   0.0000       0.039979         1.0879
  15   0.0000       0.046073         1.2537
  16   0.0000       0.062663         1.7052
  17   0.0000       0.083514         2.2725

MULLIKEN ATOMIC CHARGES
-----------------------
   0 C :   -0.607797
   1 H :   -0.092709
   2 C :    0.947548
   3 C :    0.637378
   4 H :   -0.099725
   5 H :   -0.201394
   6 H :   -0.161693
   7 H :   -0.224808
   8 H :   -0.032704
   9 H :   -0.056495
  10 H :   -0.107599
Sum of atomic charges:    0.0000000

LOEWDIN ATOMIC CHARGES
----------------------
   0 C :   -0.123597
   1 H :    0.022207
   2 C :    0.112426
   3 C :    0.113882
   4 H :    0.022156
   5 H :   -0.034690
   6 H :   -0.028187
   7 H :   -0.030887
   8 H :   -0.016511
   9 H :   -0.014686
  10 H :   -0.022114

  Mayer bond orders larger than 0.100000
B(  0-C ,  1-H ) :   0.9237 B(  0-C ,  2-C ) :   1.3326 B(  0-C ,  3-C ) :   1.3126
B(  0-C ,  4-H ) :   0.9283 B(  0-C ,  5-H ) :   0.2252 B(  0-C ,  6-H ) :   0.2680
B(  0-C ,  7-H ) :   0.2104 B(  0-C ,  8-H ) :   0.1684 B(  0-C ,  9-H ) :   0.1941
B(  0-C , 10-H ) :   0.2014 B(  1-H ,  2-C ) :   0.1345 B(  2-C ,  5-H ) :   0.6881
B(  2-C ,  6-H ) :   0.6694 B(  2-C ,  7-H ) :   0.7374 B(  3-C ,  8-H ) :   0.8227
B(  3-C ,  9-H ) :   0.8244 B(  3-C , 10-H ) :   0.8163

Dispersion correction           -0.006158132
FINAL SINGLE POINT ENERGY      -118.863969985299

DIPOLE MOMENT
-------------
                                X             Y             Z
Electronic contribution:      0.08075      -0.29765       0.23666
Nuclear contribution   :     -0.08172       0.30475      -0.19303
                        -----------------------------------------
Total Dipole Moment    :     -0.00097       0.00710       0.04363
                        -----------------------------------------
Magnitude (a.u.)       :      0.04421
Magnitude (Debye)      :      0.11238

Rotational constants in cm-1:     1.020248     0.295755     0.261591
Rotational constants in MHz : 30586.266829  8866.511639  7842.297953

                             ****ORCA TERMINATED NORMALLY****
TOTAL RUN TIME: 0 days 0 hours 0 minutes 7 seconds 292 msec
