                         Program Version 5.0.0 -  RELEASE  -
|  1> !wB97X-D3 RIJCOSX def2-TZVPD def2/J TightSCF
|  2> *xyz -1 1
|  3> C          2.49556        1.81615       -2.13636
|  4> C          1.87218        0.42790       -2.07750
|  5> H          2.61427       -0.36583       -2.19889
|  6> H          1.38995        0.27309       -1.11236
|  7> S          0.57902        0.14047       -3.29794
|  8> O          0.22886       -1.24687       -3.12787
|  9> O         -0.43927        1.11897       -3.01455
| 10> O          1.24788        0.40347       -4.59565
| 11> H          2.96535        1.95613       -3.08747
| 12> H          3.22581        1.91242       -1.36024
| 13> H          1.73350        2.55528       -2.00274
| 14> *
| 15>
| 16> %MaxCore 64000
| 17>
| 18> %pal nprocs 4
| 19> end
| 20>
| 21> %scf
| 22>   MaxIter 150
| 23> end
| 24>
| 25>
| 26>                          ****END OF INPUT****

CARTESIAN COORDINATES (ANGSTROEM)
---------------------------------
  C      2.495560    1.816150   -2.136360
  C      1.872180    0.427900   -2.077500
  H      2.614270   -0.365830   -2.198890
  H      1.389950    0.273090   -1.112360
  S      0.579020    0.140470   -3.297940
  O      0.228860   -1.246870   -3.127870
  O     -0.439270    1.118970   -3.014550
  O      1.247880    0.403470   -4.595650
  H      2.965350    1.956130   -3.087470
  H      3.225810    1.912420   -1.360240
  H      1.733500    2.555280   -2.002740

 Total Charge           Charge          ....   -1
 Multiplicity           Mult            ....    1
 Number of Electrons    NEL             ....   58
 Basis Dimension        Dim             ....  285

ORBITAL ENERGIES
----------------

  NO   OCC          E(Eh)            E(eV)
   0   2.0000     -88.933281     -2419.9976
   1   2.0000     -19.011870      -517.3393
   2   2.0000     -19.011785      -517.3370
   3   2.0000     -18.997273      -516.9421
   4   2.0000     -10.133525      -275.7472
   5   2.0000     -10.125857      -275.5386
   6   2.0000      -7.996387      -217.5928
   7   2.0000      -5.950693      -161.9266
   8   2.0000      -5.949380      -161.8909
   9   2.0000      -5.949061      -161.8822
  10   2.0000      -1.042241       -28.3608
  11   2.0000      -0.912271       -24.8242
  12   2.0000      -0.885881       -24.1060
  13   2.0000      -0.746792       -20.3212
  14   2.0000      -0.615268       -16.7423
  15   2.0000      -0.486598       -13.2410
  16   2.0000      -0.418296       -11.3824
  17   2.0000      -0.416840       -11.3428
  18   2.0000      -0.375354       -10.2139
  19   2.0000      -0.363570        -9.8932
  20   2.0000      -0.352315        -9.5870
  21   2.0000      -0.324971        -8.8429
  22   2.0000      -0.305604        -8.3159
  23   2.0000      -0.251436        -6.8419
  24   2.0000      -0.250117        -6.8060
  25   2.0000      -0.214294        -5.8312
  26   2.0000      -0.202345        -5.5061
  27   2.0000      -0.193162        -5.2562
  28   2.0000      -0.159725        -4.3463
  29   0.0000       0.176513         4.8032
  30   0.0000       0.186034         5.0623
  31   0.0000       0.186998         5.0885
  32   0.0000       0.193114         5.2549
  33   0.0000       0.221824         6.0361

MULLIKEN ATOMIC CHARGES
-----------------------
   0 C :   -1.215292
   1 C :   -0.334488
   2 H :    0.291694
   3 H :    0.277451
   4 S :    1.186171
   5 O :   -0.690854
   6 O :   -0.704222
   7 O :   -0.739357
   8 H :    0.306976
   9 H :    0.315381
  10 H :    0.306540
Sum of atomic charges:   -1.0000000

LOEWDIN ATOMIC CHARGES
----------------------
   0 C :   -0.150878
   1 C :   -0.332747
   2 H :    0.085604
   3 H :    0.081114
   4 S :    0.342970
   5 O :   -0.391109
   6 O :   -0.384549
   7 O :   -0.419714
   8 H :    0.059226
   9 H :    0.049425
  10 H :    0.060659

  Mayer bond orders larger than 0.100000
B(  0-C ,  1-C ) :   0.7305 B(  0-C ,  4-S ) :   0.1143 B(  0-C ,  8-H ) :   0.9778
B(  0-C ,  9-H ) :   0.9216 B(  0-C , 10-H ) :   0.9700 B(  1-C ,  2-H ) :   0.9356
B(  1-C ,  3-H ) :   0.9488 B(  1-C ,  4-S ) :   0.8272 B(  1-C ,  5-O ) :   0.1392
B(  1-C ,  6-O ) :   0.1122 B(  4-S ,  5-O ) :   1.5189 B(  4-S ,  6-O ) :   1.5355
B(  4-S ,  7-O ) :   1.4895

Dispersion correction           -0.002932987
FINAL SINGLE POINT ENERGY      -703.224906309709

DIPOLE MOMENT
-------------
                                X             Y             Z
Electronic contribution:     -5.66583      -3.58311      -4.06450
Nuclear contribution   :      6.89220       4.11756       5.35566
                        -----------------------------------------
Total Dipole Moment    :      1.22636       0.53445       1.29116
                        -----------------------------------------
Magnitude (a.u.)       :      1.85922
Magnitude (Debye)      :      4.72576

Rotational constants in cm-1:     0.162183     0.084017     0.082390
Rotational constants in MHz :  4862.117324  2518.774315  2469.980309

                             ****ORCA TERMINATED NORMALLY****
TOTAL RUN TIME: 0 days 0 hours 1 minutes 2 seconds 29 msec
