                         Program Version 5.0.0 -  RELEASE  -
|  1> !wB97X-D3 RIJCOSX def2-TZVPD def2/J TightSCF
|  2> *xyz 1 1
|  3> C          3.38093        2.08304       -3.35013
|  4> N          4.53592        1.18245       -3.42852
|  5> C          2.49556        1.81615       -2.13636
|  6> C          4.67196        0.12227       -4.22060
|  7> N          5.86602       -0.50785       -4.22428
|  8> N          3.69888       -0.31284       -4.98699
|  9> H          2.73141       -0.05009       -4.84900
| 10> H          3.89005       -1.05517       -5.64373
| 11> H          5.25193        1.30346       -2.72101
| 12> H          6.69516       -0.06232       -3.85160
| 13> H          5.97538       -1.39688       -4.69141
| 14> H          2.80646        1.98651       -4.26848
| 15> H          3.77871        3.09828       -3.30738
| 16> H          2.11090        0.81901       -2.18783
| 17> H          1.68276        2.51198       -2.12786
| 18> H          3.07216        1.93031       -1.24227
| 19> *
| 20>
| 21> %MaxCore 64000
| 22>
| 23> %pal nprocs 4
| 24> end
| 25>
| 26> %scf
| 27>   MaxIter 150
| 28> end
| 29>
| 30>
| 31>                          ****END OF INPUT****

CARTESIAN COORDINATES (ANGSTROEM)
---------------------------------
  C      3.380930    2.083040   -3.350130
  N      4.535920    1.182450   -3.428520
  C      2.495560    1.816150   -2.136360
  C      4.671960    0.122270   -4.220600
  N      5.866020   -0.507850   -4.224280
  N      3.698880   -0.312840   -4.986990
  H      2.731410   -0.050090   -4.849000
  H      3.890050   -1.055170   -5.643730
  H      5.251930    1.303460   -2.721010
  H      6.695160   -0.062320   -3.851600
  H      5.975380   -1.396880   -4.691410
  H      2.806460    1.986510   -4.268480
  H      3.778710    3.098280   -3.307380
  H      2.110900    0.819010   -2.187830
  H      1.682760    2.511980   -2.127860
  H      3.072160    1.930310   -1.242270

 Total Charge           Charge          ....    1
 Multiplicity           Mult            ....    1
 Number of Electrons    NEL             ....   48
 Basis Dimension        Dim             ....  312

ORBITAL ENERGIES
----------------

  NO   OCC          E(Eh)            E(eV)
   0   2.0000     -14.647287      -398.5729
   1   2.0000     -14.643551      -398.4713
   2   2.0000     -14.639190      -398.3526
   3   2.0000     -10.613983      -288.8212
   4   2.0000     -10.480620      -285.1922
   5   2.0000     -10.407205      -283.1944
   6   2.0000      -1.331626       -36.2354
   7   2.0000      -1.219697       -33.1896
   8   2.0000      -1.204376       -32.7727
   9   2.0000      -1.044599       -28.4250
  10   2.0000      -0.950269       -25.8581
  11   2.0000      -0.910667       -24.7805
  12   2.0000      -0.889594       -24.2071
  13   2.0000      -0.844856       -22.9897
  14   2.0000      -0.795149       -21.6371
  15   2.0000      -0.790508       -21.5108
  16   2.0000      -0.740927       -20.1616
  17   2.0000      -0.732158       -19.9230
  18   2.0000      -0.702543       -19.1172
  19   2.0000      -0.654704       -17.8154
  20   2.0000      -0.625518       -17.0212
  21   2.0000      -0.608453       -16.5568
  22   2.0000      -0.571837       -15.5605
  23   2.0000      -0.537695       -14.6314
  24   0.0000      -0.089810        -2.4439
  25   0.0000      -0.084785        -2.3071
  26   0.0000      -0.055365        -1.5065
  27   0.0000      -0.047660        -1.2969
  28   0.0000      -0.023738        -0.6459

MULLIKEN ATOMIC CHARGES
-----------------------
   0 C :   -0.605557
   1 N :   -0.180955
   2 C :   -0.964977
   3 C :    0.863743
   4 N :   -0.438269
   5 N :   -0.376288
   6 H :    0.228360
   7 H :    0.211115
   8 H :    0.239109
   9 H :    0.224929
  10 H :    0.205748
  11 H :    0.350054
  12 H :    0.264015
  13 H :    0.299008
  14 H :    0.346876
  15 H :    0.333090
Sum of atomic charges:    1.0000000

LOEWDIN ATOMIC CHARGES
----------------------
   0 C :   -0.199508
   1 N :    0.080472
   2 C :   -0.063586
   3 C :   -0.427091
   4 N :    0.189849
   5 N :    0.217568
   6 H :    0.138808
   7 H :    0.143725
   8 H :    0.169258
   9 H :    0.138377
  10 H :    0.134413
  11 H :    0.115082
  12 H :    0.129353
  13 H :    0.072856
  14 H :    0.083098
  15 H :    0.077326

  Mayer bond orders larger than 0.100000
B(  0-C ,  1-N ) :   0.9492 B(  0-C ,  2-C ) :   0.7160 B(  0-C ,  3-C ) :  -0.1505
B(  0-C , 11-H ) :   0.8716 B(  0-C , 12-H ) :   0.9751 B(  1-N ,  3-C ) :   1.2091
B(  1-N ,  4-N ) :   0.1217 B(  1-N ,  8-H ) :   0.9802 B(  2-C , 13-H ) :   0.9683
B(  2-C , 14-H ) :   0.9516 B(  2-C , 15-H ) :   0.9270 B(  3-C ,  4-N ) :   0.9829
B(  3-C ,  5-N ) :   1.1285 B(  4-N ,  9-H ) :   0.9846 B(  4-N , 10-H ) :   1.0297
B(  5-N ,  6-H ) :   0.9517 B(  5-N ,  7-H ) :   1.0243

Dispersion correction           -0.003697503
FINAL SINGLE POINT ENERGY      -284.432619560470

DIPOLE MOMENT
-------------
                                X             Y             Z
Electronic contribution:      3.56320      -2.65802      -2.82444
Nuclear contribution   :     -2.93277       1.85779       2.25966
                        -----------------------------------------
Total Dipole Moment    :      0.63044      -0.80023      -0.56478
                        -----------------------------------------
Magnitude (a.u.)       :      1.16481
Magnitude (Debye)      :      2.96071

Rotational constants in cm-1:     0.245511     0.068839     0.059711
Rotational constants in MHz :  7360.233487  2063.743353  1790.088408

                             ****ORCA TERMINATED NORMALLY****
TOTAL RUN TIME: 0 days 0 hours 1 minutes 23 seconds 946 msec
