                         Program Version 5.0.0 -  RELEASE  -
|  1> !wB97X-D3 RIJCOSX def2-TZVPD def2/J TightSCF xyzfile
|  2>
|  3> *xyzfile 0 1 B.xyz
|  4>
|  5> %MaxCore 64000
|  6>
|  7> %pal nprocs 18
|  8> end
|  9>
| 10> %scf
| 11>   MaxIter 150
| 12> end
| 13>
| 14>
| 15>                          ****END OF INPUT****

CARTESIAN COORDINATES (ANGSTROEM)
---------------------------------
  C      3.380928    2.083045   -3.350127
  N      4.535924    1.182447   -3.428518
  C      2.495557    1.816150   -2.136364
  C      1.872181    0.427903   -2.077497
  H      2.614270   -0.365825   -2.198894
  H      1.389953    0.273087   -1.112360
  S      0.579024    0.140472   -3.297943
  C      4.671956    0.122273   -4.220598
  N      5.866023   -0.507849   -4.224284
  N      3.698881   -0.312844   -4.986988
  H      2.731405   -0.050091   -4.849000
  H      3.890046   -1.055172   -5.643730
  H      5.251933    1.303459   -2.721014
  H      6.695165   -0.062322   -3.851596
  H      5.975383   -1.396884   -4.691414
  O      0.228860   -1.246868   -3.127871
  O     -0.439269    1.118966   -3.014550
  O      1.247881    0.403474   -4.595647
  H      1.697003    2.561969   -2.141109
  H      3.080787    1.987436   -1.225838
  H      2.806463    1.986511   -4.268484
  H      3.778714    3.098282   -3.307383

 Total Charge           Charge          ....    0
 Multiplicity           Mult            ....    1
 Number of Electrons    NEL             ....   96
 Basis Dimension        Dim             ....  524

ORBITAL ENERGIES
----------------

  NO   OCC          E(Eh)            E(eV)
   0   2.0000     -89.079810     -2423.9849
   1   2.0000     -19.163382      -521.4621
   2   2.0000     -19.148368      -521.0536
   3   2.0000     -19.148237      -521.0500
   4   2.0000     -14.516654      -395.0182
   5   2.0000     -14.512055      -394.8931
   6   2.0000     -14.481222      -394.0541
   7   2.0000     -10.475839      -285.0621
   8   2.0000     -10.340126      -281.3691
   9   2.0000     -10.290513      -280.0191
  10   2.0000     -10.276445      -279.6363
  11   2.0000      -8.143003      -221.5824
  12   2.0000      -6.097574      -165.9234
  13   2.0000      -6.096347      -165.8900
  14   2.0000      -6.095038      -165.8544
  15   2.0000      -1.195798       -32.5393
  16   2.0000      -1.188328       -32.3360
  17   2.0000      -1.084362       -29.5070
  18   2.0000      -1.068871       -29.0854
  19   2.0000      -1.048536       -28.5321
  20   2.0000      -1.047569       -28.5058
  21   2.0000      -0.926259       -25.2048
  22   2.0000      -0.852141       -23.1879
  23   2.0000      -0.795558       -21.6482
  24   2.0000      -0.756097       -20.5745
  25   2.0000      -0.748102       -20.3569
  26   2.0000      -0.710172       -19.3248
  27   2.0000      -0.666758       -18.1434
  28   2.0000      -0.651376       -17.7248
  29   2.0000      -0.633596       -17.2410
  30   2.0000      -0.612033       -16.6543
  31   2.0000      -0.589146       -16.0315
  32   2.0000      -0.574821       -15.6417
  33   2.0000      -0.552109       -15.0237
  34   2.0000      -0.535926       -14.5833
  35   2.0000      -0.519754       -14.1432
  36   2.0000      -0.499761       -13.5992
  37   2.0000      -0.477431       -12.9916
  38   2.0000      -0.470391       -12.8000
  39   2.0000      -0.458058       -12.4644
  40   2.0000      -0.435025       -11.8376
  41   2.0000      -0.404402       -11.0043
  42   2.0000      -0.399722       -10.8770
  43   2.0000      -0.392492       -10.6803
  44   2.0000      -0.358917        -9.7666
  45   2.0000      -0.349754        -9.5173
  46   2.0000      -0.339580        -9.2404
  47   2.0000      -0.309494        -8.4218
  48   0.0000       0.016390         0.4460
  49   0.0000       0.043647         1.1877
  50   0.0000       0.051030         1.3886
  51   0.0000       0.066192         1.8012
  52   0.0000       0.075948         2.0667

MULLIKEN ATOMIC CHARGES
-----------------------
   0 C :   -0.767481
   1 N :   -0.183947
   2 C :   -0.484205
   3 C :   -0.578238
   4 H :    0.240464
   5 H :    0.348472
   6 S :    1.209941
   7 C :    0.729673
   8 N :   -0.445920
   9 N :   -0.216947
  10 H :    0.168428
  11 H :    0.201236
  12 H :    0.254041
  13 H :    0.212570
  14 H :    0.198316
  15 O :   -0.685944
  16 O :   -0.682160
  17 O :   -0.826675
  18 H :    0.315460
  19 H :    0.283468
  20 H :    0.472211
  21 H :    0.237234
Sum of atomic charges:   -0.0000000

LOEWDIN ATOMIC CHARGES
----------------------
   0 C :   -0.159380
   1 N :    0.082513
   2 C :   -0.204371
   3 C :   -0.253739
   4 H :    0.090370
   5 H :    0.102694
   6 S :    0.416880
   7 C :   -0.438612
   8 N :    0.163879
   9 N :    0.230172
  10 H :    0.025596
  11 H :    0.139348
  12 H :    0.159927
  13 H :    0.123358
  14 H :    0.123214
  15 O :   -0.342149
  16 O :   -0.331618
  17 O :   -0.396428
  18 H :    0.120073
  19 H :    0.110397
  20 H :    0.113767
  21 H :    0.124110

  Mayer bond orders larger than 0.100000
B(  0-C ,  1-N ) :   0.9968 B(  0-C ,  2-C ) :   0.8785 B(  0-C ,  7-C ) :  -0.1622
B(  0-C , 20-H ) :   0.7915 B(  0-C , 21-H ) :   0.9557 B(  1-N ,  7-C ) :   1.2203
B(  1-N ,  8-N ) :   0.1239 B(  1-N , 12-H ) :   0.9404 B(  2-C ,  3-C ) :   1.1363
B(  2-C ,  6-S ) :   0.1846 B(  2-C , 18-H ) :   0.9502 B(  2-C , 19-H ) :   0.8953
B(  3-C ,  4-H ) :   0.9280 B(  3-C ,  5-H ) :   0.8944 B(  3-C ,  6-S ) :   0.7770
B(  3-C , 15-O ) :   0.1469 B(  3-C , 16-O ) :   0.1143 B(  6-S , 15-O ) :   1.4880
B(  6-S , 16-O ) :   1.5098 B(  6-S , 17-O ) :   1.3815 B(  7-C ,  8-N ) :   0.9574
B(  7-C ,  9-N ) :   1.2385 B(  8-N , 13-H ) :   0.9851 B(  8-N , 14-H ) :   1.0293
B(  9-N , 10-H ) :   0.8112 B(  9-N , 11-H ) :   1.0219 B(  9-N , 17-O ) :  -0.1040
B( 10-H , 17-O ) :   0.1679

Dispersion correction           -0.009899726
FINAL SINGLE POINT ENERGY      -947.281850809520

DIPOLE MOMENT
-------------
                                X             Y             Z
Electronic contribution:     -7.04202      -3.19714      -2.43939
Nuclear contribution   :     13.40759       3.44219       2.21042
                        -----------------------------------------
Total Dipole Moment    :      6.36558       0.24505      -0.22897
                        -----------------------------------------
Magnitude (a.u.)       :      6.37441
Magnitude (Debye)      :     16.20245

Rotational constants in cm-1:     0.059860     0.020817     0.017914
Rotational constants in MHz :  1794.564877   624.092098   537.039275

                             ****ORCA TERMINATED NORMALLY****
TOTAL RUN TIME: 0 days 0 hours 1 minutes 39 seconds 448 msec
