                         Program Version 5.0.0 -  RELEASE  -
|  1> !wB97X-D3 RIJCOSX def2-TZVPD def2/J TightSCF
|  2> *xyz 0 1
|  3> C          2.49556        1.81615       -2.13636
|  4> C          1.87218        0.42790       -2.07750
|  5> H          2.61427       -0.36583       -2.19889
|  6> H          1.38995        0.27309       -1.11236
|  7> S          0.57902        0.14047       -3.29794
|  8> F          0.22886       -1.24687       -3.12787
|  9> O         -0.43927        1.11897       -3.01455
| 10> O          1.24788        0.40347       -4.59565
| 11> H          2.96535        1.95613       -3.08747
| 12> H          3.22581        1.91242       -1.36024
| 13> H          1.73350        2.55528       -2.00274
| 14> *
| 15>
| 16> %MaxCore 64000
| 17>
| 18> %pal nprocs 4
| 19> end
| 20>
| 21> %scf
| 22>   MaxIter 150
| 23> end
| 24>
| 25>
| 26>                          ****END OF INPUT****

CARTESIAN COORDINATES (ANGSTROEM)
---------------------------------
  C      2.495560    1.816150   -2.136360
  C      1.872180    0.427900   -2.077500
  H      2.614270   -0.365830   -2.198890
  H      1.389950    0.273090   -1.112360
  S      0.579020    0.140470   -3.297940
  F      0.228860   -1.246870   -3.127870
  O     -0.439270    1.118970   -3.014550
  O      1.247880    0.403470   -4.595650
  H      2.965350    1.956130   -3.087470
  H      3.225810    1.912420   -1.360240
  H      1.733500    2.555280   -2.002740

 Total Charge           Charge          ....    0
 Multiplicity           Mult            ....    1
 Number of Electrons    NEL             ....   58
 Basis Dimension        Dim             ....  285

ORBITAL ENERGIES
----------------

  NO   OCC          E(Eh)            E(eV)
   0   2.0000     -89.196231     -2427.1528
   1   2.0000     -24.910575      -677.8512
   2   2.0000     -19.246437      -523.7222
   3   2.0000     -19.231491      -523.3155
   4   2.0000     -10.335766      -281.2505
   5   2.0000     -10.289648      -279.9956
   6   2.0000      -8.259859      -224.7622
   7   2.0000      -6.217141      -169.1770
   8   2.0000      -6.210883      -169.0067
   9   2.0000      -6.210502      -168.9964
  10   2.0000      -1.504253       -40.9328
  11   2.0000      -1.223432       -33.2913
  12   2.0000      -1.120344       -30.4861
  13   2.0000      -0.937434       -25.5089
  14   2.0000      -0.849584       -23.1183
  15   2.0000      -0.784813       -21.3558
  16   2.0000      -0.695874       -18.9357
  17   2.0000      -0.694353       -18.8943
  18   2.0000      -0.661322       -17.9955
  19   2.0000      -0.595703       -16.2099
  20   2.0000      -0.585008       -15.9189
  21   2.0000      -0.543387       -14.7863
  22   2.0000      -0.527425       -14.3520
  23   2.0000      -0.505811       -13.7638
  24   2.0000      -0.484906       -13.1950
  25   2.0000      -0.482426       -13.1275
  26   2.0000      -0.431330       -11.7371
  27   2.0000      -0.416459       -11.3324
  28   2.0000      -0.402321       -10.9477
  29   0.0000       0.048676         1.3245
  30   0.0000       0.063548         1.7292
  31   0.0000       0.068467         1.8631
  32   0.0000       0.072990         1.9861
  33   0.0000       0.099310         2.7024

MULLIKEN ATOMIC CHARGES
-----------------------
   0 C :   -1.258568
   1 C :   -0.368079
   2 H :    0.361831
   3 H :    0.350498
   4 S :    1.187703
   5 F :   -0.112232
   6 O :   -0.577711
   7 O :   -0.609765
   8 H :    0.347120
   9 H :    0.327165
  10 H :    0.352037
Sum of atomic charges:    0.0000000

LOEWDIN ATOMIC CHARGES
----------------------
   0 C :   -0.106650
   1 C :   -0.288847
   2 H :    0.102633
   3 H :    0.098413
   4 S :    0.594309
   5 F :   -0.049516
   6 O :   -0.271955
   7 O :   -0.305615
   8 H :    0.075230
   9 H :    0.075635
  10 H :    0.076363

  Mayer bond orders larger than 0.100000
B(  0-C ,  1-C ) :   0.7993 B(  0-C ,  4-S ) :   0.1115 B(  0-C ,  8-H ) :   0.9392
B(  0-C ,  9-H ) :   0.9274 B(  0-C , 10-H ) :   0.9268 B(  1-C ,  2-H ) :   0.8601
B(  1-C ,  3-H ) :   0.8756 B(  1-C ,  4-S ) :   0.8238 B(  4-S ,  5-F ) :   0.9973
B(  4-S ,  6-O ) :   1.6943 B(  4-S ,  7-O ) :   1.6446

Dispersion correction           -0.002931511
FINAL SINGLE POINT ENERGY      -727.740604279135

DIPOLE MOMENT
-------------
                                X             Y             Z
Electronic contribution:     -6.81932      -6.41719      -4.08369
Nuclear contribution   :      7.60530       5.82028       5.38743
                        -----------------------------------------
Total Dipole Moment    :      0.78597      -0.59691       1.30374
                        -----------------------------------------
Magnitude (a.u.)       :      1.63518
Magnitude (Debye)      :      4.15629

Rotational constants in cm-1:     0.157861     0.081452     0.078859
Rotational constants in MHz :  4732.562506  2441.865430  2364.129821

                             ****ORCA TERMINATED NORMALLY****
TOTAL RUN TIME: 0 days 0 hours 1 minutes 8 seconds 920 msec
