                         Program Version 5.0.0 -  RELEASE  -
|  1> !wB97X-D3 RIJCOSX def2-TZVPD def2/J TightSCF
|  2> *xyz 0 1
|  3> C          3.38093        2.08304       -3.35013
|  4> C          4.53592        1.18245       -3.42852
|  5> C          2.49556        1.81615       -2.13636
|  6> C          4.67196        0.12227       -4.22060
|  7> N          5.86602       -0.50785       -4.22428
|  8> N          3.69888       -0.31284       -4.98699
|  9> H          2.73141       -0.05009       -4.84900
| 10> H          3.89005       -1.05517       -5.64373
| 11> H          5.25193        1.30346       -2.72101
| 12> H          6.69516       -0.06232       -3.85160
| 13> H          5.97538       -1.39688       -4.69141
| 14> H          2.80646        1.98651       -4.26848
| 15> H          3.77871        3.09828       -3.30738
| 16> H          2.11090        0.81901       -2.18783
| 17> H          1.68276        2.51198       -2.12786
| 18> H          3.07216        1.93031       -1.24227
| 19> *
| 20>
| 21> %MaxCore 64000
| 22>
| 23> %pal nprocs 4
| 24> end
| 25>
| 26> %scf
| 27>   MaxIter 150
| 28> end
| 29>
| 30>
| 31>                          ****END OF INPUT****

CARTESIAN COORDINATES (ANGSTROEM)
---------------------------------
  C      3.380930    2.083040   -3.350130
  C      4.535920    1.182450   -3.428520
  C      2.495560    1.816150   -2.136360
  C      4.671960    0.122270   -4.220600
  N      5.866020   -0.507850   -4.224280
  N      3.698880   -0.312840   -4.986990
  H      2.731410   -0.050090   -4.849000
  H      3.890050   -1.055170   -5.643730
  H      5.251930    1.303460   -2.721010
  H      6.695160   -0.062320   -3.851600
  H      5.975380   -1.396880   -4.691410
  H      2.806460    1.986510   -4.268480
  H      3.778710    3.098280   -3.307380
  H      2.110900    0.819010   -2.187830
  H      1.682760    2.511980   -2.127860
  H      3.072160    1.930310   -1.242270

 Total Charge           Charge          ....    0
 Multiplicity           Mult            ....    1
 Number of Electrons    NEL             ....   48
 Basis Dimension        Dim             ....  312

ORBITAL ENERGIES
----------------

  NO   OCC          E(Eh)            E(eV)
   0   2.0000     -14.424216      -392.5029
   1   2.0000     -14.416833      -392.3020
   2   2.0000     -10.319741      -280.8144
   3   2.0000     -10.246945      -278.8336
   4   2.0000     -10.236911      -278.5605
   5   2.0000     -10.193968      -277.3920
   6   2.0000      -1.078603       -29.3503
   7   2.0000      -0.984070       -26.7779
   8   2.0000      -0.886899       -24.1337
   9   2.0000      -0.807134       -21.9632
  10   2.0000      -0.725788       -19.7497
  11   2.0000      -0.683242       -18.5919
  12   2.0000      -0.646099       -17.5813
  13   2.0000      -0.608751       -16.5650
  14   2.0000      -0.577894       -15.7253
  15   2.0000      -0.540980       -14.7208
  16   2.0000      -0.514161       -13.9910
  17   2.0000      -0.493166       -13.4197
  18   2.0000      -0.474624       -12.9152
  19   2.0000      -0.445441       -12.1211
  20   2.0000      -0.419604       -11.4180
  21   2.0000      -0.412938       -11.2366
  22   2.0000      -0.359137        -9.7726
  23   2.0000      -0.243253        -6.6192
  24   0.0000       0.063564         1.7297
  25   0.0000       0.087941         2.3930
  26   0.0000       0.094975         2.5844
  27   0.0000       0.104823         2.8524
  28   0.0000       0.119031         3.2390

MULLIKEN ATOMIC CHARGES
-----------------------
   0 C :   -0.435835
   1 C :   -0.872554
   2 C :   -1.018920
   3 C :    0.679576
   4 N :   -0.463399
   5 N :   -0.413401
   6 H :    0.193408
   7 H :    0.167225
   8 H :    0.408690
   9 H :    0.190568
  10 H :    0.169738
  11 H :    0.269001
  12 H :    0.222445
  13 H :    0.289408
  14 H :    0.293735
  15 H :    0.320315
Sum of atomic charges:    0.0000000

LOEWDIN ATOMIC CHARGES
----------------------
   0 C :   -0.282163
   1 C :   -0.146090
   2 C :   -0.111428
   3 C :   -0.546325
   4 N :    0.094540
   5 N :    0.123949
   6 H :    0.111195
   7 H :    0.104770
   8 H :    0.068291
   9 H :    0.108454
  10 H :    0.093749
  11 H :    0.093194
  12 H :    0.101532
  13 H :    0.063348
  14 H :    0.057691
  15 H :    0.065292

  Mayer bond orders larger than 0.100000
B(  0-C ,  1-C ) :   0.8088 B(  0-C ,  2-C ) :   0.5552 B(  0-C , 11-H ) :   0.9727
B(  0-C , 12-H ) :   1.0697 B(  1-C ,  2-C ) :   0.1211 B(  1-C ,  3-C ) :   1.3884
B(  1-C ,  4-N ) :   0.1994 B(  1-C ,  5-N ) :   0.1033 B(  1-C ,  8-H ) :   0.8285
B(  1-C , 11-H ) :  -0.1057 B(  2-C , 13-H ) :   0.9846 B(  2-C , 14-H ) :   0.9536
B(  2-C , 15-H ) :   0.9598 B(  3-C ,  4-N ) :   0.8447 B(  3-C ,  5-N ) :   0.9898
B(  4-N ,  9-H ) :   1.0108 B(  4-N , 10-H ) :   1.0497 B(  5-N ,  6-H ) :   0.9744
B(  5-N ,  7-H ) :   1.0487

Dispersion correction           -0.003690831
FINAL SINGLE POINT ENERGY      -267.946825920079

DIPOLE MOMENT
-------------
                                X             Y             Z
Electronic contribution:      2.98449      -2.78505      -2.88670
Nuclear contribution   :     -2.84307       1.95814       2.32378
                        -----------------------------------------
Total Dipole Moment    :      0.14142      -0.82692      -0.56292
                        -----------------------------------------
Magnitude (a.u.)       :      1.01028
Magnitude (Debye)      :      2.56793

Rotational constants in cm-1:     0.248902     0.068887     0.059904
Rotational constants in MHz :  7461.898926  2065.183281  1795.882140

                             ****ORCA TERMINATED NORMALLY****
TOTAL RUN TIME: 0 days 0 hours 1 minutes 30 seconds 461 msec
