                         Program Version 5.0.0 -  RELEASE  -
|  1> !wB97X-D3 RIJCOSX def2-TZVPD def2/J TightSCF
|  2> *xyz 0 1
|  3> C          2.49556        1.81615       -2.13636
|  4> C          1.87218        0.42790       -2.07750
|  5> H          2.61427       -0.36583       -2.19889
|  6> H          1.38995        0.27309       -1.11236
|  7> S          0.57902        0.14047       -3.29794
|  8> O          0.22886       -1.24687       -3.12787
|  9> F         -0.43927        1.11897       -3.01455
| 10> O          1.24788        0.40347       -4.59565
| 11> H          2.96535        1.95613       -3.08747
| 12> H          3.22581        1.91242       -1.36024
| 13> H          1.73350        2.55528       -2.00274
| 14> *
| 15>
| 16> %MaxCore 64000
| 17>
| 18> %pal nprocs 4
| 19> end
| 20>
| 21> %scf
| 22>   MaxIter 150
| 23> end
| 24>
| 25>
| 26>                          ****END OF INPUT****

CARTESIAN COORDINATES (ANGSTROEM)
---------------------------------
  C      2.495560    1.816150   -2.136360
  C      1.872180    0.427900   -2.077500
  H      2.614270   -0.365830   -2.198890
  H      1.389950    0.273090   -1.112360
  S      0.579020    0.140470   -3.297940
  O      0.228860   -1.246870   -3.127870
  F     -0.439270    1.118970   -3.014550
  O      1.247880    0.403470   -4.595650
  H      2.965350    1.956130   -3.087470
  H      3.225810    1.912420   -1.360240
  H      1.733500    2.555280   -2.002740

 Total Charge           Charge          ....    0
 Multiplicity           Mult            ....    1
 Number of Electrons    NEL             ....   58
 Basis Dimension        Dim             ....  285

ORBITAL ENERGIES
----------------

  NO   OCC          E(Eh)            E(eV)
   0   2.0000     -89.196357     -2427.1563
   1   2.0000     -24.910630      -677.8527
   2   2.0000     -19.246728      -523.7301
   3   2.0000     -19.232060      -523.3310
   4   2.0000     -10.335705      -281.2488
   5   2.0000     -10.292715      -280.0790
   6   2.0000      -8.259947      -224.7646
   7   2.0000      -6.217374      -169.1833
   8   2.0000      -6.210971      -169.0091
   9   2.0000      -6.210469      -168.9954
  10   2.0000      -1.504667       -40.9441
  11   2.0000      -1.222894       -33.2766
  12   2.0000      -1.121302       -30.5122
  13   2.0000      -0.940460       -25.5912
  14   2.0000      -0.845733       -23.0136
  15   2.0000      -0.789455       -21.4822
  16   2.0000      -0.704896       -19.1812
  17   2.0000      -0.694498       -18.8983
  18   2.0000      -0.654165       -17.8007
  19   2.0000      -0.595382       -16.2012
  20   2.0000      -0.581073       -15.8118
  21   2.0000      -0.553569       -15.0634
  22   2.0000      -0.531911       -14.4740
  23   2.0000      -0.505863       -13.7652
  24   2.0000      -0.495008       -13.4699
  25   2.0000      -0.476036       -12.9536
  26   2.0000      -0.430542       -11.7156
  27   2.0000      -0.416258       -11.3270
  28   2.0000      -0.404335       -11.0025
  29   0.0000       0.050220         1.3665
  30   0.0000       0.062523         1.7013
  31   0.0000       0.069535         1.8921
  32   0.0000       0.071983         1.9588
  33   0.0000       0.099465         2.7066

MULLIKEN ATOMIC CHARGES
-----------------------
   0 C :   -1.248637
   1 C :   -0.349114
   2 H :    0.347064
   3 H :    0.349015
   4 S :    1.176537
   5 O :   -0.566093
   6 F :   -0.131439
   7 O :   -0.608105
   8 H :    0.345309
   9 H :    0.329404
  10 H :    0.356059
Sum of atomic charges:    0.0000000

LOEWDIN ATOMIC CHARGES
----------------------
   0 C :   -0.117735
   1 C :   -0.280829
   2 H :    0.114012
   3 H :    0.098932
   4 S :    0.592501
   5 O :   -0.275917
   6 F :   -0.045580
   7 O :   -0.303500
   8 H :    0.073331
   9 H :    0.074085
  10 H :    0.070701

  Mayer bond orders larger than 0.100000
B(  0-C ,  1-C ) :   0.7287 B(  0-C ,  4-S ) :   0.1030 B(  0-C ,  8-H ) :   0.9697
B(  0-C ,  9-H ) :   0.9386 B(  0-C , 10-H ) :   0.9039 B(  1-C ,  2-H ) :   0.8844
B(  1-C ,  3-H ) :   0.8957 B(  1-C ,  4-S ) :   0.8254 B(  1-C ,  5-O ) :   0.1149
B(  4-S ,  5-O ) :   1.6837 B(  4-S ,  6-F ) :   1.0063 B(  4-S ,  7-O ) :   1.6505

Dispersion correction           -0.002903666
FINAL SINGLE POINT ENERGY      -727.740602013862

DIPOLE MOMENT
-------------
                                X             Y             Z
Electronic contribution:     -7.94164      -2.39898      -3.88489
Nuclear contribution   :      8.30151       3.35500       5.26935
                        -----------------------------------------
Total Dipole Moment    :      0.35987       0.95602       1.38446
                        -----------------------------------------
Magnitude (a.u.)       :      1.72052
Magnitude (Debye)      :      4.37322

Rotational constants in cm-1:     0.152913     0.083043     0.080351
Rotational constants in MHz :  4584.227971  2489.580280  2408.872860

                             ****ORCA TERMINATED NORMALLY****
TOTAL RUN TIME: 0 days 0 hours 1 minutes 8 seconds 688 msec
