                         Program Version 5.0.0 -  RELEASE  -
|  1> !wB97X-D3 RIJCOSX def2-TZVPD def2/J TightSCF
|  2> *xyz 0 1
|  3> C          3.38093        2.08304       -3.35013
|  4> N          4.53592        1.18245       -3.42852
|  5> C          2.49556        1.81615       -2.13636
|  6> C          4.67196        0.12227       -4.22060
|  7> C          5.86602       -0.50785       -4.22428
|  8> N          3.69888       -0.31284       -4.98699
|  9> H          2.73141       -0.05009       -4.84900
| 10> H          3.89005       -1.05517       -5.64373
| 11> H          5.25193        1.30346       -2.72101
| 12> H          6.69516       -0.06232       -3.85160
| 13> H          5.97538       -1.39688       -4.69141
| 14> H          2.80646        1.98651       -4.26848
| 15> H          3.77871        3.09828       -3.30738
| 16> H          2.11090        0.81901       -2.18783
| 17> H          1.68276        2.51198       -2.12786
| 18> H          3.07216        1.93031       -1.24227
| 19> *
| 20>
| 21> %MaxCore 64000
| 22>
| 23> %pal nprocs 4
| 24> end
| 25>
| 26> %scf
| 27>   MaxIter 150
| 28> end
| 29>
| 30>
| 31>                          ****END OF INPUT****

CARTESIAN COORDINATES (ANGSTROEM)
---------------------------------
  C      3.380930    2.083040   -3.350130
  N      4.535920    1.182450   -3.428520
  C      2.495560    1.816150   -2.136360
  C      4.671960    0.122270   -4.220600
  C      5.866020   -0.507850   -4.224280
  N      3.698880   -0.312840   -4.986990
  H      2.731410   -0.050090   -4.849000
  H      3.890050   -1.055170   -5.643730
  H      5.251930    1.303460   -2.721010
  H      6.695160   -0.062320   -3.851600
  H      5.975380   -1.396880   -4.691410
  H      2.806460    1.986510   -4.268480
  H      3.778710    3.098280   -3.307380
  H      2.110900    0.819010   -2.187830
  H      1.682760    2.511980   -2.127860
  H      3.072160    1.930310   -1.242270

 Total Charge           Charge          ....    0
 Multiplicity           Mult            ....    1
 Number of Electrons    NEL             ....   48
 Basis Dimension        Dim             ....  312

ORBITAL ENERGIES
----------------

  NO   OCC          E(Eh)            E(eV)
   0   2.0000     -14.424306      -392.5053
   1   2.0000     -14.421437      -392.4273
   2   2.0000     -10.324620      -280.9472
   3   2.0000     -10.315395      -280.6962
   4   2.0000     -10.266119      -279.3553
   5   2.0000     -10.179427      -276.9963
   6   2.0000      -1.086255       -29.5585
   7   2.0000      -1.003434       -27.3048
   8   2.0000      -0.887306       -24.1448
   9   2.0000      -0.810387       -22.0518
  10   2.0000      -0.738048       -20.0833
  11   2.0000      -0.708812       -19.2878
  12   2.0000      -0.647059       -17.6074
  13   2.0000      -0.599242       -16.3062
  14   2.0000      -0.580649       -15.8003
  15   2.0000      -0.545574       -14.8458
  16   2.0000      -0.528604       -14.3840
  17   2.0000      -0.500403       -13.6167
  18   2.0000      -0.485349       -13.2070
  19   2.0000      -0.463025       -12.5995
  20   2.0000      -0.458291       -12.4707
  21   2.0000      -0.448875       -12.2145
  22   2.0000      -0.346930        -9.4404
  23   2.0000      -0.243482        -6.6255
  24   0.0000       0.062174         1.6918
  25   0.0000       0.088143         2.3985
  26   0.0000       0.093411         2.5419
  27   0.0000       0.093614         2.5474
  28   0.0000       0.120621         3.2823

MULLIKEN ATOMIC CHARGES
-----------------------
   0 C :   -0.618811
   1 N :   -0.170279
   2 C :   -0.946092
   3 C :    1.059761
   4 C :   -1.630648
   5 N :   -0.409367
   6 H :    0.181980
   7 H :    0.187563
   8 H :    0.210903
   9 H :    0.324374
  10 H :    0.311507
  11 H :    0.341069
  12 H :    0.250280
  13 H :    0.279419
  14 H :    0.330018
  15 H :    0.298325
Sum of atomic charges:    0.0000000

LOEWDIN ATOMIC CHARGES
----------------------
   0 C :   -0.235991
   1 N :    0.014064
   2 C :   -0.090860
   3 C :   -0.568545
   4 C :   -0.013139
   5 N :    0.120695
   6 H :    0.101533
   7 H :    0.116326
   8 H :    0.146542
   9 H :    0.002800
  10 H :   -0.001967
  11 H :    0.103147
  12 H :    0.109507
  13 H :    0.065850
  14 H :    0.064311
  15 H :    0.065727

  Mayer bond orders larger than 0.100000
B(  0-C ,  1-N ) :   0.9490 B(  0-C ,  2-C ) :   0.6644 B(  0-C ,  3-C ) :  -0.1133
B(  0-C ,  5-N ) :   0.1022 B(  0-C , 11-H ) :   0.8988 B(  0-C , 12-H ) :   0.9935
B(  1-N ,  3-C ) :   1.1253 B(  1-N ,  4-C ) :   0.1488 B(  1-N ,  8-H ) :   0.9627
B(  2-C , 13-H ) :   1.0001 B(  2-C , 14-H ) :   0.9596 B(  2-C , 15-H ) :   0.9501
B(  3-C ,  4-C ) :   0.7547 B(  3-C ,  5-N ) :   1.0210 B(  3-C , 10-H ) :  -0.1273
B(  4-C ,  5-N ) :   0.1069 B(  4-C ,  9-H ) :   0.9234 B(  4-C , 10-H ) :   1.0550
B(  5-N ,  6-H ) :   0.9970 B(  5-N ,  7-H ) :   1.0128

Dispersion correction           -0.003724561
FINAL SINGLE POINT ENERGY      -267.936097443632

DIPOLE MOMENT
-------------
                                X             Y             Z
Electronic contribution:      1.47542      -1.08469      -2.03540
Nuclear contribution   :     -2.56090       1.59955       2.15496
                        -----------------------------------------
Total Dipole Moment    :     -1.08548       0.51486       0.11956
                        -----------------------------------------
Magnitude (a.u.)       :      1.20733
Magnitude (Debye)      :      3.06880

Rotational constants in cm-1:     0.249834     0.071381     0.061833
Rotational constants in MHz :  7489.842787  2139.945635  1853.706310

                             ****ORCA TERMINATED NORMALLY****
TOTAL RUN TIME: 0 days 0 hours 1 minutes 30 seconds 486 msec
