                         Program Version 5.0.0 -  RELEASE  -
|  1> !wB97X-D3 RIJCOSX def2-TZVPD def2/J TightSCF
|  2> *xyz 0 1
|  3> C          2.49556        1.81615       -2.13636
|  4> C          1.87218        0.42790       -2.07750
|  5> H          2.61427       -0.36583       -2.19889
|  6> H          1.38995        0.27309       -1.11236
|  7> S          0.57902        0.14047       -3.29794
|  8> O          0.22886       -1.24687       -3.12787
|  9> O         -0.43927        1.11897       -3.01455
| 10> F          1.24788        0.40347       -4.59565
| 11> H          2.96535        1.95613       -3.08747
| 12> H          3.22581        1.91242       -1.36024
| 13> H          1.73350        2.55528       -2.00274
| 14> *
| 15>
| 16> %MaxCore 64000
| 17>
| 18> %pal nprocs 4
| 19> end
| 20>
| 21> %scf
| 22>   MaxIter 150
| 23> end
| 24>
| 25>
| 26>                          ****END OF INPUT****

CARTESIAN COORDINATES (ANGSTROEM)
---------------------------------
  C      2.495560    1.816150   -2.136360
  C      1.872180    0.427900   -2.077500
  H      2.614270   -0.365830   -2.198890
  H      1.389950    0.273090   -1.112360
  S      0.579020    0.140470   -3.297940
  O      0.228860   -1.246870   -3.127870
  O     -0.439270    1.118970   -3.014550
  F      1.247880    0.403470   -4.595650
  H      2.965350    1.956130   -3.087470
  H      3.225810    1.912420   -1.360240
  H      1.733500    2.555280   -2.002740

 Total Charge           Charge          ....    0
 Multiplicity           Mult            ....    1
 Number of Electrons    NEL             ....   58
 Basis Dimension        Dim             ....  285

ORBITAL ENERGIES
----------------

  NO   OCC          E(Eh)            E(eV)
   0   2.0000     -89.193872     -2427.0887
   1   2.0000     -24.887782      -677.2310
   2   2.0000     -19.246311      -523.7187
   3   2.0000     -19.246057      -523.7118
   4   2.0000     -10.334572      -281.2180
   5   2.0000     -10.293195      -280.0921
   6   2.0000      -8.257480      -224.6975
   7   2.0000      -6.214977      -169.1181
   8   2.0000      -6.208636      -168.9456
   9   2.0000      -6.207946      -168.9268
  10   2.0000      -1.468262       -39.9534
  11   2.0000      -1.233635       -33.5689
  12   2.0000      -1.142306       -31.0837
  13   2.0000      -0.939765       -25.5723
  14   2.0000      -0.832092       -22.6424
  15   2.0000      -0.781900       -21.2766
  16   2.0000      -0.686600       -18.6833
  17   2.0000      -0.669309       -18.2128
  18   2.0000      -0.651852       -17.7378
  19   2.0000      -0.596919       -16.2430
  20   2.0000      -0.577886       -15.7251
  21   2.0000      -0.557373       -15.1669
  22   2.0000      -0.536204       -14.5909
  23   2.0000      -0.507529       -13.8106
  24   2.0000      -0.500383       -13.6161
  25   2.0000      -0.477840       -13.0027
  26   2.0000      -0.439854       -11.9690
  27   2.0000      -0.425652       -11.5826
  28   2.0000      -0.419479       -11.4146
  29   0.0000       0.053391         1.4528
  30   0.0000       0.063236         1.7207
  31   0.0000       0.070213         1.9106
  32   0.0000       0.071106         1.9349
  33   0.0000       0.101425         2.7599

MULLIKEN ATOMIC CHARGES
-----------------------
   0 C :   -1.253860
   1 C :   -0.345531
   2 H :    0.355850
   3 H :    0.336885
   4 S :    1.202338
   5 O :   -0.572867
   6 O :   -0.585674
   7 F :   -0.169326
   8 H :    0.354380
   9 H :    0.327569
  10 H :    0.350236
Sum of atomic charges:   -0.0000000

LOEWDIN ATOMIC CHARGES
----------------------
   0 C :   -0.117598
   1 C :   -0.279722
   2 H :    0.104326
   3 H :    0.109484
   4 S :    0.593060
   5 O :   -0.276485
   6 O :   -0.270879
   7 F :   -0.080253
   8 H :    0.070122
   9 H :    0.074133
  10 H :    0.073812

  Mayer bond orders larger than 0.100000
B(  0-C ,  1-C ) :   0.7239 B(  0-C ,  8-H ) :   0.9131 B(  0-C ,  9-H ) :   0.9396
B(  0-C , 10-H ) :   0.9551 B(  1-C ,  2-H ) :   0.8888 B(  1-C ,  3-H ) :   0.8973
B(  1-C ,  4-S ) :   0.8207 B(  1-C ,  5-O ) :   0.1137 B(  4-S ,  5-O ) :   1.6751
B(  4-S ,  6-O ) :   1.6891 B(  4-S ,  7-F ) :   0.9620

Dispersion correction           -0.002901460
FINAL SINGLE POINT ENERGY      -727.759208744515

DIPOLE MOMENT
-------------
                                X             Y             Z
Electronic contribution:     -5.06728      -3.60575      -6.58538
Nuclear contribution   :      6.54345       4.10057       6.91691
                        -----------------------------------------
Total Dipole Moment    :      1.47617       0.49483       0.33153
                        -----------------------------------------
Magnitude (a.u.)       :      1.59180
Magnitude (Debye)      :      4.04604

Rotational constants in cm-1:     0.152835     0.082826     0.080611
Rotational constants in MHz :  4581.878371  2483.049050  2416.647141

                             ****ORCA TERMINATED NORMALLY****
TOTAL RUN TIME: 0 days 0 hours 1 minutes 5 seconds 573 msec
