                         Program Version 5.0.0 -  RELEASE  -
|  1> !wB97X-D3 RIJCOSX def2-TZVPD def2/J TightSCF
|  2> *xyz 0 1
|  3> C          3.38093        2.08304       -3.35013
|  4> N          4.53592        1.18245       -3.42852
|  5> C          2.49556        1.81615       -2.13636
|  6> C          4.67196        0.12227       -4.22060
|  7> N          5.86602       -0.50785       -4.22428
|  8> C          3.69888       -0.31284       -4.98699
|  9> H          2.73141       -0.05009       -4.84900
| 10> H          3.89005       -1.05517       -5.64373
| 11> H          5.25193        1.30346       -2.72101
| 12> H          6.69516       -0.06232       -3.85160
| 13> H          5.97538       -1.39688       -4.69141
| 14> H          2.80646        1.98651       -4.26848
| 15> H          3.77871        3.09828       -3.30738
| 16> H          2.11090        0.81901       -2.18783
| 17> H          1.68276        2.51198       -2.12786
| 18> H          3.07216        1.93031       -1.24227
| 19> *
| 20>
| 21> %MaxCore 64000
| 22>
| 23> %pal nprocs 4
| 24> end
| 25>
| 26> %scf
| 27>   MaxIter 150
| 28> end
| 29>
| 30>
| 31>                          ****END OF INPUT****

CARTESIAN COORDINATES (ANGSTROEM)
---------------------------------
  C      3.380930    2.083040   -3.350130
  N      4.535920    1.182450   -3.428520
  C      2.495560    1.816150   -2.136360
  C      4.671960    0.122270   -4.220600
  N      5.866020   -0.507850   -4.224280
  C      3.698880   -0.312840   -4.986990
  H      2.731410   -0.050090   -4.849000
  H      3.890050   -1.055170   -5.643730
  H      5.251930    1.303460   -2.721010
  H      6.695160   -0.062320   -3.851600
  H      5.975380   -1.396880   -4.691410
  H      2.806460    1.986510   -4.268480
  H      3.778710    3.098280   -3.307380
  H      2.110900    0.819010   -2.187830
  H      1.682760    2.511980   -2.127860
  H      3.072160    1.930310   -1.242270

 Total Charge           Charge          ....    0
 Multiplicity           Mult            ....    1
 Number of Electrons    NEL             ....   48
 Basis Dimension        Dim             ....  312

ORBITAL ENERGIES
----------------

  NO   OCC          E(Eh)            E(eV)
   0   2.0000     -14.421856      -392.4386
   1   2.0000     -14.417659      -392.3245
   2   2.0000     -10.321673      -280.8670
   3   2.0000     -10.307116      -280.4709
   4   2.0000     -10.258416      -279.1457
   5   2.0000     -10.183753      -277.1140
   6   2.0000      -1.079616       -29.3778
   7   2.0000      -0.994271       -27.0555
   8   2.0000      -0.872019       -23.7288
   9   2.0000      -0.825491       -22.4628
  10   2.0000      -0.749425       -20.3929
  11   2.0000      -0.670538       -18.2463
  12   2.0000      -0.646350       -17.5881
  13   2.0000      -0.616418       -16.7736
  14   2.0000      -0.556401       -15.1404
  15   2.0000      -0.549145       -14.9430
  16   2.0000      -0.520847       -14.1730
  17   2.0000      -0.499112       -13.5815
  18   2.0000      -0.476526       -12.9669
  19   2.0000      -0.470652       -12.8071
  20   2.0000      -0.450013       -12.2455
  21   2.0000      -0.444010       -12.0821
  22   2.0000      -0.339380        -9.2350
  23   2.0000      -0.256557        -6.9813
  24   0.0000       0.066580         1.8117
  25   0.0000       0.084981         2.3125
  26   0.0000       0.094419         2.5693
  27   0.0000       0.097101         2.6423
  28   0.0000       0.121241         3.2991

MULLIKEN ATOMIC CHARGES
-----------------------
   0 C :   -0.595359
   1 N :   -0.218681
   2 C :   -0.968968
   3 C :    1.031346
   4 N :   -0.443537
   5 C :   -1.547365
   6 H :    0.334768
   7 H :    0.311258
   8 H :    0.214459
   9 H :    0.181204
  10 H :    0.179841
  11 H :    0.364153
  12 H :    0.242998
  13 H :    0.278117
  14 H :    0.331213
  15 H :    0.304553
Sum of atomic charges:    0.0000000

LOEWDIN ATOMIC CHARGES
----------------------
   0 C :   -0.231836
   1 N :    0.005923
   2 C :   -0.087996
   3 C :   -0.561356
   4 N :    0.099098
   5 C :   -0.000988
   6 H :    0.010263
   7 H :    0.012039
   8 H :    0.138692
   9 H :    0.098422
  10 H :    0.105990
  11 H :    0.106411
  12 H :    0.109075
  13 H :    0.068556
  14 H :    0.064778
  15 H :    0.062929

  Mayer bond orders larger than 0.100000
B(  0-C ,  1-N ) :   0.9491 B(  0-C ,  2-C ) :   0.6565 B(  0-C ,  5-C ) :   0.1659
B(  0-C , 11-H ) :   0.8864 B(  0-C , 12-H ) :   0.9560 B(  1-N ,  3-C ) :   1.0785
B(  1-N ,  8-H ) :   0.9818 B(  2-C , 13-H ) :   1.0181 B(  2-C , 14-H ) :   0.9417
B(  2-C , 15-H ) :   0.9419 B(  3-C ,  4-N ) :   0.8955 B(  3-C ,  5-C ) :   0.9967
B(  3-C ,  7-H ) :  -0.1544 B(  4-N ,  5-C ) :   0.1149 B(  4-N ,  9-H ) :   1.0224
B(  4-N , 10-H ) :   1.0244 B(  5-C ,  6-H ) :   0.8748 B(  5-C ,  7-H ) :   1.0898

Dispersion correction           -0.003700597
FINAL SINGLE POINT ENERGY      -267.941348463099

DIPOLE MOMENT
-------------
                                X             Y             Z
Electronic contribution:      3.66329      -1.31295      -1.34386
Nuclear contribution   :     -3.02065       1.64092       1.99316
                        -----------------------------------------
Total Dipole Moment    :      0.64265       0.32797       0.64930
                        -----------------------------------------
Magnitude (a.u.)       :      0.97064
Magnitude (Debye)      :      2.46717

Rotational constants in cm-1:     0.259304     0.069422     0.060943
Rotational constants in MHz :  7773.747720  2081.225169  1827.013389

                             ****ORCA TERMINATED NORMALLY****
TOTAL RUN TIME: 0 days 0 hours 1 minutes 25 seconds 732 msec
