                         Program Version 5.0.0 -  RELEASE  -
|  1> !wB97X-D3 RIJCOSX def2-TZVPD def2/J TightSCF xyzfile
|  2>
|  3> *xyzfile 0 1 D3.xyz
|  4>
|  5> %MaxCore 64000
|  6>
|  7> %pal nprocs 18
|  8> end
|  9>
| 10> %scf
| 11>   MaxIter 150
| 12> end
| 13>
| 14>
| 15>                          ****END OF INPUT****

CARTESIAN COORDINATES (ANGSTROEM)
---------------------------------
  C      3.380928    2.083045   -3.350127
  N      4.535924    1.182447   -3.428518
  C      2.495557    1.816150   -2.136364
  C      1.872181    0.427903   -2.077497
  H      2.614270   -0.365825   -2.198894
  H      1.389953    0.273087   -1.112360
  S      0.579024    0.140472   -3.297943
  C      4.671956    0.122273   -4.220598
  N      5.866023   -0.507849   -4.224284
  C      3.698881   -0.312844   -4.986988
  H      2.731405   -0.050091   -4.849000
  H      3.890046   -1.055172   -5.643730
  H      5.251933    1.303459   -2.721014
  H      6.695165   -0.062322   -3.851596
  H      5.975383   -1.396884   -4.691414
  F      0.228860   -1.246868   -3.127871
  O     -0.439269    1.118966   -3.014550
  O      1.247881    0.403474   -4.595647
  H      1.697003    2.561969   -2.141109
  H      3.080787    1.987436   -1.225838
  H      2.806463    1.986511   -4.268484
  H      3.778714    3.098282   -3.307383

 Total Charge           Charge          ....    0
 Multiplicity           Mult            ....    1
 Number of Electrons    NEL             ....   96
 Basis Dimension        Dim             ....  524

ORBITAL ENERGIES
----------------

  NO   OCC          E(Eh)            E(eV)
   0   2.0000     -89.197928     -2427.1990
   1   2.0000     -24.910266      -677.8428
   2   2.0000     -19.247185      -523.7425
   3   2.0000     -19.231138      -523.3059
   4   2.0000     -14.423681      -392.4883
   5   2.0000     -14.413247      -392.2044
   6   2.0000     -10.332774      -281.1691
   7   2.0000     -10.313676      -280.6494
   8   2.0000     -10.312185      -280.6088
   9   2.0000     -10.303920      -280.3839
  10   2.0000     -10.161580      -276.5106
  11   2.0000      -8.261668      -224.8114
  12   2.0000      -6.218923      -169.2255
  13   2.0000      -6.212604      -169.0535
  14   2.0000      -6.212422      -169.0486
  15   2.0000      -1.503962       -40.9249
  16   2.0000      -1.226600       -33.3775
  17   2.0000      -1.127383       -30.6777
  18   2.0000      -1.078786       -29.3553
  19   2.0000      -0.995773       -27.0964
  20   2.0000      -0.939656       -25.5693
  21   2.0000      -0.867356       -23.6020
  22   2.0000      -0.829497       -22.5717
  23   2.0000      -0.807272       -21.9670
  24   2.0000      -0.752682       -20.4815
  25   2.0000      -0.696598       -18.9554
  26   2.0000      -0.693134       -18.8611
  27   2.0000      -0.678851       -18.4725
  28   2.0000      -0.659569       -17.9478
  29   2.0000      -0.640761       -17.4360
  30   2.0000      -0.618545       -16.8315
  31   2.0000      -0.596039       -16.2190
  32   2.0000      -0.592060       -16.1108
  33   2.0000      -0.555542       -15.1171
  34   2.0000      -0.550410       -14.9774
  35   2.0000      -0.545776       -14.8513
  36   2.0000      -0.504753       -13.7350
  37   2.0000      -0.496243       -13.5035
  38   2.0000      -0.489077       -13.3085
  39   2.0000      -0.478261       -13.0141
  40   2.0000      -0.474517       -12.9123
  41   2.0000      -0.464939       -12.6516
  42   2.0000      -0.446092       -12.1388
  43   2.0000      -0.431325       -11.7369
  44   2.0000      -0.412790       -11.2326
  45   2.0000      -0.376231       -10.2378
  46   2.0000      -0.340671        -9.2701
  47   2.0000      -0.249156        -6.7799
  48   0.0000       0.046631         1.2689
  49   0.0000       0.059998         1.6326
  50   0.0000       0.068495         1.8638
  51   0.0000       0.070431         1.9165
  52   0.0000       0.088350         2.4041

MULLIKEN ATOMIC CHARGES
-----------------------
   0 C :   -0.818937
   1 N :   -0.193080
   2 C :   -0.525544
   3 C :   -0.571883
   4 H :    0.371482
   5 H :    0.368361
   6 S :    1.157253
   7 C :    1.105908
   8 N :   -0.458161
   9 C :   -1.562345
  10 H :    0.250182
  11 H :    0.309975
  12 H :    0.227327
  13 H :    0.170334
  14 H :    0.187333
  15 F :   -0.129770
  16 O :   -0.600215
  17 O :   -0.583391
  18 H :    0.284364
  19 H :    0.309572
  20 H :    0.448815
  21 H :    0.252422
Sum of atomic charges:    0.0000000

LOEWDIN ATOMIC CHARGES
----------------------
   0 C :   -0.170824
   1 N :    0.018620
   2 C :   -0.192975
   3 C :   -0.218704
   4 H :    0.106891
   5 H :    0.103723
   6 S :    0.636275
   7 C :   -0.554669
   8 N :    0.096603
   9 C :    0.015558
  10 H :   -0.057121
  11 H :    0.025127
  12 H :    0.139306
  13 H :    0.095339
  14 H :    0.104900
  15 F :   -0.036773
  16 O :   -0.263405
  17 O :   -0.316785
  18 H :    0.116606
  19 H :    0.119253
  20 H :    0.112790
  21 H :    0.120264

  Mayer bond orders larger than 0.100000
B(  0-C ,  1-N ) :   1.0259 B(  0-C ,  2-C ) :   0.8884 B(  0-C ,  9-C ) :   0.1057
B(  0-C , 20-H ) :   0.8141 B(  0-C , 21-H ) :   0.9576 B(  1-N ,  7-C ) :   1.0877
B(  1-N , 12-H ) :   0.9460 B(  2-C ,  3-C ) :   1.1689 B(  2-C ,  6-S ) :   0.2115
B(  2-C , 18-H ) :   0.9397 B(  2-C , 19-H ) :   0.8793 B(  3-C ,  4-H ) :   0.8396
B(  3-C ,  5-H ) :   0.8601 B(  3-C ,  6-S ) :   0.7341 B(  6-S , 15-F ) :   0.9406
B(  6-S , 16-O ) :   1.6557 B(  6-S , 17-O ) :   1.6933 B(  7-C ,  8-N ) :   0.8889
B(  7-C ,  9-C ) :   0.6688 B(  7-C , 11-H ) :  -0.2075 B(  8-N ,  9-C ) :   0.1132
B(  8-N , 13-H ) :   1.0345 B(  8-N , 14-H ) :   1.0178 B(  9-C , 10-H ) :   1.1847
B(  9-C , 11-H ) :   1.1137 B(  9-C , 17-O ) :   0.1076 B( 10-H , 17-O ) :  -0.2859

Dispersion correction           -0.009823238
FINAL SINGLE POINT ENERGY      -955.142436855538

DIPOLE MOMENT
-------------
                                X             Y             Z
Electronic contribution:    -14.71173      -5.49102       0.05699
Nuclear contribution   :     15.84345       5.19593       1.66752
                        -----------------------------------------
Total Dipole Moment    :      1.13172      -0.29508       1.72451
                        -----------------------------------------
Magnitude (a.u.)       :      2.08370
Magnitude (Debye)      :      5.29634

Rotational constants in cm-1:     0.059060     0.020573     0.017713
Rotational constants in MHz :  1770.576058   616.749938   531.036486

                             ****ORCA TERMINATED NORMALLY****
TOTAL RUN TIME: 0 days 0 hours 1 minutes 26 seconds 852 msec
