                         Program Version 5.0.0 -  RELEASE  -
|  1> !wB97X-D3 RIJCOSX def2-TZVPD def2/J TightSCF xyzfile
|  2>
|  3> *xyzfile 0 1 D8.xyz
|  4>
|  5> %MaxCore 64000
|  6>
|  7> %pal nprocs 18
|  8> end
|  9>
| 10> %scf
| 11>   MaxIter 150
| 12> end
| 13>
| 14>
| 15>                          ****END OF INPUT****

CARTESIAN COORDINATES (ANGSTROEM)
---------------------------------
  C      3.380928    2.083045   -3.350127
  N      4.535924    1.182447   -3.428518
  C      2.495557    1.816150   -2.136364
  C      1.872181    0.427903   -2.077497
  H      2.614270   -0.365825   -2.198894
  H      1.389953    0.273087   -1.112360
  S      0.579024    0.140472   -3.297943
  C      4.671956    0.122273   -4.220598
  C      5.866023   -0.507849   -4.224284
  N      3.698881   -0.312844   -4.986988
  H      2.731405   -0.050091   -4.849000
  H      3.890046   -1.055172   -5.643730
  H      5.251933    1.303459   -2.721014
  H      6.695165   -0.062322   -3.851596
  H      5.975383   -1.396884   -4.691414
  O      0.228860   -1.246868   -3.127871
  O     -0.439269    1.118966   -3.014550
  F      1.247881    0.403474   -4.595647
  H      1.697003    2.561969   -2.141109
  H      3.080787    1.987436   -1.225838
  H      2.806463    1.986511   -4.268484
  H      3.778714    3.098282   -3.307383

 Total Charge           Charge          ....    0
 Multiplicity           Mult            ....    1
 Number of Electrons    NEL             ....   96
 Basis Dimension        Dim             ....  524

ORBITAL ENERGIES
----------------

  NO   OCC          E(Eh)            E(eV)
   0   2.0000     -89.209169     -2427.5049
   1   2.0000     -24.916440      -678.0108
   2   2.0000     -19.261311      -524.1269
   3   2.0000     -19.260424      -524.1028
   4   2.0000     -14.436672      -392.8418
   5   2.0000     -14.424770      -392.5180
   6   2.0000     -10.342889      -281.4443
   7   2.0000     -10.334829      -281.2250
   8   2.0000     -10.333871      -281.1989
   9   2.0000     -10.313542      -280.6458
  10   2.0000     -10.188573      -277.2452
  11   2.0000      -8.273275      -225.1273
  12   2.0000      -6.231135      -169.5578
  13   2.0000      -6.224087      -169.3660
  14   2.0000      -6.223498      -169.3500
  15   2.0000      -1.501688       -40.8630
  16   2.0000      -1.249783       -34.0083
  17   2.0000      -1.156645       -31.4739
  18   2.0000      -1.098737       -29.8982
  19   2.0000      -1.016788       -27.6682
  20   2.0000      -0.956162       -26.0185
  21   2.0000      -0.887210       -24.1422
  22   2.0000      -0.838363       -22.8130
  23   2.0000      -0.817023       -22.2323
  24   2.0000      -0.754905       -20.5420
  25   2.0000      -0.723301       -19.6820
  26   2.0000      -0.717240       -19.5171
  27   2.0000      -0.701111       -19.0782
  28   2.0000      -0.669665       -18.2225
  29   2.0000      -0.641560       -17.4577
  30   2.0000      -0.620137       -16.8748
  31   2.0000      -0.600189       -16.3320
  32   2.0000      -0.593777       -16.1575
  33   2.0000      -0.586004       -15.9460
  34   2.0000      -0.571380       -15.5480
  35   2.0000      -0.558826       -15.2064
  36   2.0000      -0.528766       -14.3884
  37   2.0000      -0.508332       -13.8324
  38   2.0000      -0.507260       -13.8032
  39   2.0000      -0.491635       -13.3781
  40   2.0000      -0.484091       -13.1728
  41   2.0000      -0.475762       -12.9462
  42   2.0000      -0.459890       -12.5142
  43   2.0000      -0.451906       -12.2970
  44   2.0000      -0.437337       -11.9005
  45   2.0000      -0.431886       -11.7522
  46   2.0000      -0.359224        -9.7750
  47   2.0000      -0.253698        -6.9035
  48   0.0000       0.049003         1.3334
  49   0.0000       0.054614         1.4861
  50   0.0000       0.064389         1.7521
  51   0.0000       0.066869         1.8196
  52   0.0000       0.086146         2.3442

MULLIKEN ATOMIC CHARGES
-----------------------
   0 C :   -0.810467
   1 N :   -0.141706
   2 C :   -0.475299
   3 C :   -0.549886
   4 H :    0.340865
   5 H :    0.358663
   6 S :    1.148736
   7 C :    1.019662
   8 C :   -1.707777
   9 N :   -0.316386
  10 H :    0.225928
  11 H :    0.175938
  12 H :    0.234570
  13 H :    0.329870
  14 H :    0.330096
  15 O :   -0.585359
  16 O :   -0.588073
  17 F :   -0.269061
  18 H :    0.294586
  19 H :    0.317594
  20 H :    0.404353
  21 H :    0.263151
Sum of atomic charges:   -0.0000000

LOEWDIN ATOMIC CHARGES
----------------------
   0 C :   -0.178187
   1 N :    0.028352
   2 C :   -0.204672
   3 C :   -0.214446
   4 H :    0.110811
   5 H :    0.116784
   6 S :    0.611746
   7 C :   -0.564252
   8 C :   -0.005923
   9 N :    0.141331
  10 H :    0.041359
  11 H :    0.125552
  12 H :    0.150441
  13 H :    0.004312
  14 H :    0.001502
  15 O :   -0.258465
  16 O :   -0.256285
  17 F :   -0.114410
  18 H :    0.114565
  19 H :    0.121013
  20 H :    0.107094
  21 H :    0.121779

  Mayer bond orders larger than 0.100000
B(  0-C ,  1-N ) :   0.9741 B(  0-C ,  2-C ) :   0.8593 B(  0-C ,  7-C ) :  -0.1115
B(  0-C , 20-H ) :   0.8140 B(  0-C , 21-H ) :   0.9911 B(  1-N ,  7-C ) :   1.1325
B(  1-N ,  8-C ) :   0.1613 B(  1-N , 12-H ) :   0.9224 B(  2-C ,  3-C ) :   1.1225
B(  2-C ,  6-S ) :   0.1813 B(  2-C , 18-H ) :   0.9862 B(  2-C , 19-H ) :   0.8751
B(  3-C ,  4-H ) :   0.8877 B(  3-C ,  5-H ) :   0.8643 B(  3-C ,  6-S ) :   0.7514
B(  3-C , 15-O ) :   0.1063 B(  6-S , 15-O ) :   1.6341 B(  6-S , 16-O ) :   1.6482
B(  6-S , 17-F ) :   1.0045 B(  7-C ,  8-C ) :   0.7281 B(  7-C ,  9-N ) :   1.0266
B(  7-C , 14-H ) :  -0.1090 B(  8-C ,  9-N ) :   0.1057 B(  8-C , 13-H ) :   0.9573
B(  8-C , 14-H ) :   1.0146 B(  9-N , 10-H ) :   0.8524 B(  9-N , 11-H ) :   1.0135

Dispersion correction           -0.009882910
FINAL SINGLE POINT ENERGY      -955.164083526714

DIPOLE MOMENT
-------------
                                X             Y             Z
Electronic contribution:    -14.66432      -2.41136      -2.90024
Nuclear contribution   :     14.93782       3.36795       3.35075
                        -----------------------------------------
Total Dipole Moment    :      0.27350       0.95659       0.45052
                        -----------------------------------------
Magnitude (a.u.)       :      1.09217
Magnitude (Debye)      :      2.77606

Rotational constants in cm-1:     0.059219     0.021387     0.018380
Rotational constants in MHz :  1775.354399   641.172207   551.019443

                             ****ORCA TERMINATED NORMALLY****
TOTAL RUN TIME: 0 days 0 hours 1 minutes 55 seconds 323 msec
