                         Program Version 5.0.0 -  RELEASE  -
|  1> !wB97X-D3 RIJCOSX def2-TZVPD def2/J TightSCF xyzfile
|  2>
|  3> *xyzfile 0 1 D9.xyz
|  4>
|  5> %MaxCore 64000
|  6>
|  7> %pal nprocs 18
|  8> end
|  9>
| 10> %scf
| 11>   MaxIter 150
| 12> end
| 13>
| 14>
| 15>                          ****END OF INPUT****

CARTESIAN COORDINATES (ANGSTROEM)
---------------------------------
  C      3.380928    2.083045   -3.350127
  N      4.535924    1.182447   -3.428518
  C      2.495557    1.816150   -2.136364
  C      1.872181    0.427903   -2.077497
  H      2.614270   -0.365825   -2.198894
  H      1.389953    0.273087   -1.112360
  S      0.579024    0.140472   -3.297943
  C      4.671956    0.122273   -4.220598
  N      5.866023   -0.507849   -4.224284
  C      3.698881   -0.312844   -4.986988
  H      2.731405   -0.050091   -4.849000
  H      3.890046   -1.055172   -5.643730
  H      5.251933    1.303459   -2.721014
  H      6.695165   -0.062322   -3.851596
  H      5.975383   -1.396884   -4.691414
  O      0.228860   -1.246868   -3.127871
  O     -0.439269    1.118966   -3.014550
  F      1.247881    0.403474   -4.595647
  H      1.697003    2.561969   -2.141109
  H      3.080787    1.987436   -1.225838
  H      2.806463    1.986511   -4.268484
  H      3.778714    3.098282   -3.307383

 Total Charge           Charge          ....    0
 Multiplicity           Mult            ....    1
 Number of Electrons    NEL             ....   96
 Basis Dimension        Dim             ....  524

ORBITAL ENERGIES
----------------

  NO   OCC          E(Eh)            E(eV)
   0   2.0000     -89.191382     -2427.0209
   1   2.0000     -24.885600      -677.1716
   2   2.0000     -19.244326      -523.6647
   3   2.0000     -19.242701      -523.6205
   4   2.0000     -14.438342      -392.8873
   5   2.0000     -14.427255      -392.5856
   6   2.0000     -10.332829      -281.1706
   7   2.0000     -10.329285      -281.0741
   8   2.0000     -10.328179      -281.0440
   9   2.0000     -10.305779      -280.4345
  10   2.0000     -10.187083      -277.2046
  11   2.0000      -8.255173      -224.6347
  12   2.0000      -6.212756      -169.0577
  13   2.0000      -6.206275      -168.8813
  14   2.0000      -6.205551      -168.8616
  15   2.0000      -1.472313       -40.0637
  16   2.0000      -1.231761       -33.5179
  17   2.0000      -1.139600       -31.0101
  18   2.0000      -1.094228       -29.7754
  19   2.0000      -1.009743       -27.4765
  20   2.0000      -0.942567       -25.6486
  21   2.0000      -0.864464       -23.5233
  22   2.0000      -0.845024       -22.9943
  23   2.0000      -0.806246       -21.9391
  24   2.0000      -0.762491       -20.7484
  25   2.0000      -0.695173       -18.9166
  26   2.0000      -0.689932       -18.7740
  27   2.0000      -0.669580       -18.2202
  28   2.0000      -0.659442       -17.9443
  29   2.0000      -0.648104       -17.6358
  30   2.0000      -0.620730       -16.8909
  31   2.0000      -0.599228       -16.3058
  32   2.0000      -0.581921       -15.8349
  33   2.0000      -0.567700       -15.4479
  34   2.0000      -0.561866       -15.2891
  35   2.0000      -0.546634       -14.8747
  36   2.0000      -0.517586       -14.0842
  37   2.0000      -0.508806       -13.8453
  38   2.0000      -0.498469       -13.5640
  39   2.0000      -0.480963       -13.0877
  40   2.0000      -0.477287       -12.9876
  41   2.0000      -0.468713       -12.7543
  42   2.0000      -0.453557       -12.3419
  43   2.0000      -0.435881       -11.8609
  44   2.0000      -0.421721       -11.4756
  45   2.0000      -0.415192       -11.2980
  46   2.0000      -0.354015        -9.6332
  47   2.0000      -0.268191        -7.2978
  48   0.0000       0.052143         1.4189
  49   0.0000       0.065720         1.7883
  50   0.0000       0.066434         1.8078
  51   0.0000       0.070768         1.9257
  52   0.0000       0.088434         2.4064

MULLIKEN ATOMIC CHARGES
-----------------------
   0 C :   -0.808041
   1 N :   -0.186892
   2 C :   -0.511981
   3 C :   -0.510432
   4 H :    0.337565
   5 H :    0.353318
   6 S :    1.149928
   7 C :    1.120286
   8 N :   -0.463349
   9 C :   -1.650546
  10 H :    0.349716
  11 H :    0.310208
  12 H :    0.231267
  13 H :    0.174590
  14 H :    0.189466
  15 O :   -0.598486
  16 O :   -0.598634
  17 F :   -0.152482
  18 H :    0.285563
  19 H :    0.313025
  20 H :    0.420788
  21 H :    0.245125
Sum of atomic charges:   -0.0000000

LOEWDIN ATOMIC CHARGES
----------------------
   0 C :   -0.173196
   1 N :    0.021962
   2 C :   -0.203535
   3 C :   -0.215097
   4 H :    0.108394
   5 H :    0.114189
   6 S :    0.608605
   7 C :   -0.547726
   8 N :    0.104946
   9 C :    0.019617
  10 H :   -0.030838
  11 H :    0.028210
  12 H :    0.143037
  13 H :    0.099590
  14 H :    0.108429
  15 O :   -0.263584
  16 O :   -0.264687
  17 F :   -0.123400
  18 H :    0.114407
  19 H :    0.117919
  20 H :    0.111139
  21 H :    0.121620

  Mayer bond orders larger than 0.100000
B(  0-C ,  1-N ) :   1.0285 B(  0-C ,  2-C ) :   0.8669 B(  0-C ,  9-C ) :   0.1014
B(  0-C , 20-H ) :   0.7984 B(  0-C , 21-H ) :   0.9848 B(  1-N ,  7-C ) :   1.0822
B(  1-N , 12-H ) :   0.9449 B(  2-C ,  3-C ) :   1.1369 B(  2-C ,  6-S ) :   0.1932
B(  2-C , 18-H ) :   0.9742 B(  2-C , 19-H ) :   0.8783 B(  3-C ,  4-H ) :   0.8990
B(  3-C ,  5-H ) :   0.8762 B(  3-C ,  6-S ) :   0.7297 B(  3-C , 15-O ) :   0.1220
B(  6-S , 15-O ) :   1.6183 B(  6-S , 16-O ) :   1.6373 B(  6-S , 17-F ) :   1.0521
B(  7-C ,  8-N ) :   0.8813 B(  7-C ,  9-C ) :   0.6984 B(  7-C , 11-H ) :  -0.1802
B(  8-N ,  9-C ) :   0.1215 B(  8-N , 13-H ) :   1.0315 B(  8-N , 14-H ) :   1.0157
B(  9-C , 10-H ) :   0.9851 B(  9-C , 11-H ) :   1.0800 B(  9-C , 17-F ) :   0.1060
B( 10-H , 17-F ) :  -0.2319

Dispersion correction           -0.009826618
FINAL SINGLE POINT ENERGY      -955.161504596924

DIPOLE MOMENT
-------------
                                X             Y             Z
Electronic contribution:    -12.63988      -2.63169      -2.43041
Nuclear contribution   :     14.72648       3.38697       3.27638
                        -----------------------------------------
Total Dipole Moment    :      2.08661       0.75527       0.84596
                        -----------------------------------------
Magnitude (a.u.)       :      2.37487
Magnitude (Debye)      :      6.03645

Rotational constants in cm-1:     0.059651     0.020833     0.018010
Rotational constants in MHz :  1788.283887   624.555661   539.921162

                             ****ORCA TERMINATED NORMALLY****
TOTAL RUN TIME: 0 days 0 hours 1 minutes 38 seconds 278 msec
