                         Program Version 5.0.0 -  RELEASE  -
|  1> !DLPNO-CCSD(T) aug-cc-pVTZ aug-cc-pVTZ/C TightSCF TightPNO RIJCOSX def2/J
|  2> *xyz -1 1
|  3> C          1.44442        5.26658       -0.97546
|  4> O          1.56525        4.23349       -1.86489
|  5> C          0.14812        5.21087       -0.13809
|  6> H          1.47425        6.26464       -1.47692
|  7> H          2.28962        5.30327       -0.26445
|  8> H         -0.69779        5.17417       -0.79230
|  9> H          0.08430        6.08276        0.47887
| 10> H          0.15965        4.33708        0.47938
| 11> *
| 12> %MaxCore 64000
| 13>
| 14> %pal nprocs 18
| 15> end
| 16>
| 17> %scf
| 18>   MaxIter 150
| 19> end
| 20>
| 21>
| 22>                          ****END OF INPUT****

CARTESIAN COORDINATES (ANGSTROEM)
---------------------------------
  C      1.444420    5.266580   -0.975460
  O      1.565250    4.233490   -1.864890
  C      0.148120    5.210870   -0.138090
  H      1.474250    6.264640   -1.476920
  H      2.289620    5.303270   -0.264450
  H     -0.697790    5.174170   -0.792300
  H      0.084300    6.082760    0.478870
  H      0.159650    4.337080    0.479380

 Total Charge           Charge          ....   -1
 Multiplicity           Mult            ....    1
 Number of Electrons    NEL             ....   26
 Basis Dimension        Dim             ....  253

ORBITAL ENERGIES
----------------

  NO   OCC          E(Eh)            E(eV)
   0   2.0000     -20.204202      -549.7843
   1   2.0000     -11.037506      -300.3458
   2   2.0000     -11.013064      -299.6807
   3   2.0000      -0.993193       -27.0261
   4   2.0000      -0.783933       -21.3319
   5   2.0000      -0.588248       -16.0070
   6   2.0000      -0.412082       -11.2133
   7   2.0000      -0.387097       -10.5335
   8   2.0000      -0.319951        -8.7063
   9   2.0000      -0.305238        -8.3060
  10   2.0000      -0.259624        -7.0647
  11   2.0000      -0.111430        -3.0322
  12   2.0000      -0.109484        -2.9792
  13   0.0000       0.133032         3.6200
  14   0.0000       0.141773         3.8578
  15   0.0000       0.143500         3.9048
  16   0.0000       0.154386         4.2011
  17   0.0000       0.167245         4.5510

MULLIKEN ATOMIC CHARGES
-----------------------
   0 C :   -0.143473
   1 O :   -1.113531
   2 C :   -0.942610
   3 H :    0.180156
   4 H :    0.202047
   5 H :    0.284754
   6 H :    0.279901
   7 H :    0.252756
Sum of atomic charges:   -1.0000000

LOEWDIN ATOMIC CHARGES
----------------------
   0 C :   -0.420758
   1 O :    0.092341
   2 C :    0.496745
   3 H :   -0.232582
   4 H :   -0.244734
   5 H :   -0.225954
   6 H :   -0.239417
   7 H :   -0.225642

  Mayer bond orders larger than 0.100000
B(  0-C ,  1-O ) :   1.1024 B(  0-C ,  2-C ) :   0.8697 B(  0-C ,  3-H ) :   0.9861
B(  0-C ,  4-H ) :   0.9801 B(  2-C ,  5-H ) :   0.9070 B(  2-C ,  6-H ) :   0.9137
B(  2-C ,  7-H ) :   0.9429

E(0)                                       ...   -153.509817550
E(0)                                       ...   -153.509817550
E(CORR)(strong-pairs)                      ...     -0.651365231
E(CORR)(weak-pairs)                        ...     -0.000422681
E(CORR)(corrected)                         ...     -0.651787912
E(TOT)                                     ...   -154.161605462
E(CCSD(T))                                 ...   -154.188016676
FINAL SINGLE POINT ENERGY      -154.188016675765

DIPOLE MOMENT
-------------
                                X             Y             Z
Electronic contribution:      1.11956      -1.52467      -1.93540
Nuclear contribution   :     -1.83256       2.47114       3.17273
                        -----------------------------------------
Total Dipole Moment    :     -0.71300       0.94647       1.23733
                        -----------------------------------------
Magnitude (a.u.)       :      1.71323
Magnitude (Debye)      :      4.35469

Rotational constants in cm-1:     1.286062     0.322579     0.284728
Rotational constants in MHz : 38555.180127  9670.683110  8535.939140

                             ****ORCA TERMINATED NORMALLY****
TOTAL RUN TIME: 0 days 0 hours 2 minutes 8 seconds 104 msec
