                         Program Version 5.0.0 -  RELEASE  -
|  1> !DLPNO-CCSD(T) aug-cc-pVTZ aug-cc-pVTZ/C TightSCF TightPNO RIJCOSX def2/J
|  2> *xyz 1 1
|  3> C         -0.70169        4.07250       -4.00392
|  4> N          0.68053        4.61482       -4.04800
|  5> H          0.69993        5.58489       -4.38827
|  6> H          1.27804        4.05598       -4.66824
|  7> H          1.08573        4.53358       -3.10652
|  8> C         -1.70347        5.09320       -3.47740
|  9> H         -0.99590        3.74039       -5.00065
| 10> H         -0.64358        3.20191       -3.35153
| 11> H         -1.73704        5.93384       -4.13853
| 12> H         -1.40338        5.41759       -2.50291
| 13> H         -2.67335        4.64479       -3.42108
| 14> *
| 15> %MaxCore 64000
| 16>
| 17> %pal nprocs 18
| 18> end
| 19>
| 20> %scf
| 21>   MaxIter 150
| 22> end
| 23>
| 24>
| 25>                          ****END OF INPUT****

CARTESIAN COORDINATES (ANGSTROEM)
---------------------------------
  C     -0.701690    4.072500   -4.003920
  N      0.680530    4.614820   -4.048000
  H      0.699930    5.584890   -4.388270
  H      1.278040    4.055980   -4.668240
  H      1.085730    4.533580   -3.106520
  C     -1.703470    5.093200   -3.477400
  H     -0.995900    3.740390   -5.000650
  H     -0.643580    3.201910   -3.351530
  H     -1.737040    5.933840   -4.138530
  H     -1.403380    5.417590   -2.502910
  H     -2.673350    4.644790   -3.421080

 Total Charge           Charge          ....    1
 Multiplicity           Mult            ....    1
 Number of Electrons    NEL             ....   26
 Basis Dimension        Dim             ....  322

ORBITAL ENERGIES
----------------

  NO   OCC          E(Eh)            E(eV)
   0   2.0000     -15.902082      -432.7177
   1   2.0000     -11.480468      -312.3994
   2   2.0000     -11.397028      -310.1289
   3   2.0000      -1.522271       -41.4231
   4   2.0000      -1.225548       -33.3488
   5   2.0000      -1.067142       -29.0384
   6   2.0000      -0.986083       -26.8327
   7   2.0000      -0.966308       -26.2946
   8   2.0000      -0.859890       -23.3988
   9   2.0000      -0.806180       -21.9373
  10   2.0000      -0.734407       -19.9842
  11   2.0000      -0.713638       -19.4191
  12   2.0000      -0.699698       -19.0397
  13   0.0000      -0.119534        -3.2527
  14   0.0000      -0.083790        -2.2801
  15   0.0000      -0.082348        -2.2408
  16   0.0000      -0.074557        -2.0288
  17   0.0000      -0.047833        -1.3016

MULLIKEN ATOMIC CHARGES
-----------------------
   0 C :   -0.346361
   1 N :    0.103928
   2 H :    0.155866
   3 H :    0.131796
   4 H :    0.169803
   5 C :   -0.940261
   6 H :    0.364018
   7 H :    0.349914
   8 H :    0.336816
   9 H :    0.320807
  10 H :    0.353674
Sum of atomic charges:    1.0000000

LOEWDIN ATOMIC CHARGES
----------------------
   0 C :    0.323896
   1 N :    1.099162
   2 H :   -0.125615
   3 H :   -0.124874
   4 H :   -0.126478
   5 C :    0.665471
   6 H :   -0.109060
   7 H :   -0.113907
   8 H :   -0.167883
   9 H :   -0.167793
  10 H :   -0.152918

  Mayer bond orders larger than 0.100000
B(  0-C ,  1-N ) :   0.7971 B(  0-C ,  5-C ) :   0.8647 B(  0-C ,  6-H ) :   0.8591
B(  0-C ,  7-H ) :   0.8865 B(  1-N ,  2-H ) :   0.9801 B(  1-N ,  3-H ) :   1.0303
B(  1-N ,  4-H ) :   0.9912 B(  5-C ,  8-H ) :   0.8936 B(  5-C ,  9-H ) :   0.9228
B(  5-C , 10-H ) :   0.9075

E(0)                                       ...   -134.671073758
E(0)                                       ...   -134.671073758
E(CORR)(strong-pairs)                      ...     -0.615453365
E(CORR)(weak-pairs)                        ...     -0.000455471
E(CORR)(corrected)                         ...     -0.615908836
E(TOT)                                     ...   -135.286982594
E(CCSD(T))                                 ...   -135.307859349
FINAL SINGLE POINT ENERGY      -135.307859348990

DIPOLE MOMENT
-------------
                                X             Y             Z
Electronic contribution:      1.77449      -0.33334      -0.45976
Nuclear contribution   :     -0.23930       0.27560       0.19485
                        -----------------------------------------
Total Dipole Moment    :      1.53519      -0.05774      -0.26490
                        -----------------------------------------
Magnitude (a.u.)       :      1.55895
Magnitude (Debye)      :      3.96253

Rotational constants in cm-1:     1.018556     0.279088     0.248454
Rotational constants in MHz : 30535.536069  8366.847891  7448.451392

                             ****ORCA TERMINATED NORMALLY****
TOTAL RUN TIME: 0 days 0 hours 1 minutes 46 seconds 179 msec
