                         Program Version 5.0.0 -  RELEASE  -
|  1> !DLPNO-CCSD(T) aug-cc-pVTZ aug-cc-pVTZ/C TightSCF TightPNO RIJCOSX def2/J
|  2> *xyz 0 1
|  3> C          1.44442        5.26658       -0.97546
|  4> F          1.56525        4.23349       -1.86489
|  5> C          0.14812        5.21087       -0.13809
|  6> H          1.47425        6.26464       -1.47692
|  7> H          2.28962        5.30327       -0.26445
|  8> H         -0.69779        5.17417       -0.79230
|  9> H          0.08430        6.08276        0.47887
| 10> H          0.15965        4.33708        0.47938
| 11> *
| 12> %MaxCore 64000
| 13>
| 14> %pal nprocs 18
| 15> end
| 16>
| 17> %scf
| 18>   MaxIter 150
| 19> end
| 20>
| 21>
| 22>                          ****END OF INPUT****

CARTESIAN COORDINATES (ANGSTROEM)
---------------------------------
  C      1.444420    5.266580   -0.975460
  F      1.565250    4.233490   -1.864890
  C      0.148120    5.210870   -0.138090
  H      1.474250    6.264640   -1.476920
  H      2.289620    5.303270   -0.264450
  H     -0.697790    5.174170   -0.792300
  H      0.084300    6.082760    0.478870
  H      0.159650    4.337080    0.479380

 Total Charge           Charge          ....    0
 Multiplicity           Mult            ....    1
 Number of Electrons    NEL             ....   26
 Basis Dimension        Dim             ....  253

ORBITAL ENERGIES
----------------

  NO   OCC          E(Eh)            E(eV)
   0   2.0000     -26.284395      -715.2347
   1   2.0000     -11.311992      -307.8150
   2   2.0000     -11.220540      -305.3264
   3   2.0000      -1.596302       -43.4376
   4   2.0000      -1.030989       -28.0546
   5   2.0000      -0.864800       -23.5324
   6   2.0000      -0.703374       -19.1398
   7   2.0000      -0.701771       -19.0962
   8   2.0000      -0.663698       -18.0601
   9   2.0000      -0.585292       -15.9266
  10   2.0000      -0.561238       -15.2721
  11   2.0000      -0.494740       -13.4626
  12   2.0000      -0.489200       -13.3118
  13   0.0000       0.030250         0.8231
  14   0.0000       0.041320         1.1244
  15   0.0000       0.041993         1.1427
  16   0.0000       0.049160         1.3377
  17   0.0000       0.067045         1.8244

MULLIKEN ATOMIC CHARGES
-----------------------
   0 C :   -0.055226
   1 F :   -0.481399
   2 C :   -0.987851
   3 H :    0.278588
   4 H :    0.295109
   5 H :    0.318462
   6 H :    0.340412
   7 H :    0.291904
Sum of atomic charges:   -0.0000000

LOEWDIN ATOMIC CHARGES
----------------------
   0 C :   -0.115449
   1 F :    0.452421
   2 C :    0.591263
   3 H :   -0.163877
   4 H :   -0.176845
   5 H :   -0.196798
   6 H :   -0.193675
   7 H :   -0.197041

  Mayer bond orders larger than 0.100000
B(  0-C ,  1-F ) :   0.6076 B(  0-C ,  2-C ) :   0.9236 B(  0-C ,  3-H ) :   0.9275
B(  0-C ,  4-H ) :   0.9229 B(  2-C ,  5-H ) :   0.8907 B(  2-C ,  6-H ) :   0.8870
B(  2-C ,  7-H ) :   0.9239

E(0)                                       ...   -178.147355397
E(0)                                       ...   -178.147355397
E(CORR)(strong-pairs)                      ...     -0.645144859
E(CORR)(weak-pairs)                        ...     -0.000406041
E(CORR)(corrected)                         ...     -0.645550900
E(TOT)                                     ...   -178.792906296
E(CCSD(T))                                 ...   -178.814145780
FINAL SINGLE POINT ENERGY      -178.814145779689

DIPOLE MOMENT
-------------
                                X             Y             Z
Electronic contribution:      2.29373      -2.69261      -3.65475
Nuclear contribution   :     -2.43357       3.25919       4.19687
                        -----------------------------------------
Total Dipole Moment    :     -0.13984       0.56658       0.54212
                        -----------------------------------------
Magnitude (a.u.)       :      0.79653
Magnitude (Debye)      :      2.02463

Rotational constants in cm-1:     1.264662     0.300144     0.266170
Rotational constants in MHz : 37913.611527  8998.095216  7979.576054

                             ****ORCA TERMINATED NORMALLY****
TOTAL RUN TIME: 0 days 0 hours 1 minutes 33 seconds 956 msec
