                         Program Version 5.0.0 -  RELEASE  -
|  1> !DLPNO-CCSD(T) aug-cc-pVTZ aug-cc-pVTZ/C TightSCF TightPNO RIJCOSX def2/J
|  2> *xyz 0 1
|  3> C         -0.70169        4.07250       -4.00392
|  4> C          0.68053        4.61482       -4.04800
|  5> H          0.69993        5.58489       -4.38827
|  6> H          1.27804        4.05598       -4.66824
|  7> H          1.08573        4.53358       -3.10652
|  8> C         -1.70347        5.09320       -3.47740
|  9> H         -0.99590        3.74039       -5.00065
| 10> H         -0.64358        3.20191       -3.35153
| 11> H         -1.73704        5.93384       -4.13853
| 12> H         -1.40338        5.41759       -2.50291
| 13> H         -2.67335        4.64479       -3.42108
| 14> *
| 15> %MaxCore 64000
| 16>
| 17> %pal nprocs 18
| 18> end
| 19>
| 20> %scf
| 21>   MaxIter 150
| 22> end
| 23>
| 24>
| 25>                          ****END OF INPUT****

CARTESIAN COORDINATES (ANGSTROEM)
---------------------------------
  C     -0.701690    4.072500   -4.003920
  C      0.680530    4.614820   -4.048000
  H      0.699930    5.584890   -4.388270
  H      1.278040    4.055980   -4.668240
  H      1.085730    4.533580   -3.106520
  C     -1.703470    5.093200   -3.477400
  H     -0.995900    3.740390   -5.000650
  H     -0.643580    3.201910   -3.351530
  H     -1.737040    5.933840   -4.138530
  H     -1.403380    5.417590   -2.502910
  H     -2.673350    4.644790   -3.421080

 Total Charge           Charge          ....    0
 Multiplicity           Mult            ....    1
 Number of Electrons    NEL             ....   26
 Basis Dimension        Dim             ....  322

ORBITAL ENERGIES
----------------

  NO   OCC          E(Eh)            E(eV)
   0   2.0000     -11.206979      -304.9574
   1   2.0000     -11.199453      -304.7526
   2   2.0000     -11.178244      -304.1755
   3   2.0000      -1.067205       -29.0401
   4   2.0000      -0.940009       -25.5790
   5   2.0000      -0.802606       -21.8400
   6   2.0000      -0.639749       -17.4085
   7   2.0000      -0.609325       -16.5806
   8   2.0000      -0.557623       -15.1737
   9   2.0000      -0.547307       -14.8930
  10   2.0000      -0.476862       -12.9761
  11   2.0000      -0.474472       -12.9110
  12   2.0000      -0.467857       -12.7310
  13   0.0000       0.033145         0.9019
  14   0.0000       0.040720         1.1080
  15   0.0000       0.042012         1.1432
  16   0.0000       0.042696         1.1618
  17   0.0000       0.063831         1.7369

MULLIKEN ATOMIC CHARGES
-----------------------
   0 C :   -0.367723
   1 C :   -1.006156
   2 H :    0.346819
   3 H :    0.260496
   4 H :    0.313725
   5 C :   -0.958750
   6 H :    0.265432
   7 H :    0.261018
   8 H :    0.297814
   9 H :    0.290012
  10 H :    0.297312
Sum of atomic charges:   -0.0000000

LOEWDIN ATOMIC CHARGES
----------------------
   0 C :    0.250580
   1 C :    0.605332
   2 H :   -0.203618
   3 H :   -0.207676
   4 H :   -0.205519
   5 C :    0.601294
   6 H :   -0.143310
   7 H :   -0.147406
   8 H :   -0.183067
   9 H :   -0.180661
  10 H :   -0.185948

  Mayer bond orders larger than 0.100000
B(  0-C ,  1-C ) :   0.7642 B(  0-C ,  5-C ) :   0.8250 B(  0-C ,  6-H ) :   0.9495
B(  0-C ,  7-H ) :   0.9533 B(  1-C ,  2-H ) :   0.8845 B(  1-C ,  3-H ) :   1.0057
B(  1-C ,  4-H ) :   0.9462 B(  5-C ,  8-H ) :   0.9303 B(  5-C ,  9-H ) :   0.9411
B(  5-C , 10-H ) :   0.9584

E(0)                                       ...   -118.296492721
E(0)                                       ...   -118.296492721
E(CORR)(strong-pairs)                      ...     -0.590226445
E(CORR)(weak-pairs)                        ...     -0.000446312
E(CORR)(corrected)                         ...     -0.590672757
E(TOT)                                     ...   -118.887165478
E(CCSD(T))                                 ...   -118.907642866
FINAL SINGLE POINT ENERGY      -118.907642866304

DIPOLE MOMENT
-------------
                                X             Y             Z
Electronic contribution:     -0.13448      -0.30175      -0.13640
Nuclear contribution   :      0.16058       0.27975       0.12812
                        -----------------------------------------
Total Dipole Moment    :      0.02609      -0.02200      -0.00828
                        -----------------------------------------
Magnitude (a.u.)       :      0.03512
Magnitude (Debye)      :      0.08927

Rotational constants in cm-1:     1.027122     0.293327     0.260229
Rotational constants in MHz : 30792.337141  8793.723318  7801.458329

                             ****ORCA TERMINATED NORMALLY****
TOTAL RUN TIME: 0 days 0 hours 1 minutes 52 seconds 585 msec
