                         Program Version 5.0.0 -  RELEASE  -
|  1> !PBE0 D3BJ RIJCOSX def2-SVP def2/J TightSCF
|  2> *xyz -1 1
|  3> C          0.13297        2.38587       -4.02462
|  4> C         -1.36646        2.47911       -4.31393
|  5> C         -2.35773        2.30686       -3.13675
|  6> H         -1.63680        1.72709       -5.06399
|  7> H         -1.58235        3.44561       -4.76869
|  8> O         -3.44376        2.84652       -3.25274
|  9> O         -1.97092        1.58304       -2.15123
| 10> H          0.68084        2.52514       -4.93310
| 11> H          0.35823        1.42282       -3.61633
| 12> H          0.40851        3.14443       -3.32208
| 13> *
| 14> %MaxCore 64000
| 15>
| 16> %pal nprocs 4
| 17> end
| 18>
| 19> %scf
| 20>   MaxIter 150
| 21> end
| 22>
| 23>
| 24>                          ****END OF INPUT****

CARTESIAN COORDINATES (ANGSTROEM)
---------------------------------
  C      0.132970    2.385870   -4.024620
  C     -1.366460    2.479110   -4.313930
  C     -2.357730    2.306860   -3.136750
  H     -1.636800    1.727090   -5.063990
  H     -1.582350    3.445610   -4.768690
  O     -3.443760    2.846520   -3.252740
  O     -1.970920    1.583040   -2.151230
  H      0.680840    2.525140   -4.933100
  H      0.358230    1.422820   -3.616330
  H      0.408510    3.144430   -3.322080

 Total Charge           Charge          ....   -1
 Multiplicity           Mult            ....    1
 Number of Electrons    NEL             ....   40
 Basis Dimension        Dim             ....   95

ORBITAL ENERGIES
----------------

  NO   OCC          E(Eh)            E(eV)
   0   2.0000     -18.917020      -514.7583
   1   2.0000     -18.907040      -514.4867
   2   2.0000     -10.084216      -274.4055
   3   2.0000     -10.058061      -273.6938
   4   2.0000     -10.040622      -273.2192
   5   2.0000      -0.812562       -22.1109
   6   2.0000      -0.709602       -19.3093
   7   2.0000      -0.605336       -16.4720
   8   2.0000      -0.471830       -12.8392
   9   2.0000      -0.310070        -8.4374
  10   2.0000      -0.294004        -8.0002
  11   2.0000      -0.253614        -6.9012
  12   2.0000      -0.221732        -6.0336
  13   2.0000      -0.210426        -5.7260
  14   2.0000      -0.199144        -5.4190
  15   2.0000      -0.167460        -4.5568
  16   2.0000      -0.151454        -4.1213
  17   2.0000      -0.027027        -0.7354
  18   2.0000      -0.023134        -0.6295
  19   2.0000      -0.008363        -0.2276
  20   0.0000       0.225765         6.1434
  21   0.0000       0.275160         7.4875
  22   0.0000       0.281134         7.6500
  23   0.0000       0.292450         7.9580
  24   0.0000       0.300144         8.1673

MULLIKEN ATOMIC CHARGES
-----------------------
   0 C :   -0.014472
   1 C :   -0.118924
   2 C :    0.092535
   3 H :   -0.007974
   4 H :   -0.023951
   5 O :   -0.412047
   6 O :   -0.492961
   7 H :   -0.035215
   8 H :    0.009149
   9 H :    0.003858
Sum of atomic charges:   -1.0000000

LOEWDIN ATOMIC CHARGES
----------------------
   0 C :   -0.076015
   1 C :   -0.111024
   2 C :   -0.053016
   3 H :    0.011416
   4 H :    0.000901
   5 O :   -0.356026
   6 O :   -0.435638
   7 H :   -0.005288
   8 H :    0.012474
   9 H :    0.012216

  Mayer bond orders larger than 0.100000
B(  0-C ,  1-C ) :   1.0633 B(  0-C ,  7-H ) :   0.9597 B(  0-C ,  8-H ) :   0.9632
B(  0-C ,  9-H ) :   0.9761 B(  1-C ,  2-C ) :   0.8956 B(  1-C ,  3-H ) :   0.9447
B(  1-C ,  4-H ) :   0.9463 B(  2-C ,  5-O ) :   1.8794 B(  2-C ,  6-O ) :   1.8024
B(  5-O ,  6-O ) :   0.1145

Dispersion correction           -0.005397792
FINAL SINGLE POINT ENERGY      -267.321975778209

DIPOLE MOMENT
-------------
                                X             Y             Z
Electronic contribution:     -5.41647      -0.42128       3.35532
Nuclear contribution   :      6.75610       0.63068      -4.53972
                        -----------------------------------------
Total Dipole Moment    :      1.33963       0.20940      -1.18440
                        -----------------------------------------
Magnitude (a.u.)       :      1.80035
Magnitude (Debye)      :      4.57612

Rotational constants in cm-1:     0.335096     0.130241     0.099025
Rotational constants in MHz : 10045.924902  3904.536250  2968.708333

                             ****ORCA TERMINATED NORMALLY****
TOTAL RUN TIME: 0 days 0 hours 0 minutes 11 seconds 38 msec
