                         Program Version 5.0.0 -  RELEASE  -
|  1> !PBE0 D3BJ RIJCOSX def2-SVP def2/J TightSCF
|  2> *xyz 1 1
|  3> C          0.64866        1.00359       -3.64560
|  4> N          0.28128        0.67645       -2.24018
|  5> C          0.13297        2.38587       -4.02462
|  6> H          0.39079       -0.31925       -2.02649
|  7> H         -0.69269        0.99010       -2.13812
|  8> H          0.85421        1.21221       -1.57528
|  9> H          0.19099        0.23965       -4.27575
| 10> H          1.73157        0.93173       -3.75075
| 11> H          0.40589        2.60338       -5.03610
| 12> H          0.56342        3.11797       -3.37374
| 13> H         -0.93265        2.40724       -3.93025
| 14> *
| 15> %MaxCore 64000
| 16>
| 17> %pal nprocs 4
| 18> end
| 19>
| 20> %scf
| 21>   MaxIter 150
| 22> end
| 23>
| 24>
| 25>                          ****END OF INPUT****

CARTESIAN COORDINATES (ANGSTROEM)
---------------------------------
  C      0.648660    1.003590   -3.645600
  N      0.281280    0.676450   -2.240180
  C      0.132970    2.385870   -4.024620
  H      0.390790   -0.319250   -2.026490
  H     -0.692690    0.990100   -2.138120
  H      0.854210    1.212210   -1.575280
  H      0.190990    0.239650   -4.275750
  H      1.731570    0.931730   -3.750750
  H      0.405890    2.603380   -5.036100
  H      0.563420    3.117970   -3.373740
  H     -0.932650    2.407240   -3.930250

 Total Charge           Charge          ....    1
 Multiplicity           Mult            ....    1
 Number of Electrons    NEL             ....   26
 Basis Dimension        Dim             ....   82

ORBITAL ENERGIES
----------------

  NO   OCC          E(Eh)            E(eV)
   0   2.0000     -14.734185      -400.9376
   1   2.0000     -10.486805      -285.3605
   2   2.0000     -10.410352      -283.2801
   3   2.0000      -1.237612       -33.6771
   4   2.0000      -0.983492       -26.7622
   5   2.0000      -0.861265       -23.4362
   6   2.0000      -0.819310       -22.2946
   7   2.0000      -0.811732       -22.0883
   8   2.0000      -0.711533       -19.3618
   9   2.0000      -0.656551       -17.8657
  10   2.0000      -0.598463       -16.2850
  11   2.0000      -0.583923       -15.8894
  12   2.0000      -0.565153       -15.3786
  13   0.0000      -0.172145        -4.6843
  14   0.0000      -0.112849        -3.0708
  15   0.0000      -0.109120        -2.9693
  16   0.0000      -0.079547        -2.1646
  17   0.0000      -0.039882        -1.0852

MULLIKEN ATOMIC CHARGES
-----------------------
   0 C :   -0.083249
   1 N :   -0.020453
   2 C :   -0.099559
   3 H :    0.228625
   4 H :    0.219388
   5 H :    0.222597
   6 H :    0.123274
   7 H :    0.126904
   8 H :    0.119025
   9 H :    0.082082
  10 H :    0.081367
Sum of atomic charges:    1.0000000

LOEWDIN ATOMIC CHARGES
----------------------
   0 C :    0.044274
   1 N :    0.294834
   2 C :   -0.050792
   3 H :    0.148220
   4 H :    0.144872
   5 H :    0.147118
   6 H :    0.058185
   7 H :    0.058482
   8 H :    0.068818
   9 H :    0.043411
  10 H :    0.042576

  Mayer bond orders larger than 0.100000
B(  0-C ,  1-N ) :   0.9160 B(  0-C ,  2-C ) :   1.0883 B(  0-C ,  6-H ) :   0.9498
B(  0-C ,  7-H ) :   0.9500 B(  1-N ,  3-H ) :   0.9271 B(  1-N ,  4-H ) :   0.9317
B(  1-N ,  5-H ) :   0.9315 B(  2-C ,  8-H ) :   0.9560 B(  2-C ,  9-H ) :   0.9704
B(  2-C , 10-H ) :   0.9642

Dispersion correction           -0.005040354
FINAL SINGLE POINT ENERGY      -135.274268701428

DIPOLE MOMENT
-------------
                                X             Y             Z
Electronic contribution:      0.16226      -1.32896       1.37194
Nuclear contribution   :     -0.22655       0.48066      -0.09136
                        -----------------------------------------
Total Dipole Moment    :     -0.06429      -0.84830       1.28058
                        -----------------------------------------
Magnitude (a.u.)       :      1.53741
Magnitude (Debye)      :      3.90779

Rotational constants in cm-1:     0.998155     0.284845     0.251232
Rotational constants in MHz : 29923.943568  8539.431565  7531.732866

                             ****ORCA TERMINATED NORMALLY****
TOTAL RUN TIME: 0 days 0 hours 0 minutes 9 seconds 85 msec
