                         Program Version 5.0.0 -  RELEASE  -
|  1> !PBE0 D3BJ RIJCOSX def2-TZVP def2/J TightSCF xyzfile
|  2>
|  3> *xyzfile 0 1 B.xyz
|  4>
|  5> %MaxCore 64000
|  6>
|  7> %pal nprocs 18
|  8> end
|  9>
| 10> %scf
| 11>   MaxIter 150
| 12> end
| 13>
| 14>
| 15>                          ****END OF INPUT****

CARTESIAN COORDINATES (ANGSTROEM)
---------------------------------
  C      0.648656    1.003595   -3.645601
  N      0.281280    0.676454   -2.240179
  C      0.132968    2.385869   -4.024618
  C     -1.366462    2.479106   -4.313932
  C     -2.357732    2.306858   -3.136753
  H     -1.636802    1.727095   -5.063993
  H     -1.582347    3.445605   -4.768687
  H      0.390790   -0.319253   -2.026495
  H     -0.692686    0.990104   -2.138123
  H      0.854206    1.212214   -1.575279
  O     -3.443763    2.846518   -3.252744
  O     -1.970922    1.583042   -2.151229
  H      0.190993    0.239655   -4.275752
  H      1.731572    0.931729   -3.750751
  H      0.414839    3.102847   -3.245165
  H      0.683167    2.687560   -4.919721

 Total Charge           Charge          ....    0
 Multiplicity           Mult            ....    1
 Number of Electrons    NEL             ....   56
 Basis Dimension        Dim             ....  271

ORBITAL ENERGIES
----------------

  NO   OCC          E(Eh)            E(eV)
   0   2.0000     -19.128098      -520.5020
   1   2.0000     -19.105848      -519.8965
   2   2.0000     -14.494054      -394.4033
   3   2.0000     -10.309132      -280.5257
   4   2.0000     -10.276047      -279.6254
   5   2.0000     -10.249251      -278.8963
   6   2.0000     -10.210007      -277.8284
   7   2.0000      -1.048282       -28.5252
   8   2.0000      -1.025580       -27.9075
   9   2.0000      -0.943083       -25.6626
  10   2.0000      -0.834803       -22.7161
  11   2.0000      -0.737242       -20.0614
  12   2.0000      -0.655544       -17.8383
  13   2.0000      -0.620020       -16.8716
  14   2.0000      -0.610017       -16.5994
  15   2.0000      -0.538075       -14.6418
  16   2.0000      -0.497548       -13.5390
  17   2.0000      -0.492277       -13.3955
  18   2.0000      -0.449012       -12.2182
  19   2.0000      -0.436860       -11.8876
  20   2.0000      -0.401130       -10.9153
  21   2.0000      -0.397745       -10.8232
  22   2.0000      -0.389061       -10.5869
  23   2.0000      -0.369635       -10.0583
  24   2.0000      -0.345745        -9.4082
  25   2.0000      -0.243281        -6.6200
  26   2.0000      -0.242519        -6.5993
  27   2.0000      -0.212389        -5.7794
  28   0.0000      -0.017076        -0.4647
  29   0.0000       0.028643         0.7794
  30   0.0000       0.036034         0.9805
  31   0.0000       0.064909         1.7663
  32   0.0000       0.075039         2.0419

MULLIKEN ATOMIC CHARGES
-----------------------
   0 C :   -0.180864
   1 N :   -0.285302
   2 C :   -0.219121
   3 C :   -0.248357
   4 C :    0.260831
   5 H :    0.100637
   6 H :    0.126935
   7 H :    0.274769
   8 H :    0.290677
   9 H :    0.272603
  10 O :   -0.391540
  11 O :   -0.540345
  12 H :    0.147755
  13 H :    0.147785
  14 H :    0.118028
  15 H :    0.125511
Sum of atomic charges:    0.0000000

LOEWDIN ATOMIC CHARGES
----------------------
   0 C :   -0.276341
   1 N :    0.142424
   2 C :   -0.277374
   3 C :   -0.255580
   4 C :   -0.648268
   5 H :    0.145114
   6 H :    0.149959
   7 H :    0.189918
   8 H :    0.110527
   9 H :    0.195764
  10 O :    0.027228
  11 O :   -0.073095
  12 H :    0.144304
  13 H :    0.133135
  14 H :    0.143977
  15 H :    0.148307

  Mayer bond orders larger than 0.100000
B(  0-C ,  1-N ) :   0.9274 B(  0-C ,  2-C ) :   0.9986 B(  0-C , 12-H ) :   0.9560
B(  0-C , 13-H ) :   0.9640 B(  1-N ,  7-H ) :   0.8967 B(  1-N ,  8-H ) :   0.6734
B(  1-N ,  9-H ) :   0.8993 B(  2-C ,  3-C ) :   0.9648 B(  2-C , 14-H ) :   0.9564
B(  2-C , 15-H ) :   0.9491 B(  3-C ,  4-C ) :   0.9765 B(  3-C ,  5-H ) :   0.9488
B(  3-C ,  6-H ) :   0.9475 B(  4-C , 10-O ) :   2.0146 B(  4-C , 11-O ) :   1.4667
B(  8-H , 11-O ) :   0.3431

Dispersion correction           -0.011604765
FINAL SINGLE POINT ENERGY      -362.779646389373

DIPOLE MOMENT
-------------
                                X             Y             Z
Electronic contribution:     -5.85448       0.93885       2.56028
Nuclear contribution   :      9.92875      -2.62114      -2.63866
                        -----------------------------------------
Total Dipole Moment    :      4.07427      -1.68229      -0.07838
                        -----------------------------------------
Magnitude (a.u.)       :      4.40862
Magnitude (Debye)      :     11.20582

Rotational constants in cm-1:     0.159108     0.062474     0.047603
Rotational constants in MHz :  4769.938632  1872.932224  1427.103830

                             ****ORCA TERMINATED NORMALLY****
TOTAL RUN TIME: 0 days 0 hours 0 minutes 13 seconds 229 msec
