                         Program Version 5.0.0 -  RELEASE  -
|  1> !PBE0 D3BJ RIJCOSX def2-SVP def2/J TightSCF
|  2> *xyz 0 1
|  3> C          0.13297        2.38587       -4.02462
|  4> C         -1.36646        2.47911       -4.31393
|  5> C         -2.35773        2.30686       -3.13675
|  6> H         -1.63680        1.72709       -5.06399
|  7> H         -1.58235        3.44561       -4.76869
|  8> F         -3.44376        2.84652       -3.25274
|  9> O         -1.97092        1.58304       -2.15123
| 10> H          0.68084        2.52514       -4.93310
| 11> H          0.35823        1.42282       -3.61633
| 12> H          0.40851        3.14443       -3.32208
| 13> *
| 14> %MaxCore 64000
| 15>
| 16> %pal nprocs 4
| 17> end
| 18>
| 19> %scf
| 20>   MaxIter 150
| 21> end
| 22>
| 23>
| 24>                          ****END OF INPUT****

CARTESIAN COORDINATES (ANGSTROEM)
---------------------------------
  C      0.132970    2.385870   -4.024620
  C     -1.366460    2.479110   -4.313930
  C     -2.357730    2.306860   -3.136750
  H     -1.636800    1.727090   -5.063990
  H     -1.582350    3.445610   -4.768690
  F     -3.443760    2.846520   -3.252740
  O     -1.970920    1.583040   -2.151230
  H      0.680840    2.525140   -4.933100
  H      0.358230    1.422820   -3.616330
  H      0.408510    3.144430   -3.322080

 Total Charge           Charge          ....    0
 Multiplicity           Mult            ....    1
 Number of Electrons    NEL             ....   40
 Basis Dimension        Dim             ....   95

ORBITAL ENERGIES
----------------

  NO   OCC          E(Eh)            E(eV)
   0   2.0000     -24.854626      -676.3288
   1   2.0000     -19.207152      -522.6532
   2   2.0000     -10.406465      -283.1743
   3   2.0000     -10.261532      -279.2305
   4   2.0000     -10.231814      -278.4218
   5   2.0000      -1.359468       -36.9930
   6   2.0000      -1.027155       -27.9503
   7   2.0000      -0.810230       -22.0475
   8   2.0000      -0.710733       -19.3400
   9   2.0000      -0.658326       -17.9140
  10   2.0000      -0.577939       -15.7265
  11   2.0000      -0.559869       -15.2348
  12   2.0000      -0.515165       -14.0184
  13   2.0000      -0.477643       -12.9973
  14   2.0000      -0.439042       -11.9469
  15   2.0000      -0.403625       -10.9832
  16   2.0000      -0.383197       -10.4273
  17   2.0000      -0.380348       -10.3498
  18   2.0000      -0.348748        -9.4899
  19   2.0000      -0.292801        -7.9675
  20   0.0000      -0.014651        -0.3987
  21   0.0000       0.068456         1.8628
  22   0.0000       0.115168         3.1339
  23   0.0000       0.124684         3.3928
  24   0.0000       0.137823         3.7504

MULLIKEN ATOMIC CHARGES
-----------------------
   0 C :   -0.030568
   1 C :   -0.188456
   2 C :    0.280770
   3 H :    0.081166
   4 H :    0.053458
   5 F :   -0.038719
   6 O :   -0.306173
   7 H :    0.040174
   8 H :    0.060221
   9 H :    0.048127
Sum of atomic charges:   -0.0000000

LOEWDIN ATOMIC CHARGES
----------------------
   0 C :   -0.049429
   1 C :   -0.088709
   2 C :    0.096012
   3 H :    0.053122
   4 H :    0.033652
   5 F :    0.088831
   6 O :   -0.230400
   7 H :    0.030960
   8 H :    0.034630
   9 H :    0.031331

  Mayer bond orders larger than 0.100000
B(  0-C ,  1-C ) :   1.0876 B(  0-C ,  7-H ) :   0.9650 B(  0-C ,  8-H ) :   0.9686
B(  0-C ,  9-H ) :   0.9790 B(  1-C ,  2-C ) :   0.9896 B(  1-C ,  3-H ) :   0.9259
B(  1-C ,  4-H ) :   0.9406 B(  2-C ,  5-F ) :   1.2272 B(  2-C ,  6-O ) :   2.0301

Dispersion correction           -0.005122514
FINAL SINGLE POINT ENERGY      -291.851596424934

DIPOLE MOMENT
-------------
                                X             Y             Z
Electronic contribution:     -8.42919       0.44193       3.63943
Nuclear contribution   :      8.54799       0.05434      -4.66633
                        -----------------------------------------
Total Dipole Moment    :      0.11879       0.49627      -1.02690
                        -----------------------------------------
Magnitude (a.u.)       :      1.14670
Magnitude (Debye)      :      2.91468

Rotational constants in cm-1:     0.325803     0.123345     0.094275
Rotational constants in MHz :  9767.324172  3697.779805  2826.305733

                             ****ORCA TERMINATED NORMALLY****
TOTAL RUN TIME: 0 days 0 hours 0 minutes 10 seconds 150 msec
