                         Program Version 5.0.0 -  RELEASE  -
|  1> !PBE0 D3BJ RIJCOSX def2-SVP def2/J TightSCF
|  2> *xyz 0 1
|  3> C          0.64866        1.00359       -3.64560
|  4> C          0.28128        0.67645       -2.24018
|  5> C          0.13297        2.38587       -4.02462
|  6> H          0.39079       -0.31925       -2.02649
|  7> H         -0.69269        0.99010       -2.13812
|  8> H          0.85421        1.21221       -1.57528
|  9> H          0.19099        0.23965       -4.27575
| 10> H          1.73157        0.93173       -3.75075
| 11> H          0.40589        2.60338       -5.03610
| 12> H          0.56342        3.11797       -3.37374
| 13> H         -0.93265        2.40724       -3.93025
| 14> *
| 15> %MaxCore 64000
| 16>
| 17> %pal nprocs 4
| 18> end
| 19>
| 20> %scf
| 21>   MaxIter 150
| 22> end
| 23>
| 24>
| 25>                          ****END OF INPUT****

CARTESIAN COORDINATES (ANGSTROEM)
---------------------------------
  C      0.648660    1.003590   -3.645600
  C      0.281280    0.676450   -2.240180
  C      0.132970    2.385870   -4.024620
  H      0.390790   -0.319250   -2.026490
  H     -0.692690    0.990100   -2.138120
  H      0.854210    1.212210   -1.575280
  H      0.190990    0.239650   -4.275750
  H      1.731570    0.931730   -3.750750
  H      0.405890    2.603380   -5.036100
  H      0.563420    3.117970   -3.373740
  H     -0.932650    2.407240   -3.930250

 Total Charge           Charge          ....    0
 Multiplicity           Mult            ....    1
 Number of Electrons    NEL             ....   26
 Basis Dimension        Dim             ....   82

ORBITAL ENERGIES
----------------

  NO   OCC          E(Eh)            E(eV)
   0   2.0000     -10.217204      -278.0243
   1   2.0000     -10.210444      -277.8403
   2   2.0000     -10.192527      -277.3528
   3   2.0000      -0.808555       -22.0019
   4   2.0000      -0.701541       -19.0899
   5   2.0000      -0.596297       -16.2261
   6   2.0000      -0.480337       -13.0706
   7   2.0000      -0.461883       -12.5685
   8   2.0000      -0.414265       -11.2727
   9   2.0000      -0.397246       -10.8096
  10   2.0000      -0.349310        -9.5052
  11   2.0000      -0.344712        -9.3801
  12   2.0000      -0.336356        -9.1527
  13   0.0000       0.075353         2.0504
  14   0.0000       0.123320         3.3557
  15   0.0000       0.124487         3.3875
  16   0.0000       0.130122         3.5408
  17   0.0000       0.157169         4.2768

MULLIKEN ATOMIC CHARGES
-----------------------
   0 C :   -0.149465
   1 C :    0.015066
   2 C :   -0.060458
   3 H :    0.015061
   4 H :    0.005660
   5 H :    0.010906
   6 H :    0.032155
   7 H :    0.033329
   8 H :    0.033800
   9 H :    0.031454
  10 H :    0.032493
Sum of atomic charges:   -0.0000000

LOEWDIN ATOMIC CHARGES
----------------------
   0 C :   -0.049496
   1 C :   -0.051371
   2 C :   -0.062327
   3 H :    0.016410
   4 H :    0.016387
   5 H :    0.016367
   6 H :    0.022588
   7 H :    0.021406
   8 H :    0.024110
   9 H :    0.023101
  10 H :    0.022826

  Mayer bond orders larger than 0.100000
B(  0-C ,  1-C ) :   1.0921 B(  0-C ,  2-C ) :   1.0933 B(  0-C ,  6-H ) :   0.9579
B(  0-C ,  7-H ) :   0.9577 B(  1-C ,  3-H ) :   0.9683 B(  1-C ,  4-H ) :   0.9730
B(  1-C ,  5-H ) :   0.9711 B(  2-C ,  8-H ) :   0.9716 B(  2-C ,  9-H ) :   0.9766
B(  2-C , 10-H ) :   0.9726

Dispersion correction           -0.005059642
FINAL SINGLE POINT ENERGY      -118.888536595489

DIPOLE MOMENT
-------------
                                X             Y             Z
Electronic contribution:      0.25117      -0.27041      -0.23903
Nuclear contribution   :     -0.24754       0.26111       0.24628
                        -----------------------------------------
Total Dipole Moment    :      0.00364      -0.00930       0.00725
                        -----------------------------------------
Magnitude (a.u.)       :      0.01234
Magnitude (Debye)      :      0.03136

Rotational constants in cm-1:     1.006509     0.299509     0.263145
Rotational constants in MHz : 30174.379724  8979.049324  7888.875355

                             ****ORCA TERMINATED NORMALLY****
TOTAL RUN TIME: 0 days 0 hours 0 minutes 8 seconds 243 msec
