                         Program Version 5.0.0 -  RELEASE  -
|  1> !PBE0 D3BJ RIJCOSX def2-SVP def2/J TightSCF
|  2> *xyz 0 1
|  3> C          0.13297        2.38587       -4.02462
|  4> C         -1.36646        2.47911       -4.31393
|  5> C         -2.35773        2.30686       -3.13675
|  6> H         -1.63680        1.72709       -5.06399
|  7> H         -1.58235        3.44561       -4.76869
|  8> O         -3.44376        2.84652       -3.25274
|  9> F         -1.97092        1.58304       -2.15123
| 10> H          0.68084        2.52514       -4.93310
| 11> H          0.35823        1.42282       -3.61633
| 12> H          0.40851        3.14443       -3.32208
| 13> *
| 14> %MaxCore 64000
| 15>
| 16> %pal nprocs 4
| 17> end
| 18>
| 19> %scf
| 20>   MaxIter 150
| 21> end
| 22>
| 23>
| 24>                          ****END OF INPUT****

CARTESIAN COORDINATES (ANGSTROEM)
---------------------------------
  C      0.132970    2.385870   -4.024620
  C     -1.366460    2.479110   -4.313930
  C     -2.357730    2.306860   -3.136750
  H     -1.636800    1.727090   -5.063990
  H     -1.582350    3.445610   -4.768690
  O     -3.443760    2.846520   -3.252740
  F     -1.970920    1.583040   -2.151230
  H      0.680840    2.525140   -4.933100
  H      0.358230    1.422820   -3.616330
  H      0.408510    3.144430   -3.322080

 Total Charge           Charge          ....    0
 Multiplicity           Mult            ....    1
 Number of Electrons    NEL             ....   40
 Basis Dimension        Dim             ....   95

ORBITAL ENERGIES
----------------

  NO   OCC          E(Eh)            E(eV)
   0   2.0000     -24.830808      -675.6806
   1   2.0000     -19.216528      -522.9083
   2   2.0000     -10.401561      -283.0409
   3   2.0000     -10.260022      -279.1894
   4   2.0000     -10.236848      -278.5588
   5   2.0000      -1.309982       -35.6464
   6   2.0000      -1.068336       -29.0709
   7   2.0000      -0.812935       -22.1211
   8   2.0000      -0.691869       -18.8267
   9   2.0000      -0.648726       -17.6527
  10   2.0000      -0.552226       -15.0268
  11   2.0000      -0.546801       -14.8792
  12   2.0000      -0.504811       -13.7366
  13   2.0000      -0.477479       -12.9929
  14   2.0000      -0.443828       -12.0772
  15   2.0000      -0.416279       -11.3275
  16   2.0000      -0.399242       -10.8639
  17   2.0000      -0.384715       -10.4686
  18   2.0000      -0.363014        -9.8781
  19   2.0000      -0.304461        -8.2848
  20   0.0000      -0.009409        -0.2560
  21   0.0000       0.063270         1.7217
  22   0.0000       0.114837         3.1249
  23   0.0000       0.125158         3.4057
  24   0.0000       0.136324         3.7096

MULLIKEN ATOMIC CHARGES
-----------------------
   0 C :   -0.054987
   1 C :   -0.189094
   2 C :    0.292754
   3 H :    0.083829
   4 H :    0.078275
   5 O :   -0.234782
   6 F :   -0.120476
   7 H :    0.046764
   8 H :    0.048477
   9 H :    0.049239
Sum of atomic charges:    0.0000000

LOEWDIN ATOMIC CHARGES
----------------------
   0 C :   -0.062790
   1 C :   -0.085768
   2 C :    0.107306
   3 H :    0.053560
   4 H :    0.049205
   5 O :   -0.159644
   6 F :    0.007240
   7 H :    0.033539
   8 H :    0.028042
   9 H :    0.029310

  Mayer bond orders larger than 0.100000
B(  0-C ,  1-C ) :   1.0590 B(  0-C ,  7-H ) :   0.9652 B(  0-C ,  8-H ) :   0.9728
B(  0-C ,  9-H ) :   0.9792 B(  1-C ,  2-C ) :   0.9886 B(  1-C ,  3-H ) :   0.9330
B(  1-C ,  4-H ) :   0.9506 B(  2-C ,  5-O ) :   2.1038 B(  2-C ,  6-F ) :   1.1465

Dispersion correction           -0.005082640
FINAL SINGLE POINT ENERGY      -291.869198976146

DIPOLE MOMENT
-------------
                                X             Y             Z
Electronic contribution:     -5.97509      -1.63260       5.43413
Nuclear contribution   :      6.94213       1.43193      -5.86732
                        -----------------------------------------
Total Dipole Moment    :      0.96704      -0.20067      -0.43319
                        -----------------------------------------
Magnitude (a.u.)       :      1.07847
Magnitude (Debye)      :      2.74124

Rotational constants in cm-1:     0.306336     0.129048     0.095707
Rotational constants in MHz :  9183.725605  3868.769583  2869.236577

                             ****ORCA TERMINATED NORMALLY****
TOTAL RUN TIME: 0 days 0 hours 0 minutes 11 seconds 223 msec
