                         Program Version 5.0.0 -  RELEASE  -
|  1> !PBE0 D3BJ RIJCOSX def2-TZVP def2/J TightSCF xyzfile
|  2>
|  3> *xyzfile 0 1 D2.xyz
|  4>
|  5> %MaxCore 64000
|  6>
|  7> %pal nprocs 18
|  8> end
|  9>
| 10> %scf
| 11>   MaxIter 150
| 12> end
| 13>
| 14>
| 15>                          ****END OF INPUT****

CARTESIAN COORDINATES (ANGSTROEM)
---------------------------------
  C      0.648656    1.003595   -3.645601
  C      0.281280    0.676454   -2.240179
  C      0.132968    2.385869   -4.024618
  C     -1.366462    2.479106   -4.313932
  C     -2.357732    2.306858   -3.136753
  H     -1.636802    1.727095   -5.063993
  H     -1.582347    3.445605   -4.768687
  H      0.390790   -0.319253   -2.026495
  H     -0.692686    0.990104   -2.138123
  H      0.854206    1.212214   -1.575279
  O     -3.443763    2.846518   -3.252744
  F     -1.970922    1.583042   -2.151229
  H      0.190993    0.239655   -4.275752
  H      1.731572    0.931729   -3.750751
  H      0.414839    3.102847   -3.245165
  H      0.683167    2.687560   -4.919721

 Total Charge           Charge          ....    0
 Multiplicity           Mult            ....    1
 Number of Electrons    NEL             ....   56
 Basis Dimension        Dim             ....  271

ORBITAL ENERGIES
----------------

  NO   OCC          E(Eh)            E(eV)
   0   2.0000     -24.843534      -676.0269
   1   2.0000     -19.221931      -523.0553
   2   2.0000     -10.403424      -283.0916
   3   2.0000     -10.255554      -279.0678
   4   2.0000     -10.232787      -278.4483
   5   2.0000     -10.213937      -277.9354
   6   2.0000     -10.158984      -276.4400
   7   2.0000      -1.354931       -36.8695
   8   2.0000      -1.092387       -29.7254
   9   2.0000      -0.847982       -23.0748
  10   2.0000      -0.786851       -21.4113
  11   2.0000      -0.699607       -19.0373
  12   2.0000      -0.697161       -18.9707
  13   2.0000      -0.602860       -16.4047
  14   2.0000      -0.579663       -15.7734
  15   2.0000      -0.567523       -15.4431
  16   2.0000      -0.524921       -14.2838
  17   2.0000      -0.486676       -13.2431
  18   2.0000      -0.467663       -12.7258
  19   2.0000      -0.462205       -12.5772
  20   2.0000      -0.435430       -11.8486
  21   2.0000      -0.404267       -11.0007
  22   2.0000      -0.397635       -10.8202
  23   2.0000      -0.377654       -10.2765
  24   2.0000      -0.349086        -9.4991
  25   2.0000      -0.343907        -9.3582
  26   2.0000      -0.335847        -9.1388
  27   2.0000      -0.304470        -8.2850
  28   0.0000      -0.024380        -0.6634
  29   0.0000       0.036663         0.9977
  30   0.0000       0.069493         1.8910
  31   0.0000       0.075594         2.0570
  32   0.0000       0.085759         2.3336

MULLIKEN ATOMIC CHARGES
-----------------------
   0 C :   -0.169093
   1 C :   -0.414974
   2 C :   -0.190365
   3 C :   -0.260683
   4 C :    0.318470
   5 H :    0.135440
   6 H :    0.152668
   7 H :    0.110197
   8 H :    0.145719
   9 H :    0.106169
  10 O :   -0.276791
  11 F :   -0.072079
  12 H :    0.085958
  13 H :    0.102200
  14 H :    0.112584
  15 H :    0.114579
Sum of atomic charges:   -0.0000000

LOEWDIN ATOMIC CHARGES
----------------------
   0 C :   -0.303707
   1 C :   -0.318140
   2 C :   -0.271007
   3 C :   -0.233001
   4 C :   -0.487816
   5 H :    0.159817
   6 H :    0.159508
   7 H :    0.104364
   8 H :    0.081051
   9 H :    0.107152
  10 O :    0.121252
  11 F :    0.324483
  12 H :    0.136070
  13 H :    0.134175
  14 H :    0.142785
  15 H :    0.143014

  Mayer bond orders larger than 0.100000
B(  0-C ,  1-C ) :   0.9897 B(  0-C ,  2-C ) :   0.9813 B(  0-C , 12-H ) :   0.9634
B(  0-C , 13-H ) :   0.9583 B(  1-C ,  7-H ) :   0.9722 B(  1-C ,  8-H ) :   0.9790
B(  1-C ,  9-H ) :   0.9746 B(  2-C ,  3-C ) :   0.9792 B(  2-C , 14-H ) :   0.9640
B(  2-C , 15-H ) :   0.9485 B(  3-C ,  4-C ) :   1.0259 B(  3-C ,  5-H ) :   0.9338
B(  3-C ,  6-H ) :   0.9494 B(  4-C , 10-O ) :   2.1277 B(  4-C , 11-F ) :   1.0962

Dispersion correction           -0.011170234
FINAL SINGLE POINT ENERGY      -370.713700948132

DIPOLE MOMENT
-------------
                                X             Y             Z
Electronic contribution:    -10.29356       2.34237       3.30400
Nuclear contribution   :     11.08738      -2.45618      -3.73478
                        -----------------------------------------
Total Dipole Moment    :      0.79383      -0.11381      -0.43078
                        -----------------------------------------
Magnitude (a.u.)       :      0.91032
Magnitude (Debye)      :      2.31386

Rotational constants in cm-1:     0.156244     0.063730     0.048063
Rotational constants in MHz :  4684.071402  1910.571278  1440.877811

                             ****ORCA TERMINATED NORMALLY****
TOTAL RUN TIME: 0 days 0 hours 0 minutes 14 seconds 281 msec
