                         Program Version 5.0.0 -  RELEASE  -
|  1> !M062X D3Zero RIJCOSX def2-SVPD def2/J TightSCF
|  2> *xyz -1 1
|  3> C          1.44442        5.26658       -0.97546
|  4> O          1.56525        4.23349       -1.86489
|  5> C          0.14812        5.21087       -0.13809
|  6> H          1.47425        6.26464       -1.47692
|  7> H          2.28962        5.30327       -0.26445
|  8> H         -0.69779        5.17417       -0.79230
|  9> H          0.08430        6.08276        0.47887
| 10> H          0.15965        4.33708        0.47938
| 11> *
| 12> %MaxCore 64000
| 13>
| 14> %pal nprocs 4
| 15> end
| 16>
| 17> %scf
| 18>   MaxIter 150
| 19> end
| 20>
| 21>
| 22>                          ****END OF INPUT****

CARTESIAN COORDINATES (ANGSTROEM)
---------------------------------
  C      1.444420    5.266580   -0.975460
  O      1.565250    4.233490   -1.864890
  C      0.148120    5.210870   -0.138090
  H      1.474250    6.264640   -1.476920
  H      2.289620    5.303270   -0.264450
  H     -0.697790    5.174170   -0.792300
  H      0.084300    6.082760    0.478870
  H      0.159650    4.337080    0.479380

 Total Charge           Charge          ....   -1
 Multiplicity           Mult            ....    1
 Number of Electrons    NEL             ....   26
 Basis Dimension        Dim             ....  103

ORBITAL ENERGIES
----------------

  NO   OCC          E(Eh)            E(eV)
   0   2.0000     -19.298555      -525.1404
   1   2.0000     -10.363942      -282.0172
   2   2.0000     -10.341545      -281.4077
   3   2.0000      -0.776795       -21.1377
   4   2.0000      -0.610721       -16.6186
   5   2.0000      -0.447502       -12.1772
   6   2.0000      -0.317526        -8.6403
   7   2.0000      -0.294244        -8.0068
   8   2.0000      -0.236492        -6.4353
   9   2.0000      -0.219569        -5.9748
  10   2.0000      -0.176552        -4.8042
  11   2.0000      -0.031846        -0.8666
  12   2.0000      -0.029517        -0.8032
  13   0.0000       0.200775         5.4634
  14   0.0000       0.231861         6.3093
  15   0.0000       0.273033         7.4296
  16   0.0000       0.284710         7.7474
  17   0.0000       0.297064         8.0835

MULLIKEN ATOMIC CHARGES
-----------------------
   0 C :    0.152861
   1 O :   -0.908762
   2 C :    0.347023
   3 H :   -0.136382
   4 H :   -0.172396
   5 H :   -0.110944
   6 H :   -0.069487
   7 H :   -0.101913
Sum of atomic charges:   -1.0000000

LOEWDIN ATOMIC CHARGES
----------------------
   0 C :   -0.256332
   1 O :   -0.597656
   2 C :    0.064676
   3 H :   -0.029852
   4 H :   -0.034916
   5 H :   -0.042737
   6 H :   -0.059362
   7 H :   -0.043821

  Mayer bond orders larger than 0.100000
B(  0-C ,  1-O ) :   1.1350 B(  0-C ,  2-C ) :   1.1733 B(  0-C ,  3-H ) :   0.9799
B(  0-C ,  4-H ) :   0.9882 B(  0-C ,  5-H ) :   0.1794 B(  0-C ,  6-H ) :   0.1186
B(  0-C ,  7-H ) :   0.1702 B(  1-O ,  2-C ) :   0.1266 B(  2-C ,  3-H ) :   0.1083
B(  2-C ,  4-H ) :   0.1117 B(  2-C ,  5-H ) :   0.8981 B(  2-C ,  6-H ) :   0.8931
B(  2-C ,  7-H ) :   0.8958

Dispersion correction           -0.000015293
FINAL SINGLE POINT ENERGY      -154.234074999355

DIPOLE MOMENT
-------------
                                X             Y             Z
Electronic contribution:      1.15477      -1.57924      -2.00298
Nuclear contribution   :     -1.83256       2.47114       3.17273
                        -----------------------------------------
Total Dipole Moment    :     -0.67779       0.89190       1.16975
                        -----------------------------------------
Magnitude (a.u.)       :      1.61963
Magnitude (Debye)      :      4.11677

Rotational constants in cm-1:     1.286062     0.322579     0.284728
Rotational constants in MHz : 38555.180127  9670.683110  8535.939140

                             ****ORCA TERMINATED NORMALLY****
TOTAL RUN TIME: 0 days 0 hours 0 minutes 11 seconds 543 msec
