                         Program Version 5.0.0 -  RELEASE  -
|  1> !M062X D3Zero RIJCOSX def2-SVPD def2/J TightSCF
|  2> *xyz 1 1
|  3> C         -0.70169        4.07250       -4.00392
|  4> N          0.68053        4.61482       -4.04800
|  5> H          0.69993        5.58489       -4.38827
|  6> H          1.27804        4.05598       -4.66824
|  7> H          1.08573        4.53358       -3.10652
|  8> C         -1.70347        5.09320       -3.47740
|  9> H         -0.99590        3.74039       -5.00065
| 10> H         -0.64358        3.20191       -3.35153
| 11> H         -1.73704        5.93384       -4.13853
| 12> H         -1.40338        5.41759       -2.50291
| 13> H         -2.67335        4.64479       -3.42108
| 14> *
| 15> %MaxCore 64000
| 16>
| 17> %pal nprocs 4
| 18> end
| 19>
| 20> %scf
| 21>   MaxIter 150
| 22> end
| 23>
| 24>
| 25>                          ****END OF INPUT****

CARTESIAN COORDINATES (ANGSTROEM)
---------------------------------
  C     -0.701690    4.072500   -4.003920
  N      0.680530    4.614820   -4.048000
  H      0.699930    5.584890   -4.388270
  H      1.278040    4.055980   -4.668240
  H      1.085730    4.533580   -3.106520
  C     -1.703470    5.093200   -3.477400
  H     -0.995900    3.740390   -5.000650
  H     -0.643580    3.201910   -3.351530
  H     -1.737040    5.933840   -4.138530
  H     -1.403380    5.417590   -2.502910
  H     -2.673350    4.644790   -3.421080

 Total Charge           Charge          ....    1
 Multiplicity           Mult            ....    1
 Number of Electrons    NEL             ....   26
 Basis Dimension        Dim             ....  124

ORBITAL ENERGIES
----------------

  NO   OCC          E(Eh)            E(eV)
   0   2.0000     -15.097644      -410.8278
   1   2.0000     -10.806027      -294.0469
   2   2.0000     -10.726816      -291.8915
   3   2.0000      -1.315023       -35.7836
   4   2.0000      -1.053989       -28.6805
   5   2.0000      -0.925717       -25.1900
   6   2.0000      -0.880714       -23.9654
   7   2.0000      -0.861726       -23.4487
   8   2.0000      -0.766476       -20.8569
   9   2.0000      -0.711945       -19.3730
  10   2.0000      -0.647628       -17.6228
  11   2.0000      -0.631074       -17.1724
  12   2.0000      -0.614366       -16.7178
  13   0.0000      -0.168815        -4.5937
  14   0.0000      -0.109207        -2.9717
  15   0.0000      -0.106927        -2.9096
  16   0.0000      -0.099760        -2.7146
  17   0.0000      -0.068970        -1.8768

MULLIKEN ATOMIC CHARGES
-----------------------
   0 C :    0.121303
   1 N :   -0.896239
   2 H :    0.429453
   3 H :    0.382888
   4 H :    0.444082
   5 C :    0.536033
   6 H :   -0.035776
   7 H :   -0.047269
   8 H :    0.004011
   9 H :    0.033706
  10 H :    0.027808
Sum of atomic charges:    1.0000000

LOEWDIN ATOMIC CHARGES
----------------------
   0 C :    0.052059
   1 N :    0.320682
   2 H :    0.109036
   3 H :    0.108059
   4 H :    0.110938
   5 C :    0.174271
   6 H :    0.053966
   7 H :    0.052488
   8 H :    0.001137
   9 H :    0.001380
  10 H :    0.015985

  Mayer bond orders larger than 0.100000
B(  0-C ,  1-N ) :   0.7584 B(  0-C ,  5-C ) :   1.3267 B(  0-C ,  6-H ) :   0.9679
B(  0-C ,  7-H ) :   0.9364 B(  0-C ,  8-H ) :   0.1563 B(  0-C ,  9-H ) :   0.1450
B(  0-C , 10-H ) :   0.1786 B(  1-N ,  2-H ) :   0.6688 B(  1-N ,  3-H ) :   0.7427
B(  1-N ,  4-H ) :   0.6679 B(  1-N ,  7-H ) :   0.1197 B(  5-C ,  8-H ) :   0.8455
B(  5-C ,  9-H ) :   0.8369 B(  5-C , 10-H ) :   0.8368

Dispersion correction           -0.000054032
FINAL SINGLE POINT ENERGY      -135.358446317877

DIPOLE MOMENT
-------------
                                X             Y             Z
Electronic contribution:      1.75502      -0.33106      -0.45431
Nuclear contribution   :     -0.23930       0.27560       0.19485
                        -----------------------------------------
Total Dipole Moment    :      1.51572      -0.05546      -0.25946
                        -----------------------------------------
Magnitude (a.u.)       :      1.53876
Magnitude (Debye)      :      3.91123

Rotational constants in cm-1:     1.018556     0.279088     0.248454
Rotational constants in MHz : 30535.536069  8366.847891  7448.451392

                             ****ORCA TERMINATED NORMALLY****
TOTAL RUN TIME: 0 days 0 hours 0 minutes 14 seconds 717 msec
