                         Program Version 5.0.0 -  RELEASE  -
|  1> !M062X D3Zero RIJCOSX def2-SVPD def2/J TightSCF
|  2> *xyz 0 1
|  3> C          1.44442        5.26658       -0.97546
|  4> F          1.56525        4.23349       -1.86489
|  5> C          0.14812        5.21087       -0.13809
|  6> H          1.47425        6.26464       -1.47692
|  7> H          2.28962        5.30327       -0.26445
|  8> H         -0.69779        5.17417       -0.79230
|  9> H          0.08430        6.08276        0.47887
| 10> H          0.15965        4.33708        0.47938
| 11> *
| 12> %MaxCore 64000
| 13>
| 14> %pal nprocs 4
| 15> end
| 16>
| 17> %scf
| 18>   MaxIter 150
| 19> end
| 20>
| 21>
| 22>                          ****END OF INPUT****

CARTESIAN COORDINATES (ANGSTROEM)
---------------------------------
  C      1.444420    5.266580   -0.975460
  F      1.565250    4.233490   -1.864890
  C      0.148120    5.210870   -0.138090
  H      1.474250    6.264640   -1.476920
  H      2.289620    5.303270   -0.264450
  H     -0.697790    5.174170   -0.792300
  H      0.084300    6.082760    0.478870
  H      0.159650    4.337080    0.479380

 Total Charge           Charge          ....    0
 Multiplicity           Mult            ....    1
 Number of Electrons    NEL             ....   26
 Basis Dimension        Dim             ....  103

ORBITAL ENERGIES
----------------

  NO   OCC          E(Eh)            E(eV)
   0   2.0000     -25.245527      -686.9657
   1   2.0000     -10.633247      -289.3454
   2   2.0000     -10.548307      -287.0340
   3   2.0000      -1.320973       -35.9455
   4   2.0000      -0.854109       -23.2415
   5   2.0000      -0.717061       -19.5122
   6   2.0000      -0.591994       -16.1090
   7   2.0000      -0.581101       -15.8126
   8   2.0000      -0.546137       -14.8612
   9   2.0000      -0.482890       -13.1401
  10   2.0000      -0.469446       -12.7743
  11   2.0000      -0.407202       -11.0805
  12   2.0000      -0.399690       -10.8761
  13   0.0000       0.039646         1.0788
  14   0.0000       0.069599         1.8939
  15   0.0000       0.100535         2.7357
  16   0.0000       0.105871         2.8809
  17   0.0000       0.133800         3.6409

MULLIKEN ATOMIC CHARGES
-----------------------
   0 C :    0.375576
   1 F :   -0.471815
   2 C :    0.261454
   3 H :   -0.019856
   4 H :   -0.056497
   5 H :   -0.044615
   6 H :   -0.009806
   7 H :   -0.034441
Sum of atomic charges:    0.0000000

LOEWDIN ATOMIC CHARGES
----------------------
   0 C :    0.075781
   1 F :   -0.232136
   2 C :    0.138050
   3 H :    0.034318
   4 H :    0.027443
   5 H :   -0.014587
   6 H :   -0.013477
   7 H :   -0.015392

  Mayer bond orders larger than 0.100000
B(  0-C ,  1-F ) :   0.6885 B(  0-C ,  2-C ) :   1.3337 B(  0-C ,  3-H ) :   0.9578
B(  0-C ,  4-H ) :   0.9665 B(  0-C ,  5-H ) :   0.1365 B(  0-C ,  6-H ) :   0.1094
B(  0-C ,  7-H ) :   0.1300 B(  2-C ,  5-H ) :   0.9041 B(  2-C ,  6-H ) :   0.8723
B(  2-C ,  7-H ) :   0.9031

Dispersion correction           -0.000019424
FINAL SINGLE POINT ENERGY      -178.848047951937

DIPOLE MOMENT
-------------
                                X             Y             Z
Electronic contribution:      2.29605      -2.72071      -3.67988
Nuclear contribution   :     -2.43357       3.25919       4.19687
                        -----------------------------------------
Total Dipole Moment    :     -0.13753       0.53848       0.51699
                        -----------------------------------------
Magnitude (a.u.)       :      0.75905
Magnitude (Debye)      :      1.92935

Rotational constants in cm-1:     1.264662     0.300144     0.266170
Rotational constants in MHz : 37913.611527  8998.095216  7979.576054

                             ****ORCA TERMINATED NORMALLY****
TOTAL RUN TIME: 0 days 0 hours 0 minutes 10 seconds 493 msec
