                         Program Version 5.0.0 -  RELEASE  -
|  1> !M062X D3Zero RIJCOSX def2-SVPD def2/J TightSCF
|  2> *xyz 0 1
|  3> C         -0.70169        4.07250       -4.00392
|  4> C          0.68053        4.61482       -4.04800
|  5> H          0.69993        5.58489       -4.38827
|  6> H          1.27804        4.05598       -4.66824
|  7> H          1.08573        4.53358       -3.10652
|  8> C         -1.70347        5.09320       -3.47740
|  9> H         -0.99590        3.74039       -5.00065
| 10> H         -0.64358        3.20191       -3.35153
| 11> H         -1.73704        5.93384       -4.13853
| 12> H         -1.40338        5.41759       -2.50291
| 13> H         -2.67335        4.64479       -3.42108
| 14> *
| 15> %MaxCore 64000
| 16>
| 17> %pal nprocs 4
| 18> end
| 19>
| 20> %scf
| 21>   MaxIter 150
| 22> end
| 23>
| 24>
| 25>                          ****END OF INPUT****

CARTESIAN COORDINATES (ANGSTROEM)
---------------------------------
  C     -0.701690    4.072500   -4.003920
  C      0.680530    4.614820   -4.048000
  H      0.699930    5.584890   -4.388270
  H      1.278040    4.055980   -4.668240
  H      1.085730    4.533580   -3.106520
  C     -1.703470    5.093200   -3.477400
  H     -0.995900    3.740390   -5.000650
  H     -0.643580    3.201910   -3.351530
  H     -1.737040    5.933840   -4.138530
  H     -1.403380    5.417590   -2.502910
  H     -2.673350    4.644790   -3.421080

 Total Charge           Charge          ....    0
 Multiplicity           Mult            ....    1
 Number of Electrons    NEL             ....   26
 Basis Dimension        Dim             ....  124

ORBITAL ENERGIES
----------------

  NO   OCC          E(Eh)            E(eV)
   0   2.0000     -10.536013      -286.6995
   1   2.0000     -10.528873      -286.5052
   2   2.0000     -10.511576      -286.0345
   3   2.0000      -0.883052       -24.0291
   4   2.0000      -0.774829       -21.0842
   5   2.0000      -0.661473       -17.9996
   6   2.0000      -0.540880       -14.7181
   7   2.0000      -0.514167       -13.9912
   8   2.0000      -0.468107       -12.7378
   9   2.0000      -0.456952       -12.4343
  10   2.0000      -0.397126       -10.8063
  11   2.0000      -0.394169       -10.7259
  12   2.0000      -0.386367       -10.5136
  13   0.0000       0.045269         1.2318
  14   0.0000       0.070713         1.9242
  15   0.0000       0.079105         2.1525
  16   0.0000       0.110788         3.0147
  17   0.0000       0.128353         3.4927

MULLIKEN ATOMIC CHARGES
-----------------------
   0 C :   -0.669750
   1 C :    0.900004
   2 H :   -0.213997
   3 H :   -0.164635
   4 H :   -0.126746
   5 C :    0.592484
   6 H :   -0.105921
   7 H :   -0.081473
   8 H :   -0.021560
   9 H :   -0.041025
  10 H :   -0.067381
Sum of atomic charges:   -0.0000000

LOEWDIN ATOMIC CHARGES
----------------------
   0 C :   -0.124163
   1 C :    0.113447
   2 H :   -0.030437
   3 H :   -0.034180
   4 H :   -0.028126
   5 C :    0.115933
   6 H :    0.020485
   7 H :    0.020422
   8 H :   -0.016612
   9 H :   -0.015140
  10 H :   -0.021630

  Mayer bond orders larger than 0.100000
B(  0-C ,  1-C ) :   1.2850 B(  0-C ,  2-H ) :   0.1967 B(  0-C ,  3-H ) :   0.2015
B(  0-C ,  4-H ) :   0.2728 B(  0-C ,  5-C ) :   1.2634 B(  0-C ,  6-H ) :   0.9799
B(  0-C ,  7-H ) :   0.9548 B(  0-C ,  8-H ) :   0.1591 B(  0-C ,  9-H ) :   0.1848
B(  0-C , 10-H ) :   0.1824 B(  1-C ,  2-H ) :   0.7611 B(  1-C ,  3-H ) :   0.7417
B(  1-C ,  4-H ) :   0.6915 B(  1-C ,  7-H ) :   0.1215 B(  5-C ,  8-H ) :   0.8364
B(  5-C ,  9-H ) :   0.8430 B(  5-C , 10-H ) :   0.8398

Dispersion correction           -0.000052614
FINAL SINGLE POINT ENERGY      -118.963504223691

DIPOLE MOMENT
-------------
                                X             Y             Z
Electronic contribution:     -0.13539      -0.30918      -0.13728
Nuclear contribution   :      0.16058       0.27975       0.12812
                        -----------------------------------------
Total Dipole Moment    :      0.02519      -0.02943      -0.00917
                        -----------------------------------------
Magnitude (a.u.)       :      0.03980
Magnitude (Debye)      :      0.10117

Rotational constants in cm-1:     1.027122     0.293327     0.260229
Rotational constants in MHz : 30792.337141  8793.723318  7801.458329

                             ****ORCA TERMINATED NORMALLY****
TOTAL RUN TIME: 0 days 0 hours 0 minutes 13 seconds 181 msec
