                         Program Version 5.0.0 -  RELEASE  -
|  1> !B3LYP D3BJ RIJCOSX def2-SVPD def2/J TightSCF
|  2> *xyz -1 1
|  3> C         -0.90349       -0.87394       -1.98739
|  4> C         -0.96015       -0.52236       -0.48987
|  5> H         -1.69039       -1.20813       -0.02168
|  6> H         -1.41449        0.48633       -0.40668
|  7> O          0.26170       -0.58031        0.13861
|  8> H         -1.88568       -0.80774       -2.40670
|  9> H         -0.53143       -1.87013       -2.10605
| 10> H         -0.25399       -0.18836       -2.49039
| 11> *
| 12>
| 13> %MaxCore 64000
| 14>
| 15> %pal nprocs 4
| 16> end
| 17>
| 18> %scf
| 19>   MaxIter 150
| 20> end
| 21>
| 22>
| 23>                          ****END OF INPUT****

CARTESIAN COORDINATES (ANGSTROEM)
---------------------------------
  C     -0.903490   -0.873940   -1.987390
  C     -0.960150   -0.522360   -0.489870
  H     -1.690390   -1.208130   -0.021680
  H     -1.414490    0.486330   -0.406680
  O      0.261700   -0.580310    0.138610
  H     -1.885680   -0.807740   -2.406700
  H     -0.531430   -1.870130   -2.106050
  H     -0.253990   -0.188360   -2.490390

 Total Charge           Charge          ....   -1
 Multiplicity           Mult            ....    1
 Number of Electrons    NEL             ....   26
 Basis Dimension        Dim             ....  103

ORBITAL ENERGIES
----------------

  NO   OCC          E(Eh)            E(eV)
   0   2.0000     -18.809010      -511.8192
   1   2.0000      -9.998205      -272.0650
   2   2.0000      -9.976629      -271.4779
   3   2.0000      -0.667478       -18.1630
   4   2.0000      -0.519765       -14.1435
   5   2.0000      -0.367216        -9.9925
   6   2.0000      -0.250968        -6.8292
   7   2.0000      -0.228428        -6.2158
   8   2.0000      -0.174548        -4.7497
   9   2.0000      -0.158866        -4.3230
  10   2.0000      -0.111908        -3.0452
  11   2.0000       0.029221         0.7951
  12   2.0000       0.032063         0.8725
  13   0.0000       0.177666         4.8345
  14   0.0000       0.208494         5.6734
  15   0.0000       0.241665         6.5760
  16   0.0000       0.254040         6.9128
  17   0.0000       0.273567         7.4441

MULLIKEN ATOMIC CHARGES
-----------------------
   0 C :    0.493732
   1 C :    0.305425
   2 H :   -0.240948
   3 H :   -0.232003
   4 O :   -0.893876
   5 H :   -0.121753
   6 H :   -0.155028
   7 H :   -0.155548
Sum of atomic charges:   -1.0000000

LOEWDIN ATOMIC CHARGES
----------------------
   0 C :    0.071099
   1 C :   -0.252093
   2 H :   -0.040344
   3 H :   -0.038726
   4 O :   -0.579564
   5 H :   -0.065548
   6 H :   -0.047381
   7 H :   -0.047443

  Mayer bond orders larger than 0.100000
B(  0-C ,  1-C ) :   1.1650 B(  0-C ,  2-H ) :   0.1481 B(  0-C ,  3-H ) :   0.1461
B(  0-C ,  4-O ) :   0.2001 B(  0-C ,  5-H ) :   0.8792 B(  0-C ,  6-H ) :   0.8735
B(  0-C ,  7-H ) :   0.8732 B(  1-C ,  2-H ) :   0.9452 B(  1-C ,  3-H ) :   0.9482
B(  1-C ,  4-O ) :   1.1280 B(  1-C ,  5-H ) :   0.1483 B(  1-C ,  6-H ) :   0.1993
B(  1-C ,  7-H ) :   0.1999

Dispersion correction           -0.006227815
FINAL SINGLE POINT ENERGY      -154.236411507744

DIPOLE MOMENT
-------------
                                X             Y             Z
Electronic contribution:      1.85642       0.17666       2.13217
Nuclear contribution   :     -2.90669      -0.27617      -3.31210
                        -----------------------------------------
Total Dipole Moment    :     -1.05027      -0.09950      -1.17994
                        -----------------------------------------
Magnitude (a.u.)       :      1.58279
Magnitude (Debye)      :      4.02314

Rotational constants in cm-1:     1.291883     0.321656     0.284469
Rotational constants in MHz : 38729.676116  9643.011620  8528.167295

                             ****ORCA TERMINATED NORMALLY****
TOTAL RUN TIME: 0 days 0 hours 0 minutes 11 seconds 750 msec
