                         Program Version 5.0.0 -  RELEASE  -
|  1> !B3LYP D3BJ RIJCOSX def2-SVPD def2/J TightSCF
|  2> *xyz 1 1
|  3> C          4.36645       -0.13321       -1.41606
|  4> C          4.50829       -0.93187       -2.72425
|  5> C          3.05650       -0.32080       -0.70738
|  6> N          2.38983        0.71129       -0.24391
|  7> N          2.51600       -1.50772       -0.55023
|  8> H          2.96768       -2.32291       -0.95631
|  9> H          1.54987       -1.49063       -0.24988
| 10> H          2.74307        1.64947       -0.41280
| 11> H          1.44036        0.50278        0.03703
| 12> H          4.48784        0.93300       -1.61157
| 13> H          5.16967       -0.41443       -0.72982
| 14> H          5.46700       -0.73824       -3.15818
| 15> H          3.74074       -0.63528       -3.40821
| 16> H          4.41574       -1.97727       -2.51573
| 17> *
| 18>
| 19> %MaxCore 64000
| 20>
| 21> %pal nprocs 4
| 22> end
| 23>
| 24> %scf
| 25>   MaxIter 150
| 26> end
| 27>
| 28>
| 29>                          ****END OF INPUT****

CARTESIAN COORDINATES (ANGSTROEM)
---------------------------------
  C      4.366450   -0.133210   -1.416060
  C      4.508290   -0.931870   -2.724250
  C      3.056500   -0.320800   -0.707380
  N      2.389830    0.711290   -0.243910
  N      2.516000   -1.507720   -0.550230
  H      2.967680   -2.322910   -0.956310
  H      1.549870   -1.490630   -0.249880
  H      2.743070    1.649470   -0.412800
  H      1.440360    0.502780    0.037030
  H      4.487840    0.933000   -1.611570
  H      5.169670   -0.414430   -0.729820
  H      5.467000   -0.738240   -3.158180
  H      3.740740   -0.635280   -3.408210
  H      4.415740   -1.977270   -2.515730

 Total Charge           Charge          ....    1
 Multiplicity           Mult            ....    1
 Number of Electrons    NEL             ....   40
 Basis Dimension        Dim             ....  172

ORBITAL ENERGIES
----------------

  NO   OCC          E(Eh)            E(eV)
   0   2.0000     -14.578253      -396.6944
   1   2.0000     -14.577011      -396.6606
   2   2.0000     -10.505386      -285.8661
   3   2.0000     -10.385800      -282.6120
   4   2.0000     -10.344080      -281.4767
   5   2.0000      -1.205533       -32.8042
   6   2.0000      -1.100077       -29.9346
   7   2.0000      -0.965067       -26.2608
   8   2.0000      -0.856737       -23.3130
   9   2.0000      -0.818689       -22.2777
  10   2.0000      -0.770871       -20.9765
  11   2.0000      -0.756235       -20.5782
  12   2.0000      -0.707751       -19.2589
  13   2.0000      -0.661332       -17.9958
  14   2.0000      -0.629833       -17.1386
  15   2.0000      -0.603497       -16.4220
  16   2.0000      -0.556863       -15.1530
  17   2.0000      -0.543181       -14.7807
  18   2.0000      -0.529274       -14.4023
  19   2.0000      -0.496061       -13.4985
  20   0.0000      -0.217504        -5.9186
  21   0.0000      -0.166621        -4.5340
  22   0.0000      -0.121893        -3.3169
  23   0.0000      -0.120198        -3.2708
  24   0.0000      -0.088556        -2.4097

MULLIKEN ATOMIC CHARGES
-----------------------
   0 C :   -0.127136
   1 C :    0.959695
   2 C :    0.489746
   3 N :    0.174401
   4 N :    0.224626
   5 H :   -0.034145
   6 H :   -0.131884
   7 H :   -0.007163
   8 H :   -0.095330
   9 H :   -0.010666
  10 H :   -0.036809
  11 H :   -0.090891
  12 H :   -0.122871
  13 H :   -0.191574
Sum of atomic charges:    1.0000000

LOEWDIN ATOMIC CHARGES
----------------------
   0 C :    0.025295
   1 C :    0.178067
   2 C :   -0.045736
   3 N :    0.286517
   4 N :    0.293333
   5 H :    0.046798
   6 H :    0.042772
   7 H :    0.057028
   8 H :    0.041968
   9 H :    0.033975
  10 H :    0.054242
  11 H :    0.006916
  12 H :   -0.000326
  13 H :   -0.020848

  Mayer bond orders larger than 0.100000
B(  0-C ,  1-C ) :   1.2969 B(  0-C ,  2-C ) :   1.1607 B(  0-C ,  9-H ) :   0.8556
B(  0-C , 10-H ) :   0.8055 B(  0-C , 11-H ) :   0.1984 B(  0-C , 12-H ) :   0.2169
B(  0-C , 13-H ) :   0.2093 B(  1-C ,  9-H ) :   0.1289 B(  1-C , 11-H ) :   0.7877
B(  1-C , 12-H ) :   0.7217 B(  1-C , 13-H ) :   0.7752 B(  2-C ,  3-N ) :   1.1497
B(  2-C ,  4-N ) :   1.1659 B(  2-C ,  6-H ) :  -0.1541 B(  2-C ,  8-H ) :  -0.1045
B(  2-C ,  9-H ) :   0.1745 B(  2-C , 10-H ) :   0.1485 B(  3-N ,  4-N ) :   0.2006
B(  3-N ,  7-H ) :   1.1211 B(  3-N ,  8-H ) :   1.2020 B(  4-N ,  5-H ) :   1.0905
B(  4-N ,  6-H ) :   1.2588 B(  5-H ,  6-H ) :  -0.1809 B(  7-H ,  8-H ) :  -0.1450

Dispersion correction           -0.016682648
FINAL SINGLE POINT ENERGY      -228.745638920942

DIPOLE MOMENT
-------------
                                X             Y             Z
Electronic contribution:     -2.66848       0.62607       3.12013
Nuclear contribution   :      1.78847      -0.48174      -2.67127
                        -----------------------------------------
Total Dipole Moment    :     -0.88002       0.14433       0.44885
                        -----------------------------------------
Magnitude (a.u.)       :      0.99836
Magnitude (Debye)      :      2.53764

Rotational constants in cm-1:     0.286883     0.123210     0.094446
Rotational constants in MHz :  8600.540572  3693.747366  2831.415242

                             ****ORCA TERMINATED NORMALLY****
TOTAL RUN TIME: 0 days 0 hours 0 minutes 20 seconds 978 msec
