                         Program Version 5.0.0 -  RELEASE  -
|  1> !B3LYP D3BJ RIJCOSX def2-SVPD def2/J TightSCF
|  2> *xyz 0 1
|  3> C         -0.90349       -0.87394       -1.98739
|  4> C         -0.96015       -0.52236       -0.48987
|  5> H         -1.69039       -1.20813       -0.02168
|  6> H         -1.41449        0.48633       -0.40668
|  7> F          0.26170       -0.58031        0.13861
|  8> H         -1.88568       -0.80774       -2.40670
|  9> H         -0.53143       -1.87013       -2.10605
| 10> H         -0.25399       -0.18836       -2.49039
| 11> *
| 12>
| 13> %MaxCore 64000
| 14>
| 15> %pal nprocs 4
| 16> end
| 17>
| 18> %scf
| 19>   MaxIter 150
| 20> end
| 21>
| 22>
| 23>                          ****END OF INPUT****

CARTESIAN COORDINATES (ANGSTROEM)
---------------------------------
  C     -0.903490   -0.873940   -1.987390
  C     -0.960150   -0.522360   -0.489870
  H     -1.690390   -1.208130   -0.021680
  H     -1.414490    0.486330   -0.406680
  F      0.261700   -0.580310    0.138610
  H     -1.885680   -0.807740   -2.406700
  H     -0.531430   -1.870130   -2.106050
  H     -0.253990   -0.188360   -2.490390

 Total Charge           Charge          ....    0
 Multiplicity           Mult            ....    1
 Number of Electrons    NEL             ....   26
 Basis Dimension        Dim             ....  103

ORBITAL ENERGIES
----------------

  NO   OCC          E(Eh)            E(eV)
   0   2.0000     -24.685600      -671.7293
   1   2.0000     -10.265251      -279.3317
   2   2.0000     -10.182431      -277.0780
   3   2.0000      -1.182025       -32.1645
   4   2.0000      -0.759210       -20.6591
   5   2.0000      -0.627948       -17.0873
   6   2.0000      -0.510224       -13.8839
   7   2.0000      -0.497474       -13.5369
   8   2.0000      -0.460323       -12.5260
   9   2.0000      -0.408007       -11.1024
  10   2.0000      -0.404266       -11.0006
  11   2.0000      -0.340473        -9.2647
  12   2.0000      -0.335067        -9.1176
  13   0.0000       0.020609         0.5608
  14   0.0000       0.052279         1.4226
  15   0.0000       0.072811         1.9813
  16   0.0000       0.079380         2.1600
  17   0.0000       0.104223         2.8361

MULLIKEN ATOMIC CHARGES
-----------------------
   0 C :    0.556653
   1 C :    0.572172
   2 H :   -0.150395
   3 H :   -0.141830
   4 F :   -0.448772
   5 H :   -0.111740
   6 H :   -0.137847
   7 H :   -0.138241
Sum of atomic charges:   -0.0000000

LOEWDIN ATOMIC CHARGES
----------------------
   0 C :    0.146074
   1 C :    0.070770
   2 H :    0.025482
   3 H :    0.027583
   4 F :   -0.217760
   5 H :   -0.016058
   6 H :   -0.018018
   7 H :   -0.018073

  Mayer bond orders larger than 0.100000
B(  0-C ,  1-C ) :   1.3267 B(  0-C ,  5-H ) :   0.8237 B(  0-C ,  6-H ) :   0.8532
B(  0-C ,  7-H ) :   0.8531 B(  1-C ,  2-H ) :   0.9083 B(  1-C ,  3-H ) :   0.9100
B(  1-C ,  4-F ) :   0.7475 B(  1-C ,  5-H ) :   0.1382 B(  1-C ,  6-H ) :   0.1576
B(  1-C ,  7-H ) :   0.1579

Dispersion correction           -0.005735807
FINAL SINGLE POINT ENERGY      -178.848470877530

DIPOLE MOMENT
-------------
                                X             Y             Z
Electronic contribution:      3.20670       0.37607       3.97063
Nuclear contribution   :     -3.84149      -0.36812      -4.38946
                        -----------------------------------------
Total Dipole Moment    :     -0.63479       0.00795      -0.41883
                        -----------------------------------------
Magnitude (a.u.)       :      0.76055
Magnitude (Debye)      :      1.93317

Rotational constants in cm-1:     1.270659     0.299196     0.265842
Rotational constants in MHz : 38093.410361  8969.665806  7969.741481

                             ****ORCA TERMINATED NORMALLY****
TOTAL RUN TIME: 0 days 0 hours 0 minutes 10 seconds 0 msec
