                         Program Version 5.0.0 -  RELEASE  -
|  1> !B3LYP D3BJ RIJCOSX def2-SVPD def2/J TightSCF
|  2> *xyz 0 1
|  3> C          4.36645       -0.13321       -1.41606
|  4> C          4.50829       -0.93187       -2.72425
|  5> C          3.05650       -0.32080       -0.70738
|  6> C          2.38983        0.71129       -0.24391
|  7> N          2.51600       -1.50772       -0.55023
|  8> H          2.96768       -2.32291       -0.95631
|  9> H          1.54987       -1.49063       -0.24988
| 10> H          2.74307        1.64947       -0.41280
| 11> H          1.44036        0.50278        0.03703
| 12> H          4.48784        0.93300       -1.61157
| 13> H          5.16967       -0.41443       -0.72982
| 14> H          5.46700       -0.73824       -3.15818
| 15> H          3.74074       -0.63528       -3.40821
| 16> H          4.41574       -1.97727       -2.51573
| 17> *
| 18>
| 19> %MaxCore 64000
| 20>
| 21> %pal nprocs 4
| 22> end
| 23>
| 24> %scf
| 25>   MaxIter 150
| 26> end
| 27>
| 28>
| 29>                          ****END OF INPUT****

CARTESIAN COORDINATES (ANGSTROEM)
---------------------------------
  C      4.366450   -0.133210   -1.416060
  C      4.508290   -0.931870   -2.724250
  C      3.056500   -0.320800   -0.707380
  C      2.389830    0.711290   -0.243910
  N      2.516000   -1.507720   -0.550230
  H      2.967680   -2.322910   -0.956310
  H      1.549870   -1.490630   -0.249880
  H      2.743070    1.649470   -0.412800
  H      1.440360    0.502780    0.037030
  H      4.487840    0.933000   -1.611570
  H      5.169670   -0.414430   -0.729820
  H      5.467000   -0.738240   -3.158180
  H      3.740740   -0.635280   -3.408210
  H      4.415740   -1.977270   -2.515730

 Total Charge           Charge          ....    0
 Multiplicity           Mult            ....    1
 Number of Electrons    NEL             ....   40
 Basis Dimension        Dim             ....  172

ORBITAL ENERGIES
----------------

  NO   OCC          E(Eh)            E(eV)
   0   2.0000     -14.329510      -389.9258
   1   2.0000     -10.199397      -277.5397
   2   2.0000     -10.184468      -277.1335
   3   2.0000     -10.176342      -276.9123
   4   2.0000     -10.114848      -275.2390
   5   2.0000      -0.924949       -25.1691
   6   2.0000      -0.770904       -20.9774
   7   2.0000      -0.716077       -19.4855
   8   2.0000      -0.631091       -17.1728
   9   2.0000      -0.560564       -15.2537
  10   2.0000      -0.533973       -14.5302
  11   2.0000      -0.469557       -12.7773
  12   2.0000      -0.441018       -12.0007
  13   2.0000      -0.430158       -11.7052
  14   2.0000      -0.394922       -10.7464
  15   2.0000      -0.380955       -10.3663
  16   2.0000      -0.359178        -9.7737
  17   2.0000      -0.345545        -9.4027
  18   2.0000      -0.326797        -8.8926
  19   2.0000      -0.189467        -5.1556
  20   0.0000       0.013737         0.3738
  21   0.0000       0.036670         0.9978
  22   0.0000       0.049888         1.3575
  23   0.0000       0.056207         1.5295
  24   0.0000       0.071713         1.9514

MULLIKEN ATOMIC CHARGES
-----------------------
   0 C :    0.045092
   1 C :    0.979307
   2 C :   -0.304066
   3 C :    0.595145
   4 N :    0.405598
   5 H :   -0.210102
   6 H :   -0.165317
   7 H :   -0.231261
   8 H :   -0.487497
   9 H :    0.028604
  10 H :   -0.141994
  11 H :   -0.156712
  12 H :   -0.126204
  13 H :   -0.230592
Sum of atomic charges:    0.0000000

LOEWDIN ATOMIC CHARGES
----------------------
   0 C :   -0.017321
   1 C :    0.138725
   2 C :   -0.263093
   3 C :    0.176384
   4 N :    0.175990
   5 H :   -0.007031
   6 H :    0.003029
   7 H :   -0.082685
   8 H :   -0.089898
   9 H :    0.018019
  10 H :    0.022144
  11 H :   -0.021091
  12 H :   -0.014866
  13 H :   -0.038308

  Mayer bond orders larger than 0.100000
B(  0-C ,  1-C ) :   1.2460 B(  0-C ,  2-C ) :   1.1720 B(  0-C ,  9-H ) :   0.8622
B(  0-C , 10-H ) :   0.7562 B(  0-C , 11-H ) :   0.2478 B(  0-C , 12-H ) :   0.2185
B(  0-C , 13-H ) :   0.2339 B(  1-C ,  9-H ) :   0.1201 B(  1-C , 11-H ) :   0.7375
B(  1-C , 12-H ) :   0.7266 B(  1-C , 13-H ) :   0.7538 B(  2-C ,  3-C ) :   1.7545
B(  2-C ,  4-N ) :   1.3046 B(  2-C ,  8-H ) :   0.3109 B(  2-C , 10-H ) :   0.2423
B(  3-C ,  4-N ) :   0.2731 B(  3-C ,  7-H ) :   0.9548 B(  3-C ,  8-H ) :   0.5581
B(  4-N ,  5-H ) :   1.1003 B(  4-N ,  6-H ) :   1.1481 B(  5-H ,  6-H ) :  -0.1457

Dispersion correction           -0.017381912
FINAL SINGLE POINT ENERGY      -212.288797168291

DIPOLE MOMENT
-------------
                                X             Y             Z
Electronic contribution:     -1.49812      -0.42960       2.07834
Nuclear contribution   :      1.56827      -0.21459      -2.46657
                        -----------------------------------------
Total Dipole Moment    :      0.07014      -0.64419      -0.38823
                        -----------------------------------------
Magnitude (a.u.)       :      0.75540
Magnitude (Debye)      :      1.92006

Rotational constants in cm-1:     0.294070     0.127722     0.097792
Rotational constants in MHz :  8815.983970  3829.010547  2931.715816

                             ****ORCA TERMINATED NORMALLY****
TOTAL RUN TIME: 0 days 0 hours 0 minutes 21 seconds 155 msec
