                         Program Version 5.0.0 -  RELEASE  -
|  1> !B3LYP D3BJ RIJCOSX def2-SVPD def2/J TightSCF
|  2> *xyz 0 1
|  3> C          4.36645       -0.13321       -1.41606
|  4> C          4.50829       -0.93187       -2.72425
|  5> C          3.05650       -0.32080       -0.70738
|  6> N          2.38983        0.71129       -0.24391
|  7> C          2.51600       -1.50772       -0.55023
|  8> H          2.96768       -2.32291       -0.95631
|  9> H          1.54987       -1.49063       -0.24988
| 10> H          2.74307        1.64947       -0.41280
| 11> H          1.44036        0.50278        0.03703
| 12> H          4.48784        0.93300       -1.61157
| 13> H          5.16967       -0.41443       -0.72982
| 14> H          5.46700       -0.73824       -3.15818
| 15> H          3.74074       -0.63528       -3.40821
| 16> H          4.41574       -1.97727       -2.51573
| 17> *
| 18>
| 19> %MaxCore 64000
| 20>
| 21> %pal nprocs 4
| 22> end
| 23>
| 24> %scf
| 25>   MaxIter 150
| 26> end
| 27>
| 28>
| 29>                          ****END OF INPUT****

CARTESIAN COORDINATES (ANGSTROEM)
---------------------------------
  C      4.366450   -0.133210   -1.416060
  C      4.508290   -0.931870   -2.724250
  C      3.056500   -0.320800   -0.707380
  N      2.389830    0.711290   -0.243910
  C      2.516000   -1.507720   -0.550230
  H      2.967680   -2.322910   -0.956310
  H      1.549870   -1.490630   -0.249880
  H      2.743070    1.649470   -0.412800
  H      1.440360    0.502780    0.037030
  H      4.487840    0.933000   -1.611570
  H      5.169670   -0.414430   -0.729820
  H      5.467000   -0.738240   -3.158180
  H      3.740740   -0.635280   -3.408210
  H      4.415740   -1.977270   -2.515730

 Total Charge           Charge          ....    0
 Multiplicity           Mult            ....    1
 Number of Electrons    NEL             ....   40
 Basis Dimension        Dim             ....  172

ORBITAL ENERGIES
----------------

  NO   OCC          E(Eh)            E(eV)
   0   2.0000     -14.330184      -389.9441
   1   2.0000     -10.199608      -277.5454
   2   2.0000     -10.185876      -277.1718
   3   2.0000     -10.170058      -276.7414
   4   2.0000     -10.113358      -275.1985
   5   2.0000      -0.925280       -25.1781
   6   2.0000      -0.772444       -21.0193
   7   2.0000      -0.705361       -19.1938
   8   2.0000      -0.640462       -17.4279
   9   2.0000      -0.551554       -15.0085
  10   2.0000      -0.531308       -14.4576
  11   2.0000      -0.477518       -12.9939
  12   2.0000      -0.450257       -12.2521
  13   2.0000      -0.408749       -11.1226
  14   2.0000      -0.391710       -10.6590
  15   2.0000      -0.380842       -10.3632
  16   2.0000      -0.359460        -9.7814
  17   2.0000      -0.343999        -9.3607
  18   2.0000      -0.328027        -8.9261
  19   2.0000      -0.187930        -5.1138
  20   0.0000       0.017782         0.4839
  21   0.0000       0.032868         0.8944
  22   0.0000       0.049326         1.3422
  23   0.0000       0.054545         1.4842
  24   0.0000       0.074591         2.0297

MULLIKEN ATOMIC CHARGES
-----------------------
   0 C :    0.147560
   1 C :    0.956520
   2 C :   -0.158772
   3 N :    0.313429
   4 C :    0.586407
   5 H :   -0.299820
   6 H :   -0.517378
   7 H :   -0.164512
   8 H :   -0.111660
   9 H :   -0.131268
  10 H :   -0.138022
  11 H :   -0.122530
  12 H :   -0.151004
  13 H :   -0.208950
Sum of atomic charges:    0.0000000

LOEWDIN ATOMIC CHARGES
----------------------
   0 C :   -0.018648
   1 C :    0.142701
   2 C :   -0.257014
   3 N :    0.168347
   4 C :    0.180249
   5 H :   -0.088820
   6 H :   -0.089657
   7 H :   -0.000442
   8 H :    0.002291
   9 H :    0.005997
  10 H :    0.024479
  11 H :   -0.022977
  12 H :   -0.015502
  13 H :   -0.031005

  Mayer bond orders larger than 0.100000
B(  0-C ,  1-C ) :   1.2842 B(  0-C ,  2-C ) :   1.1011 B(  0-C ,  9-H ) :   0.7312
B(  0-C , 10-H ) :   0.8049 B(  0-C , 11-H ) :   0.2129 B(  0-C , 12-H ) :   0.2228
B(  0-C , 13-H ) :   0.2076 B(  1-C ,  9-H ) :   0.1070 B(  1-C , 10-H ) :   0.1051
B(  1-C , 11-H ) :   0.7484 B(  1-C , 12-H ) :   0.7391 B(  1-C , 13-H ) :   0.7856
B(  2-C ,  3-N ) :   1.2009 B(  2-C ,  4-C ) :   1.7438 B(  2-C ,  5-H ) :   0.1212
B(  2-C ,  6-H ) :   0.2737 B(  2-C ,  9-H ) :   0.2481 B(  2-C , 10-H ) :   0.1700
B(  3-N ,  4-C ) :   0.2880 B(  3-N ,  7-H ) :   1.1165 B(  3-N ,  8-H ) :   1.1179
B(  4-C ,  5-H ) :   0.7863 B(  4-C ,  6-H ) :   0.6798 B(  5-H ,  6-H ) :  -0.1069
B(  7-H ,  8-H ) :  -0.1200

Dispersion correction           -0.017452118
FINAL SINGLE POINT ENERGY      -212.287578728270

DIPOLE MOMENT
-------------
                                X             Y             Z
Electronic contribution:     -1.60968       1.45676       2.35609
Nuclear contribution   :      1.59749      -0.72853      -2.53752
                        -----------------------------------------
Total Dipole Moment    :     -0.01219       0.72823      -0.18143
                        -----------------------------------------
Magnitude (a.u.)       :      0.75059
Magnitude (Debye)      :      1.90784

Rotational constants in cm-1:     0.304597     0.124127     0.096828
Rotational constants in MHz :  9131.600925  3721.227051  2902.830760

                             ****ORCA TERMINATED NORMALLY****
TOTAL RUN TIME: 0 days 0 hours 0 minutes 21 seconds 25 msec
