                         Program Version 5.0.0 -  RELEASE  -
|  1> !B3LYP D3BJ RIJCOSX def2-SVPD def2/J TightSCF xyzfile
|  2>
|  3> *xyzfile 0 1 D1.xyz
|  4>
|  5> %MaxCore 64000
|  6>
|  7> %pal nprocs 4
|  8> end
|  9>
| 10> %scf
| 11>   MaxIter 150
| 12> end
| 13>
| 14>
| 15>                          ****END OF INPUT****

CARTESIAN COORDINATES (ANGSTROEM)
---------------------------------
  C      4.366454   -0.133215   -1.416062
  C      4.508292   -0.931872   -2.724249
  H      4.753716   -1.972051   -2.488408
  C      3.294164   -0.918214   -3.656570
  H      5.385637   -0.536236   -3.242640
  H      2.483463   -1.477378   -3.185764
  H      3.553092   -1.478495   -4.560331
  C      2.772335    0.460100   -4.051448
  H      2.608762    1.065107   -3.155194
  C      1.465354    0.410537   -4.853644
  H      3.532940    0.988848   -4.635671
  C      0.326171   -0.375613   -4.192580
  H      1.666704   -0.022269   -5.839323
  H      1.138198    1.439246   -5.035449
  C     -0.017405    0.080588   -2.778406
  H      0.585573   -1.439385   -4.168057
  H     -0.560005   -0.311425   -4.831461
  H      0.902090    0.201296   -2.206729
  C     -0.903495   -0.873945   -1.987388
  H     -0.479549    1.074657   -2.811915
  H     -0.502554   -1.892096   -2.081204
  H     -1.917039   -0.895427   -2.406277
  C     -0.960148   -0.522365   -0.489867
  H     -1.690392   -1.208130   -0.021677
  H     -1.414490    0.486329   -0.406677
  F      0.261703   -0.580307    0.138611
  C      3.056503   -0.320797   -0.707384
  C      2.389825    0.711285   -0.243909
  N      2.515999   -1.507721   -0.550229
  H      2.967683   -2.322915   -0.956305
  H      1.549872   -1.490634   -0.249876
  H      2.743071    1.649471   -0.412802
  H      1.440364    0.502778    0.037031
  H      4.487835    0.932997   -1.611569
  H      5.169672   -0.414432   -0.729817

 Total Charge           Charge          ....    0
 Multiplicity           Mult            ....    1
 Number of Electrons    NEL             ....  104
 Basis Dimension        Dim             ....  439

ORBITAL ENERGIES
----------------

  NO   OCC          E(Eh)            E(eV)
   0   2.0000     -24.716042      -672.5577
   1   2.0000     -14.305453      -389.2712
   2   2.0000     -10.276332      -279.6332
   3   2.0000     -10.195556      -277.4352
   4   2.0000     -10.182445      -277.0784
   5   2.0000     -10.175176      -276.8806
   6   2.0000     -10.175152      -276.8800
   7   2.0000     -10.173167      -276.8259
   8   2.0000     -10.172743      -276.8144
   9   2.0000     -10.170146      -276.7437
  10   2.0000     -10.168433      -276.6971
  11   2.0000     -10.166550      -276.6459
  12   2.0000     -10.089624      -274.5526
  13   2.0000      -1.222049       -33.2536
  14   2.0000      -0.907732       -24.7006
  15   2.0000      -0.811468       -22.0812
  16   2.0000      -0.789417       -21.4811
  17   2.0000      -0.763374       -20.7725
  18   2.0000      -0.726179       -19.7603
  19   2.0000      -0.699238       -19.0272
  20   2.0000      -0.679783       -18.4978
  21   2.0000      -0.632697       -17.2166
  22   2.0000      -0.612048       -16.6547
  23   2.0000      -0.581545       -15.8246
  24   2.0000      -0.554468       -15.0878
  25   2.0000      -0.540364       -14.7041
  26   2.0000      -0.535087       -14.5604
  27   2.0000      -0.526787       -14.3346
  28   2.0000      -0.515274       -14.0213
  29   2.0000      -0.486200       -13.2302
  30   2.0000      -0.471529       -12.8309
  31   2.0000      -0.459774       -12.5111
  32   2.0000      -0.443006       -12.0548
  33   2.0000      -0.438364       -11.9285
  34   2.0000      -0.428219       -11.6524
  35   2.0000      -0.421799       -11.4777
  36   2.0000      -0.398816       -10.8523
  37   2.0000      -0.390790       -10.6339
  38   2.0000      -0.381471       -10.3804
  39   2.0000      -0.373368       -10.1598
  40   2.0000      -0.366433        -9.9711
  41   2.0000      -0.357841        -9.7373
  42   2.0000      -0.349947        -9.5226
  43   2.0000      -0.343916        -9.3584
  44   2.0000      -0.340001        -9.2519
  45   2.0000      -0.332600        -9.0505
  46   2.0000      -0.315678        -8.5900
  47   2.0000      -0.312344        -8.4993
  48   2.0000      -0.307176        -8.3587
  49   2.0000      -0.303833        -8.2677
  50   2.0000      -0.300044        -8.1646
  51   2.0000      -0.172423        -4.6919
  52   0.0000       0.014500         0.3946
  53   0.0000       0.023483         0.6390
  54   0.0000       0.031506         0.8573
  55   0.0000       0.034145         0.9291
  56   0.0000       0.046389         1.2623

MULLIKEN ATOMIC CHARGES
-----------------------
   0 C :    0.678395
   1 C :    0.711494
   2 H :   -0.092141
   3 C :    0.040558
   4 H :   -0.232804
   5 H :   -0.059507
   6 H :   -0.290605
   7 C :    0.118414
   8 H :    0.043951
   9 C :    0.882104
  10 H :   -0.475406
  11 C :    0.239915
  12 H :   -0.110734
  13 H :   -0.092443
  14 C :    0.613965
  15 H :    0.092543
  16 H :   -0.545448
  17 H :   -0.913471
  18 C :    0.205803
  19 H :   -0.078506
  20 H :   -0.069481
  21 H :   -0.265222
  22 C :    1.276309
  23 H :   -0.224664
  24 H :   -0.095577
  25 F :   -0.795622
  26 C :   -0.740676
  27 C :    0.886445
  28 N :    0.652686
  29 H :   -0.159387
  30 H :   -0.374632
  31 H :   -0.375264
  32 H :   -0.340453
  33 H :    0.317096
  34 H :   -0.427635
Sum of atomic charges:   -0.0000000

LOEWDIN ATOMIC CHARGES
----------------------
   0 C :    0.025932
   1 C :   -0.017967
   2 H :    0.009127
   3 C :   -0.025084
   4 H :    0.015512
   5 H :   -0.014282
   6 H :    0.022650
   7 C :   -0.021171
   8 H :    0.001786
   9 C :   -0.019373
  10 H :    0.021014
  11 C :   -0.028563
  12 H :    0.017197
  13 H :    0.018166
  14 C :   -0.020748
  15 H :    0.008074
  16 H :    0.016994
  17 H :   -0.028054
  18 C :   -0.007306
  19 H :    0.034849
  20 H :    0.024193
  21 H :    0.030348
  22 C :    0.171579
  23 H :    0.031770
  24 H :    0.041736
  25 F :   -0.221527
  26 C :   -0.241558
  27 C :    0.189336
  28 N :    0.204277
  29 H :    0.001104
  30 H :   -0.064114
  31 H :   -0.076011
  32 H :   -0.136454
  33 H :    0.016527
  34 H :    0.020042

  Mayer bond orders larger than 0.100000
B(  0-C ,  1-C ) :   1.1636 B(  0-C ,  2-H ) :   0.1731 B(  0-C ,  4-H ) :   0.2581
B(  0-C , 26-C ) :   1.1591 B(  0-C , 27-C ) :   0.1401 B(  0-C , 31-H ) :  -0.1454
B(  0-C , 33-H ) :   0.7563 B(  0-C , 34-H ) :   0.4622 B(  1-C ,  2-H ) :   0.5386
B(  1-C ,  3-C ) :   1.2294 B(  1-C ,  4-H ) :   0.6506 B(  1-C ,  5-H ) :   0.1128
B(  1-C ,  6-H ) :   0.1027 B(  1-C , 26-C ) :   0.2298 B(  1-C , 33-H ) :   0.1695
B(  1-C , 34-H ) :   0.1029 B(  2-H ,  3-C ) :   0.3442 B(  2-H ,  4-H ) :  -0.1892
B(  3-C ,  4-H ) :   0.2097 B(  3-C ,  5-H ) :   0.8109 B(  3-C ,  6-H ) :   0.7840
B(  3-C ,  7-C ) :   1.2445 B(  3-C ,  8-H ) :   0.1452 B(  3-C , 10-H ) :   0.1930
B(  5-H ,  7-C ) :   0.1560 B(  5-H , 15-H ) :   0.1720 B(  5-H , 16-H ) :  -0.1130
B(  6-H ,  7-C ) :   0.1452 B(  7-C ,  8-H ) :   0.8317 B(  7-C ,  9-C ) :   1.1072
B(  7-C , 10-H ) :   0.8583 B(  7-C , 11-C ) :   0.1845 B(  7-C , 12-H ) :   0.1335
B(  7-C , 13-H ) :   0.3042 B(  8-H , 17-H ) :   0.1880 B(  9-C , 11-C ) :   1.1159
B(  9-C , 12-H ) :   0.6471 B(  9-C , 13-H ) :   0.5772 B( 11-C , 12-H ) :   0.2273
B( 11-C , 13-H ) :   0.1628 B( 11-C , 14-C ) :   1.1532 B( 11-C , 15-H ) :   0.7881
B( 11-C , 16-H ) :   0.8839 B( 11-C , 17-H ) :   0.1923 B( 11-C , 19-H ) :   0.1325
B( 12-H , 13-H ) :  -0.1458 B( 14-C , 15-H ) :   0.1727 B( 14-C , 16-H ) :   0.2553
B( 14-C , 17-H ) :   0.2302 B( 14-C , 18-C ) :   1.1526 B( 14-C , 19-H ) :   0.5878
B( 14-C , 20-H ) :   0.1478 B( 14-C , 21-H ) :   0.2679 B( 14-C , 22-C ) :   0.1274
B( 14-C , 27-C ) :   0.2168 B( 15-H , 16-H ) :  -0.1149 B( 17-H , 18-C ) :   0.1881
B( 17-H , 19-H ) :   0.2674 B( 17-H , 26-C ) :   0.1349 B( 17-H , 27-C ) :  -0.1677
B( 17-H , 32-H ) :   0.1596 B( 18-C , 19-H ) :   0.1203 B( 18-C , 20-H ) :   0.8734
B( 18-C , 21-H ) :   0.7572 B( 18-C , 22-C ) :   1.1143 B( 18-C , 23-H ) :   0.2474
B( 18-C , 24-H ) :   0.1404 B( 18-C , 25-F ) :   0.1489 B( 22-C , 23-H ) :   0.6548
B( 22-C , 24-H ) :   0.7416 B( 22-C , 25-F ) :   0.6076 B( 24-H , 25-F ) :   0.1705
B( 25-F , 26-C ) :   0.1130 B( 25-F , 27-C ) :  -0.1294 B( 25-F , 30-H ) :   0.1502
B( 25-F , 32-H ) :   0.1499 B( 26-C , 27-C ) :   2.0774 B( 26-C , 28-N ) :   1.0189
B( 26-C , 31-H ) :   0.2094 B( 26-C , 32-H ) :   0.6692 B( 26-C , 34-H ) :   0.4517
B( 27-C , 28-N ) :   0.3967 B( 27-C , 31-H ) :   0.9382 B( 28-N , 29-H ) :   1.0694
B( 28-N , 30-H ) :   1.0365 B( 28-N , 31-H ) :   0.1563 B( 29-H , 30-H ) :  -0.2344
B( 30-H , 32-H ) :   0.1051 B( 31-H , 32-H ) :  -0.2297 B( 33-H , 34-H ) :  -0.1386

Dispersion correction           -0.064078634
FINAL SINGLE POINT ENERGY      -586.245307614842

DIPOLE MOMENT
-------------
                                X             Y             Z
Electronic contribution:     -2.71371      -1.60092      10.45647
Nuclear contribution   :      1.82572       1.04089     -11.09065
                        -----------------------------------------
Total Dipole Moment    :     -0.88800      -0.56003      -0.63418
                        -----------------------------------------
Magnitude (a.u.)       :      1.22652
Magnitude (Debye)      :      3.11756

Rotational constants in cm-1:     0.028436     0.022359     0.014416
Rotational constants in MHz :   852.496561   670.291843   432.183951

                             ****ORCA TERMINATED NORMALLY****
TOTAL RUN TIME: 0 days 0 hours 2 minutes 51 seconds 902 msec
