                         Program Version 5.0.0 -  RELEASE  -
|  1> !B3LYP D3BJ RIJCOSX def2-SVPD def2/J TightSCF xyzfile
|  2>
|  3> *xyzfile 0 1 D2.xyz
|  4>
|  5> %MaxCore 64000
|  6>
|  7> %pal nprocs 4
|  8> end
|  9>
| 10> %scf
| 11>   MaxIter 150
| 12> end
| 13>
| 14>
| 15>                          ****END OF INPUT****

CARTESIAN COORDINATES (ANGSTROEM)
---------------------------------
  C      4.366454   -0.133215   -1.416062
  C      4.508292   -0.931872   -2.724249
  H      4.753716   -1.972051   -2.488408
  C      3.294164   -0.918214   -3.656570
  H      5.385637   -0.536236   -3.242640
  H      2.483463   -1.477378   -3.185764
  H      3.553092   -1.478495   -4.560331
  C      2.772335    0.460100   -4.051448
  H      2.608762    1.065107   -3.155194
  C      1.465354    0.410537   -4.853644
  H      3.532940    0.988848   -4.635671
  C      0.326171   -0.375613   -4.192580
  H      1.666704   -0.022269   -5.839323
  H      1.138198    1.439246   -5.035449
  C     -0.017405    0.080588   -2.778406
  H      0.585573   -1.439385   -4.168057
  H     -0.560005   -0.311425   -4.831461
  H      0.902090    0.201296   -2.206729
  C     -0.903495   -0.873945   -1.987388
  H     -0.479549    1.074657   -2.811915
  H     -0.502554   -1.892096   -2.081204
  H     -1.917039   -0.895427   -2.406277
  C     -0.960148   -0.522365   -0.489867
  H     -1.690392   -1.208130   -0.021677
  H     -1.414490    0.486329   -0.406677
  F      0.261703   -0.580307    0.138611
  C      3.056503   -0.320797   -0.707384
  N      2.389825    0.711285   -0.243909
  C      2.515999   -1.507721   -0.550229
  H      2.967683   -2.322915   -0.956305
  H      1.549872   -1.490634   -0.249876
  H      2.743071    1.649471   -0.412802
  H      1.440364    0.502778    0.037031
  H      4.487835    0.932997   -1.611569
  H      5.169672   -0.414432   -0.729817

 Total Charge           Charge          ....    0
 Multiplicity           Mult            ....    1
 Number of Electrons    NEL             ....  104
 Basis Dimension        Dim             ....  439

ORBITAL ENERGIES
----------------

  NO   OCC          E(Eh)            E(eV)
   0   2.0000     -24.716160      -672.5609
   1   2.0000     -14.305352      -389.2684
   2   2.0000     -10.276599      -279.6405
   3   2.0000     -10.193975      -277.3922
   4   2.0000     -10.181983      -277.0658
   5   2.0000     -10.175706      -276.8950
   6   2.0000     -10.175003      -276.8759
   7   2.0000     -10.173276      -276.8289
   8   2.0000     -10.171560      -276.7822
   9   2.0000     -10.170541      -276.7545
  10   2.0000     -10.168320      -276.6940
  11   2.0000     -10.162380      -276.5324
  12   2.0000     -10.087953      -274.5072
  13   2.0000      -1.222170       -33.2569
  14   2.0000      -0.907534       -24.6953
  15   2.0000      -0.811331       -22.0775
  16   2.0000      -0.788874       -21.4663
  17   2.0000      -0.764092       -20.7920
  18   2.0000      -0.722817       -19.6689
  19   2.0000      -0.692321       -18.8390
  20   2.0000      -0.681115       -18.5341
  21   2.0000      -0.636044       -17.3076
  22   2.0000      -0.613429       -16.6923
  23   2.0000      -0.583178       -15.8691
  24   2.0000      -0.553115       -15.0510
  25   2.0000      -0.542562       -14.7639
  26   2.0000      -0.529925       -14.4200
  27   2.0000      -0.524029       -14.2596
  28   2.0000      -0.510013       -13.8782
  29   2.0000      -0.484632       -13.1875
  30   2.0000      -0.474683       -12.9168
  31   2.0000      -0.461622       -12.5614
  32   2.0000      -0.448550       -12.2057
  33   2.0000      -0.436134       -11.8678
  34   2.0000      -0.428728       -11.6663
  35   2.0000      -0.414538       -11.2801
  36   2.0000      -0.398522       -10.8443
  37   2.0000      -0.389978       -10.6118
  38   2.0000      -0.381415       -10.3788
  39   2.0000      -0.368632       -10.0310
  40   2.0000      -0.364936        -9.9304
  41   2.0000      -0.359301        -9.7771
  42   2.0000      -0.352362        -9.5882
  43   2.0000      -0.348032        -9.4704
  44   2.0000      -0.334520        -9.1028
  45   2.0000      -0.328491        -8.9387
  46   2.0000      -0.317283        -8.6337
  47   2.0000      -0.309566        -8.4237
  48   2.0000      -0.308738        -8.4012
  49   2.0000      -0.302034        -8.2188
  50   2.0000      -0.300243        -8.1700
  51   2.0000      -0.170625        -4.6429
  52   0.0000       0.015901         0.4327
  53   0.0000       0.025104         0.6831
  54   0.0000       0.030372         0.8265
  55   0.0000       0.034379         0.9355
  56   0.0000       0.044000         1.1973

MULLIKEN ATOMIC CHARGES
-----------------------
   0 C :    0.773313
   1 C :    0.603932
   2 H :    0.018825
   3 C :    0.108952
   4 H :   -0.300191
   5 H :   -0.127207
   6 H :   -0.286514
   7 C :    0.153269
   8 H :   -0.023657
   9 C :    0.917150
  10 H :   -0.475337
  11 C :    0.225361
  12 H :   -0.118926
  13 H :   -0.089136
  14 C :    0.847216
  15 H :    0.079726
  16 H :   -0.533904
  17 H :   -1.014692
  18 C :    0.180501
  19 H :   -0.063228
  20 H :   -0.043811
  21 H :   -0.266489
  22 C :    1.277955
  23 H :   -0.200667
  24 H :   -0.114422
  25 F :   -0.803769
  26 C :   -0.671493
  27 N :    0.606799
  28 C :    0.958342
  29 H :   -0.289113
  30 H :   -0.671348
  31 H :   -0.153406
  32 H :   -0.230192
  33 H :    0.121751
  34 H :   -0.395591
Sum of atomic charges:   -0.0000000

LOEWDIN ATOMIC CHARGES
----------------------
   0 C :    0.024459
   1 C :   -0.012087
   2 H :    0.015916
   3 C :   -0.023288
   4 H :    0.014162
   5 H :   -0.013360
   6 H :    0.023176
   7 C :   -0.024180
   8 H :   -0.002769
   9 C :   -0.019605
  10 H :    0.020458
  11 C :   -0.026610
  12 H :    0.018105
  13 H :    0.016960
  14 C :   -0.024668
  15 H :    0.010808
  16 H :    0.017521
  17 H :   -0.027263
  18 C :   -0.004734
  19 H :    0.031811
  20 H :    0.028812
  21 H :    0.030495
  22 C :    0.171131
  23 H :    0.033698
  24 H :    0.037881
  25 F :   -0.221219
  26 C :   -0.236824
  27 N :    0.194126
  28 C :    0.197672
  29 H :   -0.076087
  30 H :   -0.135790
  31 H :    0.002059
  32 H :   -0.068460
  33 H :    0.004973
  34 H :    0.022721

  Mayer bond orders larger than 0.100000
B(  0-C ,  1-C ) :   1.1264 B(  0-C ,  2-H ) :   0.1020 B(  0-C ,  3-C ) :   0.1394
B(  0-C ,  4-H ) :   0.2054 B(  0-C , 26-C ) :   1.1973 B(  0-C , 27-N ) :   0.1112
B(  0-C , 29-H ) :  -0.1292 B(  0-C , 33-H ) :   0.5085 B(  0-C , 34-H ) :   0.6430
B(  1-C ,  2-H ) :   0.5873 B(  1-C ,  3-C ) :   1.2443 B(  1-C ,  4-H ) :   0.7116
B(  1-C ,  5-H ) :   0.1755 B(  1-C ,  6-H ) :   0.1057 B(  1-C , 26-C ) :   0.1467
B(  1-C , 28-C ) :   0.1039 B(  1-C , 30-H ) :  -0.1068 B(  1-C , 33-H ) :   0.1541
B(  1-C , 34-H ) :   0.1338 B(  2-H ,  3-C ) :   0.2968 B(  2-H ,  4-H ) :  -0.2165
B(  3-C ,  4-H ) :   0.2473 B(  3-C ,  5-H ) :   0.7881 B(  3-C ,  6-H ) :   0.7599
B(  3-C ,  7-C ) :   1.2309 B(  3-C ,  8-H ) :   0.1428 B(  3-C , 10-H ) :   0.1872
B(  4-H , 29-H ) :  -0.1371 B(  5-H ,  7-C ) :   0.1516 B(  5-H , 15-H ) :   0.1661
B(  5-H , 29-H ) :   0.1510 B(  5-H , 30-H ) :  -0.1171 B(  6-H ,  7-C ) :   0.1821
B(  7-C ,  8-H ) :   0.8166 B(  7-C ,  9-C ) :   1.1048 B(  7-C , 10-H ) :   0.8600
B(  7-C , 11-C ) :   0.1933 B(  7-C , 12-H ) :   0.1346 B(  7-C , 13-H ) :   0.3088
B(  8-H , 17-H ) :   0.2279 B(  9-C , 11-C ) :   1.1169 B(  9-C , 12-H ) :   0.6333
B(  9-C , 13-H ) :   0.5865 B( 11-C , 12-H ) :   0.2233 B( 11-C , 13-H ) :   0.1546
B( 11-C , 14-C ) :   1.1216 B( 11-C , 15-H ) :   0.7974 B( 11-C , 16-H ) :   0.8763
B( 11-C , 17-H ) :   0.2432 B( 11-C , 19-H ) :   0.1233 B( 12-H , 13-H ) :  -0.1521
B( 14-C , 15-H ) :   0.1740 B( 14-C , 16-H ) :   0.2318 B( 14-C , 17-H ) :  -0.1838
B( 14-C , 18-C ) :   1.1143 B( 14-C , 19-H ) :   0.5382 B( 14-C , 20-H ) :   0.1571
B( 14-C , 21-H ) :   0.2348 B( 14-C , 22-C ) :   0.1386 B( 14-C , 29-H ) :  -0.1089
B( 17-H , 18-C ) :   0.2088 B( 17-H , 19-H ) :   0.3213 B( 17-H , 29-H ) :   0.1174
B( 18-C , 19-H ) :   0.1158 B( 18-C , 20-H ) :   0.8632 B( 18-C , 21-H ) :   0.7854
B( 18-C , 22-C ) :   1.1134 B( 18-C , 23-H ) :   0.2403 B( 18-C , 24-H ) :   0.1391
B( 18-C , 25-F ) :   0.1338 B( 20-H , 22-C ) :   0.1050 B( 22-C , 23-H ) :   0.6515
B( 22-C , 24-H ) :   0.7364 B( 22-C , 25-F ) :   0.6293 B( 23-H , 25-F ) :   0.1020
B( 24-H , 25-F ) :   0.1768 B( 25-F , 26-C ) :   0.1322 B( 25-F , 28-C ) :  -0.1145
B( 25-F , 30-H ) :   0.2176 B( 26-C , 27-N ) :   1.0384 B( 26-C , 28-C ) :   1.9953
B( 26-C , 29-H ) :   0.1263 B( 26-C , 30-H ) :   0.6015 B( 26-C , 33-H ) :   0.3094
B( 26-C , 34-H ) :   0.3228 B( 27-N , 28-C ) :   0.3849 B( 27-N , 29-H ) :   0.1670
B( 27-N , 30-H ) :  -0.1023 B( 27-N , 31-H ) :   1.0673 B( 27-N , 32-H ) :   1.0143
B( 28-C , 29-H ) :   0.7027 B( 29-H , 30-H ) :  -0.3023 B( 31-H , 32-H ) :  -0.1664
B( 33-H , 34-H ) :  -0.1304

Dispersion correction           -0.064175189
FINAL SINGLE POINT ENERGY      -586.244628190819

DIPOLE MOMENT
-------------
                                X             Y             Z
Electronic contribution:     -2.81072       0.00782      10.68429
Nuclear contribution   :      1.85154       0.58682     -11.15333
                        -----------------------------------------
Total Dipole Moment    :     -0.95918       0.59465      -0.46904
                        -----------------------------------------
Magnitude (a.u.)       :      1.22214
Magnitude (Debye)      :      3.10644

Rotational constants in cm-1:     0.028379     0.022321     0.014415
Rotational constants in MHz :   850.785777   669.176075   432.155504

                             ****ORCA TERMINATED NORMALLY****
TOTAL RUN TIME: 0 days 0 hours 3 minutes 4 seconds 510 msec
