                         Program Version 5.0.0 -  RELEASE  -
|  1> !PBE D3BJ RIJCOSX def2-SVPD def2/J TightSCF
|  2> *xyz -1 1
|  3> C         -0.47749        0.60819       -4.10105
|  4> C          0.18467       -0.50664       -4.91676
|  5> O         -0.15869       -1.70109       -4.65798
|  6> O          1.05594       -0.17441       -5.74037
|  7> H         -0.09903        1.55672       -4.42038
|  8> H         -0.25931        0.46828       -3.06292
|  9> H         -1.53664        0.57826       -4.25010
| 10> *
| 11>
| 12> %MaxCore 64000
| 13>
| 14> %pal nprocs 4
| 15> end
| 16>
| 17> %scf
| 18>   MaxIter 150
| 19> end
| 20>
| 21>
| 22>                          ****END OF INPUT****

CARTESIAN COORDINATES (ANGSTROEM)
---------------------------------
  C     -0.477490    0.608190   -4.101050
  C      0.184670   -0.506640   -4.916760
  O     -0.158690   -1.701090   -4.657980
  O      1.055940   -0.174410   -5.740370
  H     -0.099030    1.556720   -4.420380
  H     -0.259310    0.468280   -3.062920
  H     -1.536640    0.578260   -4.250100

 Total Charge           Charge          ....   -1
 Multiplicity           Mult            ....    1
 Number of Electrons    NEL             ....   32
 Basis Dimension        Dim             ....  110

ORBITAL ENERGIES
----------------

  NO   OCC          E(Eh)            E(eV)
   0   2.0000     -18.504200      -503.5249
   1   2.0000     -18.499518      -503.3975
   2   2.0000      -9.771491      -265.8958
   3   2.0000      -9.707127      -264.1444
   4   2.0000      -0.722108       -19.6496
   5   2.0000      -0.631728       -17.1902
   6   2.0000      -0.467876       -12.7315
   7   2.0000      -0.245455        -6.6792
   8   2.0000      -0.211751        -5.7620
   9   2.0000      -0.196194        -5.3387
  10   2.0000      -0.170558        -4.6411
  11   2.0000      -0.133877        -3.6430
  12   2.0000      -0.122068        -3.3216
  13   2.0000      -0.010572        -0.2877
  14   2.0000       0.002293         0.0624
  15   2.0000       0.021556         0.5866
  16   0.0000       0.156448         4.2572
  17   0.0000       0.197892         5.3849
  18   0.0000       0.199807         5.4370
  19   0.0000       0.224623         6.1123
  20   0.0000       0.241853         6.5811

MULLIKEN ATOMIC CHARGES
-----------------------
   0 C :    0.467559
   1 C :   -0.045817
   2 O :   -0.649966
   3 O :   -0.578657
   4 H :   -0.076100
   5 H :   -0.059238
   6 H :   -0.057781
Sum of atomic charges:   -1.0000000

LOEWDIN ATOMIC CHARGES
----------------------
   0 C :    0.140310
   1 C :   -0.355737
   2 O :   -0.336985
   3 O :   -0.315116
   4 H :   -0.049046
   5 H :   -0.040769
   6 H :   -0.042657

  Mayer bond orders larger than 0.100000
B(  0-C ,  1-C ) :   1.2774 B(  0-C ,  4-H ) :   0.8759 B(  0-C ,  5-H ) :   0.8283
B(  0-C ,  6-H ) :   0.8208 B(  1-C ,  2-O ) :   1.4741 B(  1-C ,  3-O ) :   1.4970
B(  1-C ,  4-H ) :   0.2512 B(  1-C ,  5-H ) :   0.1696 B(  1-C ,  6-H ) :   0.1773

Dispersion correction           -0.003676528
FINAL SINGLE POINT ENERGY      -228.123518780479

DIPOLE MOMENT
-------------
                                X             Y             Z
Electronic contribution:      1.63999      -2.64925      -1.98199
Nuclear contribution   :     -2.19461       3.67480       2.63888
                        -----------------------------------------
Total Dipole Moment    :     -0.55462       1.02555       0.65690
                        -----------------------------------------
Magnitude (a.u.)       :      1.33823
Magnitude (Debye)      :      3.40151

Rotational constants in cm-1:     0.393152     0.332423     0.186264
Rotational constants in MHz : 11786.395082  9965.786704  5584.045355

                             ****ORCA TERMINATED NORMALLY****
TOTAL RUN TIME: 0 days 0 hours 0 minutes 3 seconds 593 msec
