                         Program Version 5.0.0 -  RELEASE  -
|  1> !PBE D3BJ RIJCOSX def2-SVPD def2/J TightSCF
|  2> *xyz 1 1
|  3> C          2.48645       -2.67712       -2.56345
|  4> C          3.03764       -2.36672       -3.92351
|  5> N          2.28036       -2.45441       -4.96769
|  6> N          4.32174       -2.01793       -4.01664
|  7> H          4.87994       -1.91167       -3.17382
|  8> H          4.71015       -1.67088       -4.88356
|  9> H          1.27042       -2.41265       -4.86614
| 10> H          2.58183       -2.05528       -5.84688
| 11> H          1.45238       -2.93848       -2.64882
| 12> H          2.58636       -1.81799       -1.93352
| 13> H          3.02742       -3.49632       -2.13781
| 14> *
| 15>
| 16> %MaxCore 64000
| 17>
| 18> %pal nprocs 4
| 19> end
| 20>
| 21> %scf
| 22>   MaxIter 150
| 23> end
| 24>
| 25>
| 26>                          ****END OF INPUT****

CARTESIAN COORDINATES (ANGSTROEM)
---------------------------------
  C      2.486450   -2.677120   -2.563450
  C      3.037640   -2.366720   -3.923510
  N      2.280360   -2.454410   -4.967690
  N      4.321740   -2.017930   -4.016640
  H      4.879940   -1.911670   -3.173820
  H      4.710150   -1.670880   -4.883560
  H      1.270420   -2.412650   -4.866140
  H      2.581830   -2.055280   -5.846880
  H      1.452380   -2.938480   -2.648820
  H      2.586360   -1.817990   -1.933520
  H      3.027420   -3.496320   -2.137810

 Total Charge           Charge          ....    1
 Multiplicity           Mult            ....    1
 Number of Electrons    NEL             ....   32
 Basis Dimension        Dim             ....  136

ORBITAL ENERGIES
----------------

  NO   OCC          E(Eh)            E(eV)
   0   2.0000     -14.255634      -387.9155
   1   2.0000     -14.250956      -387.7882
   2   2.0000     -10.221920      -278.1526
   3   2.0000     -10.094875      -274.6955
   4   2.0000      -1.124706       -30.6048
   5   2.0000      -1.033720       -28.1289
   6   2.0000      -0.882553       -24.0155
   7   2.0000      -0.789086       -21.4721
   8   2.0000      -0.732065       -19.9205
   9   2.0000      -0.715602       -19.4725
  10   2.0000      -0.660359       -17.9693
  11   2.0000      -0.615647       -16.7526
  12   2.0000      -0.573416       -15.6034
  13   2.0000      -0.556870       -15.1532
  14   2.0000      -0.536856       -14.6086
  15   2.0000      -0.466586       -12.6964
  16   0.0000      -0.257068        -6.9952
  17   0.0000      -0.185808        -5.0561
  18   0.0000      -0.144853        -3.9417
  19   0.0000      -0.139770        -3.8033
  20   0.0000      -0.117625        -3.2007

MULLIKEN ATOMIC CHARGES
-----------------------
   0 C :    0.635333
   1 C :    0.298580
   2 N :    0.157283
   3 N :    0.125398
   4 H :   -0.007946
   5 H :   -0.145026
   6 H :    0.000977
   7 H :   -0.102885
   8 H :    0.020052
   9 H :    0.005259
  10 H :    0.012976
Sum of atomic charges:    1.0000000

LOEWDIN ATOMIC CHARGES
----------------------
   0 C :    0.235594
   1 C :   -0.084573
   2 N :    0.291658
   3 N :    0.292185
   4 H :    0.056224
   5 H :    0.043604
   6 H :    0.059759
   7 H :    0.050714
   8 H :    0.007877
   9 H :    0.022652
  10 H :    0.024306

  Mayer bond orders larger than 0.100000
B(  0-C ,  1-C ) :   1.3273 B(  0-C ,  8-H ) :   0.7609 B(  0-C ,  9-H ) :   0.7780
B(  0-C , 10-H ) :   0.7241 B(  1-C ,  2-N ) :   1.1237 B(  1-C ,  3-N ) :   1.1145
B(  1-C ,  5-H ) :  -0.1620 B(  1-C ,  7-H ) :  -0.1483 B(  1-C ,  8-H ) :   0.2688
B(  1-C ,  9-H ) :   0.1680 B(  1-C , 10-H ) :   0.1977 B(  2-N ,  3-N ) :   0.1832
B(  2-N ,  6-H ) :   1.0644 B(  2-N ,  7-H ) :   1.2024 B(  3-N ,  4-H ) :   1.1247
B(  3-N ,  5-H ) :   1.2424 B(  4-H ,  5-H ) :  -0.1594 B(  6-H ,  7-H ) :  -0.1280
B(  9-H , 10-H ) :   0.1014

Dispersion correction           -0.006910674
FINAL SINGLE POINT ENERGY      -189.354740629444

DIPOLE MOMENT
-------------
                                X             Y             Z
Electronic contribution:      0.80873       0.24615      -1.98827
Nuclear contribution   :     -0.70516       0.22720       1.57908
                        -----------------------------------------
Total Dipole Moment    :      0.10357       0.47335      -0.40919
                        -----------------------------------------
Magnitude (a.u.)       :      0.63421
Magnitude (Debye)      :      1.61204

Rotational constants in cm-1:     0.330529     0.301293     0.162717
Rotational constants in MHz :  9909.000224  9032.538169  4878.126278

                             ****ORCA TERMINATED NORMALLY****
TOTAL RUN TIME: 0 days 0 hours 0 minutes 4 seconds 577 msec
