                         Program Version 5.0.0 -  RELEASE  -
|  1> !PBE D3BJ RIJCOSX def2-SVPD def2/J TightSCF xyzfile
|  2>
|  3> *xyzfile 0 1 B.xyz
|  4>
|  5> %MaxCore 64000
|  6>
|  7> %pal nprocs 4
|  8> end
|  9>
| 10> %scf
| 11>   MaxIter 150
| 12> end
| 13>
| 14>
| 15>                          ****END OF INPUT****

CARTESIAN COORDINATES (ANGSTROEM)
---------------------------------
  C      2.486452   -2.677121   -2.563447
  C     -0.870963    0.248043   -2.662804
  C     -0.477492    0.608191   -4.101052
  H      0.206773    1.458299   -4.118748
  H     -1.368442    0.929419   -4.647855
  C      0.184673   -0.506640   -4.916760
  C      3.037640   -2.366715   -3.923509
  N      2.280360   -2.454408   -4.967692
  N      4.321736   -2.017932   -4.016641
  H      4.879940   -1.911668   -3.173823
  H      4.710148   -1.670882   -4.883561
  H      1.270423   -2.412650   -4.866143
  H      2.581829   -2.055282   -5.846878
  O     -0.158685   -1.701088   -4.657981
  O      1.055938   -0.174410   -5.740373
  C      2.497991   -1.469464   -1.610303
  C      1.582841   -0.321986   -2.042619
  H      2.193083   -1.833912   -0.625420
  H      3.523356   -1.103982   -1.490392
  C      0.100160   -0.673551   -1.915815
  H      1.822311   -0.040361   -3.072834
  H      1.813180    0.557019   -1.433266
  H     -0.063284   -1.679120   -2.301112
  H     -0.168820   -0.691680   -0.853831
  H     -1.001048    1.181040   -2.104071
  H     -1.844645   -0.246592   -2.663281
  H      1.472592   -3.051527   -2.694366
  H      3.083201   -3.490638   -2.141472

 Total Charge           Charge          ....    0
 Multiplicity           Mult            ....    1
 Number of Electrons    NEL             ....   94
 Basis Dimension        Dim             ....  374

ORBITAL ENERGIES
----------------

  NO   OCC          E(Eh)            E(eV)
   0   2.0000     -18.684893      -508.4418
   1   2.0000     -18.678138      -508.2580
   2   2.0000     -14.082157      -383.1950
   3   2.0000     -14.045013      -382.1842
   4   2.0000     -10.033470      -273.0246
   5   2.0000      -9.942282      -270.5432
   6   2.0000      -9.939277      -270.4615
   7   2.0000      -9.923014      -270.0189
   8   2.0000      -9.893815      -269.2244
   9   2.0000      -9.876396      -268.7504
  10   2.0000      -9.871927      -268.6288
  11   2.0000      -9.860010      -268.3045
  12   2.0000      -0.941092       -25.6084
  13   2.0000      -0.906205       -24.6591
  14   2.0000      -0.848422       -23.0867
  15   2.0000      -0.815084       -22.1796
  16   2.0000      -0.752128       -20.4665
  17   2.0000      -0.701230       -19.0814
  18   2.0000      -0.660797       -17.9812
  19   2.0000      -0.611984       -16.6529
  20   2.0000      -0.595267       -16.1980
  21   2.0000      -0.555339       -15.1115
  22   2.0000      -0.554536       -15.0897
  23   2.0000      -0.522522       -14.2185
  24   2.0000      -0.497598       -13.5403
  25   2.0000      -0.472787       -12.8652
  26   2.0000      -0.450199       -12.2505
  27   2.0000      -0.430782       -11.7222
  28   2.0000      -0.409133       -11.1331
  29   2.0000      -0.403774       -10.9873
  30   2.0000      -0.393719       -10.7136
  31   2.0000      -0.377088       -10.2611
  32   2.0000      -0.367191        -9.9918
  33   2.0000      -0.363386        -9.8882
  34   2.0000      -0.344372        -9.3708
  35   2.0000      -0.336000        -9.1430
  36   2.0000      -0.323827        -8.8118
  37   2.0000      -0.315747        -8.5919
  38   2.0000      -0.309727        -8.4281
  39   2.0000      -0.295239        -8.0339
  40   2.0000      -0.285201        -7.7607
  41   2.0000      -0.274321        -7.4647
  42   2.0000      -0.267842        -7.2883
  43   2.0000      -0.257981        -7.0200
  44   2.0000      -0.192744        -5.2448
  45   2.0000      -0.174703        -4.7539
  46   2.0000      -0.159558        -4.3418
  47   0.0000      -0.078149        -2.1266
  48   0.0000      -0.039270        -1.0686
  49   0.0000      -0.003076        -0.0837
  50   0.0000       0.012481         0.3396
  51   0.0000       0.018304         0.4981

MULLIKEN ATOMIC CHARGES
-----------------------
   0 C :    0.231522
   1 C :    0.513996
   2 C :    0.267234
   3 H :    0.222591
   4 H :   -0.320386
   5 C :    0.164904
   6 C :    0.643012
   7 N :    0.360712
   8 N :    0.075567
   9 H :   -0.039995
  10 H :   -0.170028
  11 H :   -0.250652
  12 H :   -0.056610
  13 O :   -0.768880
  14 O :   -0.563183
  15 C :    0.291102
  16 C :    0.142648
  17 H :   -0.067984
  18 H :   -0.093593
  19 C :   -0.016899
  20 H :   -0.088441
  21 H :   -0.201385
  22 H :    0.061284
  23 H :   -0.204660
  24 H :   -0.146785
  25 H :    0.052993
  26 H :    0.064166
  27 H :   -0.102248
Sum of atomic charges:    0.0000000

LOEWDIN ATOMIC CHARGES
----------------------
   0 C :    0.052759
   1 C :   -0.020933
   2 C :    0.028367
   3 H :    0.017212
   4 H :    0.027847
   5 C :   -0.259738
   6 C :   -0.067766
   7 N :    0.316490
   8 N :    0.263903
   9 H :    0.020598
  10 H :    0.025386
  11 H :   -0.101174
  12 H :    0.027336
  13 O :   -0.227658
  14 O :   -0.235654
  15 C :   -0.016836
  16 C :   -0.011635
  17 H :    0.030541
  18 H :    0.010131
  19 C :   -0.030655
  20 H :    0.011700
  21 H :    0.028454
  22 H :   -0.010241
  23 H :    0.022039
  24 H :    0.015810
  25 H :    0.023359
  26 H :    0.024220
  27 H :    0.036136

  Mayer bond orders larger than 0.100000
B(  0-C ,  6-C ) :   1.0917 B(  0-C ,  7-N ) :   0.1297 B(  0-C , 15-C ) :   1.1859
B(  0-C , 16-C ) :   0.1132 B(  0-C , 17-H ) :   0.1593 B(  0-C , 18-H ) :   0.1635
B(  0-C , 26-H ) :   0.7397 B(  0-C , 27-H ) :   0.7158 B(  1-C ,  2-C ) :   1.1867
B(  1-C ,  4-H ) :   0.1284 B(  1-C , 19-C ) :   1.3239 B(  1-C , 23-H ) :   0.1112
B(  1-C , 24-H ) :   0.7483 B(  1-C , 25-H ) :   0.6331 B(  2-C ,  3-H ) :   0.7214
B(  2-C ,  4-H ) :   0.7330 B(  2-C ,  5-C ) :   1.1904 B(  2-C , 19-C ) :   0.1453
B(  2-C , 24-H ) :   0.1603 B(  3-H ,  5-C ) :   0.2803 B(  4-H ,  5-C ) :   0.2881
B(  5-C , 13-O ) :   1.2364 B(  5-C , 14-O ) :   1.5086 B(  6-C ,  7-N ) :   1.1652
B(  6-C ,  8-N ) :   0.9551 B(  6-C ,  9-H ) :  -0.1129 B(  6-C , 10-H ) :  -0.1129
B(  6-C , 12-H ) :  -0.1611 B(  6-C , 26-H ) :   0.1862 B(  6-C , 27-H ) :   0.1503
B(  7-N ,  8-N ) :   0.2491 B(  7-N , 11-H ) :   0.9856 B(  7-N , 12-H ) :   1.0939
B(  8-N ,  9-H ) :   1.1646 B(  8-N , 10-H ) :   1.2644 B(  9-H , 10-H ) :  -0.1840
B( 11-H , 12-H ) :  -0.1434 B( 11-H , 13-O ) :   0.2876 B( 15-C , 16-C ) :   1.2256
B( 15-C , 17-H ) :   0.8433 B( 15-C , 18-H ) :   0.6667 B( 15-C , 20-H ) :   0.1768
B( 15-C , 26-H ) :   0.1536 B( 15-C , 27-H ) :   0.1394 B( 16-C , 17-H ) :   0.1219
B( 16-C , 18-H ) :   0.2245 B( 16-C , 19-C ) :   1.2098 B( 16-C , 20-H ) :   0.8225
B( 16-C , 21-H ) :   0.8409 B( 16-C , 22-H ) :   0.1310 B( 16-C , 23-H ) :   0.2492
B( 19-C , 20-H ) :   0.1422 B( 19-C , 21-H ) :   0.1156 B( 19-C , 22-H ) :   0.8185
B( 19-C , 23-H ) :   0.7858 B( 19-C , 24-H ) :   0.2177 B( 19-C , 25-H ) :   0.2254
B( 22-H , 26-H ) :   0.1262 B( 24-H , 25-H ) :  -0.1122

Dispersion correction           -0.031453649
FINAL SINGLE POINT ENERGY      -573.410042916576

DIPOLE MOMENT
-------------
                                X             Y             Z
Electronic contribution:      1.62808      -2.88400      -8.88561
Nuclear contribution   :      1.39386       1.90489      10.36520
                        -----------------------------------------
Total Dipole Moment    :      3.02194      -0.97911       1.47960
                        -----------------------------------------
Magnitude (a.u.)       :      3.50428
Magnitude (Debye)      :      8.90718

Rotational constants in cm-1:     0.041165     0.025922     0.019001
Rotational constants in MHz :  1234.086888   777.109255   569.639629

                             ****ORCA TERMINATED NORMALLY****
TOTAL RUN TIME: 0 days 0 hours 0 minutes 38 seconds 516 msec
