                         Program Version 5.0.0 -  RELEASE  -
|  1> !PBE D3BJ RIJCOSX def2-SVPD def2/J TightSCF
|  2> *xyz 0 1
|  3> C         -0.47749        0.60819       -4.10105
|  4> C          0.18467       -0.50664       -4.91676
|  5> F         -0.15869       -1.70109       -4.65798
|  6> O          1.05594       -0.17441       -5.74037
|  7> H         -0.09903        1.55672       -4.42038
|  8> H         -0.25931        0.46828       -3.06292
|  9> H         -1.53664        0.57826       -4.25010
| 10> *
| 11>
| 12> %MaxCore 64000
| 13>
| 14> %pal nprocs 4
| 15> end
| 16>
| 17> %scf
| 18>   MaxIter 150
| 19> end
| 20>
| 21>
| 22>                          ****END OF INPUT****

CARTESIAN COORDINATES (ANGSTROEM)
---------------------------------
  C     -0.477490    0.608190   -4.101050
  C      0.184670   -0.506640   -4.916760
  F     -0.158690   -1.701090   -4.657980
  O      1.055940   -0.174410   -5.740370
  H     -0.099030    1.556720   -4.420380
  H     -0.259310    0.468280   -3.062920
  H     -1.536640    0.578260   -4.250100

 Total Charge           Charge          ....    0
 Multiplicity           Mult            ....    1
 Number of Electrons    NEL             ....   32
 Basis Dimension        Dim             ....  110

ORBITAL ENERGIES
----------------

  NO   OCC          E(Eh)            E(eV)
   0   2.0000     -24.343273      -662.4141
   1   2.0000     -18.776485      -510.9341
   2   2.0000     -10.071854      -274.0691
   3   2.0000      -9.923137      -270.0223
   4   2.0000      -1.197738       -32.5921
   5   2.0000      -0.948178       -25.8012
   6   2.0000      -0.697070       -18.9682
   7   2.0000      -0.591689       -16.1007
   8   2.0000      -0.489211       -13.3121
   9   2.0000      -0.483272       -13.1505
  10   2.0000      -0.446291       -12.1442
  11   2.0000      -0.398707       -10.8494
  12   2.0000      -0.388243       -10.5646
  13   2.0000      -0.354766        -9.6537
  14   2.0000      -0.324188        -8.8216
  15   2.0000      -0.250615        -6.8196
  16   0.0000      -0.070192        -1.9100
  17   0.0000      -0.005362        -0.1459
  18   0.0000       0.043474         1.1830
  19   0.0000       0.066493         1.8094
  20   0.0000       0.073195         1.9917

MULLIKEN ATOMIC CHARGES
-----------------------
   0 C :    0.442040
   1 C :    0.350402
   2 F :   -0.336765
   3 O :   -0.412614
   4 H :   -0.060394
   5 H :    0.009873
   6 H :    0.007458
Sum of atomic charges:    0.0000000

LOEWDIN ATOMIC CHARGES
----------------------
   0 C :    0.213658
   1 C :   -0.061922
   2 F :   -0.027807
   3 O :   -0.114645
   4 H :   -0.002336
   5 H :   -0.002410
   6 H :   -0.004537

  Mayer bond orders larger than 0.100000
B(  0-C ,  1-C ) :   1.2642 B(  0-C ,  4-H ) :   0.8820 B(  0-C ,  5-H ) :   0.8060
B(  0-C ,  6-H ) :   0.8018 B(  1-C ,  2-F ) :   0.7797 B(  1-C ,  3-O ) :   1.8376
B(  1-C ,  4-H ) :   0.2143 B(  1-C ,  5-H ) :   0.1332 B(  1-C ,  6-H ) :   0.1383

Dispersion correction           -0.003398170
FINAL SINGLE POINT ENERGY      -252.644973237336

DIPOLE MOMENT
-------------
                                X             Y             Z
Electronic contribution:      1.11717      -4.68826      -1.64963
Nuclear contribution   :     -1.87439       4.97468       2.43802
                        -----------------------------------------
Total Dipole Moment    :     -0.75722       0.28643       0.78839
                        -----------------------------------------
Magnitude (a.u.)       :      1.13004
Magnitude (Debye)      :      2.87233

Rotational constants in cm-1:     0.370842     0.317886     0.176700
Rotational constants in MHz : 11117.569466  9529.969862  5297.328364

                             ****ORCA TERMINATED NORMALLY****
TOTAL RUN TIME: 0 days 0 hours 0 minutes 3 seconds 595 msec
