                         Program Version 5.0.0 -  RELEASE  -
|  1> !PBE D3BJ RIJCOSX def2-SVPD def2/J TightSCF
|  2> *xyz 0 1
|  3> C          2.48645       -2.67712       -2.56345
|  4> C          3.03764       -2.36672       -3.92351
|  5> C          2.28036       -2.45441       -4.96769
|  6> N          4.32174       -2.01793       -4.01664
|  7> H          4.87994       -1.91167       -3.17382
|  8> H          4.71015       -1.67088       -4.88356
|  9> H          1.27042       -2.41265       -4.86614
| 10> H          2.58183       -2.05528       -5.84688
| 11> H          1.45238       -2.93848       -2.64882
| 12> H          2.58636       -1.81799       -1.93352
| 13> H          3.02742       -3.49632       -2.13781
| 14> *
| 15>
| 16> %MaxCore 64000
| 17>
| 18> %pal nprocs 4
| 19> end
| 20>
| 21> %scf
| 22>   MaxIter 150
| 23> end
| 24>
| 25>
| 26>                          ****END OF INPUT****

CARTESIAN COORDINATES (ANGSTROEM)
---------------------------------
  C      2.486450   -2.677120   -2.563450
  C      3.037640   -2.366720   -3.923510
  C      2.280360   -2.454410   -4.967690
  N      4.321740   -2.017930   -4.016640
  H      4.879940   -1.911670   -3.173820
  H      4.710150   -1.670880   -4.883560
  H      1.270420   -2.412650   -4.866140
  H      2.581830   -2.055280   -5.846880
  H      1.452380   -2.938480   -2.648820
  H      2.586360   -1.817990   -1.933520
  H      3.027420   -3.496320   -2.137810

 Total Charge           Charge          ....    0
 Multiplicity           Mult            ....    1
 Number of Electrons    NEL             ....   32
 Basis Dimension        Dim             ....  136

ORBITAL ENERGIES
----------------

  NO   OCC          E(Eh)            E(eV)
   0   2.0000     -14.003648      -381.0586
   1   2.0000      -9.915449      -269.8131
   2   2.0000      -9.885994      -269.0116
   3   2.0000      -9.827303      -267.4145
   4   2.0000      -0.838578       -22.8189
   5   2.0000      -0.683801       -18.6072
   6   2.0000      -0.620450       -16.8833
   7   2.0000      -0.515397       -14.0247
   8   2.0000      -0.473406       -12.8820
   9   2.0000      -0.424976       -11.5642
  10   2.0000      -0.385907       -10.5011
  11   2.0000      -0.351550        -9.5661
  12   2.0000      -0.348160        -9.4739
  13   2.0000      -0.304248        -8.2790
  14   2.0000      -0.290681        -7.9098
  15   2.0000      -0.167059        -4.5459
  16   0.0000      -0.000566        -0.0154
  17   0.0000       0.014203         0.3865
  18   0.0000       0.037546         1.0217
  19   0.0000       0.046616         1.2685
  20   0.0000       0.070259         1.9119

MULLIKEN ATOMIC CHARGES
-----------------------
   0 C :    0.821575
   1 C :   -0.496474
   2 C :    0.385018
   3 N :    0.222581
   4 H :   -0.192848
   5 H :   -0.192692
   6 H :   -0.080546
   7 H :   -0.393697
   8 H :    0.020439
   9 H :   -0.064408
  10 H :   -0.028950
Sum of atomic charges:    0.0000000

LOEWDIN ATOMIC CHARGES
----------------------
   0 C :    0.164962
   1 C :   -0.299651
   2 C :    0.156707
   3 N :    0.180024
   4 H :   -0.002552
   5 H :    0.000647
   6 H :   -0.076875
   7 H :   -0.083974
   8 H :   -0.013433
   9 H :   -0.013387
  10 H :   -0.012469

  Mayer bond orders larger than 0.100000
B(  0-C ,  1-C ) :   1.3715 B(  0-C ,  8-H ) :   0.7852 B(  0-C ,  9-H ) :   0.6028
B(  0-C , 10-H ) :   0.6885 B(  1-C ,  2-C ) :   1.8853 B(  1-C ,  3-N ) :   1.1562
B(  1-C ,  7-H ) :   0.2600 B(  1-C ,  8-H ) :   0.2410 B(  1-C ,  9-H ) :   0.3435
B(  1-C , 10-H ) :   0.2513 B(  2-C ,  3-N ) :   0.3056 B(  2-C ,  6-H ) :   0.8137
B(  2-C ,  7-H ) :   0.6730 B(  3-N ,  4-H ) :   1.1939 B(  3-N ,  5-H ) :   1.1937
B(  4-H ,  5-H ) :  -0.1418 B(  6-H ,  7-H ) :   0.2335

Dispersion correction           -0.007230203
FINAL SINGLE POINT ENERGY      -172.902498563396

DIPOLE MOMENT
-------------
                                X             Y             Z
Electronic contribution:      1.45729       0.18333      -0.92437
Nuclear contribution   :     -0.87498       0.20680       1.33581
                        -----------------------------------------
Total Dipole Moment    :      0.58231       0.39013       0.41144
                        -----------------------------------------
Magnitude (a.u.)       :      0.81275
Magnitude (Debye)      :      2.06585

Rotational constants in cm-1:     0.351941     0.304186     0.168624
Rotational constants in MHz : 10550.928440  9119.266441  5055.221775

                             ****ORCA TERMINATED NORMALLY****
TOTAL RUN TIME: 0 days 0 hours 0 minutes 5 seconds 292 msec
