                         Program Version 5.0.0 -  RELEASE  -
|  1> !PBE D3BJ RIJCOSX def2-SVPD def2/J TightSCF
|  2> *xyz 0 1
|  3> C         -0.47749        0.60819       -4.10105
|  4> C          0.18467       -0.50664       -4.91676
|  5> O         -0.15869       -1.70109       -4.65798
|  6> F          1.05594       -0.17441       -5.74037
|  7> H         -0.09903        1.55672       -4.42038
|  8> H         -0.25931        0.46828       -3.06292
|  9> H         -1.53664        0.57826       -4.25010
| 10> *
| 11>
| 12> %MaxCore 64000
| 13>
| 14> %pal nprocs 4
| 15> end
| 16>
| 17> %scf
| 18>   MaxIter 150
| 19> end
| 20>
| 21>
| 22>                          ****END OF INPUT****

CARTESIAN COORDINATES (ANGSTROEM)
---------------------------------
  C     -0.477490    0.608190   -4.101050
  C      0.184670   -0.506640   -4.916760
  O     -0.158690   -1.701090   -4.657980
  F      1.055940   -0.174410   -5.740370
  H     -0.099030    1.556720   -4.420380
  H     -0.259310    0.468280   -3.062920
  H     -1.536640    0.578260   -4.250100

 Total Charge           Charge          ....    0
 Multiplicity           Mult            ....    1
 Number of Electrons    NEL             ....   32
 Basis Dimension        Dim             ....  110

ORBITAL ENERGIES
----------------

  NO   OCC          E(Eh)            E(eV)
   0   2.0000     -24.352124      -662.6550
   1   2.0000     -18.772882      -510.8361
   2   2.0000     -10.074040      -274.1286
   3   2.0000      -9.923415      -270.0298
   4   2.0000      -1.216335       -33.0982
   5   2.0000      -0.932998       -25.3882
   6   2.0000      -0.698048       -18.9948
   7   2.0000      -0.601107       -16.3569
   8   2.0000      -0.498868       -13.5749
   9   2.0000      -0.490810       -13.3556
  10   2.0000      -0.447538       -12.1781
  11   2.0000      -0.400520       -10.8987
  12   2.0000      -0.387228       -10.5370
  13   2.0000      -0.351963        -9.5774
  14   2.0000      -0.313311        -8.5256
  15   2.0000      -0.247082        -6.7234
  16   0.0000      -0.074983        -2.0404
  17   0.0000      -0.005629        -0.1532
  18   0.0000       0.043102         1.1729
  19   0.0000       0.066602         1.8123
  20   0.0000       0.070914         1.9297

MULLIKEN ATOMIC CHARGES
-----------------------
   0 C :    0.428502
   1 C :    0.338349
   2 O :   -0.464040
   3 F :   -0.284787
   4 H :   -0.041938
   5 H :    0.013614
   6 H :    0.010301
Sum of atomic charges:    0.0000000

LOEWDIN ATOMIC CHARGES
----------------------
   0 C :    0.213428
   1 C :   -0.061904
   2 O :   -0.130478
   3 F :   -0.011436
   4 H :   -0.016060
   5 H :    0.003734
   6 H :    0.002717

  Mayer bond orders larger than 0.100000
B(  0-C ,  1-C ) :   1.2847 B(  0-C ,  4-H ) :   0.8777 B(  0-C ,  5-H ) :   0.8061
B(  0-C ,  6-H ) :   0.7987 B(  1-C ,  2-O ) :   1.7882 B(  1-C ,  3-F ) :   0.8535
B(  1-C ,  4-H ) :   0.1637 B(  1-C ,  5-H ) :   0.1433 B(  1-C ,  6-H ) :   0.1532

Dispersion correction           -0.003397675
FINAL SINGLE POINT ENERGY      -252.637879920596

DIPOLE MOMENT
-------------
                                X             Y             Z
Electronic contribution:      3.07520      -2.23433      -3.39535
Nuclear contribution   :     -3.12947       3.39716       3.55645
                        -----------------------------------------
Total Dipole Moment    :     -0.05427       1.16283       0.16110
                        -----------------------------------------
Magnitude (a.u.)       :      1.17519
Magnitude (Debye)      :      2.98710

Rotational constants in cm-1:     0.366922     0.321471     0.176896
Rotational constants in MHz : 11000.056350  9637.461211  5303.212706

                             ****ORCA TERMINATED NORMALLY****
TOTAL RUN TIME: 0 days 0 hours 0 minutes 3 seconds 585 msec
