                         Program Version 5.0.0 -  RELEASE  -
|  1> !PBE D3BJ RIJCOSX def2-SVPD def2/J TightSCF
|  2> *xyz 0 1
|  3> C          2.48645       -2.67712       -2.56345
|  4> C          3.03764       -2.36672       -3.92351
|  5> N          2.28036       -2.45441       -4.96769
|  6> C          4.32174       -2.01793       -4.01664
|  7> H          4.87994       -1.91167       -3.17382
|  8> H          4.71015       -1.67088       -4.88356
|  9> H          1.27042       -2.41265       -4.86614
| 10> H          2.58183       -2.05528       -5.84688
| 11> H          1.45238       -2.93848       -2.64882
| 12> H          2.58636       -1.81799       -1.93352
| 13> H          3.02742       -3.49632       -2.13781
| 14> *
| 15>
| 16> %MaxCore 64000
| 17>
| 18> %pal nprocs 4
| 19> end
| 20>
| 21> %scf
| 22>   MaxIter 150
| 23> end
| 24>
| 25>
| 26>                          ****END OF INPUT****

CARTESIAN COORDINATES (ANGSTROEM)
---------------------------------
  C      2.486450   -2.677120   -2.563450
  C      3.037640   -2.366720   -3.923510
  N      2.280360   -2.454410   -4.967690
  C      4.321740   -2.017930   -4.016640
  H      4.879940   -1.911670   -3.173820
  H      4.710150   -1.670880   -4.883560
  H      1.270420   -2.412650   -4.866140
  H      2.581830   -2.055280   -5.846880
  H      1.452380   -2.938480   -2.648820
  H      2.586360   -1.817990   -1.933520
  H      3.027420   -3.496320   -2.137810

 Total Charge           Charge          ....    0
 Multiplicity           Mult            ....    1
 Number of Electrons    NEL             ....   32
 Basis Dimension        Dim             ....  136

ORBITAL ENERGIES
----------------

  NO   OCC          E(Eh)            E(eV)
   0   2.0000     -14.006902      -381.1472
   1   2.0000      -9.914966      -269.8000
   2   2.0000      -9.886475      -269.0247
   3   2.0000      -9.827037      -267.4073
   4   2.0000      -0.853482       -23.2244
   5   2.0000      -0.680767       -18.5246
   6   2.0000      -0.613606       -16.6971
   7   2.0000      -0.523950       -14.2574
   8   2.0000      -0.473125       -12.8744
   9   2.0000      -0.422243       -11.4898
  10   2.0000      -0.384780       -10.4704
  11   2.0000      -0.351798        -9.5729
  12   2.0000      -0.343819        -9.3558
  13   2.0000      -0.309497        -8.4218
  14   2.0000      -0.299116        -8.1394
  15   2.0000      -0.157849        -4.2953
  16   0.0000      -0.002249        -0.0612
  17   0.0000       0.011956         0.3253
  18   0.0000       0.037132         1.0104
  19   0.0000       0.043467         1.1828
  20   0.0000       0.068214         1.8562

MULLIKEN ATOMIC CHARGES
-----------------------
   0 C :    0.837660
   1 C :   -0.461226
   2 N :    0.203133
   3 C :    0.395722
   4 H :   -0.188819
   5 H :   -0.423200
   6 H :   -0.103933
   7 H :   -0.129697
   8 H :   -0.127238
   9 H :   -0.001868
  10 H :   -0.000535
Sum of atomic charges:   -0.0000000

LOEWDIN ATOMIC CHARGES
----------------------
   0 C :    0.167162
   1 C :   -0.302939
   2 N :    0.173540
   3 C :    0.167507
   4 H :   -0.080404
   5 H :   -0.092960
   6 H :    0.000708
   7 H :    0.008288
   8 H :   -0.027889
   9 H :   -0.006909
  10 H :   -0.006103

  Mayer bond orders larger than 0.100000
B(  0-C ,  1-C ) :   1.1593 B(  0-C ,  2-N ) :   0.1129 B(  0-C ,  8-H ) :   0.6863
B(  0-C ,  9-H ) :   0.7538 B(  0-C , 10-H ) :   0.7065 B(  1-C ,  2-N ) :   1.0888
B(  1-C ,  3-C ) :   1.7176 B(  1-C ,  4-H ) :   0.1217 B(  1-C ,  5-H ) :   0.1575
B(  1-C ,  8-H ) :   0.3208 B(  1-C ,  9-H ) :   0.1799 B(  1-C , 10-H ) :   0.2102
B(  2-N ,  3-C ) :   0.2741 B(  2-N ,  6-H ) :   1.0469 B(  2-N ,  7-H ) :   1.1425
B(  3-C ,  4-H ) :   0.8117 B(  3-C ,  5-H ) :   0.8343 B(  6-H ,  7-H ) :  -0.1125

Dispersion correction           -0.007230883
FINAL SINGLE POINT ENERGY      -172.903108770250

DIPOLE MOMENT
-------------
                                X             Y             Z
Electronic contribution:     -0.37299      -0.13851      -1.75576
Nuclear contribution   :     -0.41717       0.30469       1.54910
                        -----------------------------------------
Total Dipole Moment    :     -0.79016       0.16618      -0.20666
                        -----------------------------------------
Magnitude (a.u.)       :      0.83347
Magnitude (Debye)      :      2.11851

Rotational constants in cm-1:     0.351587     0.304754     0.168726
Rotational constants in MHz : 10540.302868  9136.286689  5058.281984

                             ****ORCA TERMINATED NORMALLY****
TOTAL RUN TIME: 0 days 0 hours 0 minutes 5 seconds 66 msec
