                         Program Version 5.0.0 -  RELEASE  -
|  1> !PBE D3BJ RIJCOSX def2-SVPD def2/J TightSCF xyzfile
|  2>
|  3> *xyzfile 0 1 D2.xyz
|  4>
|  5> %MaxCore 64000
|  6>
|  7> %pal nprocs 4
|  8> end
|  9>
| 10> %scf
| 11>   MaxIter 150
| 12> end
| 13>
| 14>
| 15>                          ****END OF INPUT****

CARTESIAN COORDINATES (ANGSTROEM)
---------------------------------
  C      2.486452   -2.677121   -2.563447
  C     -0.870963    0.248043   -2.662804
  C     -0.477492    0.608191   -4.101052
  H      0.206773    1.458299   -4.118748
  H     -1.368442    0.929419   -4.647855
  C      0.184673   -0.506640   -4.916760
  C      3.037640   -2.366715   -3.923509
  N      2.280360   -2.454408   -4.967692
  C      4.321736   -2.017932   -4.016641
  H      4.879940   -1.911668   -3.173823
  H      4.710148   -1.670882   -4.883561
  H      1.270423   -2.412650   -4.866143
  H      2.581829   -2.055282   -5.846878
  F     -0.158685   -1.701088   -4.657981
  O      1.055938   -0.174410   -5.740373
  C      2.497991   -1.469464   -1.610303
  C      1.582841   -0.321986   -2.042619
  H      2.193083   -1.833912   -0.625420
  H      3.523356   -1.103982   -1.490392
  C      0.100160   -0.673551   -1.915815
  H      1.822311   -0.040361   -3.072834
  H      1.813180    0.557019   -1.433266
  H     -0.063284   -1.679120   -2.301112
  H     -0.168820   -0.691680   -0.853831
  H     -1.001048    1.181040   -2.104071
  H     -1.844645   -0.246592   -2.663281
  H      1.472592   -3.051527   -2.694366
  H      3.083201   -3.490638   -2.141472

 Total Charge           Charge          ....    0
 Multiplicity           Mult            ....    1
 Number of Electrons    NEL             ....   94
 Basis Dimension        Dim             ....  374

ORBITAL ENERGIES
----------------

  NO   OCC          E(Eh)            E(eV)
   0   2.0000     -24.370723      -663.1611
   1   2.0000     -18.790815      -511.3241
   2   2.0000     -13.980482      -380.4282
   3   2.0000     -10.083685      -274.3910
   4   2.0000      -9.935998      -270.3723
   5   2.0000      -9.917863      -269.8788
   6   2.0000      -9.904058      -269.5031
   7   2.0000      -9.901181      -269.4248
   8   2.0000      -9.897114      -269.3142
   9   2.0000      -9.893488      -269.2155
  10   2.0000      -9.890463      -269.1332
  11   2.0000      -9.815921      -267.1048
  12   2.0000      -1.228534       -33.4301
  13   2.0000      -0.963877       -26.2284
  14   2.0000      -0.836919       -22.7737
  15   2.0000      -0.755311       -20.5531
  16   2.0000      -0.717099       -19.5132
  17   2.0000      -0.678961       -18.4755
  18   2.0000      -0.636577       -17.3221
  19   2.0000      -0.622271       -16.9328
  20   2.0000      -0.599319       -16.3083
  21   2.0000      -0.561970       -15.2920
  22   2.0000      -0.531870       -14.4729
  23   2.0000      -0.524863       -14.2823
  24   2.0000      -0.507297       -13.8042
  25   2.0000      -0.483104       -13.1459
  26   2.0000      -0.457619       -12.4525
  27   2.0000      -0.446934       -12.1617
  28   2.0000      -0.432880       -11.7793
  29   2.0000      -0.426021       -11.5926
  30   2.0000      -0.421577       -11.4717
  31   2.0000      -0.397720       -10.8225
  32   2.0000      -0.382442       -10.4068
  33   2.0000      -0.373097       -10.1525
  34   2.0000      -0.366362        -9.9692
  35   2.0000      -0.349927        -9.5220
  36   2.0000      -0.344994        -9.3878
  37   2.0000      -0.332146        -9.0382
  38   2.0000      -0.323914        -8.8141
  39   2.0000      -0.317181        -8.6309
  40   2.0000      -0.305112        -8.3025
  41   2.0000      -0.297844        -8.1047
  42   2.0000      -0.284841        -7.7509
  43   2.0000      -0.282328        -7.6825
  44   2.0000      -0.275210        -7.4888
  45   2.0000      -0.259196        -7.0531
  46   2.0000      -0.143979        -3.9179
  47   0.0000      -0.087277        -2.3749
  48   0.0000      -0.014434        -0.3928
  49   0.0000       0.007436         0.2023
  50   0.0000       0.013575         0.3694
  51   0.0000       0.017387         0.4731

MULLIKEN ATOMIC CHARGES
-----------------------
   0 C :    0.572268
   1 C :    0.534284
   2 C :    0.194360
   3 H :    0.255039
   4 H :   -0.288973
   5 C :    0.468239
   6 C :   -0.141896
   7 N :    0.362922
   8 C :    0.377809
   9 H :   -0.110817
  10 H :   -0.398605
  11 H :   -0.354453
  12 H :   -0.027953
  13 F :   -0.511304
  14 O :   -0.417582
  15 C :    0.238516
  16 C :    0.120588
  17 H :   -0.079607
  18 H :   -0.045465
  19 C :    0.011531
  20 H :   -0.085296
  21 H :   -0.221766
  22 H :    0.028236
  23 H :   -0.205909
  24 H :   -0.122314
  25 H :    0.032963
  26 H :   -0.104940
  27 H :   -0.079874
Sum of atomic charges:    0.0000000

LOEWDIN ATOMIC CHARGES
----------------------
   0 C :    0.020850
   1 C :   -0.019729
   2 C :    0.057437
   3 H :    0.040260
   4 H :    0.041034
   5 C :   -0.026455
   6 C :   -0.252274
   7 N :    0.207310
   8 C :    0.179286
   9 H :   -0.088220
  10 H :   -0.089661
  11 H :   -0.084388
  12 H :    0.009607
  13 F :   -0.022513
  14 O :   -0.095446
  15 C :   -0.016038
  16 C :   -0.014516
  17 H :    0.022319
  18 H :    0.018863
  19 C :   -0.031031
  20 H :    0.009352
  21 H :    0.028680
  22 H :   -0.007442
  23 H :    0.030169
  24 H :    0.027310
  25 H :    0.023954
  26 H :    0.000041
  27 H :    0.031241

  Mayer bond orders larger than 0.100000
B(  0-C ,  6-C ) :   0.9851 B(  0-C ,  7-N ) :   0.1483 B(  0-C , 10-H ) :   0.1181
B(  0-C , 15-C ) :   1.1902 B(  0-C , 16-C ) :   0.1123 B(  0-C , 17-H ) :   0.1522
B(  0-C , 18-H ) :   0.1836 B(  0-C , 26-H ) :   0.5724 B(  0-C , 27-H ) :   0.7194
B(  1-C ,  2-C ) :   1.1928 B(  1-C ,  4-H ) :   0.1420 B(  1-C , 19-C ) :   1.3113
B(  1-C , 23-H ) :   0.1070 B(  1-C , 24-H ) :   0.7365 B(  1-C , 25-H ) :   0.6433
B(  2-C ,  3-H ) :   0.7296 B(  2-C ,  4-H ) :   0.7306 B(  2-C ,  5-C ) :   1.2267
B(  2-C , 19-C ) :   0.1337 B(  2-C , 24-H ) :   0.1439 B(  3-H ,  5-C ) :   0.2139
B(  4-H ,  5-C ) :   0.2989 B(  5-C , 13-F ) :   0.5984 B(  5-C , 14-O ) :   1.7713
B(  6-C ,  7-N ) :   1.0574 B(  6-C ,  8-C ) :   1.6684 B(  6-C ,  9-H ) :   0.1479
B(  6-C , 10-H ) :   0.2098 B(  6-C , 12-H ) :  -0.1003 B(  6-C , 26-H ) :   0.2276
B(  6-C , 27-H ) :   0.1605 B(  7-N ,  8-C ) :   0.3423 B(  7-N , 11-H ) :   0.8689
B(  7-N , 12-H ) :   0.9729 B(  8-C ,  9-H ) :   0.8109 B(  8-C , 10-H ) :   0.6476
B( 11-H , 12-H ) :  -0.1340 B( 11-H , 13-F ) :   0.1732 B( 11-H , 26-H ) :   0.1009
B( 13-F , 14-O ) :   0.1047 B( 15-C , 16-C ) :   1.2478 B( 15-C , 17-H ) :   0.8302
B( 15-C , 18-H ) :   0.6919 B( 15-C , 20-H ) :   0.1856 B( 15-C , 21-H ) :   0.1034
B( 15-C , 26-H ) :   0.2144 B( 15-C , 27-H ) :   0.1494 B( 16-C , 17-H ) :   0.1507
B( 16-C , 18-H ) :   0.2343 B( 16-C , 19-C ) :   1.2048 B( 16-C , 20-H ) :   0.8179
B( 16-C , 21-H ) :   0.8642 B( 16-C , 22-H ) :   0.1047 B( 16-C , 23-H ) :   0.2321
B( 17-H , 18-H ) :  -0.1301 B( 19-C , 20-H ) :   0.1422 B( 19-C , 21-H ) :   0.1186
B( 19-C , 22-H ) :   0.8405 B( 19-C , 23-H ) :   0.7990 B( 19-C , 24-H ) :   0.2080
B( 19-C , 25-H ) :   0.2254 B( 22-H , 26-H ) :   0.1287 B( 24-H , 25-H ) :  -0.1104

Dispersion correction           -0.031161099
FINAL SINGLE POINT ENERGY      -581.284440974201

DIPOLE MOMENT
-------------
                                X             Y             Z
Electronic contribution:     -5.30663      -1.81314     -10.92514
Nuclear contribution   :      3.65024       2.44123      11.52670
                        -----------------------------------------
Total Dipole Moment    :     -1.65639       0.62809       0.60156
                        -----------------------------------------
Magnitude (a.u.)       :      1.87083
Magnitude (Debye)      :      4.75527

Rotational constants in cm-1:     0.040600     0.026409     0.019262
Rotational constants in MHz :  1217.142957   791.712481   577.449390

                             ****ORCA TERMINATED NORMALLY****
TOTAL RUN TIME: 0 days 0 hours 0 minutes 33 seconds 471 msec
