                         Program Version 5.0.0 -  RELEASE  -
|  1> !PBE D3BJ RIJCOSX def2-SVPD def2/J TightSCF xyzfile
|  2>
|  3> *xyzfile 0 1 D3.xyz
|  4>
|  5> %MaxCore 64000
|  6>
|  7> %pal nprocs 4
|  8> end
|  9>
| 10> %scf
| 11>   MaxIter 150
| 12> end
| 13>
| 14>
| 15>                          ****END OF INPUT****

CARTESIAN COORDINATES (ANGSTROEM)
---------------------------------
  C      2.486452   -2.677121   -2.563447
  C     -0.870963    0.248043   -2.662804
  C     -0.477492    0.608191   -4.101052
  H      0.206773    1.458299   -4.118748
  H     -1.368442    0.929419   -4.647855
  C      0.184673   -0.506640   -4.916760
  C      3.037640   -2.366715   -3.923509
  C      2.280360   -2.454408   -4.967692
  N      4.321736   -2.017932   -4.016641
  H      4.879940   -1.911668   -3.173823
  H      4.710148   -1.670882   -4.883561
  H      1.270423   -2.412650   -4.866143
  H      2.581829   -2.055282   -5.846878
  O     -0.158685   -1.701088   -4.657981
  F      1.055938   -0.174410   -5.740373
  C      2.497991   -1.469464   -1.610303
  C      1.582841   -0.321986   -2.042619
  H      2.193083   -1.833912   -0.625420
  H      3.523356   -1.103982   -1.490392
  C      0.100160   -0.673551   -1.915815
  H      1.822311   -0.040361   -3.072834
  H      1.813180    0.557019   -1.433266
  H     -0.063284   -1.679120   -2.301112
  H     -0.168820   -0.691680   -0.853831
  H     -1.001048    1.181040   -2.104071
  H     -1.844645   -0.246592   -2.663281
  H      1.472592   -3.051527   -2.694366
  H      3.083201   -3.490638   -2.141472

 Total Charge           Charge          ....    0
 Multiplicity           Mult            ....    1
 Number of Electrons    NEL             ....   94
 Basis Dimension        Dim             ....  374

ORBITAL ENERGIES
----------------

  NO   OCC          E(Eh)            E(eV)
   0   2.0000     -24.348642      -662.5602
   1   2.0000     -18.770064      -510.7594
   2   2.0000     -13.991495      -380.7279
   3   2.0000     -10.068707      -273.9834
   4   2.0000      -9.926485      -270.1134
   5   2.0000      -9.907484      -269.5963
   6   2.0000      -9.896796      -269.3055
   7   2.0000      -9.893453      -269.2145
   8   2.0000      -9.893219      -269.2082
   9   2.0000      -9.890623      -269.1375
  10   2.0000      -9.884785      -268.9787
  11   2.0000      -9.800283      -266.6792
  12   2.0000      -1.212189       -32.9853
  13   2.0000      -0.938687       -25.5430
  14   2.0000      -0.826730       -22.4965
  15   2.0000      -0.742300       -20.1990
  16   2.0000      -0.712100       -19.3772
  17   2.0000      -0.667019       -18.1505
  18   2.0000      -0.645026       -17.5520
  19   2.0000      -0.609449       -16.5839
  20   2.0000      -0.587264       -15.9803
  21   2.0000      -0.549256       -14.9460
  22   2.0000      -0.516010       -14.0414
  23   2.0000      -0.505775       -13.7628
  24   2.0000      -0.492520       -13.4021
  25   2.0000      -0.469638       -12.7795
  26   2.0000      -0.464316       -12.6347
  27   2.0000      -0.453941       -12.3524
  28   2.0000      -0.427721       -11.6389
  29   2.0000      -0.420492       -11.4422
  30   2.0000      -0.404787       -11.0148
  31   2.0000      -0.393504       -10.7078
  32   2.0000      -0.385732       -10.4963
  33   2.0000      -0.358033        -9.7426
  34   2.0000      -0.352439        -9.5903
  35   2.0000      -0.346612        -9.4318
  36   2.0000      -0.335485        -9.1290
  37   2.0000      -0.323345        -8.7987
  38   2.0000      -0.315390        -8.5822
  39   2.0000      -0.312525        -8.5042
  40   2.0000      -0.294232        -8.0065
  41   2.0000      -0.289285        -7.8718
  42   2.0000      -0.277528        -7.5519
  43   2.0000      -0.271333        -7.3834
  44   2.0000      -0.270523        -7.3613
  45   2.0000      -0.223195        -6.0734
  46   2.0000      -0.152043        -4.1373
  47   0.0000      -0.073317        -1.9951
  48   0.0000      -0.005356        -0.1457
  49   0.0000       0.004232         0.1152
  50   0.0000       0.012453         0.3389
  51   0.0000       0.022077         0.6007

MULLIKEN ATOMIC CHARGES
-----------------------
   0 C :    0.240003
   1 C :    0.537960
   2 C :    0.214414
   3 H :    0.224659
   4 H :   -0.294641
   5 C :    0.453308
   6 C :   -0.220703
   7 C :    0.978080
   8 N :    0.219776
   9 H :   -0.114118
  10 H :   -0.207943
  11 H :   -0.308497
  12 H :   -0.408696
  13 O :   -0.690047
  14 F :   -0.366584
  15 C :    0.308189
  16 C :    0.118862
  17 H :   -0.095071
  18 H :   -0.081763
  19 C :   -0.028902
  20 H :   -0.045823
  21 H :   -0.192090
  22 H :    0.035096
  23 H :   -0.209732
  24 H :   -0.117575
  25 H :    0.069501
  26 H :    0.166557
  27 H :   -0.184218
Sum of atomic charges:    0.0000000

LOEWDIN ATOMIC CHARGES
----------------------
   0 C :    0.024544
   1 C :   -0.009603
   2 C :    0.047385
   3 H :    0.026544
   4 H :    0.039256
   5 C :   -0.007553
   6 C :   -0.249504
   7 C :    0.176611
   8 N :    0.188219
   9 H :   -0.012353
  10 H :   -0.001114
  11 H :   -0.167132
  12 H :   -0.072090
  13 O :   -0.111601
  14 F :    0.006759
  15 C :   -0.021557
  16 C :   -0.017483
  17 H :    0.022667
  18 H :    0.009753
  19 C :   -0.025146
  20 H :    0.007420
  21 H :    0.025324
  22 H :   -0.004111
  23 H :    0.028843
  24 H :    0.025799
  25 H :    0.028638
  26 H :    0.016297
  27 H :    0.025186

  Mayer bond orders larger than 0.100000
B(  0-C ,  6-C ) :   1.2157 B(  0-C ,  7-C ) :   0.1598 B(  0-C ,  8-N ) :   0.1502
B(  0-C , 15-C ) :   1.1353 B(  0-C , 16-C ) :   0.1170 B(  0-C , 17-H ) :   0.2053
B(  0-C , 18-H ) :   0.2354 B(  0-C , 26-H ) :   0.7219 B(  0-C , 27-H ) :   0.8051
B(  1-C ,  2-C ) :   1.2172 B(  1-C ,  3-H ) :   0.1027 B(  1-C ,  4-H ) :   0.1510
B(  1-C , 19-C ) :   1.3247 B(  1-C , 24-H ) :   0.7250 B(  1-C , 25-H ) :   0.6249
B(  2-C ,  3-H ) :   0.7605 B(  2-C ,  4-H ) :   0.6871 B(  2-C ,  5-C ) :   1.2371
B(  2-C , 19-C ) :   0.1473 B(  2-C , 24-H ) :   0.1536 B(  3-H ,  4-H ) :  -0.1001
B(  3-H ,  5-C ) :   0.1546 B(  4-H ,  5-C ) :   0.3157 B(  5-C , 13-O ) :   1.6645
B(  5-C , 14-F ) :   0.6762 B(  6-C ,  7-C ) :   1.9230 B(  6-C ,  8-N ) :   1.1014
B(  6-C , 11-H ) :   0.1779 B(  6-C , 12-H ) :   0.5020 B(  6-C , 15-C ) :   0.1789
B(  6-C , 26-H ) :   0.1452 B(  6-C , 27-H ) :   0.2406 B(  7-C ,  8-N ) :   0.4600
B(  7-C , 11-H ) :   0.4556 B(  7-C , 12-H ) :   0.1209 B(  7-C , 26-H ) :  -0.1436
B(  8-N ,  9-H ) :   1.1508 B(  8-N , 10-H ) :   1.1974 B(  9-H , 10-H ) :  -0.1660
B( 11-H , 12-H ) :   0.2781 B( 11-H , 13-O ) :   0.1790 B( 13-O , 14-F ) :   0.1086
B( 15-C , 16-C ) :   1.2248 B( 15-C , 17-H ) :   0.8244 B( 15-C , 18-H ) :   0.6562
B( 15-C , 20-H ) :   0.1779 B( 15-C , 21-H ) :   0.1163 B( 15-C , 26-H ) :   0.1686
B( 15-C , 27-H ) :   0.1011 B( 16-C , 18-H ) :   0.2339 B( 16-C , 19-C ) :   1.2174
B( 16-C , 20-H ) :   0.8294 B( 16-C , 21-H ) :   0.8309 B( 16-C , 22-H ) :   0.1192
B( 16-C , 23-H ) :   0.2371 B( 16-C , 26-H ) :  -0.1039 B( 19-C , 20-H ) :   0.1276
B( 19-C , 21-H ) :   0.1201 B( 19-C , 22-H ) :   0.8374 B( 19-C , 23-H ) :   0.7911
B( 19-C , 24-H ) :   0.2172 B( 19-C , 25-H ) :   0.2321 B( 22-H , 26-H ) :   0.1304
B( 24-H , 25-H ) :  -0.1132

Dispersion correction           -0.031405535
FINAL SINGLE POINT ENERGY      -581.268205929253

DIPOLE MOMENT
-------------
                                X             Y             Z
Electronic contribution:     -1.71620       0.85852     -12.11781
Nuclear contribution   :      1.88979       0.56282      12.66056
                        -----------------------------------------
Total Dipole Moment    :      0.17359       1.42134       0.54275
                        -----------------------------------------
Magnitude (a.u.)       :      1.53131
Magnitude (Debye)      :      3.89228

Rotational constants in cm-1:     0.040271     0.025954     0.018866
Rotational constants in MHz :  1207.302496   778.083475   565.600538

                             ****ORCA TERMINATED NORMALLY****
TOTAL RUN TIME: 0 days 0 hours 0 minutes 33 seconds 200 msec
