                         Program Version 5.0.0 -  RELEASE  -
|  1> !PBE D3BJ RIJCOSX def2-SVPD def2/J TightSCF xyzfile
|  2>
|  3> *xyzfile 0 1 D4.xyz
|  4>
|  5> %MaxCore 64000
|  6>
|  7> %pal nprocs 4
|  8> end
|  9>
| 10> %scf
| 11>   MaxIter 150
| 12> end
| 13>
| 14>
| 15>                          ****END OF INPUT****

CARTESIAN COORDINATES (ANGSTROEM)
---------------------------------
  C      2.486452   -2.677121   -2.563447
  C     -0.870963    0.248043   -2.662804
  C     -0.477492    0.608191   -4.101052
  H      0.206773    1.458299   -4.118748
  H     -1.368442    0.929419   -4.647855
  C      0.184673   -0.506640   -4.916760
  C      3.037640   -2.366715   -3.923509
  N      2.280360   -2.454408   -4.967692
  C      4.321736   -2.017932   -4.016641
  H      4.879940   -1.911668   -3.173823
  H      4.710148   -1.670882   -4.883561
  H      1.270423   -2.412650   -4.866143
  H      2.581829   -2.055282   -5.846878
  O     -0.158685   -1.701088   -4.657981
  F      1.055938   -0.174410   -5.740373
  C      2.497991   -1.469464   -1.610303
  C      1.582841   -0.321986   -2.042619
  H      2.193083   -1.833912   -0.625420
  H      3.523356   -1.103982   -1.490392
  C      0.100160   -0.673551   -1.915815
  H      1.822311   -0.040361   -3.072834
  H      1.813180    0.557019   -1.433266
  H     -0.063284   -1.679120   -2.301112
  H     -0.168820   -0.691680   -0.853831
  H     -1.001048    1.181040   -2.104071
  H     -1.844645   -0.246592   -2.663281
  H      1.472592   -3.051527   -2.694366
  H      3.083201   -3.490638   -2.141472

 Total Charge           Charge          ....    0
 Multiplicity           Mult            ....    1
 Number of Electrons    NEL             ....   94
 Basis Dimension        Dim             ....  374

ORBITAL ENERGIES
----------------

  NO   OCC          E(Eh)            E(eV)
   0   2.0000     -24.370622      -663.1583
   1   2.0000     -18.796514      -511.4791
   2   2.0000     -13.971716      -380.1897
   3   2.0000     -10.091675      -274.6084
   4   2.0000      -9.939632      -270.4711
   5   2.0000      -9.915944      -269.8266
   6   2.0000      -9.898360      -269.3481
   7   2.0000      -9.896186      -269.2889
   8   2.0000      -9.895711      -269.2760
   9   2.0000      -9.890344      -269.1299
  10   2.0000      -9.884839      -268.9801
  11   2.0000      -9.813871      -267.0490
  12   2.0000      -1.234074       -33.5809
  13   2.0000      -0.964406       -26.2428
  14   2.0000      -0.831183       -22.6176
  15   2.0000      -0.751346       -20.4452
  16   2.0000      -0.714899       -19.4534
  17   2.0000      -0.676857       -18.4182
  18   2.0000      -0.638698       -17.3799
  19   2.0000      -0.615299       -16.7431
  20   2.0000      -0.596815       -16.2402
  21   2.0000      -0.557882       -15.1807
  22   2.0000      -0.524500       -14.2724
  23   2.0000      -0.519447       -14.1349
  24   2.0000      -0.499373       -13.5886
  25   2.0000      -0.487170       -13.2566
  26   2.0000      -0.472762       -12.8645
  27   2.0000      -0.446710       -12.1556
  28   2.0000      -0.432508       -11.7691
  29   2.0000      -0.428441       -11.6585
  30   2.0000      -0.420233       -11.4351
  31   2.0000      -0.396881       -10.7997
  32   2.0000      -0.380212       -10.3461
  33   2.0000      -0.365802        -9.9540
  34   2.0000      -0.362580        -9.8663
  35   2.0000      -0.349707        -9.5160
  36   2.0000      -0.338326        -9.2063
  37   2.0000      -0.330571        -8.9953
  38   2.0000      -0.319542        -8.6952
  39   2.0000      -0.318049        -8.6545
  40   2.0000      -0.300622        -8.1803
  41   2.0000      -0.294642        -8.0176
  42   2.0000      -0.283449        -7.7131
  43   2.0000      -0.278226        -7.5709
  44   2.0000      -0.275082        -7.4854
  45   2.0000      -0.257246        -7.0000
  46   2.0000      -0.141689        -3.8556
  47   0.0000      -0.094666        -2.5760
  48   0.0000      -0.012026        -0.3272
  49   0.0000       0.007363         0.2003
  50   0.0000       0.013302         0.3620
  51   0.0000       0.017869         0.4862

MULLIKEN ATOMIC CHARGES
-----------------------
   0 C :    0.565483
   1 C :    0.531693
   2 C :    0.165666
   3 H :    0.261183
   4 H :   -0.277492
   5 C :    0.576396
   6 C :   -0.168922
   7 N :    0.330343
   8 C :    0.382271
   9 H :   -0.115081
  10 H :   -0.399139
  11 H :   -0.326380
  12 H :   -0.045110
  13 O :   -0.655813
  14 F :   -0.335382
  15 C :    0.221924
  16 C :    0.068582
  17 H :   -0.076473
  18 H :   -0.050112
  19 C :   -0.000651
  20 H :   -0.047785
  21 H :   -0.231233
  22 H :    0.058902
  23 H :   -0.225201
  24 H :   -0.114092
  25 H :    0.065783
  26 H :   -0.087085
  27 H :   -0.072276
Sum of atomic charges:    0.0000000

LOEWDIN ATOMIC CHARGES
----------------------
   0 C :    0.024676
   1 C :   -0.008223
   2 C :    0.050650
   3 H :    0.030876
   4 H :    0.042088
   5 C :   -0.004190
   6 C :   -0.254066
   7 N :    0.203916
   8 C :    0.173386
   9 H :   -0.090058
  10 H :   -0.094255
  11 H :   -0.119581
  12 H :    0.008551
  13 O :   -0.103048
  14 F :    0.009030
  15 C :   -0.015696
  16 C :   -0.017330
  17 H :    0.023115
  18 H :    0.017356
  19 C :   -0.026694
  20 H :    0.005891
  21 H :    0.026952
  22 H :   -0.006651
  23 H :    0.030239
  24 H :    0.028061
  25 H :    0.029163
  26 H :    0.004912
  27 H :    0.030931

  Mayer bond orders larger than 0.100000
B(  0-C ,  6-C ) :   0.9961 B(  0-C ,  7-N ) :   0.1456 B(  0-C , 10-H ) :   0.1187
B(  0-C , 15-C ) :   1.1933 B(  0-C , 16-C ) :   0.1256 B(  0-C , 17-H ) :   0.1491
B(  0-C , 18-H ) :   0.1818 B(  0-C , 26-H ) :   0.5865 B(  0-C , 27-H ) :   0.7101
B(  1-C ,  2-C ) :   1.2267 B(  1-C ,  4-H ) :   0.1619 B(  1-C , 19-C ) :   1.3143
B(  1-C , 24-H ) :   0.7240 B(  1-C , 25-H ) :   0.6315 B(  2-C ,  3-H ) :   0.7380
B(  2-C ,  4-H ) :   0.7122 B(  2-C ,  5-C ) :   1.2595 B(  2-C , 19-C ) :   0.1448
B(  2-C , 24-H ) :   0.1586 B(  3-H ,  4-H ) :  -0.1033 B(  3-H ,  5-C ) :   0.1610
B(  4-H ,  5-C ) :   0.2968 B(  5-C , 13-O ) :   1.5818 B(  5-C , 14-F ) :   0.6839
B(  6-C ,  7-N ) :   1.0819 B(  6-C ,  8-C ) :   1.6631 B(  6-C ,  9-H ) :   0.1609
B(  6-C , 10-H ) :   0.2087 B(  6-C , 26-H ) :   0.2269 B(  6-C , 27-H ) :   0.1574
B(  7-N ,  8-C ) :   0.3329 B(  7-N , 11-H ) :   0.8493 B(  7-N , 12-H ) :   0.9867
B(  8-C ,  9-H ) :   0.7999 B(  8-C , 10-H ) :   0.6554 B( 11-H , 12-H ) :  -0.1432
B( 11-H , 13-O ) :   0.1907 B( 15-C , 16-C ) :   1.2526 B( 15-C , 17-H ) :   0.8256
B( 15-C , 18-H ) :   0.6952 B( 15-C , 20-H ) :   0.1835 B( 15-C , 21-H ) :   0.1105
B( 15-C , 26-H ) :   0.2134 B( 15-C , 27-H ) :   0.1528 B( 16-C , 17-H ) :   0.1523
B( 16-C , 18-H ) :   0.2374 B( 16-C , 19-C ) :   1.2094 B( 16-C , 20-H ) :   0.8158
B( 16-C , 21-H ) :   0.8824 B( 16-C , 22-H ) :   0.1071 B( 16-C , 23-H ) :   0.2358
B( 17-H , 18-H ) :  -0.1311 B( 19-C , 20-H ) :   0.1275 B( 19-C , 21-H ) :   0.1173
B( 19-C , 22-H ) :   0.8475 B( 19-C , 23-H ) :   0.7996 B( 19-C , 24-H ) :   0.2137
B( 19-C , 25-H ) :   0.2301 B( 22-H , 26-H ) :   0.1233 B( 24-H , 25-H ) :  -0.1116

Dispersion correction           -0.031301268
FINAL SINGLE POINT ENERGY      -581.287106265099

DIPOLE MOMENT
-------------
                                X             Y             Z
Electronic contribution:     -3.41415       0.74468     -12.76128
Nuclear contribution   :      2.21030       0.63135      12.80988
                        -----------------------------------------
Total Dipole Moment    :     -1.20385       1.37603       0.04860
                        -----------------------------------------
Magnitude (a.u.)       :      1.82896
Magnitude (Debye)      :      4.64884

Rotational constants in cm-1:     0.039980     0.026547     0.019089
Rotational constants in MHz :  1198.568620   795.867393   572.288555

                             ****ORCA TERMINATED NORMALLY****
TOTAL RUN TIME: 0 days 0 hours 0 minutes 36 seconds 661 msec
