                         Program Version 5.0.0 -  RELEASE  -
|  1> !wB97X-D3 RIJCOSX def2-TZVPD def2/J TightSCF
|  2> *xyz -1 1
|  3> C          4.90646       -3.10282       -5.95484
|  4> C          3.51177       -2.80621       -6.49228
|  5> H          2.73604       -3.37345       -5.97374
|  6> H          3.44490       -3.04083       -7.55528
|  7> S          3.00462       -1.09621       -6.38926
|  8> O          4.12886       -0.32965       -6.95372
|  9> O          1.78128       -1.00078       -7.13640
| 10> O          2.85155       -0.78368       -4.95679
| 11> H          5.62703       -2.52424       -6.49422
| 12> H          5.12164       -4.14387       -6.07654
| 13> H          4.95004       -2.84862       -4.91639
| 14> *
| 15>
| 16> %MaxCore 64000
| 17>
| 18> %pal nprocs 4
| 19> end
| 20>
| 21> %scf
| 22>   MaxIter 150
| 23> end
| 24>
| 25>
| 26>                          ****END OF INPUT****

CARTESIAN COORDINATES (ANGSTROEM)
---------------------------------
  C      4.906460   -3.102820   -5.954840
  C      3.511770   -2.806210   -6.492280
  H      2.736040   -3.373450   -5.973740
  H      3.444900   -3.040830   -7.555280
  S      3.004620   -1.096210   -6.389260
  O      4.128860   -0.329650   -6.953720
  O      1.781280   -1.000780   -7.136400
  O      2.851550   -0.783680   -4.956790
  H      5.627030   -2.524240   -6.494220
  H      5.121640   -4.143870   -6.076540
  H      4.950040   -2.848620   -4.916390

 Total Charge           Charge          ....   -1
 Multiplicity           Mult            ....    1
 Number of Electrons    NEL             ....   58
 Basis Dimension        Dim             ....  285

ORBITAL ENERGIES
----------------

  NO   OCC          E(Eh)            E(eV)
   0   2.0000     -88.933812     -2420.0120
   1   2.0000     -19.012856      -517.3661
   2   2.0000     -19.001134      -517.0471
   3   2.0000     -19.000825      -517.0387
   4   2.0000     -10.139100      -275.8989
   5   2.0000     -10.129747      -275.6444
   6   2.0000      -7.996843      -217.6052
   7   2.0000      -5.950985      -161.9345
   8   2.0000      -5.949910      -161.9053
   9   2.0000      -5.949590      -161.8966
  10   2.0000      -1.037816       -28.2404
  11   2.0000      -0.903950       -24.5977
  12   2.0000      -0.883771       -24.0486
  13   2.0000      -0.751738       -20.4558
  14   2.0000      -0.622532       -16.9400
  15   2.0000      -0.487935       -13.2774
  16   2.0000      -0.422327       -11.4921
  17   2.0000      -0.416488       -11.3332
  18   2.0000      -0.376326       -10.2403
  19   2.0000      -0.361740        -9.8434
  20   2.0000      -0.352641        -9.5958
  21   2.0000      -0.326531        -8.8854
  22   2.0000      -0.309713        -8.4277
  23   2.0000      -0.247583        -6.7371
  24   2.0000      -0.247184        -6.7262
  25   2.0000      -0.209317        -5.6958
  26   2.0000      -0.199393        -5.4258
  27   2.0000      -0.196296        -5.3415
  28   2.0000      -0.156747        -4.2653
  29   0.0000       0.174993         4.7618
  30   0.0000       0.185986         5.0609
  31   0.0000       0.186516         5.0754
  32   0.0000       0.193700         5.2709
  33   0.0000       0.221485         6.0269

MULLIKEN ATOMIC CHARGES
-----------------------
   0 C :   -1.197530
   1 C :   -0.330994
   2 H :    0.284754
   3 H :    0.277721
   4 S :    1.191750
   5 O :   -0.732670
   6 O :   -0.689850
   7 O :   -0.731600
   8 H :    0.306081
   9 H :    0.316487
  10 H :    0.305852
Sum of atomic charges:   -1.0000000

LOEWDIN ATOMIC CHARGES
----------------------
   0 C :   -0.145750
   1 C :   -0.335444
   2 H :    0.086132
   3 H :    0.083645
   4 S :    0.351392
   5 O :   -0.410924
   6 O :   -0.387371
   7 O :   -0.413858
   8 H :    0.058921
   9 H :    0.050196
  10 H :    0.063060

  Mayer bond orders larger than 0.100000
B(  0-C ,  1-C ) :   0.7338 B(  0-C ,  4-S ) :   0.1040 B(  0-C ,  8-H ) :   0.9801
B(  0-C ,  9-H ) :   0.9201 B(  0-C , 10-H ) :   0.9651 B(  1-C ,  2-H ) :   0.9405
B(  1-C ,  3-H ) :   0.9496 B(  1-C ,  4-S ) :   0.8331 B(  1-C ,  5-O ) :   0.1006
B(  1-C ,  6-O ) :   0.1451 B(  1-C ,  7-O ) :   0.1238 B(  4-S ,  5-O ) :   1.4937
B(  4-S ,  6-O ) :   1.5185 B(  4-S ,  7-O ) :   1.4936

Dispersion correction           -0.002914523
FINAL SINGLE POINT ENERGY      -703.224291638662

DIPOLE MOMENT
-------------
                                X             Y             Z
Electronic contribution:     -4.34911       6.36236      -0.66278
Nuclear contribution   :      5.05690      -8.21735       0.57889
                        -----------------------------------------
Total Dipole Moment    :      0.70780      -1.85500      -0.08389
                        -----------------------------------------
Magnitude (a.u.)       :      1.98722
Magnitude (Debye)      :      5.05111

Rotational constants in cm-1:     0.162547     0.083494     0.081672
Rotational constants in MHz :  4873.033504  2503.090885  2448.458543

                             ****ORCA TERMINATED NORMALLY****
TOTAL RUN TIME: 0 days 0 hours 1 minutes 7 seconds 198 msec
