                         Program Version 5.0.0 -  RELEASE  -
|  1> !wB97X-D3 RIJCOSX def2-TZVPD def2/J TightSCF
|  2> *xyz 1 1
|  3> C          4.49059        1.15590       -2.46929
|  4> N          4.30539        1.22276       -3.90832
|  5> C          4.63192        2.24637       -4.67096
|  6> N          4.54169        2.14399       -5.98714
|  7> N          5.08409        3.39358       -4.11855
|  8> H          4.92067        3.57050       -3.13587
|  9> H          5.25465        4.19739       -4.70696
| 10> H          3.82453        0.44911       -4.35093
| 11> H          4.34337        1.24932       -6.41665
| 12> H          4.67671        2.95662       -6.57411
| 13> C          5.94213        0.93950       -2.03689
| 14> H          3.86431        0.32853       -2.13661
| 15> H          4.07623        2.04999       -1.98901
| 16> H          6.32982        0.06401       -2.51451
| 17> H          5.98308        0.81426       -0.97504
| 18> H          6.52865        1.78889       -2.31873
| 19> *
| 20>
| 21> %MaxCore 64000
| 22>
| 23> %pal nprocs 4
| 24> end
| 25>
| 26> %scf
| 27>   MaxIter 150
| 28> end
| 29>
| 30>
| 31>                          ****END OF INPUT****

CARTESIAN COORDINATES (ANGSTROEM)
---------------------------------
  C      4.490590    1.155900   -2.469290
  N      4.305390    1.222760   -3.908320
  C      4.631920    2.246370   -4.670960
  N      4.541690    2.143990   -5.987140
  N      5.084090    3.393580   -4.118550
  H      4.920670    3.570500   -3.135870
  H      5.254650    4.197390   -4.706960
  H      3.824530    0.449110   -4.350930
  H      4.343370    1.249320   -6.416650
  H      4.676710    2.956620   -6.574110
  C      5.942130    0.939500   -2.036890
  H      3.864310    0.328530   -2.136610
  H      4.076230    2.049990   -1.989010
  H      6.329820    0.064010   -2.514510
  H      5.983080    0.814260   -0.975040
  H      6.528650    1.788890   -2.318730

 Total Charge           Charge          ....    1
 Multiplicity           Mult            ....    1
 Number of Electrons    NEL             ....   48
 Basis Dimension        Dim             ....  312

ORBITAL ENERGIES
----------------

  NO   OCC          E(Eh)            E(eV)
   0   2.0000     -14.646084      -398.5402
   1   2.0000     -14.644632      -398.5007
   2   2.0000     -14.642280      -398.4367
   3   2.0000     -10.613341      -288.8037
   4   2.0000     -10.482106      -285.2326
   5   2.0000     -10.406681      -283.1802
   6   2.0000      -1.334347       -36.3094
   7   2.0000      -1.222178       -33.2572
   8   2.0000      -1.206047       -32.8182
   9   2.0000      -1.045041       -28.4370
  10   2.0000      -0.954564       -25.9750
  11   2.0000      -0.908574       -24.7236
  12   2.0000      -0.889851       -24.2141
  13   2.0000      -0.846451       -23.0331
  14   2.0000      -0.791393       -21.5349
  15   2.0000      -0.787541       -21.4301
  16   2.0000      -0.760283       -20.6884
  17   2.0000      -0.725790       -19.7497
  18   2.0000      -0.702999       -19.1296
  19   2.0000      -0.654967       -17.8225
  20   2.0000      -0.626794       -17.0559
  21   2.0000      -0.605958       -16.4890
  22   2.0000      -0.570175       -15.5152
  23   2.0000      -0.541716       -14.7408
  24   0.0000      -0.089517        -2.4359
  25   0.0000      -0.087158        -2.3717
  26   0.0000      -0.056219        -1.5298
  27   0.0000      -0.051297        -1.3959
  28   0.0000      -0.024367        -0.6631

MULLIKEN ATOMIC CHARGES
-----------------------
   0 C :   -0.584758
   1 N :   -0.192394
   2 C :    0.847415
   3 N :   -0.422970
   4 N :   -0.373329
   5 H :    0.232589
   6 H :    0.200560
   7 H :    0.233033
   8 H :    0.211445
   9 H :    0.211518
  10 C :   -1.070110
  11 H :    0.334724
  12 H :    0.338678
  13 H :    0.331898
  14 H :    0.358730
  15 H :    0.342971
Sum of atomic charges:    1.0000000

LOEWDIN ATOMIC CHARGES
----------------------
   0 C :   -0.207500
   1 N :    0.079197
   2 C :   -0.425617
   3 N :    0.202559
   4 N :    0.209533
   5 H :    0.124879
   6 H :    0.138129
   7 H :    0.171822
   8 H :    0.143932
   9 H :    0.142265
  10 C :   -0.060726
  11 H :    0.130872
  12 H :    0.121525
  13 H :    0.080261
  14 H :    0.083198
  15 H :    0.065670

  Mayer bond orders larger than 0.100000
B(  0-C ,  1-N ) :   0.9294 B(  0-C , 10-C ) :   0.7293 B(  0-C , 11-H ) :   0.9012
B(  0-C , 12-H ) :   0.8796 B(  1-N ,  2-C ) :   1.1954 B(  1-N ,  3-N ) :   0.1257
B(  1-N ,  7-H ) :   1.0043 B(  2-C ,  3-N ) :   0.9943 B(  2-C ,  4-N ) :   1.1073
B(  3-N ,  8-H ) :   1.0056 B(  3-N ,  9-H ) :   1.0293 B(  4-N ,  5-H ) :   0.9258
B(  4-N ,  6-H ) :   1.0419 B( 10-C , 13-H ) :   0.9687 B( 10-C , 14-H ) :   0.9378
B( 10-C , 15-H ) :   0.9307

Dispersion correction           -0.003828055
FINAL SINGLE POINT ENERGY      -284.432685811776

DIPOLE MOMENT
-------------
                                X             Y             Z
Electronic contribution:     -1.80903       1.58118      -4.46691
Nuclear contribution   :      1.34333      -1.11039       3.43667
                        -----------------------------------------
Total Dipole Moment    :     -0.46570       0.47079      -1.03024
                        -----------------------------------------
Magnitude (a.u.)       :      1.22471
Magnitude (Debye)      :      3.11297

Rotational constants in cm-1:     0.227161     0.075356     0.065003
Rotational constants in MHz :  6810.114531  2259.122204  1948.738523

                             ****ORCA TERMINATED NORMALLY****
TOTAL RUN TIME: 0 days 0 hours 1 minutes 23 seconds 957 msec
