                         Program Version 5.0.0 -  RELEASE  -
|  1> !wB97X-D3 RIJCOSX def2-TZVPD def2/J TightSCF
|  2> *xyz 0 1
|  3> C          4.90646       -3.10282       -5.95484
|  4> C          3.51177       -2.80621       -6.49228
|  5> H          2.73604       -3.37345       -5.97374
|  6> H          3.44490       -3.04083       -7.55528
|  7> S          3.00462       -1.09621       -6.38926
|  8> F          4.12886       -0.32965       -6.95372
|  9> O          1.78128       -1.00078       -7.13640
| 10> O          2.85155       -0.78368       -4.95679
| 11> H          5.62703       -2.52424       -6.49422
| 12> H          5.12164       -4.14387       -6.07654
| 13> H          4.95004       -2.84862       -4.91639
| 14> *
| 15>
| 16> %MaxCore 64000
| 17>
| 18> %pal nprocs 4
| 19> end
| 20>
| 21> %scf
| 22>   MaxIter 150
| 23> end
| 24>
| 25>
| 26>                          ****END OF INPUT****

CARTESIAN COORDINATES (ANGSTROEM)
---------------------------------
  C      4.906460   -3.102820   -5.954840
  C      3.511770   -2.806210   -6.492280
  H      2.736040   -3.373450   -5.973740
  H      3.444900   -3.040830   -7.555280
  S      3.004620   -1.096210   -6.389260
  F      4.128860   -0.329650   -6.953720
  O      1.781280   -1.000780   -7.136400
  O      2.851550   -0.783680   -4.956790
  H      5.627030   -2.524240   -6.494220
  H      5.121640   -4.143870   -6.076540
  H      4.950040   -2.848620   -4.916390

 Total Charge           Charge          ....    0
 Multiplicity           Mult            ....    1
 Number of Electrons    NEL             ....   58
 Basis Dimension        Dim             ....  285

ORBITAL ENERGIES
----------------

  NO   OCC          E(Eh)            E(eV)
   0   2.0000     -89.194845     -2427.1151
   1   2.0000     -24.893213      -677.3788
   2   2.0000     -19.246929      -523.7356
   3   2.0000     -19.234932      -523.4091
   4   2.0000     -10.340447      -281.3779
   5   2.0000     -10.298004      -280.2229
   6   2.0000      -8.258384      -224.7221
   7   2.0000      -6.215922      -169.1438
   8   2.0000      -6.209350      -168.9650
   9   2.0000      -6.208950      -168.9541
  10   2.0000      -1.476537       -40.1786
  11   2.0000      -1.225999       -33.3611
  12   2.0000      -1.126670       -30.6583
  13   2.0000      -0.946789       -25.7634
  14   2.0000      -0.838069       -22.8050
  15   2.0000      -0.787495       -21.4288
  16   2.0000      -0.691456       -18.8155
  17   2.0000      -0.675077       -18.3698
  18   2.0000      -0.651396       -17.7254
  19   2.0000      -0.599755       -16.3202
  20   2.0000      -0.578821       -15.7505
  21   2.0000      -0.555269       -15.1096
  22   2.0000      -0.537038       -14.6135
  23   2.0000      -0.510400       -13.8887
  24   2.0000      -0.498064       -13.5530
  25   2.0000      -0.479803       -13.0561
  26   2.0000      -0.433953       -11.8085
  27   2.0000      -0.422510       -11.4971
  28   2.0000      -0.408178       -11.1071
  29   0.0000       0.051587         1.4037
  30   0.0000       0.062631         1.7043
  31   0.0000       0.069607         1.8941
  32   0.0000       0.072286         1.9670
  33   0.0000       0.100122         2.7244

MULLIKEN ATOMIC CHARGES
-----------------------
   0 C :   -1.244019
   1 C :   -0.335532
   2 H :    0.342981
   3 H :    0.344531
   4 S :    1.199561
   5 F :   -0.163471
   6 O :   -0.569678
   7 O :   -0.608046
   8 H :    0.356931
   9 H :    0.328650
  10 H :    0.348091
Sum of atomic charges:   -0.0000000

LOEWDIN ATOMIC CHARGES
----------------------
   0 C :   -0.112395
   1 C :   -0.282512
   2 H :    0.114590
   3 H :    0.102335
   4 S :    0.600892
   5 F :   -0.073239
   6 O :   -0.273108
   7 O :   -0.297798
   8 H :    0.070001
   9 H :    0.074961
  10 H :    0.076272

  Mayer bond orders larger than 0.100000
B(  0-C ,  1-C ) :   0.7294 B(  0-C ,  8-H ) :   0.9116 B(  0-C ,  9-H ) :   0.9395
B(  0-C , 10-H ) :   0.9504 B(  1-C ,  2-H ) :   0.8889 B(  1-C ,  3-H ) :   0.9033
B(  1-C ,  4-S ) :   0.8228 B(  1-C ,  6-O ) :   0.1176 B(  4-S ,  5-F ) :   0.9730
B(  4-S ,  6-O ) :   1.6794 B(  4-S ,  7-O ) :   1.6483

Dispersion correction           -0.002892604
FINAL SINGLE POINT ENERGY      -727.753969255678

DIPOLE MOMENT
-------------
                                X             Y             Z
Electronic contribution:     -2.97046       8.18394      -1.75531
Nuclear contribution   :      4.18919      -9.36357       1.23251
                        -----------------------------------------
Total Dipole Moment    :      1.21873      -1.17963      -0.52280
                        -----------------------------------------
Magnitude (a.u.)       :      1.77487
Magnitude (Debye)      :      4.51136

Rotational constants in cm-1:     0.153152     0.082513     0.079874
Rotational constants in MHz :  4591.373714  2473.673397  2394.575279

                             ****ORCA TERMINATED NORMALLY****
TOTAL RUN TIME: 0 days 0 hours 1 minutes 4 seconds 940 msec
