                         Program Version 5.0.0 -  RELEASE  -
|  1> !wB97X-D3 RIJCOSX def2-TZVPD def2/J TightSCF
|  2> *xyz 0 1
|  3> C          4.49059        1.15590       -2.46929
|  4> C          4.30539        1.22276       -3.90832
|  5> C          4.63192        2.24637       -4.67096
|  6> N          4.54169        2.14399       -5.98714
|  7> N          5.08409        3.39358       -4.11855
|  8> H          4.92067        3.57050       -3.13587
|  9> H          5.25465        4.19739       -4.70696
| 10> H          3.82453        0.44911       -4.35093
| 11> H          4.34337        1.24932       -6.41665
| 12> H          4.67671        2.95662       -6.57411
| 13> C          5.94213        0.93950       -2.03689
| 14> H          3.86431        0.32853       -2.13661
| 15> H          4.07623        2.04999       -1.98901
| 16> H          6.32982        0.06401       -2.51451
| 17> H          5.98308        0.81426       -0.97504
| 18> H          6.52865        1.78889       -2.31873
| 19> *
| 20>
| 21> %MaxCore 64000
| 22>
| 23> %pal nprocs 4
| 24> end
| 25>
| 26> %scf
| 27>   MaxIter 150
| 28> end
| 29>
| 30>
| 31>                          ****END OF INPUT****

CARTESIAN COORDINATES (ANGSTROEM)
---------------------------------
  C      4.490590    1.155900   -2.469290
  C      4.305390    1.222760   -3.908320
  C      4.631920    2.246370   -4.670960
  N      4.541690    2.143990   -5.987140
  N      5.084090    3.393580   -4.118550
  H      4.920670    3.570500   -3.135870
  H      5.254650    4.197390   -4.706960
  H      3.824530    0.449110   -4.350930
  H      4.343370    1.249320   -6.416650
  H      4.676710    2.956620   -6.574110
  C      5.942130    0.939500   -2.036890
  H      3.864310    0.328530   -2.136610
  H      4.076230    2.049990   -1.989010
  H      6.329820    0.064010   -2.514510
  H      5.983080    0.814260   -0.975040
  H      6.528650    1.788890   -2.318730

 Total Charge           Charge          ....    0
 Multiplicity           Mult            ....    1
 Number of Electrons    NEL             ....   48
 Basis Dimension        Dim             ....  312

ORBITAL ENERGIES
----------------

  NO   OCC          E(Eh)            E(eV)
   0   2.0000     -14.422047      -392.4438
   1   2.0000     -14.419659      -392.3789
   2   2.0000     -10.318479      -280.7801
   3   2.0000     -10.247626      -278.8521
   4   2.0000     -10.234717      -278.5008
   5   2.0000     -10.192554      -277.3535
   6   2.0000      -1.077222       -29.3127
   7   2.0000      -0.984875       -26.7998
   8   2.0000      -0.888273       -24.1711
   9   2.0000      -0.807415       -21.9709
  10   2.0000      -0.727396       -19.7935
  11   2.0000      -0.682226       -18.5643
  12   2.0000      -0.643504       -17.5106
  13   2.0000      -0.611160       -16.6305
  14   2.0000      -0.572471       -15.5777
  15   2.0000      -0.535893       -14.5824
  16   2.0000      -0.521244       -14.1838
  17   2.0000      -0.487573       -13.2675
  18   2.0000      -0.483657       -13.1610
  19   2.0000      -0.444794       -12.1035
  20   2.0000      -0.421487       -11.4693
  21   2.0000      -0.409476       -11.1424
  22   2.0000      -0.359318        -9.7775
  23   2.0000      -0.245836        -6.6895
  24   0.0000       0.063537         1.7289
  25   0.0000       0.088634         2.4118
  26   0.0000       0.093933         2.5560
  27   0.0000       0.102645         2.7931
  28   0.0000       0.119523         3.2524

MULLIKEN ATOMIC CHARGES
-----------------------
   0 C :   -0.440158
   1 C :   -0.726491
   2 C :    0.559429
   3 N :   -0.471740
   4 N :   -0.383316
   5 H :    0.202607
   6 H :    0.154370
   7 H :    0.396813
   8 H :    0.185478
   9 H :    0.163811
  10 C :   -1.154797
  11 H :    0.253869
  12 H :    0.299864
  13 H :    0.333555
  14 H :    0.304074
  15 H :    0.322632
Sum of atomic charges:    0.0000000

LOEWDIN ATOMIC CHARGES
----------------------
   0 C :   -0.288994
   1 C :   -0.154415
   2 C :   -0.540315
   3 N :    0.102394
   4 N :    0.124355
   5 H :    0.098452
   6 H :    0.099527
   7 H :    0.067416
   8 H :    0.114559
   9 H :    0.101570
  10 C :   -0.107585
  11 H :    0.103608
  12 H :    0.097590
  13 H :    0.067372
  14 H :    0.057815
  15 H :    0.056652

  Mayer bond orders larger than 0.100000
B(  0-C ,  1-C ) :   0.8915 B(  0-C ,  2-C ) :   0.2893 B(  0-C , 10-C ) :   0.6105
B(  0-C , 11-H ) :   1.0541 B(  0-C , 12-H ) :   0.8599 B(  1-C ,  2-C ) :   1.1418
B(  1-C ,  3-N ) :   0.1109 B(  1-C ,  7-H ) :   0.8704 B(  1-C , 10-C ) :   0.1893
B(  2-C ,  3-N ) :   0.9288 B(  2-C ,  4-N ) :   1.0196 B(  2-C ,  7-H ) :  -0.1451
B(  3-N ,  8-H ) :   1.0168 B(  3-N ,  9-H ) :   1.0564 B(  4-N ,  5-H ) :   0.9394
B(  4-N ,  6-H ) :   1.0657 B( 10-C , 13-H ) :   0.9677 B( 10-C , 14-H ) :   0.9545
B( 10-C , 15-H ) :   0.9547

Dispersion correction           -0.003822244
FINAL SINGLE POINT ENERGY      -267.947016877109

DIPOLE MOMENT
-------------
                                X             Y             Z
Electronic contribution:     -1.26253       1.97026      -4.11346
Nuclear contribution   :      1.23062      -1.24683       3.43056
                        -----------------------------------------
Total Dipole Moment    :     -0.03191       0.72343      -0.68290
                        -----------------------------------------
Magnitude (a.u.)       :      0.99535
Magnitude (Debye)      :      2.52997

Rotational constants in cm-1:     0.231477     0.075416     0.065327
Rotational constants in MHz :  6939.497385  2260.912204  1958.442932

                             ****ORCA TERMINATED NORMALLY****
TOTAL RUN TIME: 0 days 0 hours 1 minutes 34 seconds 508 msec
