                         Program Version 5.0.0 -  RELEASE  -
|  1> !wB97X-D3 RIJCOSX def2-TZVPD def2/J TightSCF
|  2> *xyz 0 1
|  3> C          4.90646       -3.10282       -5.95484
|  4> C          3.51177       -2.80621       -6.49228
|  5> H          2.73604       -3.37345       -5.97374
|  6> H          3.44490       -3.04083       -7.55528
|  7> S          3.00462       -1.09621       -6.38926
|  8> O          4.12886       -0.32965       -6.95372
|  9> F          1.78128       -1.00078       -7.13640
| 10> O          2.85155       -0.78368       -4.95679
| 11> H          5.62703       -2.52424       -6.49422
| 12> H          5.12164       -4.14387       -6.07654
| 13> H          4.95004       -2.84862       -4.91639
| 14> *
| 15>
| 16> %MaxCore 64000
| 17>
| 18> %pal nprocs 4
| 19> end
| 20>
| 21> %scf
| 22>   MaxIter 150
| 23> end
| 24>
| 25>
| 26>                          ****END OF INPUT****

CARTESIAN COORDINATES (ANGSTROEM)
---------------------------------
  C      4.906460   -3.102820   -5.954840
  C      3.511770   -2.806210   -6.492280
  H      2.736040   -3.373450   -5.973740
  H      3.444900   -3.040830   -7.555280
  S      3.004620   -1.096210   -6.389260
  O      4.128860   -0.329650   -6.953720
  F      1.781280   -1.000780   -7.136400
  O      2.851550   -0.783680   -4.956790
  H      5.627030   -2.524240   -6.494220
  H      5.121640   -4.143870   -6.076540
  H      4.950040   -2.848620   -4.916390

 Total Charge           Charge          ....    0
 Multiplicity           Mult            ....    1
 Number of Electrons    NEL             ....   58
 Basis Dimension        Dim             ....  285

ORBITAL ENERGIES
----------------

  NO   OCC          E(Eh)            E(eV)
   0   2.0000     -89.197012     -2427.1741
   1   2.0000     -24.912436      -677.9019
   2   2.0000     -19.235183      -523.4159
   3   2.0000     -19.235164      -523.4154
   4   2.0000     -10.341265      -281.4001
   5   2.0000     -10.293369      -280.0968
   6   2.0000      -8.260530      -224.7805
   7   2.0000      -6.217832      -169.1958
   8   2.0000      -6.211487      -169.0231
   9   2.0000      -6.211209      -169.0156
  10   2.0000      -1.507554       -41.0226
  11   2.0000      -1.212420       -32.9916
  12   2.0000      -1.113352       -30.2958
  13   2.0000      -0.943663       -25.6784
  14   2.0000      -0.852607       -23.2006
  15   2.0000      -0.789064       -21.4715
  16   2.0000      -0.697953       -18.9923
  17   2.0000      -0.696384       -18.9496
  18   2.0000      -0.662121       -18.0172
  19   2.0000      -0.600540       -16.3415
  20   2.0000      -0.581901       -15.8343
  21   2.0000      -0.538873       -14.6635
  22   2.0000      -0.530183       -14.4270
  23   2.0000      -0.507672       -13.8145
  24   2.0000      -0.486682       -13.2433
  25   2.0000      -0.478079       -13.0092
  26   2.0000      -0.422600       -11.4995
  27   2.0000      -0.420502       -11.4424
  28   2.0000      -0.396892       -10.8000
  29   0.0000       0.048177         1.3110
  30   0.0000       0.062849         1.7102
  31   0.0000       0.067995         1.8502
  32   0.0000       0.073691         2.0052
  33   0.0000       0.098648         2.6844

MULLIKEN ATOMIC CHARGES
-----------------------
   0 C :   -1.240176
   1 C :   -0.362438
   2 H :    0.354138
   3 H :    0.352153
   4 S :    1.188455
   5 O :   -0.604376
   6 F :   -0.111363
   7 O :   -0.600903
   8 H :    0.348575
   9 H :    0.328599
  10 H :    0.347337
Sum of atomic charges:   -0.0000000

LOEWDIN ATOMIC CHARGES
----------------------
   0 C :   -0.101635
   1 C :   -0.292051
   2 H :    0.103650
   3 H :    0.100255
   4 S :    0.602540
   5 O :   -0.298255
   6 F :   -0.045957
   7 O :   -0.298525
   8 H :    0.074757
   9 H :    0.076242
  10 H :    0.078979

  Mayer bond orders larger than 0.100000
B(  0-C ,  1-C ) :   0.8064 B(  0-C ,  4-S ) :   0.1011 B(  0-C ,  8-H ) :   0.9382
B(  0-C ,  9-H ) :   0.9249 B(  0-C , 10-H ) :   0.9261 B(  1-C ,  2-H ) :   0.8742
B(  1-C ,  3-H ) :   0.8666 B(  1-C ,  4-S ) :   0.8259 B(  1-C ,  7-O ) :   0.1049
B(  4-S ,  5-O ) :   1.6543 B(  4-S ,  6-F ) :   1.0030 B(  4-S ,  7-O ) :   1.6503

Dispersion correction           -0.002915770
FINAL SINGLE POINT ENERGY      -727.738599195865

DIPOLE MOMENT
-------------
                                X             Y             Z
Electronic contribution:     -6.96858       7.05903      -2.06317
Nuclear contribution   :      6.63544      -8.66423       1.42287
                        -----------------------------------------
Total Dipole Moment    :     -0.33313      -1.60520      -0.64030
                        -----------------------------------------
Magnitude (a.u.)       :      1.76001
Magnitude (Debye)      :      4.47358

Rotational constants in cm-1:     0.158118     0.080978     0.078216
Rotational constants in MHz :  4740.271775  2427.649826  2344.849020

                             ****ORCA TERMINATED NORMALLY****
TOTAL RUN TIME: 0 days 0 hours 1 minutes 5 seconds 764 msec
