                         Program Version 5.0.0 -  RELEASE  -
|  1> !wB97X-D3 RIJCOSX def2-TZVPD def2/J TightSCF
|  2> *xyz 0 1
|  3> C          4.49059        1.15590       -2.46929
|  4> N          4.30539        1.22276       -3.90832
|  5> C          4.63192        2.24637       -4.67096
|  6> C          4.54169        2.14399       -5.98714
|  7> N          5.08409        3.39358       -4.11855
|  8> H          4.92067        3.57050       -3.13587
|  9> H          5.25465        4.19739       -4.70696
| 10> H          3.82453        0.44911       -4.35093
| 11> H          4.34337        1.24932       -6.41665
| 12> H          4.67671        2.95662       -6.57411
| 13> C          5.94213        0.93950       -2.03689
| 14> H          3.86431        0.32853       -2.13661
| 15> H          4.07623        2.04999       -1.98901
| 16> H          6.32982        0.06401       -2.51451
| 17> H          5.98308        0.81426       -0.97504
| 18> H          6.52865        1.78889       -2.31873
| 19> *
| 20>
| 21> %MaxCore 64000
| 22>
| 23> %pal nprocs 4
| 24> end
| 25>
| 26> %scf
| 27>   MaxIter 150
| 28> end
| 29>
| 30>
| 31>                          ****END OF INPUT****

CARTESIAN COORDINATES (ANGSTROEM)
---------------------------------
  C      4.490590    1.155900   -2.469290
  N      4.305390    1.222760   -3.908320
  C      4.631920    2.246370   -4.670960
  C      4.541690    2.143990   -5.987140
  N      5.084090    3.393580   -4.118550
  H      4.920670    3.570500   -3.135870
  H      5.254650    4.197390   -4.706960
  H      3.824530    0.449110   -4.350930
  H      4.343370    1.249320   -6.416650
  H      4.676710    2.956620   -6.574110
  C      5.942130    0.939500   -2.036890
  H      3.864310    0.328530   -2.136610
  H      4.076230    2.049990   -1.989010
  H      6.329820    0.064010   -2.514510
  H      5.983080    0.814260   -0.975040
  H      6.528650    1.788890   -2.318730

 Total Charge           Charge          ....    0
 Multiplicity           Mult            ....    1
 Number of Electrons    NEL             ....   48
 Basis Dimension        Dim             ....  312

ORBITAL ENERGIES
----------------

  NO   OCC          E(Eh)            E(eV)
   0   2.0000     -14.421758      -392.4360
   1   2.0000     -14.420000      -392.3882
   2   2.0000     -10.321010      -280.8489
   3   2.0000     -10.315926      -280.7106
   4   2.0000     -10.260847      -279.2118
   5   2.0000     -10.181307      -277.0474
   6   2.0000      -1.085805       -29.5463
   7   2.0000      -0.996958       -27.1286
   8   2.0000      -0.886545       -24.1241
   9   2.0000      -0.815486       -22.1905
  10   2.0000      -0.741180       -20.1685
  11   2.0000      -0.703162       -19.1340
  12   2.0000      -0.638209       -17.3665
  13   2.0000      -0.599766       -16.3205
  14   2.0000      -0.578456       -15.7406
  15   2.0000      -0.548159       -14.9162
  16   2.0000      -0.523362       -14.2414
  17   2.0000      -0.500712       -13.6251
  18   2.0000      -0.478111       -13.0101
  19   2.0000      -0.469678       -12.7806
  20   2.0000      -0.455521       -12.3953
  21   2.0000      -0.448169       -12.1953
  22   2.0000      -0.347902        -9.4669
  23   2.0000      -0.248819        -6.7707
  24   0.0000       0.063430         1.7260
  25   0.0000       0.088466         2.4073
  26   0.0000       0.090143         2.4529
  27   0.0000       0.094136         2.5616
  28   0.0000       0.121078         3.2947

MULLIKEN ATOMIC CHARGES
-----------------------
   0 C :   -0.567396
   1 N :   -0.166373
   2 C :    1.045688
   3 C :   -1.634071
   4 N :   -0.400492
   5 H :    0.182123
   6 H :    0.172966
   7 H :    0.203515
   8 H :    0.346039
   9 H :    0.295061
  10 C :   -1.067270
  11 H :    0.314838
  12 H :    0.303906
  13 H :    0.295317
  14 H :    0.340959
  15 H :    0.335190
Sum of atomic charges:   -0.0000000

LOEWDIN ATOMIC CHARGES
----------------------
   0 C :   -0.245299
   1 N :    0.008721
   2 C :   -0.561152
   3 C :   -0.009193
   4 N :    0.117331
   5 H :    0.089599
   6 H :    0.110432
   7 H :    0.148776
   8 H :    0.010246
   9 H :    0.007201
  10 C :   -0.086962
  11 H :    0.113065
  12 H :    0.104852
  13 H :    0.069693
  14 H :    0.063652
  15 H :    0.059036

  Mayer bond orders larger than 0.100000
B(  0-C ,  1-N ) :   0.9193 B(  0-C ,  4-N ) :   0.1009 B(  0-C , 10-C ) :   0.7040
B(  0-C , 11-H ) :   0.9410 B(  0-C , 12-H ) :   0.9052 B(  1-N ,  2-C ) :   1.1219
B(  1-N ,  3-C ) :   0.1073 B(  1-N ,  7-H ) :   0.9781 B(  2-C ,  3-C ) :   0.7468
B(  2-C ,  4-N ) :   0.9815 B(  2-C ,  9-H ) :  -0.1470 B(  3-C ,  8-H ) :   0.9148
B(  3-C ,  9-H ) :   1.0897 B(  4-N ,  5-H ) :   0.9798 B(  4-N ,  6-H ) :   1.0293
B( 10-C , 13-H ) :   0.9963 B( 10-C , 14-H ) :   0.9441 B( 10-C , 15-H ) :   0.9500

Dispersion correction           -0.003854416
FINAL SINGLE POINT ENERGY      -267.939316662008

DIPOLE MOMENT
-------------
                                X             Y             Z
Electronic contribution:     -1.41405       1.07410      -1.91899
Nuclear contribution   :      1.28075      -1.05140       2.98955
                        -----------------------------------------
Total Dipole Moment    :     -0.13331       0.02270       1.07056
                        -----------------------------------------
Magnitude (a.u.)       :      1.07907
Magnitude (Debye)      :      2.74278

Rotational constants in cm-1:     0.229858     0.078444     0.067377
Rotational constants in MHz :  6890.979812  2351.691803  2019.910665

                             ****ORCA TERMINATED NORMALLY****
TOTAL RUN TIME: 0 days 0 hours 1 minutes 29 seconds 465 msec
