                         Program Version 5.0.0 -  RELEASE  -
|  1> !wB97X-D3 RIJCOSX def2-TZVPD def2/J TightSCF
|  2> *xyz 0 1
|  3> C          4.90646       -3.10282       -5.95484
|  4> C          3.51177       -2.80621       -6.49228
|  5> H          2.73604       -3.37345       -5.97374
|  6> H          3.44490       -3.04083       -7.55528
|  7> S          3.00462       -1.09621       -6.38926
|  8> O          4.12886       -0.32965       -6.95372
|  9> O          1.78128       -1.00078       -7.13640
| 10> F          2.85155       -0.78368       -4.95679
| 11> H          5.62703       -2.52424       -6.49422
| 12> H          5.12164       -4.14387       -6.07654
| 13> H          4.95004       -2.84862       -4.91639
| 14> *
| 15>
| 16> %MaxCore 64000
| 17>
| 18> %pal nprocs 4
| 19> end
| 20>
| 21> %scf
| 22>   MaxIter 150
| 23> end
| 24>
| 25>
| 26>                          ****END OF INPUT****

CARTESIAN COORDINATES (ANGSTROEM)
---------------------------------
  C      4.906460   -3.102820   -5.954840
  C      3.511770   -2.806210   -6.492280
  H      2.736040   -3.373450   -5.973740
  H      3.444900   -3.040830   -7.555280
  S      3.004620   -1.096210   -6.389260
  O      4.128860   -0.329650   -6.953720
  O      1.781280   -1.000780   -7.136400
  F      2.851550   -0.783680   -4.956790
  H      5.627030   -2.524240   -6.494220
  H      5.121640   -4.143870   -6.076540
  H      4.950040   -2.848620   -4.916390

 Total Charge           Charge          ....    0
 Multiplicity           Mult            ....    1
 Number of Electrons    NEL             ....   58
 Basis Dimension        Dim             ....  285

ORBITAL ENERGIES
----------------

  NO   OCC          E(Eh)            E(eV)
   0   2.0000     -89.194921     -2427.1172
   1   2.0000     -24.892919      -677.3708
   2   2.0000     -19.247141      -523.7413
   3   2.0000     -19.235243      -523.4176
   4   2.0000     -10.340309      -281.3741
   5   2.0000     -10.294924      -280.1391
   6   2.0000      -8.258454      -224.7240
   7   2.0000      -6.215939      -169.1443
   8   2.0000      -6.209545      -168.9703
   9   2.0000      -6.208949      -168.9541
  10   2.0000      -1.475651       -40.1545
  11   2.0000      -1.226179       -33.3660
  12   2.0000      -1.128287       -30.7023
  13   2.0000      -0.944452       -25.6998
  14   2.0000      -0.837478       -22.7889
  15   2.0000      -0.786300       -21.3963
  16   2.0000      -0.688650       -18.7391
  17   2.0000      -0.674030       -18.3413
  18   2.0000      -0.653289       -17.7769
  19   2.0000      -0.598250       -16.2792
  20   2.0000      -0.581533       -15.8243
  21   2.0000      -0.556438       -15.1415
  22   2.0000      -0.532779       -14.4976
  23   2.0000      -0.506524       -13.7832
  24   2.0000      -0.498586       -13.5672
  25   2.0000      -0.477145       -12.9838
  26   2.0000      -0.434317       -11.8184
  27   2.0000      -0.422972       -11.5096
  28   2.0000      -0.409711       -11.1488
  29   0.0000       0.051284         1.3955
  30   0.0000       0.063178         1.7192
  31   0.0000       0.069433         1.8894
  32   0.0000       0.071839         1.9548
  33   0.0000       0.099127         2.6974

MULLIKEN ATOMIC CHARGES
-----------------------
   0 C :   -1.228287
   1 C :   -0.355198
   2 H :    0.360527
   3 H :    0.338067
   4 S :    1.199803
   5 O :   -0.608574
   6 O :   -0.572768
   7 F :   -0.160794
   8 H :    0.346485
   9 H :    0.330741
  10 H :    0.349997
Sum of atomic charges:   -0.0000000

LOEWDIN ATOMIC CHARGES
----------------------
   0 C :   -0.112401
   1 C :   -0.283720
   2 H :    0.103766
   3 H :    0.111748
   4 S :    0.602866
   5 O :   -0.296491
   6 O :   -0.273366
   7 F :   -0.073314
   8 H :    0.073086
   9 H :    0.074565
  10 H :    0.073260

  Mayer bond orders larger than 0.100000
B(  0-C ,  1-C ) :   0.7455 B(  0-C ,  8-H ) :   0.9671 B(  0-C ,  9-H ) :   0.9362
B(  0-C , 10-H ) :   0.9040 B(  1-C ,  2-H ) :   0.8780 B(  1-C ,  3-H ) :   0.8954
B(  1-C ,  4-S ) :   0.8268 B(  1-C ,  6-O ) :   0.1224 B(  4-S ,  5-O ) :   1.6500
B(  4-S ,  6-O ) :   1.6773 B(  4-S ,  7-F ) :   0.9644

Dispersion correction           -0.002874431
FINAL SINGLE POINT ENERGY      -727.754296134742

DIPOLE MOMENT
-------------
                                X             Y             Z
Electronic contribution:     -5.15400       7.42122       1.65784
Nuclear contribution   :      5.52019      -8.89046      -0.84835
                        -----------------------------------------
Total Dipole Moment    :      0.36619      -1.46924       0.80949
                        -----------------------------------------
Magnitude (a.u.)       :      1.71698
Magnitude (Debye)      :      4.36423

Rotational constants in cm-1:     0.153332     0.082132     0.079755
Rotational constants in MHz :  4596.775407  2462.251277  2391.008596

                             ****ORCA TERMINATED NORMALLY****
TOTAL RUN TIME: 0 days 0 hours 1 minutes 5 seconds 310 msec
