                         Program Version 5.0.0 -  RELEASE  -
|  1> !wB97X-D3 RIJCOSX def2-TZVPD def2/J TightSCF
|  2> *xyz 0 1
|  3> C          4.49059        1.15590       -2.46929
|  4> N          4.30539        1.22276       -3.90832
|  5> C          4.63192        2.24637       -4.67096
|  6> N          4.54169        2.14399       -5.98714
|  7> C          5.08409        3.39358       -4.11855
|  8> H          4.92067        3.57050       -3.13587
|  9> H          5.25465        4.19739       -4.70696
| 10> H          3.82453        0.44911       -4.35093
| 11> H          4.34337        1.24932       -6.41665
| 12> H          4.67671        2.95662       -6.57411
| 13> C          5.94213        0.93950       -2.03689
| 14> H          3.86431        0.32853       -2.13661
| 15> H          4.07623        2.04999       -1.98901
| 16> H          6.32982        0.06401       -2.51451
| 17> H          5.98308        0.81426       -0.97504
| 18> H          6.52865        1.78889       -2.31873
| 19> *
| 20>
| 21> %MaxCore 64000
| 22>
| 23> %pal nprocs 4
| 24> end
| 25>
| 26> %scf
| 27>   MaxIter 150
| 28> end
| 29>
| 30>
| 31>                          ****END OF INPUT****

CARTESIAN COORDINATES (ANGSTROEM)
---------------------------------
  C      4.490590    1.155900   -2.469290
  N      4.305390    1.222760   -3.908320
  C      4.631920    2.246370   -4.670960
  N      4.541690    2.143990   -5.987140
  C      5.084090    3.393580   -4.118550
  H      4.920670    3.570500   -3.135870
  H      5.254650    4.197390   -4.706960
  H      3.824530    0.449110   -4.350930
  H      4.343370    1.249320   -6.416650
  H      4.676710    2.956620   -6.574110
  C      5.942130    0.939500   -2.036890
  H      3.864310    0.328530   -2.136610
  H      4.076230    2.049990   -1.989010
  H      6.329820    0.064010   -2.514510
  H      5.983080    0.814260   -0.975040
  H      6.528650    1.788890   -2.318730

 Total Charge           Charge          ....    0
 Multiplicity           Mult            ....    1
 Number of Electrons    NEL             ....   48
 Basis Dimension        Dim             ....  312

ORBITAL ENERGIES
----------------

  NO   OCC          E(Eh)            E(eV)
   0   2.0000     -14.426045      -392.5526
   1   2.0000     -14.422505      -392.4563
   2   2.0000     -10.324129      -280.9338
   3   2.0000     -10.307784      -280.4891
   4   2.0000     -10.250605      -278.9332
   5   2.0000     -10.182493      -277.0797
   6   2.0000      -1.089888       -29.6574
   7   2.0000      -1.004228       -27.3264
   8   2.0000      -0.867243       -23.5989
   9   2.0000      -0.820523       -22.3276
  10   2.0000      -0.750487       -20.4218
  11   2.0000      -0.668040       -18.1783
  12   2.0000      -0.655053       -17.8249
  13   2.0000      -0.623759       -16.9733
  14   2.0000      -0.570340       -15.5198
  15   2.0000      -0.538671       -14.6580
  16   2.0000      -0.512067       -13.9340
  17   2.0000      -0.493853       -13.4384
  18   2.0000      -0.477014       -12.9802
  19   2.0000      -0.460102       -12.5200
  20   2.0000      -0.458144       -12.4667
  21   2.0000      -0.439172       -11.9505
  22   2.0000      -0.343099        -9.3362
  23   2.0000      -0.250327        -6.8117
  24   0.0000       0.064625         1.7585
  25   0.0000       0.084702         2.3049
  26   0.0000       0.091314         2.4848
  27   0.0000       0.099182         2.6989
  28   0.0000       0.123187         3.3521

MULLIKEN ATOMIC CHARGES
-----------------------
   0 C :   -0.499818
   1 N :   -0.226022
   2 C :    1.020833
   3 N :   -0.440239
   4 C :   -1.552456
   5 H :    0.301718
   6 H :    0.336351
   7 H :    0.213169
   8 H :    0.173613
   9 H :    0.185600
  10 C :   -1.127793
  11 H :    0.328060
  12 H :    0.289037
  13 H :    0.294955
  14 H :    0.343559
  15 H :    0.359433
Sum of atomic charges:   -0.0000000

LOEWDIN ATOMIC CHARGES
----------------------
   0 C :   -0.241848
   1 N :    0.004525
   2 C :   -0.562733
   3 N :    0.108880
   4 C :   -0.000649
   5 H :    0.000409
   6 H :    0.005522
   7 H :    0.140747
   8 H :    0.104624
   9 H :    0.114398
  10 C :   -0.085847
  11 H :    0.111598
  12 H :    0.110315
  13 H :    0.067042
  14 H :    0.064441
  15 H :    0.058576

  Mayer bond orders larger than 0.100000
B(  0-C ,  1-N ) :   0.9316 B(  0-C ,  4-C ) :   0.1462 B(  0-C , 10-C ) :   0.7115
B(  0-C , 11-H ) :   0.8760 B(  0-C , 12-H ) :   0.9213 B(  1-N ,  2-C ) :   1.0862
B(  1-N ,  7-H ) :   1.0004 B(  2-C ,  3-N ) :   0.9042 B(  2-C ,  4-C ) :   0.9063
B(  2-C ,  6-H ) :  -0.1152 B(  3-N ,  4-C ) :   0.1064 B(  3-N ,  8-H ) :   1.0384
B(  3-N ,  9-H ) :   1.0173 B(  4-C ,  5-H ) :   0.9487 B(  4-C ,  6-H ) :   1.0064
B( 10-C , 13-H ) :   0.9832 B( 10-C , 14-H ) :   0.9213 B( 10-C , 15-H ) :   0.9672

Dispersion correction           -0.003801789
FINAL SINGLE POINT ENERGY      -267.938757635593

DIPOLE MOMENT
-------------
                                X             Y             Z
Electronic contribution:     -1.89710      -0.14267      -3.82473
Nuclear contribution   :      1.39581      -0.78630       3.38596
                        -----------------------------------------
Total Dipole Moment    :     -0.50129      -0.92898      -0.43877
                        -----------------------------------------
Magnitude (a.u.)       :      1.14316
Magnitude (Debye)      :      2.90567

Rotational constants in cm-1:     0.239249     0.075811     0.066261
Rotational constants in MHz :  7172.504830  2272.756282  1986.457543

                             ****ORCA TERMINATED NORMALLY****
TOTAL RUN TIME: 0 days 0 hours 1 minutes 25 seconds 793 msec
