                         Program Version 5.0.0 -  RELEASE  -
|  1> !wB97X-D3 RIJCOSX def2-TZVPD def2/J TightSCF xyzfile
|  2>
|  3> *xyzfile 0 1 D3.xyz
|  4>
|  5> %MaxCore 64000
|  6>
|  7> %pal nprocs 18
|  8> end
|  9>
| 10> %scf
| 11>   MaxIter 150
| 12> end
| 13>
| 14>
| 15>                          ****END OF INPUT****

CARTESIAN COORDINATES (ANGSTROEM)
---------------------------------
  C      4.490588    1.155899   -2.469290
  N      4.305394    1.222762   -3.908317
  C      4.906458   -3.102816   -5.954844
  C      3.511771   -2.806215   -6.492283
  H      2.736044   -3.373445   -5.973736
  H      3.444904   -3.040831   -7.555281
  S      3.004618   -1.096206   -6.389259
  C      4.631918    2.246365   -4.670958
  N      4.541686    2.143990   -5.987139
  C      5.084086    3.393584   -4.118545
  H      4.920675    3.570501   -3.135870
  H      5.254652    4.197390   -4.706956
  H      3.824530    0.449113   -4.350926
  H      4.343373    1.249318   -6.416646
  H      4.676712    2.956624   -6.574113
  F      4.128856   -0.329647   -6.953717
  O      1.781285   -1.000779   -7.136399
  C      5.942129    0.939500   -2.036893
  H      3.864305    0.328532   -2.136611
  H      4.076233    2.049994   -1.989010
  C      6.462677   -3.117775   -3.944671
  C      5.024977   -3.025679   -4.437625
  H      4.423321   -3.818693   -3.977648
  H      4.579350   -2.087131   -4.108727
  H      5.201533   -4.100207   -6.296905
  H      5.605922   -2.397822   -6.413368
  C      6.559957   -0.356290   -2.559086
  H      5.967976    0.952567   -0.942444
  H      6.547184    1.788331   -2.368849
  C      6.006283   -1.615917   -1.899301
  H      7.642360   -0.318000   -2.402059
  H      6.414855   -0.403433   -3.642587
  C      6.608718   -2.917014   -2.435655
  H      6.190324   -1.561115   -0.820948
  H      4.919250   -1.651245   -2.016586
  H      7.066975   -2.374258   -4.475514
  H      6.887808   -4.089747   -4.215332
  H      6.135197   -3.755573   -1.915159
  H      7.671142   -2.955503   -2.172291
  O      2.851546   -0.783683   -4.956789

 Total Charge           Charge          ....    0
 Multiplicity           Mult            ....    1
 Number of Electrons    NEL             ....  144
 Basis Dimension        Dim             ....  854

ORBITAL ENERGIES
----------------

  NO   OCC          E(Eh)            E(eV)
   0   2.0000     -89.222705     -2427.8732
   1   2.0000     -24.927611      -678.3148
   2   2.0000     -19.271243      -524.3972
   3   2.0000     -19.267100      -524.2844
   4   2.0000     -14.406878      -392.0311
   5   2.0000     -14.395340      -391.7171
   6   2.0000     -10.355473      -281.7867
   7   2.0000     -10.317079      -280.7420
   8   2.0000     -10.307868      -280.4913
   9   2.0000     -10.290870      -280.0288
  10   2.0000     -10.287030      -279.9243
  11   2.0000     -10.280156      -279.7373
  12   2.0000     -10.273338      -279.5517
  13   2.0000     -10.266007      -279.3522
  14   2.0000     -10.259999      -279.1888
  15   2.0000     -10.254197      -279.0309
  16   2.0000     -10.167727      -276.6779
  17   2.0000      -8.286693      -225.4924
  18   2.0000      -6.244396      -169.9186
  19   2.0000      -6.237514      -169.7314
  20   2.0000      -6.237068      -169.7192
  21   2.0000      -1.513891       -41.1951
  22   2.0000      -1.255276       -34.1578
  23   2.0000      -1.160125       -31.5686
  24   2.0000      -1.071934       -29.1688
  25   2.0000      -0.988883       -26.9089
  26   2.0000      -0.975732       -26.5510
  27   2.0000      -0.934108       -25.4184
  28   2.0000      -0.899258       -24.4701
  29   2.0000      -0.871461       -23.7137
  30   2.0000      -0.841953       -22.9107
  31   2.0000      -0.814450       -22.1623
  32   2.0000      -0.802008       -21.8237
  33   2.0000      -0.770387       -20.9633
  34   2.0000      -0.742694       -20.2097
  35   2.0000      -0.726039       -19.7565
  36   2.0000      -0.715381       -19.4665
  37   2.0000      -0.704318       -19.1655
  38   2.0000      -0.687385       -18.7047
  39   2.0000      -0.670320       -18.2403
  40   2.0000      -0.646853       -17.6018
  41   2.0000      -0.630499       -17.1568
  42   2.0000      -0.622341       -16.9348
  43   2.0000      -0.605652       -16.4806
  44   2.0000      -0.599227       -16.3058
  45   2.0000      -0.585038       -15.9197
  46   2.0000      -0.577133       -15.7046
  47   2.0000      -0.569055       -15.4848
  48   2.0000      -0.556874       -15.1533
  49   2.0000      -0.546463       -14.8700
  50   2.0000      -0.536498       -14.5989
  51   2.0000      -0.533244       -14.5103
  52   2.0000      -0.520437       -14.1618
  53   2.0000      -0.508030       -13.8242
  54   2.0000      -0.493306       -13.4235
  55   2.0000      -0.486893       -13.2490
  56   2.0000      -0.484336       -13.1795
  57   2.0000      -0.475896       -12.9498
  58   2.0000      -0.465616       -12.6701
  59   2.0000      -0.464089       -12.6285
  60   2.0000      -0.455974       -12.4077
  61   2.0000      -0.448521       -12.2049
  62   2.0000      -0.445671       -12.1273
  63   2.0000      -0.439400       -11.9567
  64   2.0000      -0.430783       -11.7222
  65   2.0000      -0.427331       -11.6283
  66   2.0000      -0.422000       -11.4832
  67   2.0000      -0.405881       -11.0446
  68   2.0000      -0.404292       -11.0014
  69   2.0000      -0.395253       -10.7554
  70   2.0000      -0.325305        -8.8520
  71   2.0000      -0.235025        -6.3954
  72   0.0000       0.036953         1.0055
  73   0.0000       0.051563         1.4031
  74   0.0000       0.061618         1.6767
  75   0.0000       0.068116         1.8535
  76   0.0000       0.076194         2.0734

MULLIKEN ATOMIC CHARGES
-----------------------
   0 C :   -1.113088
   1 N :    0.074178
   2 C :   -0.696709
   3 C :   -0.763577
   4 H :    0.390108
   5 H :    0.369657
   6 S :    1.217697
   7 C :    1.257188
   8 N :   -0.283154
   9 C :   -1.787742
  10 H :    0.330843
  11 H :    0.384344
  12 H :    0.036998
  13 H :    0.167320
  14 H :    0.159579
  15 F :   -0.299346
  16 O :   -0.604106
  17 C :   -0.545804
  18 H :    0.353219
  19 H :    0.351797
  20 C :   -0.450424
  21 C :   -0.147785
  22 H :    0.329575
  23 H :   -0.033186
  24 H :    0.322883
  25 H :    0.302516
  26 C :   -0.367920
  27 H :    0.347860
  28 H :    0.388589
  29 C :   -0.505547
  30 H :    0.283857
  31 H :    0.167039
  32 C :   -0.871125
  33 H :    0.328317
  34 H :    0.260679
  35 H :    0.370772
  36 H :    0.341214
  37 H :    0.301250
  38 H :    0.311256
  39 O :   -0.679223
Sum of atomic charges:   -0.0000000

LOEWDIN ATOMIC CHARGES
----------------------
   0 C :   -0.182429
   1 N :    0.026002
   2 C :   -0.222180
   3 C :   -0.215898
   4 H :    0.124906
   5 H :    0.109862
   6 S :    0.651094
   7 C :   -0.544927
   8 N :    0.124668
   9 C :   -0.001187
  10 H :   -0.001559
  11 H :    0.002137
  12 H :    0.055039
  13 H :    0.051330
  14 H :    0.118716
  15 F :   -0.084699
  16 O :   -0.243348
  17 C :   -0.188135
  18 H :    0.114331
  19 H :    0.115285
  20 C :   -0.216866
  21 C :   -0.219309
  22 H :    0.132354
  23 H :    0.083522
  24 H :    0.124713
  25 H :    0.115172
  26 C :   -0.212295
  27 H :    0.112822
  28 H :    0.103600
  29 C :   -0.219964
  30 H :    0.117688
  31 H :    0.101128
  32 C :   -0.210724
  33 H :    0.116090
  34 H :    0.100319
  35 H :    0.110114
  36 H :    0.114747
  37 H :    0.110226
  38 H :    0.111776
  39 O :   -0.284120

  Mayer bond orders larger than 0.100000
B(  0-C ,  1-N ) :   1.2063 B(  0-C ,  7-C ) :  -0.1703 B(  0-C ,  9-C ) :   0.1891
B(  0-C , 12-H ) :  -0.2935 B(  0-C , 17-C ) :   0.8025 B(  0-C , 18-H ) :   0.7041
B(  0-C , 19-H ) :   0.7913 B(  0-C , 26-C ) :   0.1173 B(  0-C , 29-C ) :   0.1813
B(  1-N ,  7-C ) :   1.0062 B(  1-N , 12-H ) :   0.9707 B(  1-N , 17-C ) :   0.1184
B(  1-N , 39-O ) :  -0.1025 B(  2-C ,  3-C ) :   0.9898 B(  2-C , 20-C ) :   0.5257
B(  2-C , 21-C ) :   0.3644 B(  2-C , 22-H ) :  -0.1332 B(  2-C , 24-H ) :   0.9131
B(  2-C , 25-H ) :   0.9326 B(  3-C ,  4-H ) :   0.8230 B(  3-C ,  5-H ) :   0.9144
B(  3-C ,  6-S ) :   0.8450 B(  3-C , 16-O ) :   0.1486 B(  3-C , 21-C ) :   0.2939
B(  6-S , 15-F ) :   0.9041 B(  6-S , 16-O ) :   1.4887 B(  6-S , 39-O ) :   1.6583
B(  7-C ,  8-N ) :   0.9077 B(  7-C ,  9-C ) :   0.6404 B(  7-C , 11-H ) :  -0.1218
B(  7-C , 12-H ) :  -0.3061 B(  8-N , 13-H ) :   0.9408 B(  8-N , 14-H ) :   1.0341
B(  9-C , 10-H ) :   0.9494 B(  9-C , 11-H ) :   0.9696 B( 12-H , 39-O ) :   0.1411
B( 17-C , 26-C ) :   1.0961 B( 17-C , 27-H ) :   0.8960 B( 17-C , 28-H ) :   0.8780
B( 17-C , 29-C ) :   0.3362 B( 20-C , 21-C ) :   0.4150 B( 20-C , 26-C ) :   0.1773
B( 20-C , 32-C ) :   0.9306 B( 20-C , 35-H ) :   0.8858 B( 20-C , 36-H ) :   0.8636
B( 21-C , 22-H ) :   0.7681 B( 21-C , 23-H ) :   1.5377 B( 21-C , 29-C ) :   0.1181
B( 21-C , 32-C ) :   0.3842 B( 21-C , 39-O ) :   0.1125 B( 22-H , 23-H ) :   0.1431
B( 23-H , 39-O ) :  -0.1797 B( 26-C , 29-C ) :   0.2455 B( 26-C , 30-H ) :   0.8739
B( 26-C , 31-H ) :   1.1154 B( 26-C , 32-C ) :   0.3139 B( 26-C , 34-H ) :  -0.1208
B( 29-C , 32-C ) :   0.9514 B( 29-C , 33-H ) :   0.8743 B( 29-C , 34-H ) :   1.0308
B( 32-C , 37-H ) :   0.9256 B( 32-C , 38-H ) :   0.9347

Dispersion correction           -0.021830216
FINAL SINGLE POINT ENERGY     -1191.072632714570

DIPOLE MOMENT
-------------
                                X             Y             Z
Electronic contribution:    -16.88422       2.66232     -21.32108
Nuclear contribution   :     17.35766      -5.13497      20.30937
                        -----------------------------------------
Total Dipole Moment    :      0.47345      -2.47265      -1.01171
                        -----------------------------------------
Magnitude (a.u.)       :      2.71324
Magnitude (Debye)      :      6.89652

Rotational constants in cm-1:     0.014431     0.012329     0.007535
Rotational constants in MHz :   432.628327   369.619539   225.898827

                             ****ORCA TERMINATED NORMALLY****
TOTAL RUN TIME: 0 days 0 hours 4 minutes 31 seconds 484 msec
