                         Program Version 5.0.0 -  RELEASE  -
|  1> !wB97X-D3 RIJCOSX def2-TZVPD def2/J TightSCF xyzfile
|  2>
|  3> *xyzfile 0 1 D6.xyz
|  4>
|  5> %MaxCore 64000
|  6>
|  7> %pal nprocs 18
|  8> end
|  9>
| 10> %scf
| 11>   MaxIter 150
| 12> end
| 13>
| 14>
| 15>                          ****END OF INPUT****

CARTESIAN COORDINATES (ANGSTROEM)
---------------------------------
  C      4.490588    1.155899   -2.469290
  N      4.305394    1.222762   -3.908317
  C      4.906458   -3.102816   -5.954844
  C      3.511771   -2.806215   -6.492283
  H      2.736044   -3.373445   -5.973736
  H      3.444904   -3.040831   -7.555281
  S      3.004618   -1.096206   -6.389259
  C      4.631918    2.246365   -4.670958
  N      4.541686    2.143990   -5.987139
  C      5.084086    3.393584   -4.118545
  H      4.920675    3.570501   -3.135870
  H      5.254652    4.197390   -4.706956
  H      3.824530    0.449113   -4.350926
  H      4.343373    1.249318   -6.416646
  H      4.676712    2.956624   -6.574113
  O      4.128856   -0.329647   -6.953717
  F      1.781285   -1.000779   -7.136399
  C      5.942129    0.939500   -2.036893
  H      3.864305    0.328532   -2.136611
  H      4.076233    2.049994   -1.989010
  C      6.462677   -3.117775   -3.944671
  C      5.024977   -3.025679   -4.437625
  H      4.423321   -3.818693   -3.977648
  H      4.579350   -2.087131   -4.108727
  H      5.201533   -4.100207   -6.296905
  H      5.605922   -2.397822   -6.413368
  C      6.559957   -0.356290   -2.559086
  H      5.967976    0.952567   -0.942444
  H      6.547184    1.788331   -2.368849
  C      6.006283   -1.615917   -1.899301
  H      7.642360   -0.318000   -2.402059
  H      6.414855   -0.403433   -3.642587
  C      6.608718   -2.917014   -2.435655
  H      6.190324   -1.561115   -0.820948
  H      4.919250   -1.651245   -2.016586
  H      7.066975   -2.374258   -4.475514
  H      6.887808   -4.089747   -4.215332
  H      6.135197   -3.755573   -1.915159
  H      7.671142   -2.955503   -2.172291
  O      2.851546   -0.783683   -4.956789

 Total Charge           Charge          ....    0
 Multiplicity           Mult            ....    1
 Number of Electrons    NEL             ....  144
 Basis Dimension        Dim             ....  854

ORBITAL ENERGIES
----------------

  NO   OCC          E(Eh)            E(eV)
   0   2.0000     -89.231440     -2428.1109
   1   2.0000     -24.939729      -678.6445
   2   2.0000     -19.271614      -524.4073
   3   2.0000     -19.271082      -524.3928
   4   2.0000     -14.384053      -391.4100
   5   2.0000     -14.378594      -391.2614
   6   2.0000     -10.359965      -281.9090
   7   2.0000     -10.315263      -280.6926
   8   2.0000     -10.292675      -280.0779
   9   2.0000     -10.283869      -279.8383
  10   2.0000     -10.282869      -279.8111
  11   2.0000     -10.275866      -279.6205
  12   2.0000     -10.269183      -279.4387
  13   2.0000     -10.261008      -279.2162
  14   2.0000     -10.252839      -278.9939
  15   2.0000     -10.246684      -278.8265
  16   2.0000     -10.153661      -276.2952
  17   2.0000      -8.295202      -225.7239
  18   2.0000      -6.252364      -170.1355
  19   2.0000      -6.246358      -169.9720
  20   2.0000      -6.245801      -169.9569
  21   2.0000      -1.534969       -41.7686
  22   2.0000      -1.252929       -34.0939
  23   2.0000      -1.155250       -31.4359
  24   2.0000      -1.055105       -28.7109
  25   2.0000      -0.975104       -26.5339
  26   2.0000      -0.970107       -26.3980
  27   2.0000      -0.931278       -25.3414
  28   2.0000      -0.898712       -24.4552
  29   2.0000      -0.870973       -23.7004
  30   2.0000      -0.841588       -22.9008
  31   2.0000      -0.805410       -21.9163
  32   2.0000      -0.791181       -21.5291
  33   2.0000      -0.767148       -20.8752
  34   2.0000      -0.740371       -20.1465
  35   2.0000      -0.728123       -19.8132
  36   2.0000      -0.712512       -19.3884
  37   2.0000      -0.699310       -19.0292
  38   2.0000      -0.695775       -18.9330
  39   2.0000      -0.663845       -18.0642
  40   2.0000      -0.639552       -17.4031
  41   2.0000      -0.629398       -17.1268
  42   2.0000      -0.619853       -16.8671
  43   2.0000      -0.605062       -16.4646
  44   2.0000      -0.597620       -16.2621
  45   2.0000      -0.580139       -15.7864
  46   2.0000      -0.575138       -15.6503
  47   2.0000      -0.561446       -15.2777
  48   2.0000      -0.551120       -14.9967
  49   2.0000      -0.537439       -14.6245
  50   2.0000      -0.530004       -14.4221
  51   2.0000      -0.527531       -14.3548
  52   2.0000      -0.517443       -14.0803
  53   2.0000      -0.502464       -13.6727
  54   2.0000      -0.488065       -13.2809
  55   2.0000      -0.482339       -13.1251
  56   2.0000      -0.478958       -13.0331
  57   2.0000      -0.467617       -12.7245
  58   2.0000      -0.460853       -12.5404
  59   2.0000      -0.454290       -12.3618
  60   2.0000      -0.447777       -12.1846
  61   2.0000      -0.442931       -12.0528
  62   2.0000      -0.436195       -11.8695
  63   2.0000      -0.431452       -11.7404
  64   2.0000      -0.426654       -11.6098
  65   2.0000      -0.423002       -11.5105
  66   2.0000      -0.414645       -11.2831
  67   2.0000      -0.400028       -10.8853
  68   2.0000      -0.398056       -10.8317
  69   2.0000      -0.388797       -10.5797
  70   2.0000      -0.308239        -8.3876
  71   2.0000      -0.220808        -6.0085
  72   0.0000       0.028804         0.7838
  73   0.0000       0.051329         1.3967
  74   0.0000       0.053724         1.4619
  75   0.0000       0.069610         1.8942
  76   0.0000       0.080562         2.1922

MULLIKEN ATOMIC CHARGES
-----------------------
   0 C :   -1.101861
   1 N :    0.069673
   2 C :   -0.681999
   3 C :   -0.867873
   4 H :    0.409705
   5 H :    0.428892
   6 S :    1.262498
   7 C :    1.184748
   8 N :   -0.250459
   9 C :   -1.777269
  10 H :    0.324633
  11 H :    0.385646
  12 H :    0.083036
  13 H :    0.176942
  14 H :    0.157847
  15 O :   -0.794828
  16 F :   -0.109845
  17 C :   -0.561553
  18 H :    0.340498
  19 H :    0.354334
  20 C :   -0.477110
  21 C :   -0.168761
  22 H :    0.329803
  23 H :   -0.062279
  24 H :    0.319922
  25 H :    0.325481
  26 C :   -0.384525
  27 H :    0.345445
  28 H :    0.394347
  29 C :   -0.495916
  30 H :    0.280353
  31 H :    0.185391
  32 C :   -0.861200
  33 H :    0.328589
  34 H :    0.255774
  35 H :    0.382318
  36 H :    0.342582
  37 H :    0.298902
  38 H :    0.311388
  39 O :   -0.683268
Sum of atomic charges:   -0.0000000

LOEWDIN ATOMIC CHARGES
----------------------
   0 C :   -0.185400
   1 N :    0.028957
   2 C :   -0.212063
   3 C :   -0.223195
   4 H :    0.115052
   5 H :    0.108228
   6 S :    0.678432
   7 C :   -0.546892
   8 N :    0.121831
   9 C :   -0.008680
  10 H :   -0.005980
  11 H :   -0.000833
  12 H :    0.058337
  13 H :    0.025866
  14 H :    0.114427
  15 O :   -0.282874
  16 F :   -0.021575
  17 C :   -0.188794
  18 H :    0.112423
  19 H :    0.113739
  20 C :   -0.215284
  21 C :   -0.216274
  22 H :    0.130705
  23 H :    0.085523
  24 H :    0.126867
  25 H :    0.119643
  26 C :   -0.211497
  27 H :    0.111683
  28 H :    0.103465
  29 C :   -0.220848
  30 H :    0.117341
  31 H :    0.103660
  32 C :   -0.211319
  33 H :    0.115445
  34 H :    0.099556
  35 H :    0.112120
  36 H :    0.114385
  37 H :    0.109358
  38 H :    0.111599
  39 O :   -0.287134

  Mayer bond orders larger than 0.100000
B(  0-C ,  1-N ) :   1.1896 B(  0-C ,  7-C ) :  -0.1660 B(  0-C ,  9-C ) :   0.1977
B(  0-C , 12-H ) :  -0.2876 B(  0-C , 17-C ) :   0.8132 B(  0-C , 18-H ) :   0.7155
B(  0-C , 19-H ) :   0.7918 B(  0-C , 26-C ) :   0.1198 B(  0-C , 29-C ) :   0.1774
B(  1-N ,  7-C ) :   1.0149 B(  1-N , 12-H ) :   0.9562 B(  1-N , 17-C ) :   0.1301
B(  2-C ,  3-C ) :   1.0727 B(  2-C , 20-C ) :   0.5383 B(  2-C , 21-C ) :   0.4377
B(  2-C , 22-H ) :  -0.1348 B(  2-C , 24-H ) :   0.9119 B(  2-C , 25-H ) :   0.8840
B(  3-C ,  4-H ) :   0.8183 B(  3-C ,  5-H ) :   0.8043 B(  3-C ,  6-S ) :   0.8267
B(  3-C , 15-O ) :   0.1199 B(  3-C , 16-F ) :   0.1176 B(  3-C , 21-C ) :   0.3353
B(  3-C , 39-O ) :   0.1157 B(  6-S , 15-O ) :   1.5088 B(  6-S , 16-F ) :   0.8651
B(  6-S , 39-O ) :   1.6910 B(  7-C ,  8-N ) :   0.9592 B(  7-C ,  9-C ) :   0.6727
B(  7-C , 11-H ) :  -0.1123 B(  7-C , 12-H ) :  -0.2760 B(  8-N , 13-H ) :   0.9278
B(  8-N , 14-H ) :   1.0304 B(  9-C , 10-H ) :   0.9582 B(  9-C , 11-H ) :   0.9641
B( 15-O , 39-O ) :   0.1228 B( 17-C , 26-C ) :   1.0985 B( 17-C , 27-H ) :   0.8992
B( 17-C , 28-H ) :   0.8789 B( 17-C , 29-C ) :   0.3428 B( 20-C , 21-C ) :   0.4211
B( 20-C , 26-C ) :   0.1823 B( 20-C , 32-C ) :   0.9271 B( 20-C , 35-H ) :   0.8780
B( 20-C , 36-H ) :   0.8617 B( 21-C , 22-H ) :   0.7664 B( 21-C , 23-H ) :   1.5268
B( 21-C , 29-C ) :   0.1155 B( 21-C , 32-C ) :   0.3820 B( 21-C , 39-O ) :   0.1233
B( 22-H , 23-H ) :   0.1365 B( 23-H , 39-O ) :  -0.1646 B( 26-C , 29-C ) :   0.2288
B( 26-C , 30-H ) :   0.8743 B( 26-C , 31-H ) :   1.1083 B( 26-C , 32-C ) :   0.3143
B( 26-C , 34-H ) :  -0.1210 B( 29-C , 32-C ) :   0.9442 B( 29-C , 33-H ) :   0.8756
B( 29-C , 34-H ) :   1.0326 B( 32-C , 37-H ) :   0.9284 B( 32-C , 38-H ) :   0.9345

Dispersion correction           -0.021911189
FINAL SINGLE POINT ENERGY     -1191.067616888452

DIPOLE MOMENT
-------------
                                X             Y             Z
Electronic contribution:    -21.16770       1.27220     -21.88812
Nuclear contribution   :     20.11362      -4.34709      20.52383
                        -----------------------------------------
Total Dipole Moment    :     -1.05408      -3.07488      -1.36429
                        -----------------------------------------
Magnitude (a.u.)       :      3.52523
Magnitude (Debye)      :      8.96043

Rotational constants in cm-1:     0.014449     0.012108     0.007447
Rotational constants in MHz :   433.168496   362.988632   223.260798

                             ****ORCA TERMINATED NORMALLY****
TOTAL RUN TIME: 0 days 0 hours 5 minutes 2 seconds 99 msec
