                         Program Version 5.0.0 -  RELEASE  -
|  1> !wB97X-D3 RIJCOSX def2-TZVPD def2/J TightSCF xyzfile
|  2>
|  3> *xyzfile 0 1 D7.xyz
|  4>
|  5> %MaxCore 64000
|  6>
|  7> %pal nprocs 18
|  8> end
|  9>
| 10> %scf
| 11>   MaxIter 150
| 12> end
| 13>
| 14>
| 15>                          ****END OF INPUT****

CARTESIAN COORDINATES (ANGSTROEM)
---------------------------------
  C      4.490588    1.155899   -2.469290
  C      4.305394    1.222762   -3.908317
  C      4.906458   -3.102816   -5.954844
  C      3.511771   -2.806215   -6.492283
  H      2.736044   -3.373445   -5.973736
  H      3.444904   -3.040831   -7.555281
  S      3.004618   -1.096206   -6.389259
  C      4.631918    2.246365   -4.670958
  N      4.541686    2.143990   -5.987139
  N      5.084086    3.393584   -4.118545
  H      4.920675    3.570501   -3.135870
  H      5.254652    4.197390   -4.706956
  H      3.824530    0.449113   -4.350926
  H      4.343373    1.249318   -6.416646
  H      4.676712    2.956624   -6.574113
  O      4.128856   -0.329647   -6.953717
  O      1.781285   -1.000779   -7.136399
  C      5.942129    0.939500   -2.036893
  H      3.864305    0.328532   -2.136611
  H      4.076233    2.049994   -1.989010
  C      6.462677   -3.117775   -3.944671
  C      5.024977   -3.025679   -4.437625
  H      4.423321   -3.818693   -3.977648
  H      4.579350   -2.087131   -4.108727
  H      5.201533   -4.100207   -6.296905
  H      5.605922   -2.397822   -6.413368
  C      6.559957   -0.356290   -2.559086
  H      5.967976    0.952567   -0.942444
  H      6.547184    1.788331   -2.368849
  C      6.006283   -1.615917   -1.899301
  H      7.642360   -0.318000   -2.402059
  H      6.414855   -0.403433   -3.642587
  C      6.608718   -2.917014   -2.435655
  H      6.190324   -1.561115   -0.820948
  H      4.919250   -1.651245   -2.016586
  H      7.066975   -2.374258   -4.475514
  H      6.887808   -4.089747   -4.215332
  H      6.135197   -3.755573   -1.915159
  H      7.671142   -2.955503   -2.172291
  F      2.851546   -0.783683   -4.956789

 Total Charge           Charge          ....    0
 Multiplicity           Mult            ....    1
 Number of Electrons    NEL             ....  144
 Basis Dimension        Dim             ....  854

ORBITAL ENERGIES
----------------

  NO   OCC          E(Eh)            E(eV)
   0   2.0000     -89.206551     -2427.4337
   1   2.0000     -24.898598      -677.5253
   2   2.0000     -19.256192      -523.9876
   3   2.0000     -19.252253      -523.8804
   4   2.0000     -14.411021      -392.1438
   5   2.0000     -14.388453      -391.5297
   6   2.0000     -10.342149      -281.4242
   7   2.0000     -10.305965      -280.4396
   8   2.0000     -10.302145      -280.3356
   9   2.0000     -10.283479      -279.8277
  10   2.0000     -10.273756      -279.5631
  11   2.0000     -10.267547      -279.3941
  12   2.0000     -10.259653      -279.1793
  13   2.0000     -10.250783      -278.9380
  14   2.0000     -10.246302      -278.8160
  15   2.0000     -10.242658      -278.7169
  16   2.0000     -10.176195      -276.9083
  17   2.0000      -8.270280      -225.0458
  18   2.0000      -6.227705      -169.4645
  19   2.0000      -6.221367      -169.2920
  20   2.0000      -6.220804      -169.2767
  21   2.0000      -1.485842       -40.4318
  22   2.0000      -1.239412       -33.7261
  23   2.0000      -1.145784       -31.1784
  24   2.0000      -1.060583       -28.8599
  25   2.0000      -0.967847       -26.3364
  26   2.0000      -0.962195       -26.1826
  27   2.0000      -0.927505       -25.2387
  28   2.0000      -0.898681       -24.4543
  29   2.0000      -0.871566       -23.7165
  30   2.0000      -0.834748       -22.7146
  31   2.0000      -0.820283       -22.3210
  32   2.0000      -0.783316       -21.3151
  33   2.0000      -0.755552       -20.5596
  34   2.0000      -0.733897       -19.9703
  35   2.0000      -0.702080       -19.1046
  36   2.0000      -0.694946       -18.9104
  37   2.0000      -0.686940       -18.6926
  38   2.0000      -0.680965       -18.5300
  39   2.0000      -0.659590       -17.9484
  40   2.0000      -0.652395       -17.7526
  41   2.0000      -0.627415       -17.0728
  42   2.0000      -0.603015       -16.4089
  43   2.0000      -0.591501       -16.0956
  44   2.0000      -0.586396       -15.9566
  45   2.0000      -0.579711       -15.7748
  46   2.0000      -0.577399       -15.7118
  47   2.0000      -0.559932       -15.2365
  48   2.0000      -0.550092       -14.9688
  49   2.0000      -0.541014       -14.7217
  50   2.0000      -0.528290       -14.3755
  51   2.0000      -0.523189       -14.2367
  52   2.0000      -0.520768       -14.1708
  53   2.0000      -0.503641       -13.7048
  54   2.0000      -0.493291       -13.4231
  55   2.0000      -0.481421       -13.1001
  56   2.0000      -0.473240       -12.8775
  57   2.0000      -0.467833       -12.7304
  58   2.0000      -0.463643       -12.6164
  59   2.0000      -0.450481       -12.2582
  60   2.0000      -0.443128       -12.0581
  61   2.0000      -0.437689       -11.9101
  62   2.0000      -0.432226       -11.7615
  63   2.0000      -0.426480       -11.6051
  64   2.0000      -0.422062       -11.4849
  65   2.0000      -0.419884       -11.4256
  66   2.0000      -0.412243       -11.2177
  67   2.0000      -0.396526       -10.7900
  68   2.0000      -0.390699       -10.6315
  69   2.0000      -0.385341       -10.4857
  70   2.0000      -0.341430        -9.2908
  71   2.0000      -0.233897        -6.3647
  72   0.0000       0.048080         1.3083
  73   0.0000       0.059733         1.6254
  74   0.0000       0.066157         1.8002
  75   0.0000       0.070729         1.9246
  76   0.0000       0.082398         2.2422

MULLIKEN ATOMIC CHARGES
-----------------------
   0 C :   -0.969629
   1 C :   -0.749125
   2 C :   -0.593943
   3 C :   -0.828739
   4 H :    0.371452
   5 H :    0.380929
   6 S :    1.381646
   7 C :    0.384215
   8 N :   -0.286989
   9 N :   -0.343909
  10 H :    0.221156
  11 H :    0.156371
  12 H :    0.614743
  13 H :    0.174986
  14 H :    0.157350
  15 O :   -0.793454
  16 O :   -0.617333
  17 C :   -0.751135
  18 H :    0.304913
  19 H :    0.406155
  20 C :   -0.503014
  21 C :   -0.150557
  22 H :    0.328494
  23 H :   -0.092422
  24 H :    0.331188
  25 H :    0.310212
  26 C :   -0.450118
  27 H :    0.283917
  28 H :    0.402504
  29 C :   -0.466721
  30 H :    0.299176
  31 H :    0.220773
  32 C :   -0.863536
  33 H :    0.321923
  34 H :    0.247987
  35 H :    0.387182
  36 H :    0.343100
  37 H :    0.297703
  38 H :    0.308133
  39 F :   -0.175584
Sum of atomic charges:   -0.0000000

LOEWDIN ATOMIC CHARGES
----------------------
   0 C :   -0.227335
   1 C :   -0.146933
   2 C :   -0.223288
   3 C :   -0.219520
   4 H :    0.114097
   5 H :    0.116891
   6 S :    0.650803
   7 C :   -0.513042
   8 N :    0.119919
   9 N :    0.127342
  10 H :    0.096893
  11 H :    0.099336
  12 H :    0.023046
  13 H :    0.032632
  14 H :    0.106032
  15 O :   -0.284611
  16 O :   -0.251288
  17 C :   -0.206620
  18 H :    0.103464
  19 H :    0.103418
  20 C :   -0.214677
  21 C :   -0.218885
  22 H :    0.129944
  23 H :    0.086984
  24 H :    0.123904
  25 H :    0.117178
  26 C :   -0.213052
  27 H :    0.106775
  28 H :    0.104073
  29 C :   -0.219601
  30 H :    0.116287
  31 H :    0.102950
  32 C :   -0.212109
  33 H :    0.115220
  34 H :    0.099143
  35 H :    0.112350
  36 H :    0.115190
  37 H :    0.109146
  38 H :    0.111121
  39 F :   -0.093177

  Mayer bond orders larger than 0.100000
B(  0-C ,  1-C ) :   0.8513 B(  0-C , 17-C ) :   0.8073 B(  0-C , 18-H ) :   0.9836
B(  0-C , 19-H ) :   0.7878 B(  0-C , 29-C ) :   0.1425 B(  1-C ,  7-C ) :   0.4721
B(  1-C , 10-H ) :  -0.1100 B(  1-C , 17-C ) :   0.5339 B(  1-C , 18-H ) :  -0.1287
B(  1-C , 19-H ) :  -0.1292 B(  1-C , 39-F ) :   0.2951 B(  2-C ,  3-C ) :   0.9438
B(  2-C , 20-C ) :   0.5533 B(  2-C , 21-C ) :   0.3969 B(  2-C , 22-H ) :  -0.1431
B(  2-C , 24-H ) :   0.9069 B(  2-C , 25-H ) :   0.9104 B(  3-C ,  4-H ) :   0.8659
B(  3-C ,  5-H ) :   0.8617 B(  3-C ,  6-S ) :   0.8611 B(  3-C , 16-O ) :   0.1724
B(  3-C , 21-C ) :   0.3662 B(  6-S , 15-O ) :   1.4168 B(  6-S , 16-O ) :   1.3820
B(  6-S , 39-F ) :   1.0424 B(  7-C ,  8-N ) :   0.9787 B(  7-C ,  9-N ) :   1.2060
B(  7-C , 10-H ) :   0.1403 B(  7-C , 12-H ) :   0.5867 B(  7-C , 17-C ) :  -0.1628
B(  8-N , 12-H ) :   0.1778 B(  8-N , 13-H ) :   0.9448 B(  8-N , 14-H ) :   1.0343
B(  9-N , 10-H ) :   0.9376 B(  9-N , 11-H ) :   1.0418 B(  9-N , 17-C ) :   0.1270
B( 12-H , 15-O ) :   0.1945 B( 12-H , 39-F ) :  -0.4079 B( 17-C , 26-C ) :   1.2095
B( 17-C , 27-H ) :   0.9726 B( 17-C , 28-H ) :   0.8088 B( 17-C , 29-C ) :   0.3409
B( 20-C , 21-C ) :   0.4592 B( 20-C , 26-C ) :   0.1947 B( 20-C , 32-C ) :   0.9235
B( 20-C , 35-H ) :   0.8680 B( 20-C , 36-H ) :   0.8634 B( 21-C , 22-H ) :   0.7700
B( 21-C , 23-H ) :   1.4328 B( 21-C , 29-C ) :   0.1394 B( 21-C , 32-C ) :   0.3763
B( 21-C , 39-F ) :   0.1038 B( 22-H , 23-H ) :   0.1288 B( 23-H , 39-F ) :  -0.1036
B( 26-C , 29-C ) :   0.2560 B( 26-C , 30-H ) :   0.8600 B( 26-C , 31-H ) :   1.1271
B( 26-C , 32-C ) :   0.2827 B( 26-C , 34-H ) :  -0.1316 B( 29-C , 32-C ) :   0.9547
B( 29-C , 33-H ) :   0.8806 B( 29-C , 34-H ) :   1.0420 B( 32-C , 37-H ) :   0.9324
B( 32-C , 38-H ) :   0.9357

Dispersion correction           -0.021801064
FINAL SINGLE POINT ENERGY     -1191.079536397642

DIPOLE MOMENT
-------------
                                X             Y             Z
Electronic contribution:    -18.42808       4.03059     -18.00058
Nuclear contribution   :     18.74089      -4.92611      17.99644
                        -----------------------------------------
Total Dipole Moment    :      0.31281      -0.89552      -0.00413
                        -----------------------------------------
Magnitude (a.u.)       :      0.94859
Magnitude (Debye)      :      2.41112

Rotational constants in cm-1:     0.014210     0.012324     0.007480
Rotational constants in MHz :   425.991442   369.455467   224.259162

                             ****ORCA TERMINATED NORMALLY****
TOTAL RUN TIME: 0 days 0 hours 4 minutes 36 seconds 893 msec
