                         Program Version 5.0.0 -  RELEASE  -
|  1> !BLYP D3BJ RIJCOSX def2-TZVP def2/J TightSCF
|  2> *xyz -1 1
|  3> C          0.61188        1.65763       -4.50029
|  4> C          1.69499        1.54179       -5.57045
|  5> H          2.69733        1.73466       -5.18400
|  6> H          1.50666        2.27224       -6.35808
|  7> S          1.78029       -0.03313       -6.42874
|  8> O          2.56929        0.21366       -7.60736
|  9> O          0.41688       -0.46297       -6.61859
| 10> O          2.50513       -0.93326       -5.48257
| 11> H         -0.34424        1.45871       -4.93752
| 12> H          0.61845        2.64655       -4.09174
| 13> H          0.80247        0.94882       -3.72173
| 14> *
| 15> %MaxCore 64000
| 16>
| 17> %pal nprocs 4
| 18> end
| 19>
| 20> %scf
| 21>   MaxIter 150
| 22> end
| 23>
| 24>
| 25>                          ****END OF INPUT****

CARTESIAN COORDINATES (ANGSTROEM)
---------------------------------
  C      0.611880    1.657630   -4.500290
  C      1.694990    1.541790   -5.570450
  H      2.697330    1.734660   -5.184000
  H      1.506660    2.272240   -6.358080
  S      1.780290   -0.033130   -6.428740
  O      2.569290    0.213660   -7.607360
  O      0.416880   -0.462970   -6.618590
  O      2.505130   -0.933260   -5.482570
  H     -0.344240    1.458710   -4.937520
  H      0.618450    2.646550   -4.091740
  H      0.802470    0.948820   -3.721730

 Total Charge           Charge          ....   -1
 Multiplicity           Mult            ....    1
 Number of Electrons    NEL             ....   58
 Basis Dimension        Dim             ....  222

ORBITAL ENERGIES
----------------

  NO   OCC          E(Eh)            E(eV)
   0   2.0000     -88.068965     -2396.4784
   1   2.0000     -18.543213      -504.5865
   2   2.0000     -18.542203      -504.5590
   3   2.0000     -18.523244      -504.0431
   4   2.0000      -9.757079      -265.5036
   5   2.0000      -9.754647      -265.4375
   6   2.0000      -7.599752      -206.7998
   7   2.0000      -5.628335      -153.1548
   8   2.0000      -5.627498      -153.1320
   9   2.0000      -5.627156      -153.1227
  10   2.0000      -0.817457       -22.2441
  11   2.0000      -0.696610       -18.9557
  12   2.0000      -0.663760       -18.0618
  13   2.0000      -0.547648       -14.9023
  14   2.0000      -0.431611       -11.7447
  15   2.0000      -0.310498        -8.4491
  16   2.0000      -0.259427        -7.0594
  17   2.0000      -0.249074        -6.7777
  18   2.0000      -0.213986        -5.8229
  19   2.0000      -0.195943        -5.3319
  20   2.0000      -0.192944        -5.2503
  21   2.0000      -0.174124        -4.7382
  22   2.0000      -0.161246        -4.3877
  23   2.0000      -0.090578        -2.4647
  24   2.0000      -0.089287        -2.4296
  25   2.0000      -0.060325        -1.6415
  26   2.0000      -0.057563        -1.5664
  27   2.0000      -0.037138        -1.0106
  28   2.0000      -0.004418        -0.1202
  29   0.0000       0.154430         4.2022
  30   0.0000       0.197258         5.3677
  31   0.0000       0.211097         5.7443
  32   0.0000       0.216181         5.8826
  33   0.0000       0.241086         6.5603

MULLIKEN ATOMIC CHARGES
-----------------------
   0 C :   -0.273297
   1 C :   -0.181898
   2 H :    0.055856
   3 H :    0.046012
   4 S :    0.733487
   5 O :   -0.509718
   6 O :   -0.513671
   7 O :   -0.576198
   8 H :    0.093110
   9 H :    0.044555
  10 H :    0.081763
Sum of atomic charges:   -1.0000000

LOEWDIN ATOMIC CHARGES
----------------------
   0 C :   -0.338536
   1 C :   -0.432816
   2 H :    0.113410
   3 H :    0.110950
   4 S :    0.381759
   5 O :   -0.359178
   6 O :   -0.358274
   7 O :   -0.431115
   8 H :    0.110088
   9 H :    0.094895
  10 H :    0.108818

  Mayer bond orders larger than 0.100000
B(  0-C ,  1-C ) :   0.9379 B(  0-C ,  8-H ) :   0.9726 B(  0-C ,  9-H ) :   0.9563
B(  0-C , 10-H ) :   0.9740 B(  1-C ,  2-H ) :   0.9580 B(  1-C ,  3-H ) :   0.9465
B(  1-C ,  4-S ) :   0.8549 B(  4-S ,  5-O ) :   1.8447 B(  4-S ,  6-O ) :   1.7896
B(  4-S ,  7-O ) :   1.7640

Dispersion correction           -0.020473827
FINAL SINGLE POINT ENERGY      -703.239538376910

DIPOLE MOMENT
-------------
                                X             Y             Z
Electronic contribution:      2.27281      -5.77306      -5.08650
Nuclear contribution   :     -2.69163       7.29476       5.86550
                        -----------------------------------------
Total Dipole Moment    :     -0.41882       1.52170       0.77900
                        -----------------------------------------
Magnitude (a.u.)       :      1.76007
Magnitude (Debye)      :      4.47373

Rotational constants in cm-1:     0.163060     0.082831     0.081111
Rotational constants in MHz :  4888.419330  2483.225008  2431.646841

                             ****ORCA TERMINATED NORMALLY****
TOTAL RUN TIME: 0 days 0 hours 0 minutes 6 seconds 682 msec
