                         Program Version 5.0.0 -  RELEASE  -
|  1> !BLYP D3BJ RIJCOSX def2-TZVP def2/J TightSCF
|  2> *xyz 1 1
|  3> C          1.96337       -1.74915       -1.89689
|  4> N          2.73849       -2.01517       -3.09711
|  5> C          4.04974       -2.15472       -3.15204
|  6> N          4.65821       -1.98629       -4.31866
|  7> N          4.76423       -2.45444       -2.05049
|  8> H          4.28736       -2.77626       -1.21750
|  9> H          5.75082       -2.65835       -2.12599
| 10> H          2.34518       -1.69027       -3.97145
| 11> H          4.10900       -1.59268       -5.07176
| 12> H          5.64910       -2.15646       -4.42724
| 13> C          2.08852       -0.30091       -1.41520
| 14> H          2.23127       -2.45162       -1.10264
| 15> H          0.93025       -1.97780       -2.15544
| 16> H          1.82118        0.36368       -2.21003
| 17> H          3.09792       -0.11068       -1.11551
| 18> H          1.43391       -0.14382       -0.58352
| 19> *
| 20> %MaxCore 64000
| 21>
| 22> %pal nprocs 4
| 23> end
| 24>
| 25> %scf
| 26>   MaxIter 150
| 27> end
| 28>
| 29>
| 30>                          ****END OF INPUT****

CARTESIAN COORDINATES (ANGSTROEM)
---------------------------------
  C      1.963370   -1.749150   -1.896890
  N      2.738490   -2.015170   -3.097110
  C      4.049740   -2.154720   -3.152040
  N      4.658210   -1.986290   -4.318660
  N      4.764230   -2.454440   -2.050490
  H      4.287360   -2.776260   -1.217500
  H      5.750820   -2.658350   -2.125990
  H      2.345180   -1.690270   -3.971450
  H      4.109000   -1.592680   -5.071760
  H      5.649100   -2.156460   -4.427240
  C      2.088520   -0.300910   -1.415200
  H      2.231270   -2.451620   -1.102640
  H      0.930250   -1.977800   -2.155440
  H      1.821180    0.363680   -2.210030
  H      3.097920   -0.110680   -1.115510
  H      1.433910   -0.143820   -0.583520

 Total Charge           Charge          ....    1
 Multiplicity           Mult            ....    1
 Number of Electrons    NEL             ....   48
 Basis Dimension        Dim             ....  246

ORBITAL ENERGIES
----------------

  NO   OCC          E(Eh)            E(eV)
   0   2.0000     -14.227269      -387.1437
   1   2.0000     -14.226087      -387.1115
   2   2.0000     -14.225093      -387.0845
   3   2.0000     -10.227652      -278.3086
   4   2.0000     -10.110352      -275.1167
   5   2.0000     -10.039617      -273.1919
   6   2.0000      -1.122896       -30.5556
   7   2.0000      -1.019569       -27.7439
   8   2.0000      -1.008149       -27.4331
   9   2.0000      -0.853981       -23.2380
  10   2.0000      -0.775042       -21.0900
  11   2.0000      -0.740194       -20.1417
  12   2.0000      -0.723621       -19.6907
  13   2.0000      -0.686630       -18.6842
  14   2.0000      -0.641017       -17.4430
  15   2.0000      -0.634097       -17.2546
  16   2.0000      -0.602484       -16.3944
  17   2.0000      -0.573292       -15.6001
  18   2.0000      -0.549864       -14.9626
  19   2.0000      -0.514320       -13.9954
  20   2.0000      -0.485617       -13.2143
  21   2.0000      -0.467752       -12.7282
  22   2.0000      -0.431416       -11.7394
  23   2.0000      -0.407634       -11.0923
  24   0.0000      -0.194586        -5.2949
  25   0.0000      -0.180651        -4.9158
  26   0.0000      -0.147246        -4.0068
  27   0.0000      -0.136405        -3.7118
  28   0.0000      -0.114473        -3.1150

MULLIKEN ATOMIC CHARGES
-----------------------
   0 C :   -0.139200
   1 N :   -0.198595
   2 C :    0.395174
   3 N :   -0.338674
   4 N :   -0.355690
   5 H :    0.262008
   6 H :    0.256617
   7 H :    0.219034
   8 H :    0.255427
   9 H :    0.265379
  10 C :   -0.274731
  11 H :    0.117736
  12 H :    0.153362
  13 H :    0.116631
  14 H :    0.118408
  15 H :    0.147117
Sum of atomic charges:    1.0000000

LOEWDIN ATOMIC CHARGES
----------------------
   0 C :   -0.278040
   1 N :    0.180266
   2 C :   -0.418560
   3 N :    0.080062
   4 N :    0.070445
   5 H :    0.191582
   6 H :    0.191580
   7 H :    0.205817
   8 H :    0.194444
   9 H :    0.194843
  10 C :   -0.275156
  11 H :    0.136256
  12 H :    0.149309
  13 H :    0.122565
  14 H :    0.120014
  15 H :    0.134571

  Mayer bond orders larger than 0.100000
B(  0-C ,  1-N ) :   0.8927 B(  0-C , 10-C ) :   0.9466 B(  0-C , 11-H ) :   0.9624
B(  0-C , 12-H ) :   0.9557 B(  1-N ,  2-C ) :   1.3804 B(  1-N ,  7-H ) :   0.9101
B(  2-C ,  3-N ) :   1.3285 B(  2-C ,  4-N ) :   1.3170 B(  3-N ,  8-H ) :   0.9060
B(  3-N ,  9-H ) :   0.9022 B(  4-N ,  5-H ) :   0.8961 B(  4-N ,  6-H ) :   0.9068
B( 10-C , 13-H ) :   0.9654 B( 10-C , 14-H ) :   0.9643 B( 10-C , 15-H ) :   0.9643

Dispersion correction           -0.025068199
FINAL SINGLE POINT ENERGY      -284.406385754603

DIPOLE MOMENT
-------------
                                X             Y             Z
Electronic contribution:      3.01830      -2.70965      -3.09595
Nuclear contribution   :     -2.17768       2.37118       2.44574
                        -----------------------------------------
Total Dipole Moment    :      0.84062      -0.33847      -0.65021
                        -----------------------------------------
Magnitude (a.u.)       :      1.11533
Magnitude (Debye)      :      2.83496

Rotational constants in cm-1:     0.215650     0.075183     0.066454
Rotational constants in MHz :  6465.033740  2253.919004  1992.232519

                             ****ORCA TERMINATED NORMALLY****
TOTAL RUN TIME: 0 days 0 hours 0 minutes 8 seconds 248 msec
