                         Program Version 5.0.0 -  RELEASE  -
|  1> !BLYP D3BJ RIJCOSX def2-TZVP def2/J TightSCF
|  2> *xyz 0 1
|  3> C          0.61188        1.65763       -4.50029
|  4> C          1.69499        1.54179       -5.57045
|  5> H          2.69733        1.73466       -5.18400
|  6> H          1.50666        2.27224       -6.35808
|  7> S          1.78029       -0.03313       -6.42874
|  8> F          2.56929        0.21366       -7.60736
|  9> O          0.41688       -0.46297       -6.61859
| 10> O          2.50513       -0.93326       -5.48257
| 11> H         -0.34424        1.45871       -4.93752
| 12> H          0.61845        2.64655       -4.09174
| 13> H          0.80247        0.94882       -3.72173
| 14> *
| 15> %MaxCore 64000
| 16>
| 17> %pal nprocs 4
| 18> end
| 19>
| 20> %scf
| 21>   MaxIter 150
| 22> end
| 23>
| 24>
| 25>                          ****END OF INPUT****

CARTESIAN COORDINATES (ANGSTROEM)
---------------------------------
  C      0.611880    1.657630   -4.500290
  C      1.694990    1.541790   -5.570450
  H      2.697330    1.734660   -5.184000
  H      1.506660    2.272240   -6.358080
  S      1.780290   -0.033130   -6.428740
  F      2.569290    0.213660   -7.607360
  O      0.416880   -0.462970   -6.618590
  O      2.505130   -0.933260   -5.482570
  H     -0.344240    1.458710   -4.937520
  H      0.618450    2.646550   -4.091740
  H      0.802470    0.948820   -3.721730

 Total Charge           Charge          ....    0
 Multiplicity           Mult            ....    1
 Number of Electrons    NEL             ....   58
 Basis Dimension        Dim             ....  222

ORBITAL ENERGIES
----------------

  NO   OCC          E(Eh)            E(eV)
   0   2.0000     -88.333451     -2403.6754
   1   2.0000     -24.399510      -663.9444
   2   2.0000     -18.781842      -511.0799
   3   2.0000     -18.762851      -510.5631
   4   2.0000      -9.961782      -271.0739
   5   2.0000      -9.920987      -269.9638
   6   2.0000      -7.864885      -214.0144
   7   2.0000      -5.897010      -160.4658
   8   2.0000      -5.890421      -160.2865
   9   2.0000      -5.890211      -160.2808
  10   2.0000      -1.271134       -34.5893
  11   2.0000      -1.003648       -27.3107
  12   2.0000      -0.903896       -24.5963
  13   2.0000      -0.740673       -20.1547
  14   2.0000      -0.662569       -18.0294
  15   2.0000      -0.605545       -16.4777
  16   2.0000      -0.518987       -14.1223
  17   2.0000      -0.516193       -14.0463
  18   2.0000      -0.490578       -13.3493
  19   2.0000      -0.439133       -11.9494
  20   2.0000      -0.422864       -11.5067
  21   2.0000      -0.384845       -10.4722
  22   2.0000      -0.379159       -10.3174
  23   2.0000      -0.359683        -9.7875
  24   2.0000      -0.342587        -9.3223
  25   2.0000      -0.328614        -8.9421
  26   2.0000      -0.285386        -7.7657
  27   2.0000      -0.266421        -7.2497
  28   2.0000      -0.249528        -6.7900
  29   0.0000      -0.009646        -0.2625
  30   0.0000       0.005772         0.1571
  31   0.0000       0.035783         0.9737
  32   0.0000       0.039588         1.0773
  33   0.0000       0.049454         1.3457

MULLIKEN ATOMIC CHARGES
-----------------------
   0 C :   -0.300806
   1 C :   -0.194299
   2 H :    0.125927
   3 H :    0.105149
   4 S :    0.782279
   5 F :   -0.078847
   6 O :   -0.373916
   7 O :   -0.432238
   8 H :    0.127999
   9 H :    0.112391
  10 H :    0.126361
Sum of atomic charges:    0.0000000

LOEWDIN ATOMIC CHARGES
----------------------
   0 C :   -0.295503
   1 C :   -0.397528
   2 H :    0.135808
   3 H :    0.129887
   4 S :    0.497840
   5 F :    0.110426
   6 O :   -0.242437
   7 O :   -0.309272
   8 H :    0.123713
   9 H :    0.122580
  10 H :    0.124487

  Mayer bond orders larger than 0.100000
B(  0-C ,  1-C ) :   0.9607 B(  0-C ,  8-H ) :   0.9673 B(  0-C ,  9-H ) :   0.9550
B(  0-C , 10-H ) :   0.9703 B(  1-C ,  2-H ) :   0.9357 B(  1-C ,  3-H ) :   0.9297
B(  1-C ,  4-S ) :   0.8989 B(  4-S ,  5-F ) :   1.1509 B(  4-S ,  6-O ) :   1.9319
B(  4-S ,  7-O ) :   1.8950

Dispersion correction           -0.019568230
FINAL SINGLE POINT ENERGY      -727.767964777802

DIPOLE MOMENT
-------------
                                X             Y             Z
Electronic contribution:      3.86783      -5.73056      -7.55680
Nuclear contribution   :     -3.66946       7.33549       7.42434
                        -----------------------------------------
Total Dipole Moment    :      0.19837       1.60493      -0.13246
                        -----------------------------------------
Magnitude (a.u.)       :      1.62256
Magnitude (Debye)      :      4.12422

Rotational constants in cm-1:     0.158379     0.080294     0.077843
Rotational constants in MHz :  4748.076444  2407.152850  2333.668303

                             ****ORCA TERMINATED NORMALLY****
TOTAL RUN TIME: 0 days 0 hours 0 minutes 7 seconds 25 msec
