                         Program Version 5.0.0 -  RELEASE  -
|  1> !BLYP D3BJ RIJCOSX def2-TZVP def2/J TightSCF
|  2> *xyz 0 1
|  3> C          1.96337       -1.74915       -1.89689
|  4> C          2.73849       -2.01517       -3.09711
|  5> C          4.04974       -2.15472       -3.15204
|  6> N          4.65821       -1.98629       -4.31866
|  7> N          4.76423       -2.45444       -2.05049
|  8> H          4.28736       -2.77626       -1.21750
|  9> H          5.75082       -2.65835       -2.12599
| 10> H          2.34518       -1.69027       -3.97145
| 11> H          4.10900       -1.59268       -5.07176
| 12> H          5.64910       -2.15646       -4.42724
| 13> C          2.08852       -0.30091       -1.41520
| 14> H          2.23127       -2.45162       -1.10264
| 15> H          0.93025       -1.97780       -2.15544
| 16> H          1.82118        0.36368       -2.21003
| 17> H          3.09792       -0.11068       -1.11551
| 18> H          1.43391       -0.14382       -0.58352
| 19> *
| 20> %MaxCore 64000
| 21>
| 22> %pal nprocs 4
| 23> end
| 24>
| 25> %scf
| 26>   MaxIter 150
| 27> end
| 28>
| 29>
| 30>                          ****END OF INPUT****

CARTESIAN COORDINATES (ANGSTROEM)
---------------------------------
  C      1.963370   -1.749150   -1.896890
  C      2.738490   -2.015170   -3.097110
  C      4.049740   -2.154720   -3.152040
  N      4.658210   -1.986290   -4.318660
  N      4.764230   -2.454440   -2.050490
  H      4.287360   -2.776260   -1.217500
  H      5.750820   -2.658350   -2.125990
  H      2.345180   -1.690270   -3.971450
  H      4.109000   -1.592680   -5.071760
  H      5.649100   -2.156460   -4.427240
  C      2.088520   -0.300910   -1.415200
  H      2.231270   -2.451620   -1.102640
  H      0.930250   -1.977800   -2.155440
  H      1.821180    0.363680   -2.210030
  H      3.097920   -0.110680   -1.115510
  H      1.433910   -0.143820   -0.583520

 Total Charge           Charge          ....    0
 Multiplicity           Mult            ....    1
 Number of Electrons    NEL             ....   48
 Basis Dimension        Dim             ....  246

ORBITAL ENERGIES
----------------

  NO   OCC          E(Eh)            E(eV)
   0   2.0000     -14.003733      -381.0609
   1   2.0000     -14.001144      -380.9905
   2   2.0000      -9.938863      -270.4502
   3   2.0000      -9.875254      -268.7193
   4   2.0000      -9.864496      -268.4266
   5   2.0000      -9.820314      -267.2243
   6   2.0000      -0.867557       -23.6074
   7   2.0000      -0.786196       -21.3935
   8   2.0000      -0.689684       -18.7673
   9   2.0000      -0.617180       -16.7943
  10   2.0000      -0.548362       -14.9217
  11   2.0000      -0.516214       -14.0469
  12   2.0000      -0.483938       -13.1686
  13   2.0000      -0.451618       -12.2892
  14   2.0000      -0.420529       -11.4432
  15   2.0000      -0.384408       -10.4603
  16   2.0000      -0.364534        -9.9195
  17   2.0000      -0.331913        -9.0318
  18   2.0000      -0.328300        -8.9335
  19   2.0000      -0.305432        -8.3112
  20   2.0000      -0.280316        -7.6278
  21   2.0000      -0.271911        -7.3991
  22   2.0000      -0.216349        -5.8871
  23   2.0000      -0.121475        -3.3055
  24   0.0000      -0.003931        -0.1070
  25   0.0000       0.027684         0.7533
  26   0.0000       0.037743         1.0270
  27   0.0000       0.054957         1.4955
  28   0.0000       0.062575         1.7028

MULLIKEN ATOMIC CHARGES
-----------------------
   0 C :   -0.176272
   1 C :   -0.261488
   2 C :    0.325619
   3 N :   -0.411791
   4 N :   -0.428079
   5 H :    0.217065
   6 H :    0.190347
   7 H :    0.031097
   8 H :    0.214567
   9 H :    0.191420
  10 C :   -0.247446
  11 H :    0.039429
  12 H :    0.072005
  13 H :    0.076961
  14 H :    0.089338
  15 H :    0.077228
Sum of atomic charges:   -0.0000000

LOEWDIN ATOMIC CHARGES
----------------------
   0 C :   -0.304405
   1 C :   -0.283492
   2 C :   -0.459591
   3 N :   -0.001340
   4 N :   -0.009466
   5 H :    0.170135
   6 H :    0.155368
   7 H :    0.117570
   8 H :    0.175023
   9 H :    0.155915
  10 C :   -0.296036
  11 H :    0.121093
  12 H :    0.135249
  13 H :    0.109611
  14 H :    0.110295
  15 H :    0.104072

  Mayer bond orders larger than 0.100000
B(  0-C ,  1-C ) :   1.0666 B(  0-C , 10-C ) :   0.9184 B(  0-C , 11-H ) :   0.9607
B(  0-C , 12-H ) :   0.9796 B(  1-C ,  2-C ) :   1.6555 B(  1-C ,  7-H ) :   0.9969
B(  2-C ,  3-N ) :   1.1484 B(  2-C ,  4-N ) :   1.1329 B(  3-N ,  8-H ) :   0.9239
B(  3-N ,  9-H ) :   0.9310 B(  4-N ,  5-H ) :   0.9232 B(  4-N ,  6-H ) :   0.9319
B( 10-C , 13-H ) :   0.9776 B( 10-C , 14-H ) :   0.9790 B( 10-C , 15-H ) :   0.9676

Dispersion correction           -0.026191687
FINAL SINGLE POINT ENERGY      -267.907883509176

DIPOLE MOMENT
-------------
                                X             Y             Z
Electronic contribution:      3.39641      -2.46354      -2.55893
Nuclear contribution   :     -2.31778       2.31977       2.35294
                        -----------------------------------------
Total Dipole Moment    :      1.07864      -0.14377      -0.20599
                        -----------------------------------------
Magnitude (a.u.)       :      1.10750
Magnitude (Debye)      :      2.81505

Rotational constants in cm-1:     0.219415     0.075373     0.066689
Rotational constants in MHz :  6577.897266  2259.621393  1999.290981

                             ****ORCA TERMINATED NORMALLY****
TOTAL RUN TIME: 0 days 0 hours 0 minutes 9 seconds 615 msec
