                         Program Version 5.0.0 -  RELEASE  -
|  1> !BLYP D3BJ RIJCOSX def2-TZVP def2/J TightSCF
|  2> *xyz 0 1
|  3> C          0.61188        1.65763       -4.50029
|  4> C          1.69499        1.54179       -5.57045
|  5> H          2.69733        1.73466       -5.18400
|  6> H          1.50666        2.27224       -6.35808
|  7> S          1.78029       -0.03313       -6.42874
|  8> O          2.56929        0.21366       -7.60736
|  9> F          0.41688       -0.46297       -6.61859
| 10> O          2.50513       -0.93326       -5.48257
| 11> H         -0.34424        1.45871       -4.93752
| 12> H          0.61845        2.64655       -4.09174
| 13> H          0.80247        0.94882       -3.72173
| 14> *
| 15> %MaxCore 64000
| 16>
| 17> %pal nprocs 4
| 18> end
| 19>
| 20> %scf
| 21>   MaxIter 150
| 22> end
| 23>
| 24>
| 25>                          ****END OF INPUT****

CARTESIAN COORDINATES (ANGSTROEM)
---------------------------------
  C      0.611880    1.657630   -4.500290
  C      1.694990    1.541790   -5.570450
  H      2.697330    1.734660   -5.184000
  H      1.506660    2.272240   -6.358080
  S      1.780290   -0.033130   -6.428740
  O      2.569290    0.213660   -7.607360
  F      0.416880   -0.462970   -6.618590
  O      2.505130   -0.933260   -5.482570
  H     -0.344240    1.458710   -4.937520
  H      0.618450    2.646550   -4.091740
  H      0.802470    0.948820   -3.721730

 Total Charge           Charge          ....    0
 Multiplicity           Mult            ....    1
 Number of Electrons    NEL             ....   58
 Basis Dimension        Dim             ....  222

ORBITAL ENERGIES
----------------

  NO   OCC          E(Eh)            E(eV)
   0   2.0000     -88.333289     -2403.6710
   1   2.0000     -24.399247      -663.9373
   2   2.0000     -18.781476      -511.0699
   3   2.0000     -18.763194      -510.5725
   4   2.0000      -9.961609      -271.0692
   5   2.0000      -9.926069      -270.1021
   6   2.0000      -7.864743      -214.0105
   7   2.0000      -5.897056      -160.4671
   8   2.0000      -5.890200      -160.2805
   9   2.0000      -5.889973      -160.2743
  10   2.0000      -1.269932       -34.5566
  11   2.0000      -1.004584       -27.3361
  12   2.0000      -0.903782       -24.5932
  13   2.0000      -0.744296       -20.2533
  14   2.0000      -0.659258       -17.9393
  15   2.0000      -0.610119       -16.6022
  16   2.0000      -0.529360       -14.4046
  17   2.0000      -0.514956       -14.0127
  18   2.0000      -0.482122       -13.1192
  19   2.0000      -0.440585       -11.9889
  20   2.0000      -0.418740       -11.3945
  21   2.0000      -0.395220       -10.7545
  22   2.0000      -0.382361       -10.4046
  23   2.0000      -0.363468        -9.8905
  24   2.0000      -0.348174        -9.4743
  25   2.0000      -0.327645        -8.9157
  26   2.0000      -0.284977        -7.7546
  27   2.0000      -0.266113        -7.2413
  28   2.0000      -0.249767        -6.7965
  29   0.0000      -0.019237        -0.5235
  30   0.0000       0.014995         0.4080
  31   0.0000       0.031050         0.8449
  32   0.0000       0.042264         1.1501
  33   0.0000       0.048106         1.3090

MULLIKEN ATOMIC CHARGES
-----------------------
   0 C :   -0.310683
   1 C :   -0.199817
   2 H :    0.141665
   3 H :    0.120124
   4 S :    0.782665
   5 O :   -0.367279
   6 F :   -0.084330
   7 O :   -0.432634
   8 H :    0.107168
   9 H :    0.115267
  10 H :    0.127854
Sum of atomic charges:   -0.0000000

LOEWDIN ATOMIC CHARGES
----------------------
   0 C :   -0.310285
   1 C :   -0.390941
   2 H :    0.146451
   3 H :    0.134905
   4 S :    0.499045
   5 O :   -0.240943
   6 F :    0.109550
   7 O :   -0.308740
   8 H :    0.115618
   9 H :    0.122981
  10 H :    0.122360

  Mayer bond orders larger than 0.100000
B(  0-C ,  1-C ) :   0.9440 B(  0-C ,  8-H ) :   0.9694 B(  0-C ,  9-H ) :   0.9593
B(  0-C , 10-H ) :   0.9683 B(  1-C ,  2-H ) :   0.9418 B(  1-C ,  3-H ) :   0.9364
B(  1-C ,  4-S ) :   0.8943 B(  4-S ,  5-O ) :   1.9660 B(  4-S ,  6-F ) :   1.1340
B(  4-S ,  7-O ) :   1.8901

Dispersion correction           -0.019446236
FINAL SINGLE POINT ENERGY      -727.767648396737

DIPOLE MOMENT
-------------
                                X             Y             Z
Electronic contribution:      0.29335      -6.84268      -5.89027
Nuclear contribution   :     -1.42658       8.04056       6.39401
                        -----------------------------------------
Total Dipole Moment    :     -1.13324       1.19788       0.50374
                        -----------------------------------------
Magnitude (a.u.)       :      1.72421
Magnitude (Debye)      :      4.38259

Rotational constants in cm-1:     0.153659     0.082363     0.078978
Rotational constants in MHz :  4606.587369  2469.179541  2367.702074

                             ****ORCA TERMINATED NORMALLY****
TOTAL RUN TIME: 0 days 0 hours 0 minutes 6 seconds 980 msec
