                         Program Version 5.0.0 -  RELEASE  -
|  1> !BLYP D3BJ RIJCOSX def2-TZVP def2/J TightSCF
|  2> *xyz 0 1
|  3> C          1.96337       -1.74915       -1.89689
|  4> N          2.73849       -2.01517       -3.09711
|  5> C          4.04974       -2.15472       -3.15204
|  6> C          4.65821       -1.98629       -4.31866
|  7> N          4.76423       -2.45444       -2.05049
|  8> H          4.28736       -2.77626       -1.21750
|  9> H          5.75082       -2.65835       -2.12599
| 10> H          2.34518       -1.69027       -3.97145
| 11> H          4.10900       -1.59268       -5.07176
| 12> H          5.64910       -2.15646       -4.42724
| 13> C          2.08852       -0.30091       -1.41520
| 14> H          2.23127       -2.45162       -1.10264
| 15> H          0.93025       -1.97780       -2.15544
| 16> H          1.82118        0.36368       -2.21003
| 17> H          3.09792       -0.11068       -1.11551
| 18> H          1.43391       -0.14382       -0.58352
| 19> *
| 20> %MaxCore 64000
| 21>
| 22> %pal nprocs 4
| 23> end
| 24>
| 25> %scf
| 26>   MaxIter 150
| 27> end
| 28>
| 29>
| 30>                          ****END OF INPUT****

CARTESIAN COORDINATES (ANGSTROEM)
---------------------------------
  C      1.963370   -1.749150   -1.896890
  N      2.738490   -2.015170   -3.097110
  C      4.049740   -2.154720   -3.152040
  C      4.658210   -1.986290   -4.318660
  N      4.764230   -2.454440   -2.050490
  H      4.287360   -2.776260   -1.217500
  H      5.750820   -2.658350   -2.125990
  H      2.345180   -1.690270   -3.971450
  H      4.109000   -1.592680   -5.071760
  H      5.649100   -2.156460   -4.427240
  C      2.088520   -0.300910   -1.415200
  H      2.231270   -2.451620   -1.102640
  H      0.930250   -1.977800   -2.155440
  H      1.821180    0.363680   -2.210030
  H      3.097920   -0.110680   -1.115510
  H      1.433910   -0.143820   -0.583520

 Total Charge           Charge          ....    0
 Multiplicity           Mult            ....    1
 Number of Electrons    NEL             ....   48
 Basis Dimension        Dim             ....  246

ORBITAL ENERGIES
----------------

  NO   OCC          E(Eh)            E(eV)
   0   2.0000     -14.002517      -381.0278
   1   2.0000     -14.002212      -381.0196
   2   2.0000      -9.941865      -270.5319
   3   2.0000      -9.940429      -270.4928
   4   2.0000      -9.891076      -269.1499
   5   2.0000      -9.814649      -267.0702
   6   2.0000      -0.876053       -23.8386
   7   2.0000      -0.797758       -21.7081
   8   2.0000      -0.691550       -18.8180
   9   2.0000      -0.625206       -17.0127
  10   2.0000      -0.561414       -15.2768
  11   2.0000      -0.536080       -14.5875
  12   2.0000      -0.477423       -12.9913
  13   2.0000      -0.440033       -11.9739
  14   2.0000      -0.426404       -11.6030
  15   2.0000      -0.386074       -10.5056
  16   2.0000      -0.378776       -10.3070
  17   2.0000      -0.350557        -9.5391
  18   2.0000      -0.333309        -9.0698
  19   2.0000      -0.326503        -8.8846
  20   2.0000      -0.312731        -8.5098
  21   2.0000      -0.308029        -8.3819
  22   2.0000      -0.207182        -5.6377
  23   2.0000      -0.125910        -3.4262
  24   0.0000      -0.000880        -0.0239
  25   0.0000       0.025828         0.7028
  26   0.0000       0.037352         1.0164
  27   0.0000       0.049067         1.3352
  28   0.0000       0.062353         1.6967

MULLIKEN ATOMIC CHARGES
-----------------------
   0 C :   -0.119177
   1 N :   -0.241172
   2 C :    0.372382
   3 C :   -0.496015
   4 N :   -0.435880
   5 H :    0.195484
   6 H :    0.213599
   7 H :    0.186257
   8 H :    0.055190
   9 H :    0.062462
  10 C :   -0.248053
  11 H :    0.077037
  12 H :    0.098107
  13 H :    0.086187
  14 H :    0.106987
  15 H :    0.086604
Sum of atomic charges:    0.0000000

LOEWDIN ATOMIC CHARGES
----------------------
   0 C :   -0.313056
   1 N :    0.129338
   2 C :   -0.466206
   3 C :   -0.336724
   4 N :   -0.007779
   5 H :    0.155416
   6 H :    0.170927
   7 H :    0.191435
   8 H :    0.094305
   9 H :    0.092199
  10 C :   -0.299497
  11 H :    0.121318
  12 H :    0.128464
  13 H :    0.112387
  14 H :    0.115605
  15 H :    0.111866

  Mayer bond orders larger than 0.100000
B(  0-C ,  1-N ) :   0.9881 B(  0-C , 10-C ) :   0.9261 B(  0-C , 11-H ) :   0.9693
B(  0-C , 12-H ) :   0.9742 B(  1-N ,  2-C ) :   1.2259 B(  1-N ,  7-H ) :   0.9275
B(  2-C ,  3-C ) :   1.5907 B(  2-C ,  4-N ) :   1.1247 B(  3-C ,  8-H ) :   1.0042
B(  3-C ,  9-H ) :   1.0034 B(  4-N ,  5-H ) :   0.9243 B(  4-N ,  6-H ) :   0.9295
B( 10-C , 13-H ) :   0.9712 B( 10-C , 14-H ) :   0.9743 B( 10-C , 15-H ) :   0.9624

Dispersion correction           -0.025905936
FINAL SINGLE POINT ENERGY      -267.905092152759

DIPOLE MOMENT
-------------
                                X             Y             Z
Electronic contribution:      1.42855      -2.36574      -1.20813
Nuclear contribution   :     -1.91052       2.32590       2.09379
                        -----------------------------------------
Total Dipole Moment    :     -0.48197      -0.03985       0.88566
                        -----------------------------------------
Magnitude (a.u.)       :      1.00910
Magnitude (Debye)      :      2.56494

Rotational constants in cm-1:     0.219448     0.077923     0.068804
Rotational constants in MHz :  6578.886179  2336.083179  2062.700476

                             ****ORCA TERMINATED NORMALLY****
TOTAL RUN TIME: 0 days 0 hours 0 minutes 8 seconds 751 msec
