                         Program Version 5.0.0 -  RELEASE  -
|  1> !BLYP D3BJ RIJCOSX def2-TZVP def2/J TightSCF
|  2> *xyz 0 1
|  3> C          0.61188        1.65763       -4.50029
|  4> C          1.69499        1.54179       -5.57045
|  5> H          2.69733        1.73466       -5.18400
|  6> H          1.50666        2.27224       -6.35808
|  7> S          1.78029       -0.03313       -6.42874
|  8> O          2.56929        0.21366       -7.60736
|  9> O          0.41688       -0.46297       -6.61859
| 10> F          2.50513       -0.93326       -5.48257
| 11> H         -0.34424        1.45871       -4.93752
| 12> H          0.61845        2.64655       -4.09174
| 13> H          0.80247        0.94882       -3.72173
| 14> *
| 15> %MaxCore 64000
| 16>
| 17> %pal nprocs 4
| 18> end
| 19>
| 20> %scf
| 21>   MaxIter 150
| 22> end
| 23>
| 24>
| 25>                          ****END OF INPUT****

CARTESIAN COORDINATES (ANGSTROEM)
---------------------------------
  C      0.611880    1.657630   -4.500290
  C      1.694990    1.541790   -5.570450
  H      2.697330    1.734660   -5.184000
  H      1.506660    2.272240   -6.358080
  S      1.780290   -0.033130   -6.428740
  O      2.569290    0.213660   -7.607360
  O      0.416880   -0.462970   -6.618590
  F      2.505130   -0.933260   -5.482570
  H     -0.344240    1.458710   -4.937520
  H      0.618450    2.646550   -4.091740
  H      0.802470    0.948820   -3.721730

 Total Charge           Charge          ....    0
 Multiplicity           Mult            ....    1
 Number of Electrons    NEL             ....   58
 Basis Dimension        Dim             ....  222

ORBITAL ENERGIES
----------------

  NO   OCC          E(Eh)            E(eV)
   0   2.0000     -88.330751     -2403.6019
   1   2.0000     -24.372191      -663.2010
   2   2.0000     -18.782088      -511.0866
   3   2.0000     -18.781119      -511.0602
   4   2.0000      -9.960690      -271.0441
   5   2.0000      -9.921298      -269.9722
   6   2.0000      -7.862306      -213.9442
   7   2.0000      -5.894615      -160.4006
   8   2.0000      -5.887925      -160.2186
   9   2.0000      -5.887525      -160.2077
  10   2.0000      -1.227597       -33.4046
  11   2.0000      -1.016058       -27.6483
  12   2.0000      -0.930925       -25.3318
  13   2.0000      -0.741064       -20.1654
  14   2.0000      -0.645231       -17.5576
  15   2.0000      -0.598255       -16.2794
  16   2.0000      -0.507029       -13.7970
  17   2.0000      -0.485661       -13.2155
  18   2.0000      -0.480691       -13.0803
  19   2.0000      -0.437845       -11.9144
  20   2.0000      -0.419708       -11.4208
  21   2.0000      -0.398561       -10.8454
  22   2.0000      -0.380320       -10.3490
  23   2.0000      -0.356523        -9.7015
  24   2.0000      -0.352536        -9.5930
  25   2.0000      -0.331428        -9.0186
  26   2.0000      -0.289420        -7.8755
  27   2.0000      -0.286577        -7.7981
  28   2.0000      -0.270611        -7.3637
  29   0.0000      -0.011939        -0.3249
  30   0.0000       0.014810         0.4030
  31   0.0000       0.031338         0.8528
  32   0.0000       0.046650         1.2694
  33   0.0000       0.053569         1.4577

MULLIKEN ATOMIC CHARGES
-----------------------
   0 C :   -0.293844
   1 C :   -0.215363
   2 H :    0.119591
   3 H :    0.135147
   4 S :    0.791950
   5 O :   -0.379916
   6 O :   -0.385048
   7 F :   -0.124185
   8 H :    0.133796
   9 H :    0.111508
  10 H :    0.106365
Sum of atomic charges:    0.0000000

LOEWDIN ATOMIC CHARGES
----------------------
   0 C :   -0.306949
   1 C :   -0.394306
   2 H :    0.132934
   3 H :    0.145581
   4 S :    0.508567
   5 O :   -0.246733
   6 O :   -0.246023
   7 F :    0.044076
   8 H :    0.123737
   9 H :    0.121380
  10 H :    0.117735

  Mayer bond orders larger than 0.100000
B(  0-C ,  1-C ) :   0.9468 B(  0-C ,  8-H ) :   0.9667 B(  0-C ,  9-H ) :   0.9572
B(  0-C , 10-H ) :   0.9704 B(  1-C ,  2-H ) :   0.9421 B(  1-C ,  3-H ) :   0.9403
B(  1-C ,  4-S ) :   0.8940 B(  4-S ,  5-O ) :   1.9612 B(  4-S ,  6-O ) :   1.9268
B(  4-S ,  7-F ) :   1.0951

Dispersion correction           -0.019503040
FINAL SINGLE POINT ENERGY      -727.790712172054

DIPOLE MOMENT
-------------
                                X             Y             Z
Electronic contribution:      3.77936      -7.65985      -3.98967
Nuclear contribution   :     -3.60260       8.53062       5.21025
                        -----------------------------------------
Total Dipole Moment    :      0.17675       0.87076       1.22057
                        -----------------------------------------
Magnitude (a.u.)       :      1.50972
Magnitude (Debye)      :      3.83741

Rotational constants in cm-1:     0.154011     0.080858     0.079602
Rotational constants in MHz :  4617.134198  2424.070332  2386.404775

                             ****ORCA TERMINATED NORMALLY****
TOTAL RUN TIME: 0 days 0 hours 0 minutes 6 seconds 995 msec
