                         Program Version 5.0.0 -  RELEASE  -
|  1> !BLYP D3BJ RIJCOSX def2-TZVP def2/J TightSCF
|  2> *xyz 0 1
|  3> C          1.96337       -1.74915       -1.89689
|  4> N          2.73849       -2.01517       -3.09711
|  5> C          4.04974       -2.15472       -3.15204
|  6> N          4.65821       -1.98629       -4.31866
|  7> C          4.76423       -2.45444       -2.05049
|  8> H          4.28736       -2.77626       -1.21750
|  9> H          5.75082       -2.65835       -2.12599
| 10> H          2.34518       -1.69027       -3.97145
| 11> H          4.10900       -1.59268       -5.07176
| 12> H          5.64910       -2.15646       -4.42724
| 13> C          2.08852       -0.30091       -1.41520
| 14> H          2.23127       -2.45162       -1.10264
| 15> H          0.93025       -1.97780       -2.15544
| 16> H          1.82118        0.36368       -2.21003
| 17> H          3.09792       -0.11068       -1.11551
| 18> H          1.43391       -0.14382       -0.58352
| 19> *
| 20> %MaxCore 64000
| 21>
| 22> %pal nprocs 4
| 23> end
| 24>
| 25> %scf
| 26>   MaxIter 150
| 27> end
| 28>
| 29>
| 30>                          ****END OF INPUT****

CARTESIAN COORDINATES (ANGSTROEM)
---------------------------------
  C      1.963370   -1.749150   -1.896890
  N      2.738490   -2.015170   -3.097110
  C      4.049740   -2.154720   -3.152040
  N      4.658210   -1.986290   -4.318660
  C      4.764230   -2.454440   -2.050490
  H      4.287360   -2.776260   -1.217500
  H      5.750820   -2.658350   -2.125990
  H      2.345180   -1.690270   -3.971450
  H      4.109000   -1.592680   -5.071760
  H      5.649100   -2.156460   -4.427240
  C      2.088520   -0.300910   -1.415200
  H      2.231270   -2.451620   -1.102640
  H      0.930250   -1.977800   -2.155440
  H      1.821180    0.363680   -2.210030
  H      3.097920   -0.110680   -1.115510
  H      1.433910   -0.143820   -0.583520

 Total Charge           Charge          ....    0
 Multiplicity           Mult            ....    1
 Number of Electrons    NEL             ....   48
 Basis Dimension        Dim             ....  246

ORBITAL ENERGIES
----------------

  NO   OCC          E(Eh)            E(eV)
   0   2.0000     -14.005881      -381.1194
   1   2.0000     -14.004094      -381.0708
   2   2.0000      -9.941569      -270.5238
   3   2.0000      -9.935473      -270.3580
   4   2.0000      -9.884424      -268.9689
   5   2.0000      -9.813728      -267.0451
   6   2.0000      -0.881454       -23.9856
   7   2.0000      -0.801188       -21.8014
   8   2.0000      -0.676004       -18.3950
   9   2.0000      -0.629280       -17.1236
  10   2.0000      -0.574189       -15.6245
  11   2.0000      -0.500521       -13.6199
  12   2.0000      -0.488003       -13.2792
  13   2.0000      -0.467435       -12.7196
  14   2.0000      -0.414068       -11.2674
  15   2.0000      -0.387119       -10.5340
  16   2.0000      -0.364228        -9.9111
  17   2.0000      -0.346733        -9.4351
  18   2.0000      -0.331816        -9.0292
  19   2.0000      -0.318695        -8.6721
  20   2.0000      -0.312177        -8.4948
  21   2.0000      -0.301388        -8.2012
  22   2.0000      -0.204941        -5.5767
  23   2.0000      -0.126625        -3.4456
  24   0.0000      -0.004366        -0.1188
  25   0.0000       0.027412         0.7459
  26   0.0000       0.042476         1.1558
  27   0.0000       0.049818         1.3556
  28   0.0000       0.067576         1.8388

MULLIKEN ATOMIC CHARGES
-----------------------
   0 C :   -0.070082
   1 N :   -0.247413
   2 C :    0.329043
   3 N :   -0.408128
   4 C :   -0.487626
   5 H :    0.066111
   6 H :    0.057223
   7 H :    0.153766
   8 H :    0.182690
   9 H :    0.220767
  10 C :   -0.274330
  11 H :    0.097468
  12 H :    0.089616
  13 H :    0.072013
  14 H :    0.129316
  15 H :    0.089566
Sum of atomic charges:   -0.0000000

LOEWDIN ATOMIC CHARGES
----------------------
   0 C :   -0.294146
   1 N :    0.127658
   2 C :   -0.474242
   3 N :    0.001801
   4 C :   -0.347118
   5 H :    0.094072
   6 H :    0.090266
   7 H :    0.172166
   8 H :    0.155549
   9 H :    0.173895
  10 C :   -0.299015
  11 H :    0.132135
  12 H :    0.125901
  13 H :    0.107755
  14 H :    0.120409
  15 H :    0.112915

  Mayer bond orders larger than 0.100000
B(  0-C ,  1-N ) :   0.9654 B(  0-C , 10-C ) :   0.9438 B(  0-C , 11-H ) :   0.9579
B(  0-C , 12-H ) :   0.9716 B(  1-N ,  2-C ) :   1.2101 B(  1-N ,  7-H ) :   0.9328
B(  2-C ,  3-N ) :   1.1407 B(  2-C ,  4-C ) :   1.6212 B(  3-N ,  8-H ) :   0.9294
B(  3-N ,  9-H ) :   0.9253 B(  4-C ,  5-H ) :   1.0043 B(  4-C ,  6-H ) :   0.9931
B( 10-C , 13-H ) :   0.9715 B( 10-C , 14-H ) :   0.9735 B( 10-C , 15-H ) :   0.9653

Dispersion correction           -0.026075669
FINAL SINGLE POINT ENERGY      -267.904020075908

DIPOLE MOMENT
-------------
                                X             Y             Z
Electronic contribution:      1.34233      -1.82856      -3.48933
Nuclear contribution   :     -1.88803       2.22658       2.57497
                        -----------------------------------------
Total Dipole Moment    :     -0.54570       0.39802      -0.91436
                        -----------------------------------------
Magnitude (a.u.)       :      1.13678
Magnitude (Debye)      :      2.88946

Rotational constants in cm-1:     0.226509     0.075782     0.067928
Rotational constants in MHz :  6790.555051  2271.890226  2036.439218

                             ****ORCA TERMINATED NORMALLY****
TOTAL RUN TIME: 0 days 0 hours 0 minutes 9 seconds 549 msec
