                         Program Version 5.0.0 -  RELEASE  -
|  1> !BLYP D3BJ RIJCOSX def2-TZVP def2/J TightSCF xyzfile
|  2>
|  3> *xyzfile 0 1 D1.xyz
|  4>
|  5> %MaxCore 64000
|  6>
|  7> %pal nprocs 18
|  8> end
|  9>
| 10> %scf
| 11>   MaxIter 150
| 12> end
| 13>
| 14>
| 15>                          ****END OF INPUT****

CARTESIAN COORDINATES (ANGSTROEM)
---------------------------------
  C      1.963365   -1.749150   -1.896887
  C      2.738490   -2.015170   -3.097113
  C      0.611877    1.657634   -4.500288
  C      1.694991    1.541794   -5.570447
  H      2.697326    1.734659   -5.183996
  H      1.506656    2.272239   -6.358076
  S      1.780287   -0.033128   -6.428739
  C      4.049736   -2.154717   -3.152044
  N      4.658206   -1.986293   -4.318655
  N      4.764231   -2.454435   -2.050491
  H      4.287363   -2.776259   -1.217496
  H      5.750825   -2.658351   -2.125988
  H      2.345176   -1.690274   -3.971447
  H      4.109004   -1.592677   -5.071760
  H      5.649095   -2.156462   -4.427237
  F      2.569287    0.213657   -7.607360
  O      0.416880   -0.462969   -6.618595
  C      2.088520   -0.300912   -1.415204
  H      2.231272   -2.451616   -1.102643
  H      0.930249   -1.977801   -2.155438
  C      0.680356    0.655418   -3.348038
  H     -0.356865    1.549231   -4.991128
  H      0.650228    2.675438   -4.096000
  C      1.968993    0.733582   -2.535654
  H      3.051356   -0.168602   -0.911868
  H      1.316501   -0.136231   -0.657252
  O      2.505129   -0.933263   -5.482570
  H      2.824195    0.624726   -3.208464
  H      2.058919    1.730331   -2.093112
  H      0.542252   -0.344731   -3.766662
  H     -0.174219    0.829692   -2.685182

 Total Charge           Charge          ....    0
 Multiplicity           Mult            ....    1
 Number of Electrons    NEL             ....  120
 Basis Dimension        Dim             ....  542

ORBITAL ENERGIES
----------------

  NO   OCC          E(Eh)            E(eV)
   0   2.0000     -88.342135     -2403.9117
   1   2.0000     -24.406611      -664.1377
   2   2.0000     -18.790321      -511.3106
   3   2.0000     -18.777858      -510.9715
   4   2.0000     -13.986152      -380.5826
   5   2.0000     -13.971210      -380.1759
   6   2.0000      -9.961768      -271.0735
   7   2.0000      -9.925234      -270.0793
   8   2.0000      -9.917087      -269.8577
   9   2.0000      -9.894799      -269.2512
  10   2.0000      -9.883680      -268.9486
  11   2.0000      -9.873206      -268.6636
  12   2.0000      -9.861986      -268.3583
  13   2.0000      -9.790319      -266.4081
  14   2.0000      -7.874066      -214.2642
  15   2.0000      -5.906240      -160.7170
  16   2.0000      -5.899688      -160.5387
  17   2.0000      -5.899196      -160.5253
  18   2.0000      -1.278676       -34.7945
  19   2.0000      -1.015160       -27.6239
  20   2.0000      -0.921633       -25.0789
  21   2.0000      -0.845867       -23.0172
  22   2.0000      -0.764847       -20.8126
  23   2.0000      -0.751759       -20.4564
  24   2.0000      -0.708300       -19.2738
  25   2.0000      -0.675577       -18.3834
  26   2.0000      -0.648035       -17.6339
  27   2.0000      -0.615974       -16.7615
  28   2.0000      -0.580235       -15.7890
  29   2.0000      -0.549523       -14.9533
  30   2.0000      -0.531575       -14.4649
  31   2.0000      -0.520207       -14.1556
  32   2.0000      -0.516213       -14.0469
  33   2.0000      -0.487701       -13.2710
  34   2.0000      -0.485016       -13.1980
  35   2.0000      -0.465943       -12.6790
  36   2.0000      -0.440511       -11.9869
  37   2.0000      -0.434948       -11.8355
  38   2.0000      -0.426708       -11.6113
  39   2.0000      -0.410207       -11.1623
  40   2.0000      -0.406477       -11.0608
  41   2.0000      -0.389293       -10.5932
  42   2.0000      -0.379540       -10.3278
  43   2.0000      -0.372275       -10.1301
  44   2.0000      -0.360823        -9.8185
  45   2.0000      -0.344576        -9.3764
  46   2.0000      -0.333546        -9.0763
  47   2.0000      -0.327420        -8.9095
  48   2.0000      -0.316955        -8.6248
  49   2.0000      -0.308091        -8.3836
  50   2.0000      -0.297646        -8.0994
  51   2.0000      -0.289127        -7.8676
  52   2.0000      -0.281917        -7.6714
  53   2.0000      -0.276232        -7.5167
  54   2.0000      -0.268559        -7.3079
  55   2.0000      -0.266352        -7.2478
  56   2.0000      -0.253677        -6.9029
  57   2.0000      -0.239702        -6.5226
  58   2.0000      -0.195385        -5.3167
  59   2.0000      -0.100800        -2.7429
  60   0.0000      -0.016037        -0.4364
  61   0.0000       0.000967         0.0263
  62   0.0000       0.013016         0.3542
  63   0.0000       0.028722         0.7816
  64   0.0000       0.032471         0.8836

MULLIKEN ATOMIC CHARGES
-----------------------
   0 C :   -0.260224
   1 C :   -0.248737
   2 C :   -0.115011
   3 C :   -0.242370
   4 H :    0.133979
   5 H :    0.123103
   6 S :    0.787004
   7 C :    0.238545
   8 N :   -0.411461
   9 N :   -0.425906
  10 H :    0.211429
  11 H :    0.183373
  12 H :    0.142103
  13 H :    0.218007
  14 H :    0.174721
  15 F :   -0.082240
  16 O :   -0.363177
  17 C :   -0.060105
  18 H :    0.047370
  19 H :    0.077557
  20 C :   -0.224052
  21 H :    0.105322
  22 H :    0.089899
  23 C :   -0.130304
  24 H :    0.060026
  25 H :    0.043454
  26 O :   -0.432566
  27 H :    0.098941
  28 H :    0.057379
  29 H :    0.130974
  30 H :    0.072970
Sum of atomic charges:    0.0000000

LOEWDIN ATOMIC CHARGES
----------------------
   0 C :   -0.289377
   1 C :   -0.281585
   2 C :   -0.269769
   3 C :   -0.370614
   4 H :    0.137986
   5 H :    0.134672
   6 S :    0.518163
   7 C :   -0.466235
   8 N :   -0.010694
   9 N :   -0.016464
  10 H :    0.167281
  11 H :    0.151244
  12 H :    0.117743
  13 H :    0.155927
  14 H :    0.147789
  15 F :    0.110940
  16 O :   -0.229486
  17 C :   -0.254933
  18 H :    0.122507
  19 H :    0.136174
  20 C :   -0.258838
  21 H :    0.142446
  22 H :    0.143624
  23 C :   -0.263902
  24 H :    0.129824
  25 H :    0.122475
  26 O :   -0.268014
  27 H :    0.135644
  28 H :    0.127137
  29 H :    0.142405
  30 H :    0.135929

  Mayer bond orders larger than 0.100000
B(  0-C ,  1-C ) :   1.0234 B(  0-C , 17-C ) :   0.9319 B(  0-C , 18-H ) :   0.9677
B(  0-C , 19-H ) :   0.9831 B(  1-C ,  7-C ) :   1.6417 B(  1-C , 12-H ) :   0.9955
B(  2-C ,  3-C ) :   0.9597 B(  2-C , 20-C ) :   0.9722 B(  2-C , 21-H ) :   0.9587
B(  2-C , 22-H ) :   0.9413 B(  3-C ,  4-H ) :   0.9355 B(  3-C ,  5-H ) :   0.9347
B(  3-C ,  6-S ) :   0.9070 B(  6-S , 15-F ) :   1.1534 B(  6-S , 16-O ) :   1.9474
B(  6-S , 26-O ) :   1.7482 B(  7-C ,  8-N ) :   1.1863 B(  7-C ,  9-N ) :   1.1360
B(  8-N , 13-H ) :   0.8804 B(  8-N , 14-H ) :   0.9361 B(  9-N , 10-H ) :   0.9240
B(  9-N , 11-H ) :   0.9340 B( 17-C , 23-C ) :   0.9921 B( 17-C , 24-H ) :   0.9522
B( 17-C , 25-H ) :   0.9543 B( 20-C , 23-C ) :   0.9360 B( 20-C , 29-H ) :   0.9713
B( 20-C , 30-H ) :   0.9600 B( 23-C , 27-H ) :   0.9680 B( 23-C , 28-H ) :   0.9566

Dispersion correction           -0.076237429
FINAL SINGLE POINT ENERGY     -1073.086716188066

DIPOLE MOMENT
-------------
                                X             Y             Z
Electronic contribution:      0.83734      -1.12624     -23.58452
Nuclear contribution   :      0.18720       2.58739      22.98820
                        -----------------------------------------
Total Dipole Moment    :      1.02454       1.46116      -0.59632
                        -----------------------------------------
Magnitude (a.u.)       :      1.88155
Magnitude (Debye)      :      4.78253

Rotational constants in cm-1:     0.028798     0.014448     0.010940
Rotational constants in MHz :   863.355869   433.126694   327.985023

                             ****ORCA TERMINATED NORMALLY****
TOTAL RUN TIME: 0 days 0 hours 0 minutes 25 seconds 474 msec
