                         Program Version 5.0.0 -  RELEASE  -
|  1> !BLYP D3BJ RIJCOSX def2-TZVP def2/J TightSCF xyzfile
|  2>
|  3> *xyzfile 0 1 D2.xyz
|  4>
|  5> %MaxCore 64000
|  6>
|  7> %pal nprocs 18
|  8> end
|  9>
| 10> %scf
| 11>   MaxIter 150
| 12> end
| 13>
| 14>
| 15>                          ****END OF INPUT****

CARTESIAN COORDINATES (ANGSTROEM)
---------------------------------
  C      1.963365   -1.749150   -1.896887
  N      2.738490   -2.015170   -3.097113
  C      0.611877    1.657634   -4.500288
  C      1.694991    1.541794   -5.570447
  H      2.697326    1.734659   -5.183996
  H      1.506656    2.272239   -6.358076
  S      1.780287   -0.033128   -6.428739
  C      4.049736   -2.154717   -3.152044
  C      4.658206   -1.986293   -4.318655
  N      4.764231   -2.454435   -2.050491
  H      4.287363   -2.776259   -1.217496
  H      5.750825   -2.658351   -2.125988
  H      2.345176   -1.690274   -3.971447
  H      4.109004   -1.592677   -5.071760
  H      5.649095   -2.156462   -4.427237
  F      2.569287    0.213657   -7.607360
  O      0.416880   -0.462969   -6.618595
  C      2.088520   -0.300912   -1.415204
  H      2.231272   -2.451616   -1.102643
  H      0.930249   -1.977801   -2.155438
  C      0.680356    0.655418   -3.348038
  H     -0.356865    1.549231   -4.991128
  H      0.650228    2.675438   -4.096000
  C      1.968993    0.733582   -2.535654
  H      3.051356   -0.168602   -0.911868
  H      1.316501   -0.136231   -0.657252
  O      2.505129   -0.933263   -5.482570
  H      2.824195    0.624726   -3.208464
  H      2.058919    1.730331   -2.093112
  H      0.542252   -0.344731   -3.766662
  H     -0.174219    0.829692   -2.685182

 Total Charge           Charge          ....    0
 Multiplicity           Mult            ....    1
 Number of Electrons    NEL             ....  120
 Basis Dimension        Dim             ....  542

ORBITAL ENERGIES
----------------

  NO   OCC          E(Eh)            E(eV)
   0   2.0000     -88.345631     -2404.0068
   1   2.0000     -24.408999      -664.2026
   2   2.0000     -18.792606      -511.3728
   3   2.0000     -18.778087      -510.9777
   4   2.0000     -13.983964      -380.5230
   5   2.0000     -13.970995      -380.1701
   6   2.0000      -9.965593      -271.1776
   7   2.0000      -9.933511      -270.3046
   8   2.0000      -9.924807      -270.0677
   9   2.0000      -9.917621      -269.8722
  10   2.0000      -9.909156      -269.6418
  11   2.0000      -9.899618      -269.3823
  12   2.0000      -9.894812      -269.2515
  13   2.0000      -9.785227      -266.2696
  14   2.0000      -7.877325      -214.3529
  15   2.0000      -5.909251      -160.7989
  16   2.0000      -5.903119      -160.6320
  17   2.0000      -5.902550      -160.6166
  18   2.0000      -1.280484       -34.8437
  19   2.0000      -1.017445       -27.6861
  20   2.0000      -0.923118       -25.1193
  21   2.0000      -0.853759       -23.2320
  22   2.0000      -0.778906       -21.1951
  23   2.0000      -0.758610       -20.6428
  24   2.0000      -0.712657       -19.3924
  25   2.0000      -0.682176       -18.5630
  26   2.0000      -0.648097       -17.6356
  27   2.0000      -0.622564       -16.9408
  28   2.0000      -0.587443       -15.9851
  29   2.0000      -0.557868       -15.1804
  30   2.0000      -0.535303       -14.5663
  31   2.0000      -0.526412       -14.3244
  32   2.0000      -0.519191       -14.1279
  33   2.0000      -0.501387       -13.6434
  34   2.0000      -0.494175       -13.4472
  35   2.0000      -0.458102       -12.4656
  36   2.0000      -0.443836       -12.0774
  37   2.0000      -0.442465       -12.0401
  38   2.0000      -0.421143       -11.4599
  39   2.0000      -0.416527       -11.3343
  40   2.0000      -0.410937       -11.1822
  41   2.0000      -0.403012       -10.9665
  42   2.0000      -0.386403       -10.5146
  43   2.0000      -0.380048       -10.3416
  44   2.0000      -0.365027        -9.9329
  45   2.0000      -0.348366        -9.4795
  46   2.0000      -0.336923        -9.1681
  47   2.0000      -0.334435        -9.1004
  48   2.0000      -0.323910        -8.8140
  49   2.0000      -0.312200        -8.4954
  50   2.0000      -0.308134        -8.3847
  51   2.0000      -0.304488        -8.2855
  52   2.0000      -0.296632        -8.0718
  53   2.0000      -0.286541        -7.7972
  54   2.0000      -0.282732        -7.6935
  55   2.0000      -0.277097        -7.5402
  56   2.0000      -0.275999        -7.5103
  57   2.0000      -0.253041        -6.8856
  58   2.0000      -0.185989        -5.0610
  59   2.0000      -0.104078        -2.8321
  60   0.0000      -0.019767        -0.5379
  61   0.0000      -0.003177        -0.0865
  62   0.0000       0.013818         0.3760
  63   0.0000       0.024597         0.6693
  64   0.0000       0.031268         0.8509

MULLIKEN ATOMIC CHARGES
-----------------------
   0 C :   -0.205584
   1 N :   -0.207831
   2 C :   -0.114624
   3 C :   -0.249721
   4 H :    0.142280
   5 H :    0.125148
   6 S :    0.802675
   7 C :    0.321306
   8 C :   -0.520403
   9 N :   -0.444101
  10 H :    0.189932
  11 H :    0.207209
  12 H :    0.216270
  13 H :    0.105744
  14 H :    0.049944
  15 F :   -0.077347
  16 O :   -0.370117
  17 C :   -0.041446
  18 H :    0.084354
  19 H :    0.110592
  20 C :   -0.216111
  21 H :    0.108180
  22 H :    0.094190
  23 C :   -0.209127
  24 H :    0.077045
  25 H :    0.053717
  26 O :   -0.428572
  27 H :    0.128154
  28 H :    0.069694
  29 H :    0.120698
  30 H :    0.077850
Sum of atomic charges:   -0.0000000

LOEWDIN ATOMIC CHARGES
----------------------
   0 C :   -0.298646
   1 N :    0.134893
   2 C :   -0.268300
   3 C :   -0.369558
   4 H :    0.140118
   5 H :    0.135529
   6 S :    0.524055
   7 C :   -0.470643
   8 C :   -0.354134
   9 N :   -0.014925
  10 H :    0.151917
  11 H :    0.166974
  12 H :    0.172292
  13 H :    0.092526
  14 H :    0.086027
  15 F :    0.118567
  16 O :   -0.233952
  17 C :   -0.264594
  18 H :    0.122402
  19 H :    0.129625
  20 C :   -0.262945
  21 H :    0.143485
  22 H :    0.144846
  23 C :   -0.265661
  24 H :    0.133393
  25 H :    0.128399
  26 O :   -0.266419
  27 H :    0.140131
  28 H :    0.131715
  29 H :    0.136349
  30 H :    0.136530

  Mayer bond orders larger than 0.100000
B(  0-C ,  1-N ) :   1.0049 B(  0-C , 17-C ) :   0.8993 B(  0-C , 18-H ) :   0.9777
B(  0-C , 19-H ) :   0.9820 B(  1-N ,  7-C ) :   1.2399 B(  1-N , 12-H ) :   0.8910
B(  2-C ,  3-C ) :   0.9589 B(  2-C , 20-C ) :   0.9758 B(  2-C , 21-H ) :   0.9583
B(  2-C , 22-H ) :   0.9430 B(  3-C ,  4-H ) :   0.9357 B(  3-C ,  5-H ) :   0.9359
B(  3-C ,  6-S ) :   0.9071 B(  6-S , 15-F ) :   1.1662 B(  6-S , 16-O ) :   1.9400
B(  6-S , 26-O ) :   1.7446 B(  7-C ,  8-C ) :   1.6037 B(  7-C ,  9-N ) :   1.1086
B(  8-C , 13-H ) :   0.9813 B(  8-C , 14-H ) :   0.9947 B(  9-N , 10-H ) :   0.9244
B(  9-N , 11-H ) :   0.9327 B( 17-C , 23-C ) :   0.9763 B( 17-C , 24-H ) :   0.9519
B( 17-C , 25-H ) :   0.9512 B( 20-C , 23-C ) :   0.9412 B( 20-C , 29-H ) :   0.9687
B( 20-C , 30-H ) :   0.9605 B( 23-C , 27-H ) :   0.9620 B( 23-C , 28-H ) :   0.9566

Dispersion correction           -0.075742194
FINAL SINGLE POINT ENERGY     -1073.085001132966

DIPOLE MOMENT
-------------
                                X             Y             Z
Electronic contribution:     -0.85206      -0.92829     -22.52935
Nuclear contribution   :      0.43347       2.59110      22.83150
                        -----------------------------------------
Total Dipole Moment    :     -0.41859       1.66281       0.30215
                        -----------------------------------------
Magnitude (a.u.)       :      1.74111
Magnitude (Debye)      :      4.42554

Rotational constants in cm-1:     0.029257     0.014415     0.010996
Rotational constants in MHz :   877.098782   432.159206   329.643335

                             ****ORCA TERMINATED NORMALLY****
TOTAL RUN TIME: 0 days 0 hours 0 minutes 23 seconds 892 msec
