                         Program Version 5.0.0 -  RELEASE  -
|  1> !BLYP D3BJ RIJCOSX def2-TZVP def2/J TightSCF xyzfile
|  2>
|  3> *xyzfile 0 1 D3.xyz
|  4>
|  5> %MaxCore 64000
|  6>
|  7> %pal nprocs 18
|  8> end
|  9>
| 10> %scf
| 11>   MaxIter 150
| 12> end
| 13>
| 14>
| 15>                          ****END OF INPUT****

CARTESIAN COORDINATES (ANGSTROEM)
---------------------------------
  C      1.963365   -1.749150   -1.896887
  N      2.738490   -2.015170   -3.097113
  C      0.611877    1.657634   -4.500288
  C      1.694991    1.541794   -5.570447
  H      2.697326    1.734659   -5.183996
  H      1.506656    2.272239   -6.358076
  S      1.780287   -0.033128   -6.428739
  C      4.049736   -2.154717   -3.152044
  N      4.658206   -1.986293   -4.318655
  C      4.764231   -2.454435   -2.050491
  H      4.287363   -2.776259   -1.217496
  H      5.750825   -2.658351   -2.125988
  H      2.345176   -1.690274   -3.971447
  H      4.109004   -1.592677   -5.071760
  H      5.649095   -2.156462   -4.427237
  F      2.569287    0.213657   -7.607360
  O      0.416880   -0.462969   -6.618595
  C      2.088520   -0.300912   -1.415204
  H      2.231272   -2.451616   -1.102643
  H      0.930249   -1.977801   -2.155438
  C      0.680356    0.655418   -3.348038
  H     -0.356865    1.549231   -4.991128
  H      0.650228    2.675438   -4.096000
  C      1.968993    0.733582   -2.535654
  H      3.051356   -0.168602   -0.911868
  H      1.316501   -0.136231   -0.657252
  O      2.505129   -0.933263   -5.482570
  H      2.824195    0.624726   -3.208464
  H      2.058919    1.730331   -2.093112
  H      0.542252   -0.344731   -3.766662
  H     -0.174219    0.829692   -2.685182

 Total Charge           Charge          ....    0
 Multiplicity           Mult            ....    1
 Number of Electrons    NEL             ....  120
 Basis Dimension        Dim             ....  542

ORBITAL ENERGIES
----------------

  NO   OCC          E(Eh)            E(eV)
   0   2.0000     -88.362106     -2404.4551
   1   2.0000     -24.423721      -664.6032
   2   2.0000     -18.807356      -511.7742
   3   2.0000     -18.799776      -511.5679
   4   2.0000     -13.971997      -380.1974
   5   2.0000     -13.970531      -380.1575
   6   2.0000      -9.976674      -271.4791
   7   2.0000      -9.939884      -270.4780
   8   2.0000      -9.918218      -269.8884
   9   2.0000      -9.918161      -269.8869
  10   2.0000      -9.912289      -269.7271
  11   2.0000      -9.900464      -269.4053
  12   2.0000      -9.889442      -269.1054
  13   2.0000      -9.792958      -266.4799
  14   2.0000      -7.893743      -214.7997
  15   2.0000      -5.925786      -161.2488
  16   2.0000      -5.919661      -161.0822
  17   2.0000      -5.918771      -161.0579
  18   2.0000      -1.295406       -35.2498
  19   2.0000      -1.033829       -28.1319
  20   2.0000      -0.941994       -25.6330
  21   2.0000      -0.854371       -23.2486
  22   2.0000      -0.776806       -21.1380
  23   2.0000      -0.766429       -20.8556
  24   2.0000      -0.716560       -19.4986
  25   2.0000      -0.683940       -18.6110
  26   2.0000      -0.650402       -17.6983
  27   2.0000      -0.614552       -16.7228
  28   2.0000      -0.604688       -16.4544
  29   2.0000      -0.569867       -15.5069
  30   2.0000      -0.543846       -14.7988
  31   2.0000      -0.535768       -14.5790
  32   2.0000      -0.524223       -14.2648
  33   2.0000      -0.507884       -13.8202
  34   2.0000      -0.478111       -13.0100
  35   2.0000      -0.464872       -12.6498
  36   2.0000      -0.458148       -12.4668
  37   2.0000      -0.450701       -12.2642
  38   2.0000      -0.438649       -11.9362
  39   2.0000      -0.423253       -11.5173
  40   2.0000      -0.406663       -11.0659
  41   2.0000      -0.402109       -10.9420
  42   2.0000      -0.387320       -10.5395
  43   2.0000      -0.374807       -10.1990
  44   2.0000      -0.371388       -10.1060
  45   2.0000      -0.361229        -9.8295
  46   2.0000      -0.340741        -9.2720
  47   2.0000      -0.337014        -9.1706
  48   2.0000      -0.320857        -8.7310
  49   2.0000      -0.317133        -8.6296
  50   2.0000      -0.314296        -8.5524
  51   2.0000      -0.302895        -8.2422
  52   2.0000      -0.300787        -8.1848
  53   2.0000      -0.294012        -8.0005
  54   2.0000      -0.284460        -7.7406
  55   2.0000      -0.283887        -7.7250
  56   2.0000      -0.281833        -7.6691
  57   2.0000      -0.271718        -7.3938
  58   2.0000      -0.178948        -4.8694
  59   2.0000      -0.105191        -2.8624
  60   0.0000      -0.033693        -0.9168
  61   0.0000      -0.011455        -0.3117
  62   0.0000       0.011788         0.3208
  63   0.0000       0.018830         0.5124
  64   0.0000       0.023147         0.6299

MULLIKEN ATOMIC CHARGES
-----------------------
   0 C :   -0.151669
   1 N :   -0.222462
   2 C :   -0.115762
   3 C :   -0.250017
   4 H :    0.142864
   5 H :    0.130970
   6 S :    0.810376
   7 C :    0.296758
   8 N :   -0.422070
   9 C :   -0.504100
  10 H :    0.059665
  11 H :    0.049539
  12 H :    0.206019
  13 H :    0.209626
  14 H :    0.200704
  15 F :   -0.075521
  16 O :   -0.358538
  17 C :   -0.055943
  18 H :    0.099989
  19 H :    0.102538
  20 C :   -0.217491
  21 H :    0.110466
  22 H :    0.097804
  23 C :   -0.210768
  24 H :    0.093104
  25 H :    0.059293
  26 O :   -0.464343
  27 H :    0.106204
  28 H :    0.070405
  29 H :    0.120303
  30 H :    0.082057
Sum of atomic charges:    0.0000000

LOEWDIN ATOMIC CHARGES
----------------------
   0 C :   -0.278998
   1 N :    0.133543
   2 C :   -0.267714
   3 C :   -0.367996
   4 H :    0.140159
   5 H :    0.137395
   6 S :    0.528323
   7 C :   -0.473984
   8 N :   -0.008056
   9 C :   -0.365206
  10 H :    0.091043
  11 H :    0.086873
  12 H :    0.159953
  13 H :    0.143477
  14 H :    0.164456
  15 F :    0.119105
  16 O :   -0.224052
  17 C :   -0.261006
  18 H :    0.133046
  19 H :    0.126789
  20 C :   -0.263072
  21 H :    0.143834
  22 H :    0.146372
  23 C :   -0.266392
  24 H :    0.140050
  25 H :    0.129901
  26 O :   -0.288735
  27 H :    0.135193
  28 H :    0.131766
  29 H :    0.135763
  30 H :    0.138169

  Mayer bond orders larger than 0.100000
B(  0-C ,  1-N ) :   0.9884 B(  0-C , 17-C ) :   0.9328 B(  0-C , 18-H ) :   0.9634
B(  0-C , 19-H ) :   0.9796 B(  1-N ,  7-C ) :   1.2230 B(  1-N , 12-H ) :   0.8949
B(  2-C ,  3-C ) :   0.9555 B(  2-C , 20-C ) :   0.9728 B(  2-C , 21-H ) :   0.9589
B(  2-C , 22-H ) :   0.9414 B(  3-C ,  4-H ) :   0.9338 B(  3-C ,  5-H ) :   0.9355
B(  3-C ,  6-S ) :   0.9095 B(  6-S , 15-F ) :   1.1683 B(  6-S , 16-O ) :   1.9531
B(  6-S , 26-O ) :   1.7082 B(  7-C ,  8-N ) :   1.1606 B(  7-C ,  9-C ) :   1.6041
B(  8-N , 13-H ) :   0.8888 B(  8-N , 14-H ) :   0.9324 B(  9-C , 10-H ) :   0.9968
B(  9-C , 11-H ) :   0.9917 B( 17-C , 23-C ) :   0.9830 B( 17-C , 24-H ) :   0.9463
B( 17-C , 25-H ) :   0.9592 B( 20-C , 23-C ) :   0.9365 B( 20-C , 29-H ) :   0.9717
B( 20-C , 30-H ) :   0.9620 B( 23-C , 27-H ) :   0.9645 B( 23-C , 28-H ) :   0.9563

Dispersion correction           -0.075647685
FINAL SINGLE POINT ENERGY     -1073.095915844131

DIPOLE MOMENT
-------------
                                X             Y             Z
Electronic contribution:     -1.10179      -0.31709     -24.59765
Nuclear contribution   :      0.44707       2.53104      23.12246
                        -----------------------------------------
Total Dipole Moment    :     -0.65473       2.21395      -1.47518
                        -----------------------------------------
Magnitude (a.u.)       :      2.73978
Magnitude (Debye)      :      6.96398

Rotational constants in cm-1:     0.028906     0.014696     0.011110
Rotational constants in MHz :   866.591909   440.585554   333.081943

                             ****ORCA TERMINATED NORMALLY****
TOTAL RUN TIME: 0 days 0 hours 0 minutes 24 seconds 665 msec
