                         Program Version 5.0.0 -  RELEASE  -
|  1> !BLYP D3BJ RIJCOSX def2-TZVP def2/J TightSCF xyzfile
|  2>
|  3> *xyzfile 0 1 D5.xyz
|  4>
|  5> %MaxCore 64000
|  6>
|  7> %pal nprocs 18
|  8> end
|  9>
| 10> %scf
| 11>   MaxIter 150
| 12> end
| 13>
| 14>
| 15>                          ****END OF INPUT****

CARTESIAN COORDINATES (ANGSTROEM)
---------------------------------
  C      1.963365   -1.749150   -1.896887
  N      2.738490   -2.015170   -3.097113
  C      0.611877    1.657634   -4.500288
  C      1.694991    1.541794   -5.570447
  H      2.697326    1.734659   -5.183996
  H      1.506656    2.272239   -6.358076
  S      1.780287   -0.033128   -6.428739
  C      4.049736   -2.154717   -3.152044
  C      4.658206   -1.986293   -4.318655
  N      4.764231   -2.454435   -2.050491
  H      4.287363   -2.776259   -1.217496
  H      5.750825   -2.658351   -2.125988
  H      2.345176   -1.690274   -3.971447
  H      4.109004   -1.592677   -5.071760
  H      5.649095   -2.156462   -4.427237
  O      2.569287    0.213657   -7.607360
  F      0.416880   -0.462969   -6.618595
  C      2.088520   -0.300912   -1.415204
  H      2.231272   -2.451616   -1.102643
  H      0.930249   -1.977801   -2.155438
  C      0.680356    0.655418   -3.348038
  H     -0.356865    1.549231   -4.991128
  H      0.650228    2.675438   -4.096000
  C      1.968993    0.733582   -2.535654
  H      3.051356   -0.168602   -0.911868
  H      1.316501   -0.136231   -0.657252
  O      2.505129   -0.933263   -5.482570
  H      2.824195    0.624726   -3.208464
  H      2.058919    1.730331   -2.093112
  H      0.542252   -0.344731   -3.766662
  H     -0.174219    0.829692   -2.685182

 Total Charge           Charge          ....    0
 Multiplicity           Mult            ....    1
 Number of Electrons    NEL             ....  120
 Basis Dimension        Dim             ....  542

ORBITAL ENERGIES
----------------

  NO   OCC          E(Eh)            E(eV)
   0   2.0000     -88.344463     -2403.9751
   1   2.0000     -24.408470      -664.1882
   2   2.0000     -18.791534      -511.3436
   3   2.0000     -18.779188      -511.0077
   4   2.0000     -13.984141      -380.5278
   5   2.0000     -13.971014      -380.1706
   6   2.0000      -9.964839      -271.1570
   7   2.0000      -9.937402      -270.4105
   8   2.0000      -9.927319      -270.1361
   9   2.0000      -9.917457      -269.8677
  10   2.0000      -9.916739      -269.8482
  11   2.0000      -9.903718      -269.4939
  12   2.0000      -9.897674      -269.3294
  13   2.0000      -9.785482      -266.2765
  14   2.0000      -7.876272      -214.3243
  15   2.0000      -5.908596      -160.7811
  16   2.0000      -5.901922      -160.5995
  17   2.0000      -5.901262      -160.5815
  18   2.0000      -1.279383       -34.8138
  19   2.0000      -1.017407       -27.6851
  20   2.0000      -0.923025       -25.1168
  21   2.0000      -0.854250       -23.2453
  22   2.0000      -0.779613       -21.2144
  23   2.0000      -0.763169       -20.7669
  24   2.0000      -0.714448       -19.4411
  25   2.0000      -0.681036       -18.5319
  26   2.0000      -0.650200       -17.6928
  27   2.0000      -0.625644       -17.0246
  28   2.0000      -0.588799       -16.0220
  29   2.0000      -0.560347       -15.2478
  30   2.0000      -0.536158       -14.5896
  31   2.0000      -0.533645       -14.5212
  32   2.0000      -0.521247       -14.1839
  33   2.0000      -0.506729       -13.7888
  34   2.0000      -0.486528       -13.2391
  35   2.0000      -0.459145       -12.4940
  36   2.0000      -0.445163       -12.1135
  37   2.0000      -0.439333       -11.9549
  38   2.0000      -0.422093       -11.4857
  39   2.0000      -0.418765       -11.3952
  40   2.0000      -0.412482       -11.2242
  41   2.0000      -0.405029       -11.0214
  42   2.0000      -0.390365       -10.6224
  43   2.0000      -0.380072       -10.3423
  44   2.0000      -0.372107       -10.1255
  45   2.0000      -0.345898        -9.4124
  46   2.0000      -0.345262        -9.3951
  47   2.0000      -0.338421        -9.2089
  48   2.0000      -0.330375        -8.9900
  49   2.0000      -0.314236        -8.5508
  50   2.0000      -0.311626        -8.4798
  51   2.0000      -0.302164        -8.2223
  52   2.0000      -0.292744        -7.9660
  53   2.0000      -0.286518        -7.7966
  54   2.0000      -0.283795        -7.7224
  55   2.0000      -0.281304        -7.6547
  56   2.0000      -0.273277        -7.4362
  57   2.0000      -0.260049        -7.0763
  58   2.0000      -0.186660        -5.0793
  59   2.0000      -0.104014        -2.8304
  60   0.0000      -0.025078        -0.6824
  61   0.0000       0.002392         0.0651
  62   0.0000       0.012056         0.3281
  63   0.0000       0.019971         0.5434
  64   0.0000       0.024978         0.6797

MULLIKEN ATOMIC CHARGES
-----------------------
   0 C :   -0.200693
   1 N :   -0.207914
   2 C :   -0.153040
   3 C :   -0.240243
   4 H :    0.154724
   5 H :    0.136102
   6 S :    0.805108
   7 C :    0.322544
   8 C :   -0.533254
   9 N :   -0.444959
  10 H :    0.189143
  11 H :    0.207970
  12 H :    0.208067
  13 H :    0.130667
  14 H :    0.051445
  15 O :   -0.364700
  16 F :   -0.082984
  17 C :   -0.044571
  18 H :    0.085191
  19 H :    0.104567
  20 C :   -0.202316
  21 H :    0.101965
  22 H :    0.095817
  23 C :   -0.198359
  24 H :    0.079194
  25 H :    0.053150
  26 O :   -0.428563
  27 H :    0.130641
  28 H :    0.073087
  29 H :    0.091538
  30 H :    0.080675
Sum of atomic charges:    0.0000000

LOEWDIN ATOMIC CHARGES
----------------------
   0 C :   -0.300558
   1 N :    0.131259
   2 C :   -0.281542
   3 C :   -0.361979
   4 H :    0.149713
   5 H :    0.140390
   6 S :    0.523225
   7 C :   -0.472007
   8 C :   -0.345278
   9 N :   -0.015311
  10 H :    0.151541
  11 H :    0.167266
  12 H :    0.167263
  13 H :    0.097130
  14 H :    0.087275
  15 O :   -0.227655
  16 F :    0.114338
  17 C :   -0.264301
  18 H :    0.122580
  19 H :    0.127624
  20 C :   -0.266958
  21 H :    0.135793
  22 H :    0.144300
  23 C :   -0.263956
  24 H :    0.134294
  25 H :    0.128131
  26 O :   -0.262994
  27 H :    0.141744
  28 H :    0.133046
  29 H :    0.129152
  30 H :    0.136473

  Mayer bond orders larger than 0.100000
B(  0-C ,  1-N ) :   1.0080 B(  0-C , 17-C ) :   0.8982 B(  0-C , 18-H ) :   0.9776
B(  0-C , 19-H ) :   0.9833 B(  1-N ,  7-C ) :   1.2356 B(  1-N , 12-H ) :   0.8924
B(  2-C ,  3-C ) :   0.9466 B(  2-C , 20-C ) :   0.9515 B(  2-C , 21-H ) :   0.9707
B(  2-C , 22-H ) :   0.9436 B(  3-C ,  4-H ) :   0.9402 B(  3-C ,  5-H ) :   0.9439
B(  3-C ,  6-S ) :   0.9029 B(  6-S , 15-O ) :   1.9878 B(  6-S , 16-F ) :   1.1398
B(  6-S , 26-O ) :   1.7336 B(  7-C ,  8-C ) :   1.5974 B(  7-C ,  9-N ) :   1.1055
B(  8-C , 13-H ) :   0.9800 B(  8-C , 14-H ) :   0.9991 B(  9-N , 10-H ) :   0.9248
B(  9-N , 11-H ) :   0.9326 B( 17-C , 23-C ) :   0.9746 B( 17-C , 24-H ) :   0.9510
B( 17-C , 25-H ) :   0.9512 B( 20-C , 23-C ) :   0.9343 B( 20-C , 29-H ) :   0.9772
B( 20-C , 30-H ) :   0.9600 B( 23-C , 27-H ) :   0.9625 B( 23-C , 28-H ) :   0.9562

Dispersion correction           -0.075515047
FINAL SINGLE POINT ENERGY     -1073.084288293669

DIPOLE MOMENT
-------------
                                X             Y             Z
Electronic contribution:     -4.52566      -2.09163     -20.77586
Nuclear contribution   :      2.89225       3.36404      21.70199
                        -----------------------------------------
Total Dipole Moment    :     -1.63341       1.27241       0.92613
                        -----------------------------------------
Magnitude (a.u.)       :      2.26820
Magnitude (Debye)      :      5.76531

Rotational constants in cm-1:     0.029431     0.014408     0.011084
Rotational constants in MHz :   882.306106   431.946714   332.288152

                             ****ORCA TERMINATED NORMALLY****
TOTAL RUN TIME: 0 days 0 hours 0 minutes 23 seconds 382 msec
