                         Program Version 5.0.0 -  RELEASE  -
|  1> !BLYP D3BJ RIJCOSX def2-TZVP def2/J TightSCF xyzfile
|  2>
|  3> *xyzfile 0 1 D8.xyz
|  4>
|  5> %MaxCore 64000
|  6>
|  7> %pal nprocs 18
|  8> end
|  9>
| 10> %scf
| 11>   MaxIter 150
| 12> end
| 13>
| 14>
| 15>                          ****END OF INPUT****

CARTESIAN COORDINATES (ANGSTROEM)
---------------------------------
  C      1.963365   -1.749150   -1.896887
  N      2.738490   -2.015170   -3.097113
  C      0.611877    1.657634   -4.500288
  C      1.694991    1.541794   -5.570447
  H      2.697326    1.734659   -5.183996
  H      1.506656    2.272239   -6.358076
  S      1.780287   -0.033128   -6.428739
  C      4.049736   -2.154717   -3.152044
  C      4.658206   -1.986293   -4.318655
  N      4.764231   -2.454435   -2.050491
  H      4.287363   -2.776259   -1.217496
  H      5.750825   -2.658351   -2.125988
  H      2.345176   -1.690274   -3.971447
  H      4.109004   -1.592677   -5.071760
  H      5.649095   -2.156462   -4.427237
  O      2.569287    0.213657   -7.607360
  O      0.416880   -0.462969   -6.618595
  C      2.088520   -0.300912   -1.415204
  H      2.231272   -2.451616   -1.102643
  H      0.930249   -1.977801   -2.155438
  C      0.680356    0.655418   -3.348038
  H     -0.356865    1.549231   -4.991128
  H      0.650228    2.675438   -4.096000
  C      1.968993    0.733582   -2.535654
  H      3.051356   -0.168602   -0.911868
  H      1.316501   -0.136231   -0.657252
  F      2.505129   -0.933263   -5.482570
  H      2.824195    0.624726   -3.208464
  H      2.058919    1.730331   -2.093112
  H      0.542252   -0.344731   -3.766662
  H     -0.174219    0.829692   -2.685182

 Total Charge           Charge          ....    0
 Multiplicity           Mult            ....    1
 Number of Electrons    NEL             ....  120
 Basis Dimension        Dim             ....  542

ORBITAL ENERGIES
----------------

  NO   OCC          E(Eh)            E(eV)
   0   2.0000     -88.334511     -2403.7043
   1   2.0000     -24.383712      -663.5145
   2   2.0000     -18.786573      -511.2086
   3   2.0000     -18.784605      -511.1551
   4   2.0000     -14.003273      -381.0484
   5   2.0000     -13.999455      -380.9445
   6   2.0000      -9.960051      -271.0268
   7   2.0000      -9.942489      -270.5489
   8   2.0000      -9.941473      -270.5212
   9   2.0000      -9.931143      -270.2402
  10   2.0000      -9.919037      -269.9107
  11   2.0000      -9.912328      -269.7281
  12   2.0000      -9.908455      -269.6228
  13   2.0000      -9.812483      -267.0112
  14   2.0000      -7.866514      -214.0587
  15   2.0000      -5.899014      -160.5203
  16   2.0000      -5.892009      -160.3297
  17   2.0000      -5.891517      -160.3163
  18   2.0000      -1.243678       -33.8422
  19   2.0000      -1.021366       -27.7928
  20   2.0000      -0.934814       -25.4376
  21   2.0000      -0.877890       -23.8886
  22   2.0000      -0.800417       -21.7805
  23   2.0000      -0.760416       -20.6920
  24   2.0000      -0.720089       -19.5946
  25   2.0000      -0.688061       -18.7231
  26   2.0000      -0.646521       -17.5927
  27   2.0000      -0.637084       -17.3359
  28   2.0000      -0.600991       -16.3538
  29   2.0000      -0.567555       -15.4439
  30   2.0000      -0.532700       -14.4955
  31   2.0000      -0.530448       -14.4342
  32   2.0000      -0.506181       -13.7739
  33   2.0000      -0.502117       -13.6633
  34   2.0000      -0.487811       -13.2740
  35   2.0000      -0.474099       -12.9009
  36   2.0000      -0.446392       -12.1469
  37   2.0000      -0.441559       -12.0154
  38   2.0000      -0.432435       -11.7672
  39   2.0000      -0.429091       -11.6762
  40   2.0000      -0.415677       -11.3112
  41   2.0000      -0.405264       -11.0278
  42   2.0000      -0.392445       -10.6790
  43   2.0000      -0.385692       -10.4952
  44   2.0000      -0.374929       -10.2023
  45   2.0000      -0.354244        -9.6395
  46   2.0000      -0.349610        -9.5134
  47   2.0000      -0.345391        -9.3986
  48   2.0000      -0.336490        -9.1564
  49   2.0000      -0.327732        -8.9180
  50   2.0000      -0.322162        -8.7665
  51   2.0000      -0.315290        -8.5795
  52   2.0000      -0.302060        -8.2195
  53   2.0000      -0.299328        -8.1451
  54   2.0000      -0.290903        -7.9159
  55   2.0000      -0.289024        -7.8648
  56   2.0000      -0.285273        -7.7627
  57   2.0000      -0.274232        -7.4622
  58   2.0000      -0.208061        -5.6616
  59   2.0000      -0.127691        -3.4746
  60   0.0000      -0.013542        -0.3685
  61   0.0000      -0.001511        -0.0411
  62   0.0000       0.007382         0.2009
  63   0.0000       0.021389         0.5820
  64   0.0000       0.022821         0.6210

MULLIKEN ATOMIC CHARGES
-----------------------
   0 C :   -0.203762
   1 N :   -0.220667
   2 C :   -0.088765
   3 C :   -0.273342
   4 H :    0.140520
   5 H :    0.146664
   6 S :    0.809080
   7 C :    0.348243
   8 C :   -0.541142
   9 N :   -0.438651
  10 H :    0.196148
  11 H :    0.213672
  12 H :    0.198950
  13 H :    0.100397
  14 H :    0.065438
  15 O :   -0.383260
  16 O :   -0.386207
  17 C :   -0.041319
  18 H :    0.092895
  19 H :    0.118772
  20 C :   -0.249083
  21 H :    0.111589
  22 H :    0.089111
  23 C :   -0.215024
  24 H :    0.082589
  25 H :    0.063936
  26 F :   -0.130135
  27 H :    0.118008
  28 H :    0.080206
  29 H :    0.110171
  30 H :    0.084968
Sum of atomic charges:   -0.0000000

LOEWDIN ATOMIC CHARGES
----------------------
   0 C :   -0.294191
   1 N :    0.130811
   2 C :   -0.275952
   3 C :   -0.366626
   4 H :    0.137164
   5 H :    0.149568
   6 S :    0.524666
   7 C :   -0.468595
   8 C :   -0.347875
   9 N :   -0.006704
  10 H :    0.155163
  11 H :    0.170575
  12 H :    0.171184
  13 H :    0.090819
  14 H :    0.091843
  15 O :   -0.237207
  16 O :   -0.241668
  17 C :   -0.263313
  18 H :    0.125227
  19 H :    0.131795
  20 C :   -0.267283
  21 H :    0.143834
  22 H :    0.142316
  23 C :   -0.266425
  24 H :    0.134656
  25 H :    0.131646
  26 F :    0.064606
  27 H :    0.135838
  28 H :    0.135446
  29 H :    0.130103
  30 H :    0.138583

  Mayer bond orders larger than 0.100000
B(  0-C ,  1-N ) :   0.9823 B(  0-C , 17-C ) :   0.9010 B(  0-C , 18-H ) :   0.9780
B(  0-C , 19-H ) :   0.9803 B(  1-N ,  7-C ) :   1.2368 B(  1-N , 12-H ) :   0.9164
B(  2-C ,  3-C ) :   0.9393 B(  2-C , 20-C ) :   0.9634 B(  2-C , 21-H ) :   0.9586
B(  2-C , 22-H ) :   0.9416 B(  3-C ,  4-H ) :   0.9438 B(  3-C ,  5-H ) :   0.9435
B(  3-C ,  6-S ) :   0.8970 B(  6-S , 15-O ) :   1.9671 B(  6-S , 16-O ) :   1.9192
B(  6-S , 26-F ) :   1.0257 B(  7-C ,  8-C ) :   1.5705 B(  7-C ,  9-N ) :   1.1243
B(  8-C , 13-H ) :   0.9976 B(  8-C , 14-H ) :   1.0013 B(  9-N , 10-H ) :   0.9231
B(  9-N , 11-H ) :   0.9306 B( 17-C , 23-C ) :   0.9681 B( 17-C , 24-H ) :   0.9534
B( 17-C , 25-H ) :   0.9536 B( 20-C , 23-C ) :   0.9293 B( 20-C , 29-H ) :   0.9799
B( 20-C , 30-H ) :   0.9608 B( 23-C , 27-H ) :   0.9669 B( 23-C , 28-H ) :   0.9597

Dispersion correction           -0.074788616
FINAL SINGLE POINT ENERGY     -1073.101550196281

DIPOLE MOMENT
-------------
                                X             Y             Z
Electronic contribution:     -0.83327      -3.02196     -18.42603
Nuclear contribution   :      0.50676       3.90127      20.40426
                        -----------------------------------------
Total Dipole Moment    :     -0.32651       0.87932       1.97823
                        -----------------------------------------
Magnitude (a.u.)       :      2.18934
Magnitude (Debye)      :      5.56487

Rotational constants in cm-1:     0.029548     0.014706     0.011197
Rotational constants in MHz :   885.834387   440.871746   335.667619

                             ****ORCA TERMINATED NORMALLY****
TOTAL RUN TIME: 0 days 0 hours 0 minutes 24 seconds 499 msec
