                         Program Version 5.0.0 -  RELEASE  -
|  1> !M062X D3Zero RIJCOSX def2-SVP def2/J TightSCF
|  2> *xyz -1 1
|  3> C          0.61188        1.65763       -4.50029
|  4> C          1.69499        1.54179       -5.57045
|  5> H          2.69733        1.73466       -5.18400
|  6> H          1.50666        2.27224       -6.35808
|  7> S          1.78029       -0.03313       -6.42874
|  8> O          2.56929        0.21366       -7.60736
|  9> O          0.41688       -0.46297       -6.61859
| 10> O          2.50513       -0.93326       -5.48257
| 11> H         -0.34424        1.45871       -4.93752
| 12> H          0.61845        2.64655       -4.09174
| 13> H          0.80247        0.94882       -3.72173
| 14> *
| 15> %MaxCore 64000
| 16>
| 17> %pal nprocs 4
| 18> end
| 19>
| 20> %scf
| 21>   MaxIter 150
| 22> end
| 23>
| 24>
| 25>                          ****END OF INPUT****

CARTESIAN COORDINATES (ANGSTROEM)
---------------------------------
  C      0.611880    1.657630   -4.500290
  C      1.694990    1.541790   -5.570450
  H      2.697330    1.734660   -5.184000
  H      1.506660    2.272240   -6.358080
  S      1.780290   -0.033130   -6.428740
  O      2.569290    0.213660   -7.607360
  O      0.416880   -0.462970   -6.618590
  O      2.505130   -0.933260   -5.482570
  H     -0.344240    1.458710   -4.937520
  H      0.618450    2.646550   -4.091740
  H      0.802470    0.948820   -3.721730

 Total Charge           Charge          ....   -1
 Multiplicity           Mult            ....    1
 Number of Electrons    NEL             ....   58
 Basis Dimension        Dim             ....  113

ORBITAL ENERGIES
----------------

  NO   OCC          E(Eh)            E(eV)
   0   2.0000     -89.899678     -2446.2946
   1   2.0000     -19.386312      -527.5284
   2   2.0000     -19.384569      -527.4809
   3   2.0000     -19.362420      -526.8782
   4   2.0000     -10.403460      -283.0925
   5   2.0000     -10.397309      -282.9252
   6   2.0000      -8.230132      -223.9533
   7   2.0000      -6.154867      -167.4825
   8   2.0000      -6.154580      -167.4746
   9   2.0000      -6.154404      -167.4699
  10   2.0000      -1.024110       -27.8675
  11   2.0000      -0.883441       -24.0396
  12   2.0000      -0.845321       -23.0024
  13   2.0000      -0.714006       -19.4291
  14   2.0000      -0.580767       -15.8035
  15   2.0000      -0.444055       -12.0833
  16   2.0000      -0.380880       -10.3643
  17   2.0000      -0.377081       -10.2609
  18   2.0000      -0.335843        -9.1388
  19   2.0000      -0.319519        -8.6945
  20   2.0000      -0.314104        -8.5472
  21   2.0000      -0.284676        -7.7464
  22   2.0000      -0.269341        -7.3291
  23   2.0000      -0.199369        -5.4251
  24   2.0000      -0.196118        -5.3366
  25   2.0000      -0.164396        -4.4735
  26   2.0000      -0.150198        -4.0871
  27   2.0000      -0.136222        -3.7068
  28   2.0000      -0.106496        -2.8979
  29   0.0000       0.239905         6.5282
  30   0.0000       0.293214         7.9788
  31   0.0000       0.299148         8.1402
  32   0.0000       0.305471         8.3123
  33   0.0000       0.331309         9.0154

MULLIKEN ATOMIC CHARGES
-----------------------
   0 C :   -0.029108
   1 C :   -0.160061
   2 H :    0.029724
   3 H :    0.018116
   4 S :    0.953762
   5 O :   -0.602353
   6 O :   -0.602643
   7 O :   -0.662035
   8 H :    0.033180
   9 H :   -0.008685
  10 H :    0.030103
Sum of atomic charges:   -1.0000000

LOEWDIN ATOMIC CHARGES
----------------------
   0 C :   -0.077248
   1 C :   -0.197498
   2 H :    0.013846
   3 H :    0.007229
   4 S :    1.133670
   5 O :   -0.620303
   6 O :   -0.620444
   7 O :   -0.685159
   8 H :    0.020463
   9 H :    0.005155
  10 H :    0.020288

  Mayer bond orders larger than 0.100000
B(  0-C ,  1-C ) :   1.0561 B(  0-C ,  8-H ) :   0.9681 B(  0-C ,  9-H ) :   0.9661
B(  0-C , 10-H ) :   0.9705 B(  1-C ,  2-H ) :   0.9470 B(  1-C ,  3-H ) :   0.9441
B(  1-C ,  4-S ) :   0.8912 B(  4-S ,  5-O ) :   1.6254 B(  4-S ,  6-O ) :   1.6154
B(  4-S ,  7-O ) :   1.5597

Dispersion correction           -0.000147532
FINAL SINGLE POINT ENERGY      -702.569062576822

DIPOLE MOMENT
-------------
                                X             Y             Z
Electronic contribution:      2.24118      -5.68401      -5.04953
Nuclear contribution   :     -2.69163       7.29476       5.86550
                        -----------------------------------------
Total Dipole Moment    :     -0.45045       1.61075       0.81597
                        -----------------------------------------
Magnitude (a.u.)       :      1.86097
Magnitude (Debye)      :      4.73021

Rotational constants in cm-1:     0.163060     0.082831     0.081111
Rotational constants in MHz :  4888.419330  2483.225008  2431.646841

                             ****ORCA TERMINATED NORMALLY****
TOTAL RUN TIME: 0 days 0 hours 0 minutes 8 seconds 979 msec
