                         Program Version 5.0.0 -  RELEASE  -
|  1> !M062X D3Zero RIJCOSX def2-SVP def2/J TightSCF
|  2> *xyz 1 1
|  3> C          1.96337       -1.74915       -1.89689
|  4> N          2.73849       -2.01517       -3.09711
|  5> C          4.04974       -2.15472       -3.15204
|  6> N          4.65821       -1.98629       -4.31866
|  7> N          4.76423       -2.45444       -2.05049
|  8> H          4.28736       -2.77626       -1.21750
|  9> H          5.75082       -2.65835       -2.12599
| 10> H          2.34518       -1.69027       -3.97145
| 11> H          4.10900       -1.59268       -5.07176
| 12> H          5.64910       -2.15646       -4.42724
| 13> C          2.08852       -0.30091       -1.41520
| 14> H          2.23127       -2.45162       -1.10264
| 15> H          0.93025       -1.97780       -2.15544
| 16> H          1.82118        0.36368       -2.21003
| 17> H          3.09792       -0.11068       -1.11551
| 18> H          1.43391       -0.14382       -0.58352
| 19> *
| 20> %MaxCore 64000
| 21>
| 22> %pal nprocs 4
| 23> end
| 24>
| 25> %scf
| 26>   MaxIter 150
| 27> end
| 28>
| 29>
| 30>                          ****END OF INPUT****

CARTESIAN COORDINATES (ANGSTROEM)
---------------------------------
  C      1.963370   -1.749150   -1.896890
  N      2.738490   -2.015170   -3.097110
  C      4.049740   -2.154720   -3.152040
  N      4.658210   -1.986290   -4.318660
  N      4.764230   -2.454440   -2.050490
  H      4.287360   -2.776260   -1.217500
  H      5.750820   -2.658350   -2.125990
  H      2.345180   -1.690270   -3.971450
  H      4.109000   -1.592680   -5.071760
  H      5.649100   -2.156460   -4.427240
  C      2.088520   -0.300910   -1.415200
  H      2.231270   -2.451620   -1.102640
  H      0.930250   -1.977800   -2.155440
  H      1.821180    0.363680   -2.210030
  H      3.097920   -0.110680   -1.115510
  H      1.433910   -0.143820   -0.583520

 Total Charge           Charge          ....    1
 Multiplicity           Mult            ....    1
 Number of Electrons    NEL             ....   48
 Basis Dimension        Dim             ....  134

ORBITAL ENERGIES
----------------

  NO   OCC          E(Eh)            E(eV)
   0   2.0000     -14.985643      -407.7801
   1   2.0000     -14.982999      -407.7081
   2   2.0000     -14.982892      -407.7052
   3   2.0000     -10.890052      -296.3334
   4   2.0000     -10.757787      -292.7343
   5   2.0000     -10.686307      -290.7892
   6   2.0000      -1.319992       -35.9188
   7   2.0000      -1.199389       -32.6370
   8   2.0000      -1.184705       -32.2375
   9   2.0000      -1.017055       -27.6755
  10   2.0000      -0.921193       -25.0669
  11   2.0000      -0.883133       -24.0313
  12   2.0000      -0.860535       -23.4163
  13   2.0000      -0.818789       -22.2804
  14   2.0000      -0.764216       -20.7954
  15   2.0000      -0.756242       -20.5784
  16   2.0000      -0.729510       -19.8510
  17   2.0000      -0.698157       -18.9978
  18   2.0000      -0.667243       -18.1566
  19   2.0000      -0.628887       -17.1129
  20   2.0000      -0.594012       -16.1639
  21   2.0000      -0.573305       -15.6004
  22   2.0000      -0.539929       -14.6922
  23   2.0000      -0.508699       -13.8424
  24   0.0000      -0.116453        -3.1689
  25   0.0000      -0.104814        -2.8521
  26   0.0000      -0.070655        -1.9226
  27   0.0000      -0.059455        -1.6178
  28   0.0000      -0.034675        -0.9436

MULLIKEN ATOMIC CHARGES
-----------------------
   0 C :   -0.042461
   1 N :   -0.160175
   2 C :    0.099508
   3 N :   -0.072284
   4 N :   -0.095602
   5 H :    0.186562
   6 H :    0.185332
   7 H :    0.174642
   8 H :    0.186575
   9 H :    0.191635
  10 C :   -0.038332
  11 H :    0.081563
  12 H :    0.097267
  13 H :    0.061289
  14 H :    0.053906
  15 H :    0.090575
Sum of atomic charges:    1.0000000

LOEWDIN ATOMIC CHARGES
----------------------
   0 C :    0.036194
   1 N :    0.017599
   2 C :    0.161123
   3 N :    0.038416
   4 N :    0.026460
   5 H :    0.112206
   6 H :    0.114405
   7 H :    0.107009
   8 H :    0.114090
   9 H :    0.117419
  10 C :   -0.052394
  11 H :    0.037199
  12 H :    0.053014
  13 H :    0.035325
  14 H :    0.030190
  15 H :    0.051745

  Mayer bond orders larger than 0.100000
B(  0-C ,  1-N ) :   0.9216 B(  0-C , 10-C ) :   1.0775 B(  0-C , 11-H ) :   0.9549
B(  0-C , 12-H ) :   0.9489 B(  1-N ,  2-C ) :   1.3742 B(  1-N ,  7-H ) :   0.9023
B(  2-C ,  3-N ) :   1.4064 B(  2-C ,  4-N ) :   1.3851 B(  3-N ,  8-H ) :   0.9161
B(  3-N ,  9-H ) :   0.9179 B(  4-N ,  5-H ) :   0.9155 B(  4-N ,  6-H ) :   0.9198
B( 10-C , 13-H ) :   0.9698 B( 10-C , 14-H ) :   0.9672 B( 10-C , 15-H ) :   0.9648

Dispersion correction           -0.000320300
FINAL SINGLE POINT ENERGY      -284.045228873581

DIPOLE MOMENT
-------------
                                X             Y             Z
Electronic contribution:      3.07458      -2.72907      -3.13305
Nuclear contribution   :     -2.17768       2.37118       2.44574
                        -----------------------------------------
Total Dipole Moment    :      0.89689      -0.35789      -0.68731
                        -----------------------------------------
Magnitude (a.u.)       :      1.18528
Magnitude (Debye)      :      3.01275

Rotational constants in cm-1:     0.215650     0.075183     0.066454
Rotational constants in MHz :  6465.033740  2253.919004  1992.232519

                             ****ORCA TERMINATED NORMALLY****
TOTAL RUN TIME: 0 days 0 hours 0 minutes 12 seconds 228 msec
