                         Program Version 5.0.0 -  RELEASE  -
|  1> !M062X D3Zero RIJCOSX def2-SVP def2/J TightSCF
|  2> *xyz 0 1
|  3> C          0.61188        1.65763       -4.50029
|  4> C          1.69499        1.54179       -5.57045
|  5> H          2.69733        1.73466       -5.18400
|  6> H          1.50666        2.27224       -6.35808
|  7> S          1.78029       -0.03313       -6.42874
|  8> F          2.56929        0.21366       -7.60736
|  9> O          0.41688       -0.46297       -6.61859
| 10> O          2.50513       -0.93326       -5.48257
| 11> H         -0.34424        1.45871       -4.93752
| 12> H          0.61845        2.64655       -4.09174
| 13> H          0.80247        0.94882       -3.72173
| 14> *
| 15> %MaxCore 64000
| 16>
| 17> %pal nprocs 4
| 18> end
| 19>
| 20> %scf
| 21>   MaxIter 150
| 22> end
| 23>
| 24>
| 25>                          ****END OF INPUT****

CARTESIAN COORDINATES (ANGSTROEM)
---------------------------------
  C      0.611880    1.657630   -4.500290
  C      1.694990    1.541790   -5.570450
  H      2.697330    1.734660   -5.184000
  H      1.506660    2.272240   -6.358080
  S      1.780290   -0.033130   -6.428740
  F      2.569290    0.213660   -7.607360
  O      0.416880   -0.462970   -6.618590
  O      2.505130   -0.933260   -5.482570
  H     -0.344240    1.458710   -4.937520
  H      0.618450    2.646550   -4.091740
  H      0.802470    0.948820   -3.721730

 Total Charge           Charge          ....    0
 Multiplicity           Mult            ....    1
 Number of Electrons    NEL             ....   58
 Basis Dimension        Dim             ....  113

ORBITAL ENERGIES
----------------

  NO   OCC          E(Eh)            E(eV)
   0   2.0000     -90.174777     -2453.7804
   1   2.0000     -25.366804      -690.2658
   2   2.0000     -19.638059      -534.3788
   3   2.0000     -19.615783      -533.7726
   4   2.0000     -10.610539      -288.7274
   5   2.0000     -10.572056      -287.6803
   6   2.0000      -8.507853      -231.5104
   7   2.0000      -6.435514      -175.1192
   8   2.0000      -6.430082      -174.9714
   9   2.0000      -6.429110      -174.9450
  10   2.0000      -1.513962       -41.1970
  11   2.0000      -1.216025       -33.0897
  12   2.0000      -1.100574       -29.9481
  13   2.0000      -0.914832       -24.8938
  14   2.0000      -0.830272       -22.5928
  15   2.0000      -0.763329       -20.7712
  16   2.0000      -0.684380       -18.6229
  17   2.0000      -0.678475       -18.4622
  18   2.0000      -0.633728       -17.2446
  19   2.0000      -0.566822       -15.4240
  20   2.0000      -0.556253       -15.1364
  21   2.0000      -0.508374       -13.8335
  22   2.0000      -0.498834       -13.5740
  23   2.0000      -0.474638       -12.9156
  24   2.0000      -0.452899       -12.3240
  25   2.0000      -0.449059       -12.2195
  26   2.0000      -0.396293       -10.7837
  27   2.0000      -0.375638       -10.2216
  28   2.0000      -0.364384        -9.9154
  29   0.0000       0.080682         2.1955
  30   0.0000       0.086587         2.3561
  31   0.0000       0.125633         3.4186
  32   0.0000       0.126612         3.4453
  33   0.0000       0.135233         3.6799

MULLIKEN ATOMIC CHARGES
-----------------------
   0 C :   -0.032758
   1 C :   -0.195223
   2 H :    0.097902
   3 H :    0.078895
   4 S :    1.020439
   5 F :   -0.192937
   6 O :   -0.463235
   7 O :   -0.519971
   8 H :    0.071635
   9 H :    0.061924
  10 H :    0.073328
Sum of atomic charges:    0.0000000

LOEWDIN ATOMIC CHARGES
----------------------
   0 C :   -0.048788
   1 C :   -0.161114
   2 H :    0.042623
   3 H :    0.032170
   4 S :    1.192778
   5 F :   -0.124234
   6 O :   -0.493865
   7 O :   -0.556451
   8 H :    0.037842
   9 H :    0.039623
  10 H :    0.039418

  Mayer bond orders larger than 0.100000
B(  0-C ,  1-C ) :   1.0667 B(  0-C ,  8-H ) :   0.9680 B(  0-C ,  9-H ) :   0.9645
B(  0-C , 10-H ) :   0.9725 B(  1-C ,  2-H ) :   0.9321 B(  1-C ,  3-H ) :   0.9303
B(  1-C ,  4-S ) :   0.9227 B(  4-S ,  5-F ) :   1.0023 B(  4-S ,  6-O ) :   1.7703
B(  4-S ,  7-O ) :   1.7156

Dispersion correction           -0.000142776
FINAL SINGLE POINT ENERGY      -727.063801632958

DIPOLE MOMENT
-------------
                                X             Y             Z
Electronic contribution:      3.87127      -5.61803      -7.57011
Nuclear contribution   :     -3.66946       7.33549       7.42434
                        -----------------------------------------
Total Dipole Moment    :      0.20181       1.71746      -0.14577
                        -----------------------------------------
Magnitude (a.u.)       :      1.73541
Magnitude (Debye)      :      4.41106

Rotational constants in cm-1:     0.158379     0.080294     0.077843
Rotational constants in MHz :  4748.076444  2407.152850  2333.668303

                             ****ORCA TERMINATED NORMALLY****
TOTAL RUN TIME: 0 days 0 hours 0 minutes 9 seconds 847 msec
