                         Program Version 5.0.0 -  RELEASE  -
|  1> !M062X D3Zero RIJCOSX def2-SVP def2/J TightSCF
|  2> *xyz 0 1
|  3> C          1.96337       -1.74915       -1.89689
|  4> C          2.73849       -2.01517       -3.09711
|  5> C          4.04974       -2.15472       -3.15204
|  6> N          4.65821       -1.98629       -4.31866
|  7> N          4.76423       -2.45444       -2.05049
|  8> H          4.28736       -2.77626       -1.21750
|  9> H          5.75082       -2.65835       -2.12599
| 10> H          2.34518       -1.69027       -3.97145
| 11> H          4.10900       -1.59268       -5.07176
| 12> H          5.64910       -2.15646       -4.42724
| 13> C          2.08852       -0.30091       -1.41520
| 14> H          2.23127       -2.45162       -1.10264
| 15> H          0.93025       -1.97780       -2.15544
| 16> H          1.82118        0.36368       -2.21003
| 17> H          3.09792       -0.11068       -1.11551
| 18> H          1.43391       -0.14382       -0.58352
| 19> *
| 20> %MaxCore 64000
| 21>
| 22> %pal nprocs 4
| 23> end
| 24>
| 25> %scf
| 26>   MaxIter 150
| 27> end
| 28>
| 29>
| 30>                          ****END OF INPUT****

CARTESIAN COORDINATES (ANGSTROEM)
---------------------------------
  C      1.963370   -1.749150   -1.896890
  C      2.738490   -2.015170   -3.097110
  C      4.049740   -2.154720   -3.152040
  N      4.658210   -1.986290   -4.318660
  N      4.764230   -2.454440   -2.050490
  H      4.287360   -2.776260   -1.217500
  H      5.750820   -2.658350   -2.125990
  H      2.345180   -1.690270   -3.971450
  H      4.109000   -1.592680   -5.071760
  H      5.649100   -2.156460   -4.427240
  C      2.088520   -0.300910   -1.415200
  H      2.231270   -2.451620   -1.102640
  H      0.930250   -1.977800   -2.155440
  H      1.821180    0.363680   -2.210030
  H      3.097920   -0.110680   -1.115510
  H      1.433910   -0.143820   -0.583520

 Total Charge           Charge          ....    0
 Multiplicity           Mult            ....    1
 Number of Electrons    NEL             ....   48
 Basis Dimension        Dim             ....  134

ORBITAL ENERGIES
----------------

  NO   OCC          E(Eh)            E(eV)
   0   2.0000     -14.753995      -401.4766
   1   2.0000     -14.750973      -401.3944
   2   2.0000     -10.588155      -288.1183
   3   2.0000     -10.518661      -286.2273
   4   2.0000     -10.510755      -286.0122
   5   2.0000     -10.460246      -284.6378
   6   2.0000      -1.051194       -28.6045
   7   2.0000      -0.954357       -25.9694
   8   2.0000      -0.855703       -23.2849
   9   2.0000      -0.770571       -20.9683
  10   2.0000      -0.688804       -18.7433
  11   2.0000      -0.648322       -17.6417
  12   2.0000      -0.609145       -16.5757
  13   2.0000      -0.574580       -15.6351
  14   2.0000      -0.534046       -14.5321
  15   2.0000      -0.500714       -13.6251
  16   2.0000      -0.482555       -13.1310
  17   2.0000      -0.448914       -12.2156
  18   2.0000      -0.438692       -11.9374
  19   2.0000      -0.411907       -11.2086
  20   2.0000      -0.382255       -10.4017
  21   2.0000      -0.372249       -10.1294
  22   2.0000      -0.322538        -8.7767
  23   2.0000      -0.200286        -5.4501
  24   0.0000       0.081179         2.2090
  25   0.0000       0.113918         3.0999
  26   0.0000       0.124657         3.3921
  27   0.0000       0.143795         3.9129
  28   0.0000       0.149535         4.0690

MULLIKEN ATOMIC CHARGES
-----------------------
   0 C :   -0.043195
   1 C :   -0.161321
   2 C :   -0.031396
   3 N :   -0.117368
   4 N :   -0.141600
   5 H :    0.136389
   6 H :    0.118532
   7 H :   -0.086057
   8 H :    0.139584
   9 H :    0.118028
  10 C :    0.000438
  11 H :   -0.001017
  12 H :    0.016369
  13 H :    0.016490
  14 H :    0.019657
  15 H :    0.016467
Sum of atomic charges:    0.0000000

LOEWDIN ATOMIC CHARGES
----------------------
   0 C :   -0.048229
   1 C :   -0.232288
   2 C :    0.036402
   3 N :   -0.034455
   4 N :   -0.043872
   5 H :    0.082879
   6 H :    0.068747
   7 H :   -0.010608
   8 H :    0.087360
   9 H :    0.069208
  10 C :   -0.059646
  11 H :    0.009735
  12 H :    0.025512
  13 H :    0.018770
  14 H :    0.016763
  15 H :    0.013723

  Mayer bond orders larger than 0.100000
B(  0-C ,  1-C ) :   1.0864 B(  0-C , 10-C ) :   1.0738 B(  0-C , 11-H ) :   0.9422
B(  0-C , 12-H ) :   0.9302 B(  1-C ,  2-C ) :   1.7068 B(  1-C ,  7-H ) :   0.9268
B(  2-C ,  3-N ) :   1.2409 B(  2-C ,  4-N ) :   1.2358 B(  3-N ,  8-H ) :   0.9300
B(  3-N ,  9-H ) :   0.9444 B(  4-N ,  5-H ) :   0.9367 B(  4-N ,  6-H ) :   0.9447
B( 10-C , 13-H ) :   0.9710 B( 10-C , 14-H ) :   0.9741 B( 10-C , 15-H ) :   0.9678

Dispersion correction           -0.000318455
FINAL SINGLE POINT ENERGY      -267.572946811056

DIPOLE MOMENT
-------------
                                X             Y             Z
Electronic contribution:      3.45845      -2.47160      -2.55070
Nuclear contribution   :     -2.31778       2.31977       2.35294
                        -----------------------------------------
Total Dipole Moment    :      1.14067      -0.15183      -0.19776
                        -----------------------------------------
Magnitude (a.u.)       :      1.16760
Magnitude (Debye)      :      2.96781

Rotational constants in cm-1:     0.219415     0.075373     0.066689
Rotational constants in MHz :  6577.897266  2259.621393  1999.290981

                             ****ORCA TERMINATED NORMALLY****
TOTAL RUN TIME: 0 days 0 hours 0 minutes 13 seconds 728 msec
