                         Program Version 5.0.0 -  RELEASE  -
|  1> !M062X D3Zero RIJCOSX def2-SVP def2/J TightSCF
|  2> *xyz 0 1
|  3> C          0.61188        1.65763       -4.50029
|  4> C          1.69499        1.54179       -5.57045
|  5> H          2.69733        1.73466       -5.18400
|  6> H          1.50666        2.27224       -6.35808
|  7> S          1.78029       -0.03313       -6.42874
|  8> O          2.56929        0.21366       -7.60736
|  9> F          0.41688       -0.46297       -6.61859
| 10> O          2.50513       -0.93326       -5.48257
| 11> H         -0.34424        1.45871       -4.93752
| 12> H          0.61845        2.64655       -4.09174
| 13> H          0.80247        0.94882       -3.72173
| 14> *
| 15> %MaxCore 64000
| 16>
| 17> %pal nprocs 4
| 18> end
| 19>
| 20> %scf
| 21>   MaxIter 150
| 22> end
| 23>
| 24>
| 25>                          ****END OF INPUT****

CARTESIAN COORDINATES (ANGSTROEM)
---------------------------------
  C      0.611880    1.657630   -4.500290
  C      1.694990    1.541790   -5.570450
  H      2.697330    1.734660   -5.184000
  H      1.506660    2.272240   -6.358080
  S      1.780290   -0.033130   -6.428740
  O      2.569290    0.213660   -7.607360
  F      0.416880   -0.462970   -6.618590
  O      2.505130   -0.933260   -5.482570
  H     -0.344240    1.458710   -4.937520
  H      0.618450    2.646550   -4.091740
  H      0.802470    0.948820   -3.721730

 Total Charge           Charge          ....    0
 Multiplicity           Mult            ....    1
 Number of Electrons    NEL             ....   58
 Basis Dimension        Dim             ....  113

ORBITAL ENERGIES
----------------

  NO   OCC          E(Eh)            E(eV)
   0   2.0000     -90.174347     -2453.7687
   1   2.0000     -25.366840      -690.2668
   2   2.0000     -19.637200      -534.3554
   3   2.0000     -19.616005      -533.7786
   4   2.0000     -10.610304      -288.7210
   5   2.0000     -10.577931      -287.8401
   6   2.0000      -8.507464      -231.4999
   7   2.0000      -6.435257      -175.1123
   8   2.0000      -6.429596      -174.9582
   9   2.0000      -6.428672      -174.9330
  10   2.0000      -1.512515       -41.1576
  11   2.0000      -1.217067       -33.1181
  12   2.0000      -1.100344       -29.9419
  13   2.0000      -0.919153       -25.0114
  14   2.0000      -0.826464       -22.4892
  15   2.0000      -0.767528       -20.8855
  16   2.0000      -0.691168       -18.8076
  17   2.0000      -0.682646       -18.5757
  18   2.0000      -0.623102       -16.9555
  19   2.0000      -0.567689       -15.4476
  20   2.0000      -0.552011       -15.0210
  21   2.0000      -0.520728       -14.1697
  22   2.0000      -0.504120       -13.7178
  23   2.0000      -0.478393       -13.0177
  24   2.0000      -0.460380       -12.5276
  25   2.0000      -0.446677       -12.1547
  26   2.0000      -0.394710       -10.7406
  27   2.0000      -0.376251       -10.2383
  28   2.0000      -0.364438        -9.9169
  29   0.0000       0.065398         1.7796
  30   0.0000       0.099984         2.7207
  31   0.0000       0.123385         3.3575
  32   0.0000       0.130916         3.5624
  33   0.0000       0.136757         3.7213

MULLIKEN ATOMIC CHARGES
-----------------------
   0 C :   -0.054564
   1 C :   -0.192120
   2 H :    0.120403
   3 H :    0.090494
   4 S :    1.018911
   5 O :   -0.458042
   6 F :   -0.196294
   7 O :   -0.519296
   8 H :    0.051862
   9 H :    0.066806
  10 H :    0.071841
Sum of atomic charges:    0.0000000

LOEWDIN ATOMIC CHARGES
----------------------
   0 C :   -0.065302
   1 C :   -0.155649
   2 H :    0.058056
   3 H :    0.037754
   4 S :    1.193057
   5 O :   -0.490985
   6 F :   -0.126417
   7 O :   -0.556023
   8 H :    0.028040
   9 H :    0.041129
  10 H :    0.036339

  Mayer bond orders larger than 0.100000
B(  0-C ,  1-C ) :   1.0442 B(  0-C ,  8-H ) :   0.9737 B(  0-C ,  9-H ) :   0.9638
B(  0-C , 10-H ) :   0.9712 B(  1-C ,  2-H ) :   0.9350 B(  1-C ,  3-H ) :   0.9350
B(  1-C ,  4-S ) :   0.9269 B(  4-S ,  5-O ) :   1.7784 B(  4-S ,  6-F ) :   0.9945
B(  4-S ,  7-O ) :   1.7151

Dispersion correction           -0.000154283
FINAL SINGLE POINT ENERGY      -727.063549895090

DIPOLE MOMENT
-------------
                                X             Y             Z
Electronic contribution:      0.21851      -6.75937      -5.86464
Nuclear contribution   :     -1.42658       8.04056       6.39401
                        -----------------------------------------
Total Dipole Moment    :     -1.20807       1.28119       0.52938
                        -----------------------------------------
Magnitude (a.u.)       :      1.83878
Magnitude (Debye)      :      4.67381

Rotational constants in cm-1:     0.153659     0.082363     0.078978
Rotational constants in MHz :  4606.587369  2469.179541  2367.702074

                             ****ORCA TERMINATED NORMALLY****
TOTAL RUN TIME: 0 days 0 hours 0 minutes 9 seconds 501 msec
