                         Program Version 5.0.0 -  RELEASE  -
|  1> !M062X D3Zero RIJCOSX def2-SVP def2/J TightSCF
|  2> *xyz 0 1
|  3> C          1.96337       -1.74915       -1.89689
|  4> N          2.73849       -2.01517       -3.09711
|  5> C          4.04974       -2.15472       -3.15204
|  6> C          4.65821       -1.98629       -4.31866
|  7> N          4.76423       -2.45444       -2.05049
|  8> H          4.28736       -2.77626       -1.21750
|  9> H          5.75082       -2.65835       -2.12599
| 10> H          2.34518       -1.69027       -3.97145
| 11> H          4.10900       -1.59268       -5.07176
| 12> H          5.64910       -2.15646       -4.42724
| 13> C          2.08852       -0.30091       -1.41520
| 14> H          2.23127       -2.45162       -1.10264
| 15> H          0.93025       -1.97780       -2.15544
| 16> H          1.82118        0.36368       -2.21003
| 17> H          3.09792       -0.11068       -1.11551
| 18> H          1.43391       -0.14382       -0.58352
| 19> *
| 20> %MaxCore 64000
| 21>
| 22> %pal nprocs 4
| 23> end
| 24>
| 25> %scf
| 26>   MaxIter 150
| 27> end
| 28>
| 29>
| 30>                          ****END OF INPUT****

CARTESIAN COORDINATES (ANGSTROEM)
---------------------------------
  C      1.963370   -1.749150   -1.896890
  N      2.738490   -2.015170   -3.097110
  C      4.049740   -2.154720   -3.152040
  C      4.658210   -1.986290   -4.318660
  N      4.764230   -2.454440   -2.050490
  H      4.287360   -2.776260   -1.217500
  H      5.750820   -2.658350   -2.125990
  H      2.345180   -1.690270   -3.971450
  H      4.109000   -1.592680   -5.071760
  H      5.649100   -2.156460   -4.427240
  C      2.088520   -0.300910   -1.415200
  H      2.231270   -2.451620   -1.102640
  H      0.930250   -1.977800   -2.155440
  H      1.821180    0.363680   -2.210030
  H      3.097920   -0.110680   -1.115510
  H      1.433910   -0.143820   -0.583520

 Total Charge           Charge          ....    0
 Multiplicity           Mult            ....    1
 Number of Electrons    NEL             ....   48
 Basis Dimension        Dim             ....  134

ORBITAL ENERGIES
----------------

  NO   OCC          E(Eh)            E(eV)
   0   2.0000     -14.752593      -401.4385
   1   2.0000     -14.751456      -401.4075
   2   2.0000     -10.589278      -288.1489
   3   2.0000     -10.588481      -288.1272
   4   2.0000     -10.538065      -286.7553
   5   2.0000     -10.457386      -284.5599
   6   2.0000      -1.061824       -28.8937
   7   2.0000      -0.968981       -26.3673
   8   2.0000      -0.855102       -23.2685
   9   2.0000      -0.780162       -21.2293
  10   2.0000      -0.704659       -19.1747
  11   2.0000      -0.669574       -18.2200
  12   2.0000      -0.602906       -16.4059
  13   2.0000      -0.562324       -15.3016
  14   2.0000      -0.543061       -14.7774
  15   2.0000      -0.502000       -13.6601
  16   2.0000      -0.498029       -13.5521
  17   2.0000      -0.463079       -12.6010
  18   2.0000      -0.443248       -12.0614
  19   2.0000      -0.433043       -11.7837
  20   2.0000      -0.420194       -11.4341
  21   2.0000      -0.415791       -11.3142
  22   2.0000      -0.309982        -8.4351
  23   2.0000      -0.206479        -5.6186
  24   0.0000       0.080495         2.1904
  25   0.0000       0.109874         2.9898
  26   0.0000       0.124416         3.3855
  27   0.0000       0.139993         3.8094
  28   0.0000       0.148471         4.0401

MULLIKEN ATOMIC CHARGES
-----------------------
   0 C :   -0.007813
   1 N :   -0.182692
   2 C :   -0.022518
   3 C :   -0.087340
   4 N :   -0.150870
   5 H :    0.118979
   6 H :    0.137800
   7 H :    0.134330
   8 H :   -0.048663
   9 H :   -0.047193
  10 C :   -0.026147
  11 H :    0.035184
  12 H :    0.039299
  13 H :    0.033551
  14 H :    0.041626
  15 H :    0.032466
Sum of atomic charges:   -0.0000000

LOEWDIN ATOMIC CHARGES
----------------------
   0 C :    0.024530
   1 N :   -0.041039
   2 C :    0.040830
   3 C :   -0.255183
   4 N :   -0.043095
   5 H :    0.066703
   6 H :    0.086413
   7 H :    0.086217
   8 H :   -0.007795
   9 H :   -0.007100
  10 C :   -0.069591
  11 H :    0.018235
  12 H :    0.026553
  13 H :    0.024180
  14 H :    0.025916
  15 H :    0.024228

  Mayer bond orders larger than 0.100000
B(  0-C ,  1-N ) :   1.0120 B(  0-C , 10-C ) :   1.0667 B(  0-C , 11-H ) :   0.9576
B(  0-C , 12-H ) :   0.9592 B(  1-N ,  2-C ) :   1.1957 B(  1-N ,  7-H ) :   0.9190
B(  2-C ,  3-C ) :   1.7693 B(  2-C ,  4-N ) :   1.2056 B(  3-C ,  8-H ) :   0.9261
B(  3-C ,  9-H ) :   0.9412 B(  4-N ,  5-H ) :   0.9447 B(  4-N ,  6-H ) :   0.9395
B( 10-C , 13-H ) :   0.9706 B( 10-C , 14-H ) :   0.9670 B( 10-C , 15-H ) :   0.9661

Dispersion correction           -0.000314216
FINAL SINGLE POINT ENERGY      -267.570120922244

DIPOLE MOMENT
-------------
                                X             Y             Z
Electronic contribution:      1.43052      -2.37392      -1.18137
Nuclear contribution   :     -1.91052       2.32590       2.09379
                        -----------------------------------------
Total Dipole Moment    :     -0.48000      -0.04802       0.91242
                        -----------------------------------------
Magnitude (a.u.)       :      1.03210
Magnitude (Debye)      :      2.62338

Rotational constants in cm-1:     0.219448     0.077923     0.068804
Rotational constants in MHz :  6578.886179  2336.083179  2062.700476

                             ****ORCA TERMINATED NORMALLY****
TOTAL RUN TIME: 0 days 0 hours 0 minutes 13 seconds 143 msec
