                         Program Version 5.0.0 -  RELEASE  -
|  1> !M062X D3Zero RIJCOSX def2-SVP def2/J TightSCF
|  2> *xyz 0 1
|  3> C          0.61188        1.65763       -4.50029
|  4> C          1.69499        1.54179       -5.57045
|  5> H          2.69733        1.73466       -5.18400
|  6> H          1.50666        2.27224       -6.35808
|  7> S          1.78029       -0.03313       -6.42874
|  8> O          2.56929        0.21366       -7.60736
|  9> O          0.41688       -0.46297       -6.61859
| 10> F          2.50513       -0.93326       -5.48257
| 11> H         -0.34424        1.45871       -4.93752
| 12> H          0.61845        2.64655       -4.09174
| 13> H          0.80247        0.94882       -3.72173
| 14> *
| 15> %MaxCore 64000
| 16>
| 17> %pal nprocs 4
| 18> end
| 19>
| 20> %scf
| 21>   MaxIter 150
| 22> end
| 23>
| 24>
| 25>                          ****END OF INPUT****

CARTESIAN COORDINATES (ANGSTROEM)
---------------------------------
  C      0.611880    1.657630   -4.500290
  C      1.694990    1.541790   -5.570450
  H      2.697330    1.734660   -5.184000
  H      1.506660    2.272240   -6.358080
  S      1.780290   -0.033130   -6.428740
  O      2.569290    0.213660   -7.607360
  O      0.416880   -0.462970   -6.618590
  F      2.505130   -0.933260   -5.482570
  H     -0.344240    1.458710   -4.937520
  H      0.618450    2.646550   -4.091740
  H      0.802470    0.948820   -3.721730

 Total Charge           Charge          ....    0
 Multiplicity           Mult            ....    1
 Number of Electrons    NEL             ....   58
 Basis Dimension        Dim             ....  113

ORBITAL ENERGIES
----------------

  NO   OCC          E(Eh)            E(eV)
   0   2.0000     -90.173913     -2453.7569
   1   2.0000     -25.337812      -689.4769
   2   2.0000     -19.638911      -534.4019
   3   2.0000     -19.637121      -534.3532
   4   2.0000     -10.609363      -288.6954
   5   2.0000     -10.572799      -287.7005
   6   2.0000      -8.506532      -231.4745
   7   2.0000      -6.433997      -175.0780
   8   2.0000      -6.429108      -174.9449
   9   2.0000      -6.428081      -174.9170
  10   2.0000      -1.465852       -39.8879
  11   2.0000      -1.230300       -33.4782
  12   2.0000      -1.131847       -30.7991
  13   2.0000      -0.915235       -24.9048
  14   2.0000      -0.808583       -22.0027
  15   2.0000      -0.754779       -20.5386
  16   2.0000      -0.661869       -18.0104
  17   2.0000      -0.649752       -17.6806
  18   2.0000      -0.627104       -17.0644
  19   2.0000      -0.566749       -15.4220
  20   2.0000      -0.553979       -15.0745
  21   2.0000      -0.529641       -14.4123
  22   2.0000      -0.501615       -13.6496
  23   2.0000      -0.471710       -12.8359
  24   2.0000      -0.468964       -12.7612
  25   2.0000      -0.447581       -12.1793
  26   2.0000      -0.406892       -11.0721
  27   2.0000      -0.392413       -10.6781
  28   2.0000      -0.386847       -10.5266
  29   0.0000       0.072575         1.9749
  30   0.0000       0.099467         2.7066
  31   0.0000       0.127145         3.4598
  32   0.0000       0.129107         3.5132
  33   0.0000       0.136591         3.7168

MULLIKEN ATOMIC CHARGES
-----------------------
   0 C :   -0.042215
   1 C :   -0.204944
   2 H :    0.091563
   3 H :    0.112578
   4 S :    1.035077
   5 O :   -0.466950
   6 O :   -0.469223
   7 F :   -0.246795
   8 H :    0.075721
   9 H :    0.061004
  10 H :    0.054184
Sum of atomic charges:   -0.0000000

LOEWDIN ATOMIC CHARGES
----------------------
   0 C :   -0.061232
   1 C :   -0.161819
   2 H :    0.038911
   3 H :    0.053474
   4 S :    1.200348
   5 O :   -0.497713
   6 O :   -0.497828
   7 F :   -0.181605
   8 H :    0.037941
   9 H :    0.038715
  10 H :    0.030807

  Mayer bond orders larger than 0.100000
B(  0-C ,  1-C ) :   1.0467 B(  0-C ,  8-H ) :   0.9680 B(  0-C ,  9-H ) :   0.9633
B(  0-C , 10-H ) :   0.9752 B(  1-C ,  2-H ) :   0.9346 B(  1-C ,  3-H ) :   0.9362
B(  1-C ,  4-S ) :   0.9208 B(  4-S ,  5-O ) :   1.7842 B(  4-S ,  6-O ) :   1.7768
B(  4-S ,  7-F ) :   0.9393

Dispersion correction           -0.000152465
FINAL SINGLE POINT ENERGY      -727.089678546014

DIPOLE MOMENT
-------------
                                X             Y             Z
Electronic contribution:      3.78415      -7.59174      -3.92613
Nuclear contribution   :     -3.60260       8.53062       5.21025
                        -----------------------------------------
Total Dipole Moment    :      0.18154       0.93888       1.28412
                        -----------------------------------------
Magnitude (a.u.)       :      1.60106
Magnitude (Debye)      :      4.06958

Rotational constants in cm-1:     0.154011     0.080858     0.079602
Rotational constants in MHz :  4617.134198  2424.070332  2386.404775

                             ****ORCA TERMINATED NORMALLY****
TOTAL RUN TIME: 0 days 0 hours 0 minutes 9 seconds 132 msec
