                         Program Version 5.0.0 -  RELEASE  -
|  1> !M062X D3Zero RIJCOSX def2-SVP def2/J TightSCF
|  2> *xyz 0 1
|  3> C          1.96337       -1.74915       -1.89689
|  4> N          2.73849       -2.01517       -3.09711
|  5> C          4.04974       -2.15472       -3.15204
|  6> N          4.65821       -1.98629       -4.31866
|  7> C          4.76423       -2.45444       -2.05049
|  8> H          4.28736       -2.77626       -1.21750
|  9> H          5.75082       -2.65835       -2.12599
| 10> H          2.34518       -1.69027       -3.97145
| 11> H          4.10900       -1.59268       -5.07176
| 12> H          5.64910       -2.15646       -4.42724
| 13> C          2.08852       -0.30091       -1.41520
| 14> H          2.23127       -2.45162       -1.10264
| 15> H          0.93025       -1.97780       -2.15544
| 16> H          1.82118        0.36368       -2.21003
| 17> H          3.09792       -0.11068       -1.11551
| 18> H          1.43391       -0.14382       -0.58352
| 19> *
| 20> %MaxCore 64000
| 21>
| 22> %pal nprocs 4
| 23> end
| 24>
| 25> %scf
| 26>   MaxIter 150
| 27> end
| 28>
| 29>
| 30>                          ****END OF INPUT****

CARTESIAN COORDINATES (ANGSTROEM)
---------------------------------
  C      1.963370   -1.749150   -1.896890
  N      2.738490   -2.015170   -3.097110
  C      4.049740   -2.154720   -3.152040
  N      4.658210   -1.986290   -4.318660
  C      4.764230   -2.454440   -2.050490
  H      4.287360   -2.776260   -1.217500
  H      5.750820   -2.658350   -2.125990
  H      2.345180   -1.690270   -3.971450
  H      4.109000   -1.592680   -5.071760
  H      5.649100   -2.156460   -4.427240
  C      2.088520   -0.300910   -1.415200
  H      2.231270   -2.451620   -1.102640
  H      0.930250   -1.977800   -2.155440
  H      1.821180    0.363680   -2.210030
  H      3.097920   -0.110680   -1.115510
  H      1.433910   -0.143820   -0.583520

 Total Charge           Charge          ....    0
 Multiplicity           Mult            ....    1
 Number of Electrons    NEL             ....   48
 Basis Dimension        Dim             ....  134

ORBITAL ENERGIES
----------------

  NO   OCC          E(Eh)            E(eV)
   0   2.0000     -14.755498      -401.5175
   1   2.0000     -14.754561      -401.4920
   2   2.0000     -10.591314      -288.2043
   3   2.0000     -10.581080      -287.9258
   4   2.0000     -10.530773      -286.5569
   5   2.0000     -10.456043      -284.5234
   6   2.0000      -1.067654       -29.0523
   7   2.0000      -0.973538       -26.4913
   8   2.0000      -0.836751       -22.7692
   9   2.0000      -0.784332       -21.3428
  10   2.0000      -0.718427       -19.5494
  11   2.0000      -0.631040       -17.1715
  12   2.0000      -0.614765       -16.7286
  13   2.0000      -0.590703       -16.0739
  14   2.0000      -0.532622       -14.4934
  15   2.0000      -0.503649       -13.7050
  16   2.0000      -0.481793       -13.1103
  17   2.0000      -0.458038       -12.4638
  18   2.0000      -0.439793       -11.9674
  19   2.0000      -0.426720       -11.6116
  20   2.0000      -0.422817       -11.5054
  21   2.0000      -0.404813       -11.0155
  22   2.0000      -0.307453        -8.3662
  23   2.0000      -0.206013        -5.6059
  24   0.0000       0.079872         2.1734
  25   0.0000       0.112686         3.0663
  26   0.0000       0.128693         3.5019
  27   0.0000       0.137526         3.7423
  28   0.0000       0.156128         4.2485

MULLIKEN ATOMIC CHARGES
-----------------------
   0 C :    0.018499
   1 N :   -0.202715
   2 C :   -0.012328
   3 N :   -0.135860
   4 C :   -0.110813
   5 H :   -0.038497
   6 H :   -0.050965
   7 H :    0.110275
   8 H :    0.115958
   9 H :    0.143588
  10 C :   -0.031113
  11 H :    0.058095
  12 H :    0.032466
  13 H :    0.019404
  14 H :    0.051035
  15 H :    0.032970
Sum of atomic charges:    0.0000000

LOEWDIN ATOMIC CHARGES
----------------------
   0 C :    0.038661
   1 N :   -0.040419
   2 C :    0.039822
   3 N :   -0.031922
   4 C :   -0.271408
   5 H :   -0.006914
   6 H :   -0.008805
   7 H :    0.065112
   8 H :    0.066784
   9 H :    0.089123
  10 C :   -0.067575
  11 H :    0.031218
  12 H :    0.022930
  13 H :    0.017871
  14 H :    0.030486
  15 H :    0.025037

  Mayer bond orders larger than 0.100000
B(  0-C ,  1-N ) :   0.9968 B(  0-C , 10-C ) :   1.0873 B(  0-C , 11-H ) :   0.9501
B(  0-C , 12-H ) :   0.9612 B(  1-N ,  2-C ) :   1.1733 B(  1-N ,  7-H ) :   0.9304
B(  2-C ,  3-N ) :   1.2303 B(  2-C ,  4-C ) :   1.7562 B(  3-N ,  8-H ) :   0.9453
B(  3-N ,  9-H ) :   0.9370 B(  4-C ,  5-H ) :   0.9332 B(  4-C ,  6-H ) :   0.9377
B( 10-C , 13-H ) :   0.9702 B( 10-C , 14-H ) :   0.9649 B( 10-C , 15-H ) :   0.9679

Dispersion correction           -0.000315779
FINAL SINGLE POINT ENERGY      -267.568807502482

DIPOLE MOMENT
-------------
                                X             Y             Z
Electronic contribution:      1.34410      -1.80967      -3.53011
Nuclear contribution   :     -1.88803       2.22658       2.57497
                        -----------------------------------------
Total Dipole Moment    :     -0.54393       0.41691      -0.95514
                        -----------------------------------------
Magnitude (a.u.)       :      1.17557
Magnitude (Debye)      :      2.98806

Rotational constants in cm-1:     0.226509     0.075782     0.067928
Rotational constants in MHz :  6790.555051  2271.890226  2036.439218

                             ****ORCA TERMINATED NORMALLY****
TOTAL RUN TIME: 0 days 0 hours 0 minutes 12 seconds 499 msec
