                         Program Version 5.0.0 -  RELEASE  -
|  1> !M062X D3Zero RIJCOSX def2-TZVP def2/J TightSCF xyzfile
|  2>
|  3> *xyzfile 0 1 D1.xyz
|  4>
|  5> %MaxCore 64000
|  6>
|  7> %pal nprocs 18
|  8> end
|  9>
| 10> %scf
| 11>   MaxIter 150
| 12> end
| 13>
| 14>
| 15>                          ****END OF INPUT****

CARTESIAN COORDINATES (ANGSTROEM)
---------------------------------
  C      1.963365   -1.749150   -1.896887
  C      2.738490   -2.015170   -3.097113
  C      0.611877    1.657634   -4.500288
  C      1.694991    1.541794   -5.570447
  H      2.697326    1.734659   -5.183996
  H      1.506656    2.272239   -6.358076
  S      1.780287   -0.033128   -6.428739
  C      4.049736   -2.154717   -3.152044
  N      4.658206   -1.986293   -4.318655
  N      4.764231   -2.454435   -2.050491
  H      4.287363   -2.776259   -1.217496
  H      5.750825   -2.658351   -2.125988
  H      2.345176   -1.690274   -3.971447
  H      4.109004   -1.592677   -5.071760
  H      5.649095   -2.156462   -4.427237
  F      2.569287    0.213657   -7.607360
  O      0.416880   -0.462969   -6.618595
  C      2.088520   -0.300912   -1.415204
  H      2.231272   -2.451616   -1.102643
  H      0.930249   -1.977801   -2.155438
  C      0.680356    0.655418   -3.348038
  H     -0.356865    1.549231   -4.991128
  H      0.650228    2.675438   -4.096000
  C      1.968993    0.733582   -2.535654
  H      3.051356   -0.168602   -0.911868
  H      1.316501   -0.136231   -0.657252
  O      2.505129   -0.933263   -5.482570
  H      2.824195    0.624726   -3.208464
  H      2.058919    1.730331   -2.093112
  H      0.542252   -0.344731   -3.766662
  H     -0.174219    0.829692   -2.685182

 Total Charge           Charge          ....    0
 Multiplicity           Mult            ....    1
 Number of Electrons    NEL             ....  120
 Basis Dimension        Dim             ....  542

ORBITAL ENERGIES
----------------

  NO   OCC          E(Eh)            E(eV)
   0   2.0000     -90.162002     -2453.4328
   1   2.0000     -25.378724      -690.5902
   2   2.0000     -19.651118      -534.7341
   3   2.0000     -19.637650      -534.3676
   4   2.0000     -14.728771      -400.7902
   5   2.0000     -14.713260      -400.3682
   6   2.0000     -10.599747      -288.4338
   7   2.0000     -10.559921      -287.3500
   8   2.0000     -10.557030      -287.2714
   9   2.0000     -10.527920      -286.4793
  10   2.0000     -10.515782      -286.1490
  11   2.0000     -10.505323      -285.8644
  12   2.0000     -10.493169      -285.5337
  13   2.0000     -10.421026      -283.5705
  14   2.0000      -8.487654      -230.9608
  15   2.0000      -6.412350      -174.4889
  16   2.0000      -6.407283      -174.3510
  17   2.0000      -6.407053      -174.3448
  18   2.0000      -1.542936       -41.9854
  19   2.0000      -1.238912       -33.7125
  20   2.0000      -1.138387       -30.9771
  21   2.0000      -1.047560       -28.5055
  22   2.0000      -0.952237       -25.9117
  23   2.0000      -0.936465       -25.4825
  24   2.0000      -0.890468       -24.2309
  25   2.0000      -0.854295       -23.2466
  26   2.0000      -0.822229       -22.3740
  27   2.0000      -0.783890       -21.3307
  28   2.0000      -0.742333       -20.1999
  29   2.0000      -0.709655       -19.3107
  30   2.0000      -0.703800       -19.1514
  31   2.0000      -0.679993       -18.5035
  32   2.0000      -0.672533       -18.3005
  33   2.0000      -0.632815       -17.2198
  34   2.0000      -0.627806       -17.0835
  35   2.0000      -0.598660       -16.2904
  36   2.0000      -0.573919       -15.6171
  37   2.0000      -0.566953       -15.4276
  38   2.0000      -0.560160       -15.2427
  39   2.0000      -0.541148       -14.7254
  40   2.0000      -0.534565       -14.5462
  41   2.0000      -0.514372       -13.9968
  42   2.0000      -0.501773       -13.6539
  43   2.0000      -0.492992       -13.4150
  44   2.0000      -0.481242       -13.0953
  45   2.0000      -0.472638       -12.8611
  46   2.0000      -0.448271       -12.1981
  47   2.0000      -0.443790       -12.0761
  48   2.0000      -0.435997       -11.8641
  49   2.0000      -0.428431       -11.6582
  50   2.0000      -0.420221       -11.4348
  51   2.0000      -0.396671       -10.7940
  52   2.0000      -0.395186       -10.7536
  53   2.0000      -0.392977       -10.6934
  54   2.0000      -0.385232       -10.4827
  55   2.0000      -0.370453       -10.0805
  56   2.0000      -0.356625        -9.7043
  57   2.0000      -0.344035        -9.3617
  58   2.0000      -0.309091        -8.4108
  59   2.0000      -0.187768        -5.1094
  60   0.0000       0.050503         1.3742
  61   0.0000       0.061744         1.6801
  62   0.0000       0.065508         1.7826
  63   0.0000       0.084086         2.2881
  64   0.0000       0.087778         2.3885

MULLIKEN ATOMIC CHARGES
-----------------------
   0 C :   -0.465879
   1 C :   -0.272153
   2 C :   -0.272241
   3 C :   -0.379231
   4 H :    0.201726
   5 H :    0.186325
   6 S :    0.947425
   7 C :    0.431141
   8 N :   -0.585410
   9 N :   -0.578274
  10 H :    0.254528
  11 H :    0.226175
  12 H :    0.162163
  13 H :    0.277281
  14 H :    0.219285
  15 F :   -0.106814
  16 O :   -0.424596
  17 C :   -0.246936
  18 H :    0.128523
  19 H :    0.160695
  20 C :   -0.379521
  21 H :    0.179672
  22 H :    0.164032
  23 C :   -0.224720
  24 H :    0.139619
  25 H :    0.129798
  26 O :   -0.513453
  27 H :    0.152239
  28 H :    0.140301
  29 H :    0.197344
  30 H :    0.150955
Sum of atomic charges:    0.0000000

LOEWDIN ATOMIC CHARGES
----------------------
   0 C :   -0.298528
   1 C :   -0.287302
   2 C :   -0.279431
   3 C :   -0.371694
   4 H :    0.144894
   5 H :    0.141007
   6 S :    0.578595
   7 C :   -0.462950
   8 N :   -0.029289
   9 N :   -0.034569
  10 H :    0.173874
  11 H :    0.158752
  12 H :    0.120774
  13 H :    0.166337
  14 H :    0.155768
  15 F :    0.096775
  16 O :   -0.257015
  17 C :   -0.265178
  18 H :    0.129030
  19 H :    0.141871
  20 C :   -0.268824
  21 H :    0.148592
  22 H :    0.149626
  23 C :   -0.273730
  24 H :    0.136470
  25 H :    0.130348
  26 O :   -0.307379
  27 H :    0.139712
  28 H :    0.133970
  29 H :    0.146709
  30 H :    0.142784

  Mayer bond orders larger than 0.100000
B(  0-C ,  1-C ) :   0.9328 B(  0-C , 17-C ) :   0.8744 B(  0-C , 18-H ) :   1.0049
B(  0-C , 19-H ) :   1.0076 B(  1-C ,  7-C ) :   1.6632 B(  1-C , 12-H ) :   1.0321
B(  2-C ,  3-C ) :   0.9083 B(  2-C , 20-C ) :   0.9283 B(  2-C , 21-H ) :   0.9789
B(  2-C , 22-H ) :   0.9678 B(  3-C ,  4-H ) :   0.9382 B(  3-C ,  5-H ) :   0.9453
B(  3-C ,  6-S ) :   0.9301 B(  6-S , 15-F ) :   1.1269 B(  6-S , 16-O ) :   1.9244
B(  6-S , 26-O ) :   1.7244 B(  7-C ,  8-N ) :   1.0923 B(  7-C ,  9-N ) :   1.0648
B(  8-N , 13-H ) :   0.8848 B(  8-N , 14-H ) :   0.9409 B(  9-N , 10-H ) :   0.9203
B(  9-N , 11-H ) :   0.9362 B( 17-C , 23-C ) :   0.9335 B( 17-C , 24-H ) :   0.9853
B( 17-C , 25-H ) :   0.9934 B( 20-C , 23-C ) :   0.8563 B( 20-C , 29-H ) :   0.9796
B( 20-C , 30-H ) :   0.9800 B( 23-C , 27-H ) :   0.9753 B( 23-C , 28-H ) :   0.9833

Dispersion correction           -0.001893218
FINAL SINGLE POINT ENERGY     -1072.967474597785

DIPOLE MOMENT
-------------
                                X             Y             Z
Electronic contribution:      0.79446      -0.97854     -23.54997
Nuclear contribution   :      0.18720       2.58739      22.98820
                        -----------------------------------------
Total Dipole Moment    :      0.98166       1.60885      -0.56177
                        -----------------------------------------
Magnitude (a.u.)       :      1.96664
Magnitude (Debye)      :      4.99879

Rotational constants in cm-1:     0.028798     0.014448     0.010940
Rotational constants in MHz :   863.355869   433.126694   327.985023

                             ****ORCA TERMINATED NORMALLY****
TOTAL RUN TIME: 0 days 0 hours 1 minutes 13 seconds 893 msec
