                         Program Version 5.0.0 -  RELEASE  -
|  1> !M062X D3Zero RIJCOSX def2-TZVP def2/J TightSCF xyzfile
|  2>
|  3> *xyzfile 0 1 D2.xyz
|  4>
|  5> %MaxCore 64000
|  6>
|  7> %pal nprocs 18
|  8> end
|  9>
| 10> %scf
| 11>   MaxIter 150
| 12> end
| 13>
| 14>
| 15>                          ****END OF INPUT****

CARTESIAN COORDINATES (ANGSTROEM)
---------------------------------
  C      1.963365   -1.749150   -1.896887
  N      2.738490   -2.015170   -3.097113
  C      0.611877    1.657634   -4.500288
  C      1.694991    1.541794   -5.570447
  H      2.697326    1.734659   -5.183996
  H      1.506656    2.272239   -6.358076
  S      1.780287   -0.033128   -6.428739
  C      4.049736   -2.154717   -3.152044
  C      4.658206   -1.986293   -4.318655
  N      4.764231   -2.454435   -2.050491
  H      4.287363   -2.776259   -1.217496
  H      5.750825   -2.658351   -2.125988
  H      2.345176   -1.690274   -3.971447
  H      4.109004   -1.592677   -5.071760
  H      5.649095   -2.156462   -4.427237
  F      2.569287    0.213657   -7.607360
  O      0.416880   -0.462969   -6.618595
  C      2.088520   -0.300912   -1.415204
  H      2.231272   -2.451616   -1.102643
  H      0.930249   -1.977801   -2.155438
  C      0.680356    0.655418   -3.348038
  H     -0.356865    1.549231   -4.991128
  H      0.650228    2.675438   -4.096000
  C      1.968993    0.733582   -2.535654
  H      3.051356   -0.168602   -0.911868
  H      1.316501   -0.136231   -0.657252
  O      2.505129   -0.933263   -5.482570
  H      2.824195    0.624726   -3.208464
  H      2.058919    1.730331   -2.093112
  H      0.542252   -0.344731   -3.766662
  H     -0.174219    0.829692   -2.685182

 Total Charge           Charge          ....    0
 Multiplicity           Mult            ....    1
 Number of Electrons    NEL             ....  120
 Basis Dimension        Dim             ....  542

ORBITAL ENERGIES
----------------

  NO   OCC          E(Eh)            E(eV)
   0   2.0000     -90.165067     -2453.5162
   1   2.0000     -25.380282      -690.6326
   2   2.0000     -19.653270      -534.7927
   3   2.0000     -19.637640      -534.3673
   4   2.0000     -14.726962      -400.7410
   5   2.0000     -14.712570      -400.3494
   6   2.0000     -10.603401      -288.5332
   7   2.0000     -10.568091      -287.5724
   8   2.0000     -10.558119      -287.3010
   9   2.0000     -10.557934      -287.2960
  10   2.0000     -10.542170      -286.8670
  11   2.0000     -10.531727      -286.5829
  12   2.0000     -10.526616      -286.4438
  13   2.0000     -10.416063      -283.4355
  14   2.0000      -8.490497      -231.0382
  15   2.0000      -6.415032      -174.5619
  16   2.0000      -6.410219      -174.4309
  17   2.0000      -6.410039      -174.4260
  18   2.0000      -1.543887       -42.0113
  19   2.0000      -1.240958       -33.7682
  20   2.0000      -1.139622       -31.0107
  21   2.0000      -1.056331       -28.7442
  22   2.0000      -0.968511       -26.3545
  23   2.0000      -0.943298       -25.6684
  24   2.0000      -0.892513       -24.2865
  25   2.0000      -0.859442       -23.3866
  26   2.0000      -0.820306       -22.3216
  27   2.0000      -0.790160       -21.5013
  28   2.0000      -0.750465       -20.4212
  29   2.0000      -0.716797       -19.5050
  30   2.0000      -0.704960       -19.1829
  31   2.0000      -0.685749       -18.6602
  32   2.0000      -0.676926       -18.4201
  33   2.0000      -0.647764       -17.6266
  34   2.0000      -0.640031       -17.4161
  35   2.0000      -0.591214       -16.0878
  36   2.0000      -0.578998       -15.7553
  37   2.0000      -0.573025       -15.5928
  38   2.0000      -0.550571       -14.9818
  39   2.0000      -0.550077       -14.9683
  40   2.0000      -0.537144       -14.6164
  41   2.0000      -0.528720       -14.3872
  42   2.0000      -0.510907       -13.9025
  43   2.0000      -0.499058       -13.5800
  44   2.0000      -0.485388       -13.2081
  45   2.0000      -0.472521       -12.8579
  46   2.0000      -0.456037       -12.4094
  47   2.0000      -0.448413       -12.2020
  48   2.0000      -0.438618       -11.9354
  49   2.0000      -0.431540       -11.7428
  50   2.0000      -0.422121       -11.4865
  51   2.0000      -0.417872       -11.3709
  52   2.0000      -0.416448       -11.3321
  53   2.0000      -0.400910       -10.9093
  54   2.0000      -0.390772       -10.6335
  55   2.0000      -0.384412       -10.4604
  56   2.0000      -0.378666       -10.3040
  57   2.0000      -0.373354       -10.1595
  58   2.0000      -0.295421        -8.0388
  59   2.0000      -0.191811        -5.2195
  60   0.0000       0.047514         1.2929
  61   0.0000       0.057545         1.5659
  62   0.0000       0.066175         1.8007
  63   0.0000       0.078907         2.1472
  64   0.0000       0.086773         2.3612

MULLIKEN ATOMIC CHARGES
-----------------------
   0 C :   -0.361477
   1 N :   -0.337030
   2 C :   -0.273857
   3 C :   -0.382745
   4 H :    0.208600
   5 H :    0.188219
   6 S :    0.960125
   7 C :    0.460040
   8 C :   -0.573962
   9 N :   -0.589992
  10 H :    0.235038
  11 H :    0.249073
  12 H :    0.279209
  13 H :    0.128311
  14 H :    0.093074
  15 F :   -0.101754
  16 O :   -0.431553
  17 C :   -0.199718
  18 H :    0.149267
  19 H :    0.182322
  20 C :   -0.361982
  21 H :    0.181928
  22 H :    0.167184
  23 C :   -0.313769
  24 H :    0.152462
  25 H :    0.134453
  26 O :   -0.510788
  27 H :    0.181509
  28 H :    0.146382
  29 H :    0.187727
  30 H :    0.153704
Sum of atomic charges:    0.0000000

LOEWDIN ATOMIC CHARGES
----------------------
   0 C :   -0.304355
   1 N :    0.117582
   2 C :   -0.277944
   3 C :   -0.370589
   4 H :    0.147042
   5 H :    0.141855
   6 S :    0.583680
   7 C :   -0.469392
   8 C :   -0.354505
   9 N :   -0.032382
  10 H :    0.159376
  11 H :    0.173842
  12 H :    0.181003
  13 H :    0.096337
  14 H :    0.089595
  15 F :    0.103496
  16 O :   -0.261465
  17 C :   -0.274518
  18 H :    0.127543
  19 H :    0.134873
  20 C :   -0.272935
  21 H :    0.149579
  22 H :    0.150698
  23 C :   -0.274790
  24 H :    0.140118
  25 H :    0.135804
  26 O :   -0.305716
  27 H :    0.143711
  28 H :    0.138136
  29 H :    0.140949
  30 H :    0.143371

  Mayer bond orders larger than 0.100000
B(  0-C ,  1-N ) :   0.9381 B(  0-C , 17-C ) :   0.8499 B(  0-C , 18-H ) :   1.0040
B(  0-C , 19-H ) :   0.9942 B(  1-N ,  7-C ) :   1.1713 B(  1-N , 12-H ) :   0.8924
B(  2-C ,  3-C ) :   0.9083 B(  2-C , 20-C ) :   0.9329 B(  2-C , 21-H ) :   0.9782
B(  2-C , 22-H ) :   0.9681 B(  3-C ,  4-H ) :   0.9370 B(  3-C ,  5-H ) :   0.9463
B(  3-C ,  6-S ) :   0.9294 B(  6-S , 15-F ) :   1.1387 B(  6-S , 16-O ) :   1.9159
B(  6-S , 26-O ) :   1.7192 B(  7-C ,  8-C ) :   1.6258 B(  7-C ,  9-N ) :   1.0328
B(  8-C , 13-H ) :   1.0021 B(  8-C , 14-H ) :   1.0037 B(  9-N , 10-H ) :   0.9219
B(  9-N , 11-H ) :   0.9333 B( 17-C , 23-C ) :   0.9195 B( 17-C , 24-H ) :   0.9780
B( 17-C , 25-H ) :   0.9838 B( 20-C , 23-C ) :   0.8637 B( 20-C , 29-H ) :   0.9774
B( 20-C , 30-H ) :   0.9786 B( 23-C , 27-H ) :   0.9702 B( 23-C , 28-H ) :   0.9791

Dispersion correction           -0.001889559
FINAL SINGLE POINT ENERGY     -1072.965669968464

DIPOLE MOMENT
-------------
                                X             Y             Z
Electronic contribution:     -0.87094      -0.79131     -22.49939
Nuclear contribution   :      0.43347       2.59110      22.83150
                        -----------------------------------------
Total Dipole Moment    :     -0.43748       1.79979       0.33211
                        -----------------------------------------
Magnitude (a.u.)       :      1.88173
Magnitude (Debye)      :      4.78299

Rotational constants in cm-1:     0.029257     0.014415     0.010996
Rotational constants in MHz :   877.098782   432.159206   329.643335

                             ****ORCA TERMINATED NORMALLY****
TOTAL RUN TIME: 0 days 0 hours 1 minutes 21 seconds 920 msec
