                         Program Version 5.0.0 -  RELEASE  -
|  1> !M062X D3Zero RIJCOSX def2-TZVP def2/J TightSCF xyzfile
|  2>
|  3> *xyzfile 0 1 D4.xyz
|  4>
|  5> %MaxCore 64000
|  6>
|  7> %pal nprocs 18
|  8> end
|  9>
| 10> %scf
| 11>   MaxIter 150
| 12> end
| 13>
| 14>
| 15>                          ****END OF INPUT****

CARTESIAN COORDINATES (ANGSTROEM)
---------------------------------
  C      1.963365   -1.749150   -1.896887
  C      2.738490   -2.015170   -3.097113
  C      0.611877    1.657634   -4.500288
  C      1.694991    1.541794   -5.570447
  H      2.697326    1.734659   -5.183996
  H      1.506656    2.272239   -6.358076
  S      1.780287   -0.033128   -6.428739
  C      4.049736   -2.154717   -3.152044
  N      4.658206   -1.986293   -4.318655
  N      4.764231   -2.454435   -2.050491
  H      4.287363   -2.776259   -1.217496
  H      5.750825   -2.658351   -2.125988
  H      2.345176   -1.690274   -3.971447
  H      4.109004   -1.592677   -5.071760
  H      5.649095   -2.156462   -4.427237
  O      2.569287    0.213657   -7.607360
  F      0.416880   -0.462969   -6.618595
  C      2.088520   -0.300912   -1.415204
  H      2.231272   -2.451616   -1.102643
  H      0.930249   -1.977801   -2.155438
  C      0.680356    0.655418   -3.348038
  H     -0.356865    1.549231   -4.991128
  H      0.650228    2.675438   -4.096000
  C      1.968993    0.733582   -2.535654
  H      3.051356   -0.168602   -0.911868
  H      1.316501   -0.136231   -0.657252
  O      2.505129   -0.933263   -5.482570
  H      2.824195    0.624726   -3.208464
  H      2.058919    1.730331   -2.093112
  H      0.542252   -0.344731   -3.766662
  H     -0.174219    0.829692   -2.685182

 Total Charge           Charge          ....    0
 Multiplicity           Mult            ....    1
 Number of Electrons    NEL             ....  120
 Basis Dimension        Dim             ....  542

ORBITAL ENERGIES
----------------

  NO   OCC          E(Eh)            E(eV)
   0   2.0000     -90.162534     -2453.4473
   1   2.0000     -25.378546      -690.5854
   2   2.0000     -19.650268      -534.7110
   3   2.0000     -19.635772      -534.3165
   4   2.0000     -14.729421      -400.8079
   5   2.0000     -14.712661      -400.3518
   6   2.0000     -10.599749      -288.4338
   7   2.0000     -10.564639      -287.4784
   8   2.0000     -10.557861      -287.2940
   9   2.0000     -10.536493      -286.7126
  10   2.0000     -10.520355      -286.2734
  11   2.0000     -10.508516      -285.9512
  12   2.0000     -10.496025      -285.6114
  13   2.0000     -10.421054      -283.5713
  14   2.0000      -8.488072      -230.9722
  15   2.0000      -6.412830      -174.5020
  16   2.0000      -6.407744      -174.3636
  17   2.0000      -6.407386      -174.3538
  18   2.0000      -1.540925       -41.9307
  19   2.0000      -1.239929       -33.7402
  20   2.0000      -1.137673       -30.9577
  21   2.0000      -1.047669       -28.5085
  22   2.0000      -0.952230       -25.9115
  23   2.0000      -0.941800       -25.6277
  24   2.0000      -0.892364       -24.2824
  25   2.0000      -0.852777       -23.2052
  26   2.0000      -0.824218       -22.4281
  27   2.0000      -0.787860       -21.4388
  28   2.0000      -0.743089       -20.2205
  29   2.0000      -0.713135       -19.4054
  30   2.0000      -0.702306       -19.1107
  31   2.0000      -0.691271       -18.8104
  32   2.0000      -0.669611       -18.2211
  33   2.0000      -0.635155       -17.2834
  34   2.0000      -0.625438       -17.0190
  35   2.0000      -0.597058       -16.2468
  36   2.0000      -0.571337       -15.5469
  37   2.0000      -0.569642       -15.5007
  38   2.0000      -0.553228       -15.0541
  39   2.0000      -0.546051       -14.8588
  40   2.0000      -0.541406       -14.7324
  41   2.0000      -0.516523       -14.0553
  42   2.0000      -0.505174       -13.7465
  43   2.0000      -0.499903       -13.6031
  44   2.0000      -0.487084       -13.2542
  45   2.0000      -0.468264       -12.7421
  46   2.0000      -0.453344       -12.3361
  47   2.0000      -0.445486       -12.1223
  48   2.0000      -0.438016       -11.9190
  49   2.0000      -0.433505       -11.7963
  50   2.0000      -0.421978       -11.4826
  51   2.0000      -0.411017       -11.1843
  52   2.0000      -0.398314       -10.8387
  53   2.0000      -0.393421       -10.7055
  54   2.0000      -0.381753       -10.3880
  55   2.0000      -0.373977       -10.1764
  56   2.0000      -0.360180        -9.8010
  57   2.0000      -0.342493        -9.3197
  58   2.0000      -0.308940        -8.4067
  59   2.0000      -0.188557        -5.1309
  60   0.0000       0.040219         1.0944
  61   0.0000       0.064910         1.7663
  62   0.0000       0.068868         1.8740
  63   0.0000       0.081507         2.2179
  64   0.0000       0.085953         2.3389

MULLIKEN ATOMIC CHARGES
-----------------------
   0 C :   -0.460193
   1 C :   -0.269204
   2 C :   -0.306637
   3 C :   -0.363111
   4 H :    0.212356
   5 H :    0.195310
   6 S :    0.959920
   7 C :    0.424097
   8 N :   -0.582477
   9 N :   -0.577254
  10 H :    0.253801
  11 H :    0.227284
  12 H :    0.148897
  13 H :    0.288453
  14 H :    0.221063
  15 O :   -0.441209
  16 F :   -0.103115
  17 C :   -0.248985
  18 H :    0.129687
  19 H :    0.154872
  20 C :   -0.365468
  21 H :    0.173182
  22 H :    0.165945
  23 C :   -0.218863
  24 H :    0.141885
  25 H :    0.129845
  26 O :   -0.514940
  27 H :    0.156081
  28 H :    0.143399
  29 H :    0.171076
  30 H :    0.154302
Sum of atomic charges:    0.0000000

LOEWDIN ATOMIC CHARGES
----------------------
   0 C :   -0.300362
   1 C :   -0.293046
   2 C :   -0.292695
   3 C :   -0.362817
   4 H :    0.154665
   5 H :    0.145910
   6 S :    0.583509
   7 C :   -0.462595
   8 N :   -0.024015
   9 N :   -0.034011
  10 H :    0.173592
  11 H :    0.159275
  12 H :    0.117441
  13 H :    0.171366
  14 H :    0.157347
  15 O :   -0.265313
  16 F :    0.103103
  17 C :   -0.264977
  18 H :    0.129245
  19 H :    0.139785
  20 C :   -0.272706
  21 H :    0.140876
  22 H :    0.149584
  23 C :   -0.271919
  24 H :    0.137428
  25 H :    0.130148
  26 O :   -0.308473
  27 H :    0.141622
  28 H :    0.135301
  29 H :    0.139850
  30 H :    0.142881

  Mayer bond orders larger than 0.100000
B(  0-C ,  1-C ) :   0.9302 B(  0-C , 17-C ) :   0.8725 B(  0-C , 18-H ) :   1.0048
B(  0-C , 19-H ) :   1.0099 B(  1-C ,  7-C ) :   1.6665 B(  1-C , 12-H ) :   1.0366
B(  2-C ,  3-C ) :   0.9044 B(  2-C , 20-C ) :   0.9007 B(  2-C , 21-H ) :   0.9903
B(  2-C , 22-H ) :   0.9660 B(  3-C ,  4-H ) :   0.9387 B(  3-C ,  5-H ) :   0.9526
B(  3-C ,  6-S ) :   0.9224 B(  6-S , 15-O ) :   1.9425 B(  6-S , 16-F ) :   1.1257
B(  6-S , 26-O ) :   1.7193 B(  7-C ,  8-N ) :   1.1041 B(  7-C ,  9-N ) :   1.0657
B(  8-N , 13-H ) :   0.8816 B(  8-N , 14-H ) :   0.9402 B(  9-N , 10-H ) :   0.9203
B(  9-N , 11-H ) :   0.9356 B( 17-C , 23-C ) :   0.9307 B( 17-C , 24-H ) :   0.9846
B( 17-C , 25-H ) :   0.9938 B( 20-C , 23-C ) :   0.8516 B( 20-C , 29-H ) :   0.9915
B( 20-C , 30-H ) :   0.9786 B( 23-C , 27-H ) :   0.9750 B( 23-C , 28-H ) :   0.9828

Dispersion correction           -0.001902221
FINAL SINGLE POINT ENERGY     -1072.967088952351

DIPOLE MOMENT
-------------
                                X             Y             Z
Electronic contribution:     -2.96953      -2.15076     -21.74372
Nuclear contribution   :      2.64598       3.36033      21.85869
                        -----------------------------------------
Total Dipole Moment    :     -0.32355       1.20957       0.11497
                        -----------------------------------------
Magnitude (a.u.)       :      1.25737
Magnitude (Debye)      :      3.19597

Rotational constants in cm-1:     0.028973     0.014435     0.011026
Rotational constants in MHz :   868.588266   432.748309   330.548534

                             ****ORCA TERMINATED NORMALLY****
TOTAL RUN TIME: 0 days 0 hours 1 minutes 26 seconds 291 msec
