                         Program Version 5.0.0 -  RELEASE  -
|  1> !M062X D3Zero RIJCOSX def2-TZVP def2/J TightSCF xyzfile
|  2>
|  3> *xyzfile 0 1 D5.xyz
|  4>
|  5> %MaxCore 64000
|  6>
|  7> %pal nprocs 18
|  8> end
|  9>
| 10> %scf
| 11>   MaxIter 150
| 12> end
| 13>
| 14>
| 15>                          ****END OF INPUT****

CARTESIAN COORDINATES (ANGSTROEM)
---------------------------------
  C      1.963365   -1.749150   -1.896887
  N      2.738490   -2.015170   -3.097113
  C      0.611877    1.657634   -4.500288
  C      1.694991    1.541794   -5.570447
  H      2.697326    1.734659   -5.183996
  H      1.506656    2.272239   -6.358076
  S      1.780287   -0.033128   -6.428739
  C      4.049736   -2.154717   -3.152044
  C      4.658206   -1.986293   -4.318655
  N      4.764231   -2.454435   -2.050491
  H      4.287363   -2.776259   -1.217496
  H      5.750825   -2.658351   -2.125988
  H      2.345176   -1.690274   -3.971447
  H      4.109004   -1.592677   -5.071760
  H      5.649095   -2.156462   -4.427237
  O      2.569287    0.213657   -7.607360
  F      0.416880   -0.462969   -6.618595
  C      2.088520   -0.300912   -1.415204
  H      2.231272   -2.451616   -1.102643
  H      0.930249   -1.977801   -2.155438
  C      0.680356    0.655418   -3.348038
  H     -0.356865    1.549231   -4.991128
  H      0.650228    2.675438   -4.096000
  C      1.968993    0.733582   -2.535654
  H      3.051356   -0.168602   -0.911868
  H      1.316501   -0.136231   -0.657252
  O      2.505129   -0.933263   -5.482570
  H      2.824195    0.624726   -3.208464
  H      2.058919    1.730331   -2.093112
  H      0.542252   -0.344731   -3.766662
  H     -0.174219    0.829692   -2.685182

 Total Charge           Charge          ....    0
 Multiplicity           Mult            ....    1
 Number of Electrons    NEL             ....  120
 Basis Dimension        Dim             ....  542

ORBITAL ENERGIES
----------------

  NO   OCC          E(Eh)            E(eV)
   0   2.0000     -90.163802     -2453.4818
   1   2.0000     -25.380138      -690.6287
   2   2.0000     -19.651588      -534.7469
   3   2.0000     -19.638627      -534.3942
   4   2.0000     -14.726897      -400.7392
   5   2.0000     -14.712865      -400.3574
   6   2.0000     -10.602858      -288.5184
   7   2.0000     -10.572573      -287.6943
   8   2.0000     -10.560960      -287.3783
   9   2.0000     -10.557371      -287.2807
  10   2.0000     -10.550542      -287.0948
  11   2.0000     -10.536207      -286.7048
  12   2.0000     -10.529780      -286.5299
  13   2.0000     -10.415790      -283.4281
  14   2.0000      -8.489348      -231.0069
  15   2.0000      -6.414219      -174.5398
  16   2.0000      -6.409084      -174.4001
  17   2.0000      -6.408517      -174.3846
  18   2.0000      -1.542878       -41.9838
  19   2.0000      -1.240900       -33.7666
  20   2.0000      -1.139359       -31.0035
  21   2.0000      -1.056812       -28.7573
  22   2.0000      -0.969226       -26.3740
  23   2.0000      -0.948641       -25.8138
  24   2.0000      -0.894396       -24.3377
  25   2.0000      -0.858062       -23.3490
  26   2.0000      -0.822891       -22.3920
  27   2.0000      -0.793169       -21.5832
  28   2.0000      -0.751338       -20.4450
  29   2.0000      -0.719404       -19.5760
  30   2.0000      -0.704328       -19.1657
  31   2.0000      -0.698316       -19.0021
  32   2.0000      -0.676616       -18.4116
  33   2.0000      -0.652822       -17.7642
  34   2.0000      -0.632420       -17.2090
  35   2.0000      -0.592208       -16.1148
  36   2.0000      -0.576514       -15.6877
  37   2.0000      -0.570549       -15.5254
  38   2.0000      -0.555101       -15.1051
  39   2.0000      -0.545317       -14.8388
  40   2.0000      -0.545214       -14.8360
  41   2.0000      -0.530106       -14.4249
  42   2.0000      -0.514513       -14.0006
  43   2.0000      -0.499839       -13.6013
  44   2.0000      -0.494662       -13.4604
  45   2.0000      -0.470674       -12.8077
  46   2.0000      -0.465633       -12.6705
  47   2.0000      -0.451794       -12.2939
  48   2.0000      -0.442950       -12.0533
  49   2.0000      -0.432718       -11.7748
  50   2.0000      -0.426871       -11.6157
  51   2.0000      -0.418009       -11.3746
  52   2.0000      -0.407951       -11.1009
  53   2.0000      -0.398269       -10.8374
  54   2.0000      -0.393086       -10.6964
  55   2.0000      -0.388946       -10.5838
  56   2.0000      -0.382187       -10.3998
  57   2.0000      -0.379344       -10.3225
  58   2.0000      -0.296218        -8.0605
  59   2.0000      -0.191448        -5.2096
  60   0.0000       0.037345         1.0162
  61   0.0000       0.061272         1.6673
  62   0.0000       0.066801         1.8177
  63   0.0000       0.073055         1.9879
  64   0.0000       0.084565         2.3011

MULLIKEN ATOMIC CHARGES
-----------------------
   0 C :   -0.358473
   1 N :   -0.338465
   2 C :   -0.308246
   3 C :   -0.365325
   4 H :    0.218574
   5 H :    0.196941
   6 S :    0.959981
   7 C :    0.460362
   8 C :   -0.584417
   9 N :   -0.591029
  10 H :    0.234023
  11 H :    0.249835
  12 H :    0.273283
  13 H :    0.151320
  14 H :    0.093897
  15 O :   -0.430892
  16 F :   -0.106627
  17 C :   -0.201427
  18 H :    0.150389
  19 H :    0.177206
  20 C :   -0.347851
  21 H :    0.175506
  22 H :    0.169012
  23 C :   -0.308052
  24 H :    0.154634
  25 H :    0.134337
  26 O :   -0.510472
  27 H :    0.185143
  28 H :    0.149285
  29 H :    0.160672
  30 H :    0.156875
Sum of atomic charges:    0.0000000

LOEWDIN ATOMIC CHARGES
----------------------
   0 C :   -0.306230
   1 N :    0.113805
   2 C :   -0.291289
   3 C :   -0.362354
   4 H :    0.156565
   5 H :    0.146674
   6 S :    0.582416
   7 C :   -0.471182
   8 C :   -0.345411
   9 N :   -0.033102
  10 H :    0.158860
  11 H :    0.174138
  12 H :    0.176502
  13 H :    0.100491
  14 H :    0.090716
  15 O :   -0.255767
  16 F :    0.099542
  17 C :   -0.274176
  18 H :    0.127855
  19 H :    0.132844
  20 C :   -0.277035
  21 H :    0.141893
  22 H :    0.150623
  23 C :   -0.272921
  24 H :    0.141095
  25 H :    0.135613
  26 O :   -0.302437
  27 H :    0.145561
  28 H :    0.139455
  29 H :    0.133842
  30 H :    0.143411

  Mayer bond orders larger than 0.100000
B(  0-C ,  1-N ) :   0.9405 B(  0-C , 17-C ) :   0.8479 B(  0-C , 18-H ) :   1.0036
B(  0-C , 19-H ) :   0.9970 B(  1-N ,  7-C ) :   1.1652 B(  1-N , 12-H ) :   0.8945
B(  2-C ,  3-C ) :   0.9036 B(  2-C , 20-C ) :   0.9053 B(  2-C , 21-H ) :   0.9896
B(  2-C , 22-H ) :   0.9664 B(  3-C ,  4-H ) :   0.9377 B(  3-C ,  5-H ) :   0.9535
B(  3-C ,  6-S ) :   0.9208 B(  6-S , 15-O ) :   1.9553 B(  6-S , 16-F ) :   1.1188
B(  6-S , 26-O ) :   1.7118 B(  7-C ,  8-C ) :   1.6232 B(  7-C ,  9-N ) :   1.0292
B(  8-C , 13-H ) :   0.9993 B(  8-C , 14-H ) :   1.0072 B(  9-N , 10-H ) :   0.9223
B(  9-N , 11-H ) :   0.9330 B( 17-C , 23-C ) :   0.9171 B( 17-C , 24-H ) :   0.9768
B( 17-C , 25-H ) :   0.9843 B( 20-C , 23-C ) :   0.8598 B( 20-C , 29-H ) :   0.9893
B( 20-C , 30-H ) :   0.9770 B( 23-C , 27-H ) :   0.9701 B( 23-C , 28-H ) :   0.9781

Dispersion correction           -0.001897491
FINAL SINGLE POINT ENERGY     -1072.964654144560

DIPOLE MOMENT
-------------
                                X             Y             Z
Electronic contribution:     -4.63088      -1.97105     -20.70623
Nuclear contribution   :      2.89225       3.36404      21.70199
                        -----------------------------------------
Total Dipole Moment    :     -1.73863       1.39299       0.99576
                        -----------------------------------------
Magnitude (a.u.)       :      2.44025
Magnitude (Debye)      :      6.20262

Rotational constants in cm-1:     0.029431     0.014408     0.011084
Rotational constants in MHz :   882.306106   431.946714   332.288152

                             ****ORCA TERMINATED NORMALLY****
TOTAL RUN TIME: 0 days 0 hours 1 minutes 21 seconds 766 msec
