                         Program Version 5.0.0 -  RELEASE  -
|  1> !M062X D3Zero RIJCOSX def2-TZVP def2/J TightSCF xyzfile
|  2>
|  3> *xyzfile 0 1 D7.xyz
|  4>
|  5> %MaxCore 64000
|  6>
|  7> %pal nprocs 18
|  8> end
|  9>
| 10> %scf
| 11>   MaxIter 150
| 12> end
| 13>
| 14>
| 15>                          ****END OF INPUT****

CARTESIAN COORDINATES (ANGSTROEM)
---------------------------------
  C      1.963365   -1.749150   -1.896887
  C      2.738490   -2.015170   -3.097113
  C      0.611877    1.657634   -4.500288
  C      1.694991    1.541794   -5.570447
  H      2.697326    1.734659   -5.183996
  H      1.506656    2.272239   -6.358076
  S      1.780287   -0.033128   -6.428739
  C      4.049736   -2.154717   -3.152044
  N      4.658206   -1.986293   -4.318655
  N      4.764231   -2.454435   -2.050491
  H      4.287363   -2.776259   -1.217496
  H      5.750825   -2.658351   -2.125988
  H      2.345176   -1.690274   -3.971447
  H      4.109004   -1.592677   -5.071760
  H      5.649095   -2.156462   -4.427237
  O      2.569287    0.213657   -7.607360
  O      0.416880   -0.462969   -6.618595
  C      2.088520   -0.300912   -1.415204
  H      2.231272   -2.451616   -1.102643
  H      0.930249   -1.977801   -2.155438
  C      0.680356    0.655418   -3.348038
  H     -0.356865    1.549231   -4.991128
  H      0.650228    2.675438   -4.096000
  C      1.968993    0.733582   -2.535654
  H      3.051356   -0.168602   -0.911868
  H      1.316501   -0.136231   -0.657252
  F      2.505129   -0.933263   -5.482570
  H      2.824195    0.624726   -3.208464
  H      2.058919    1.730331   -2.093112
  H      0.542252   -0.344731   -3.766662
  H     -0.174219    0.829692   -2.685182

 Total Charge           Charge          ....    0
 Multiplicity           Mult            ....    1
 Number of Electrons    NEL             ....  120
 Basis Dimension        Dim             ....  542

ORBITAL ENERGIES
----------------

  NO   OCC          E(Eh)            E(eV)
   0   2.0000     -90.151972     -2453.1599
   1   2.0000     -25.353517      -689.9043
   2   2.0000     -19.644254      -534.5473
   3   2.0000     -19.644201      -534.5459
   4   2.0000     -14.749287      -401.3485
   5   2.0000     -14.743820      -401.1997
   6   2.0000     -10.594179      -288.2823
   7   2.0000     -10.582791      -287.9724
   8   2.0000     -10.557524      -287.2848
   9   2.0000     -10.537896      -286.7507
  10   2.0000     -10.528860      -286.5048
  11   2.0000     -10.519377      -286.2468
  12   2.0000     -10.511337      -286.0280
  13   2.0000     -10.450500      -284.3726
  14   2.0000      -8.477588      -230.6869
  15   2.0000      -6.402648      -174.2249
  16   2.0000      -6.397356      -174.0809
  17   2.0000      -6.396641      -174.0614
  18   2.0000      -1.504818       -40.9482
  19   2.0000      -1.244339       -33.8602
  20   2.0000      -1.150506       -31.3069
  21   2.0000      -1.072928       -29.1959
  22   2.0000      -0.977384       -26.5960
  23   2.0000      -0.937713       -25.5165
  24   2.0000      -0.900042       -24.4914
  25   2.0000      -0.852824       -23.2065
  26   2.0000      -0.830970       -22.6118
  27   2.0000      -0.789900       -21.4943
  28   2.0000      -0.756039       -20.5729
  29   2.0000      -0.713591       -19.4178
  30   2.0000      -0.684584       -18.6285
  31   2.0000      -0.673808       -18.3352
  32   2.0000      -0.660813       -17.9816
  33   2.0000      -0.653950       -17.7949
  34   2.0000      -0.628175       -17.0935
  35   2.0000      -0.616832       -16.7848
  36   2.0000      -0.582163       -15.8415
  37   2.0000      -0.571751       -15.5581
  38   2.0000      -0.561013       -15.2659
  39   2.0000      -0.545437       -14.8421
  40   2.0000      -0.539928       -14.6922
  41   2.0000      -0.534202       -14.5364
  42   2.0000      -0.515801       -14.0357
  43   2.0000      -0.501148       -13.6369
  44   2.0000      -0.489731       -13.3263
  45   2.0000      -0.471469       -12.8293
  46   2.0000      -0.468000       -12.7349
  47   2.0000      -0.458441       -12.4748
  48   2.0000      -0.451741       -12.2925
  49   2.0000      -0.432566       -11.7707
  50   2.0000      -0.426227       -11.5982
  51   2.0000      -0.408365       -11.1122
  52   2.0000      -0.407373       -11.0852
  53   2.0000      -0.400444       -10.8966
  54   2.0000      -0.396191       -10.7809
  55   2.0000      -0.383263       -10.4291
  56   2.0000      -0.372810       -10.1447
  57   2.0000      -0.367270        -9.9939
  58   2.0000      -0.333192        -9.0666
  59   2.0000      -0.213169        -5.8006
  60   0.0000       0.043779         1.1913
  61   0.0000       0.055805         1.5185
  62   0.0000       0.070250         1.9116
  63   0.0000       0.074349         2.0231
  64   0.0000       0.086238         2.3467

MULLIKEN ATOMIC CHARGES
-----------------------
   0 C :   -0.459306
   1 C :   -0.295935
   2 C :   -0.248324
   3 C :   -0.398227
   4 H :    0.201185
   5 H :    0.204402
   6 S :    0.946455
   7 C :    0.458631
   8 N :   -0.582056
   9 N :   -0.569999
  10 H :    0.259518
  11 H :    0.232647
  12 H :    0.123051
  13 H :    0.264537
  14 H :    0.234636
  15 O :   -0.457655
  16 O :   -0.438085
  17 C :   -0.248646
  18 H :    0.136004
  19 H :    0.167101
  20 C :   -0.419613
  21 H :    0.182839
  22 H :    0.159945
  23 C :   -0.216913
  24 H :    0.143763
  25 H :    0.137776
  26 F :   -0.157348
  27 H :    0.140408
  28 H :    0.148988
  29 H :    0.192949
  30 H :    0.157273
Sum of atomic charges:    0.0000000

LOEWDIN ATOMIC CHARGES
----------------------
   0 C :   -0.294335
   1 C :   -0.293320
   2 C :   -0.286722
   3 C :   -0.368453
   4 H :    0.141801
   5 H :    0.154675
   6 S :    0.577102
   7 C :   -0.459758
   8 N :   -0.023119
   9 N :   -0.025828
  10 H :    0.176821
  11 H :    0.162533
  12 H :    0.114579
  13 H :    0.168732
  14 H :    0.163875
  15 O :   -0.274175
  16 O :   -0.264442
  17 C :   -0.263714
  18 H :    0.131905
  19 H :    0.144199
  20 C :   -0.273691
  21 H :    0.148994
  22 H :    0.147460
  23 C :   -0.274440
  24 H :    0.137471
  25 H :    0.133277
  26 F :    0.040140
  27 H :    0.135141
  28 H :    0.137568
  29 H :    0.141046
  30 H :    0.144680

  Mayer bond orders larger than 0.100000
B(  0-C ,  1-C ) :   0.9309 B(  0-C , 17-C ) :   0.8767 B(  0-C , 18-H ) :   1.0023
B(  0-C , 19-H ) :   1.0035 B(  1-C ,  7-C ) :   1.6520 B(  1-C , 12-H ) :   1.0471
B(  2-C ,  3-C ) :   0.8929 B(  2-C , 20-C ) :   0.9140 B(  2-C , 21-H ) :   0.9795
B(  2-C , 22-H ) :   0.9660 B(  3-C ,  4-H ) :   0.9429 B(  3-C ,  5-H ) :   0.9479
B(  3-C ,  6-S ) :   0.9177 B(  6-S , 15-O ) :   1.9310 B(  6-S , 16-O ) :   1.9081
B(  6-S , 26-F ) :   1.0041 B(  7-C ,  8-N ) :   1.0862 B(  7-C ,  9-N ) :   1.0874
B(  8-N , 13-H ) :   0.9094 B(  8-N , 14-H ) :   0.9344 B(  9-N , 10-H ) :   0.9174
B(  9-N , 11-H ) :   0.9330 B( 17-C , 23-C ) :   0.9290 B( 17-C , 24-H ) :   0.9864
B( 17-C , 25-H ) :   0.9930 B( 20-C , 23-C ) :   0.8424 B( 20-C , 29-H ) :   0.9906
B( 20-C , 30-H ) :   0.9773 B( 23-C , 27-H ) :   0.9776 B( 23-C , 28-H ) :   0.9837

Dispersion correction           -0.001915123
FINAL SINGLE POINT ENERGY     -1072.985026237572

DIPOLE MOMENT
-------------
                                X             Y             Z
Electronic contribution:      0.84083      -3.12569     -19.37378
Nuclear contribution   :      0.26049       3.89757      20.56096
                        -----------------------------------------
Total Dipole Moment    :      1.10132       0.77188       1.18719
                        -----------------------------------------
Magnitude (a.u.)       :      1.79391
Magnitude (Debye)      :      4.55976

Rotational constants in cm-1:     0.029090     0.014735     0.011139
Rotational constants in MHz :   872.086433   441.731892   333.928051

                             ****ORCA TERMINATED NORMALLY****
TOTAL RUN TIME: 0 days 0 hours 1 minutes 16 seconds 698 msec
