                         Program Version 5.0.0 -  RELEASE  -
|  1> !M062X D3Zero RIJCOSX def2-TZVP def2/J TightSCF xyzfile
|  2>
|  3> *xyzfile 0 1 D8.xyz
|  4>
|  5> %MaxCore 64000
|  6>
|  7> %pal nprocs 18
|  8> end
|  9>
| 10> %scf
| 11>   MaxIter 150
| 12> end
| 13>
| 14>
| 15>                          ****END OF INPUT****

CARTESIAN COORDINATES (ANGSTROEM)
---------------------------------
  C      1.963365   -1.749150   -1.896887
  N      2.738490   -2.015170   -3.097113
  C      0.611877    1.657634   -4.500288
  C      1.694991    1.541794   -5.570447
  H      2.697326    1.734659   -5.183996
  H      1.506656    2.272239   -6.358076
  S      1.780287   -0.033128   -6.428739
  C      4.049736   -2.154717   -3.152044
  C      4.658206   -1.986293   -4.318655
  N      4.764231   -2.454435   -2.050491
  H      4.287363   -2.776259   -1.217496
  H      5.750825   -2.658351   -2.125988
  H      2.345176   -1.690274   -3.971447
  H      4.109004   -1.592677   -5.071760
  H      5.649095   -2.156462   -4.427237
  O      2.569287    0.213657   -7.607360
  O      0.416880   -0.462969   -6.618595
  C      2.088520   -0.300912   -1.415204
  H      2.231272   -2.451616   -1.102643
  H      0.930249   -1.977801   -2.155438
  C      0.680356    0.655418   -3.348038
  H     -0.356865    1.549231   -4.991128
  H      0.650228    2.675438   -4.096000
  C      1.968993    0.733582   -2.535654
  H      3.051356   -0.168602   -0.911868
  H      1.316501   -0.136231   -0.657252
  F      2.505129   -0.933263   -5.482570
  H      2.824195    0.624726   -3.208464
  H      2.058919    1.730331   -2.093112
  H      0.542252   -0.344731   -3.766662
  H     -0.174219    0.829692   -2.685182

 Total Charge           Charge          ....    0
 Multiplicity           Mult            ....    1
 Number of Electrons    NEL             ....  120
 Basis Dimension        Dim             ....  542

ORBITAL ENERGIES
----------------

  NO   OCC          E(Eh)            E(eV)
   0   2.0000     -90.153776     -2453.2090
   1   2.0000     -25.354930      -689.9427
   2   2.0000     -19.646711      -534.6142
   3   2.0000     -19.644253      -534.5473
   4   2.0000     -14.747287      -401.2941
   5   2.0000     -14.743071      -401.1794
   6   2.0000     -10.597767      -288.3799
   7   2.0000     -10.583337      -287.9872
   8   2.0000     -10.577059      -287.8164
   9   2.0000     -10.565960      -287.5144
  10   2.0000     -10.552995      -287.1616
  11   2.0000     -10.545454      -286.9564
  12   2.0000     -10.541202      -286.8407
  13   2.0000     -10.444959      -284.2218
  14   2.0000      -8.479306      -230.7336
  15   2.0000      -6.404371      -174.2718
  16   2.0000      -6.399153      -174.1298
  17   2.0000      -6.398313      -174.1070
  18   2.0000      -1.505915       -40.9780
  19   2.0000      -1.245533       -33.8927
  20   2.0000      -1.151634       -31.3376
  21   2.0000      -1.082068       -29.4446
  22   2.0000      -0.991349       -26.9760
  23   2.0000      -0.945743       -25.7350
  24   2.0000      -0.899875       -24.4868
  25   2.0000      -0.864263       -23.5178
  26   2.0000      -0.818278       -22.2665
  27   2.0000      -0.805785       -21.9265
  28   2.0000      -0.764128       -20.7930
  29   2.0000      -0.723099       -19.6765
  30   2.0000      -0.688582       -18.7373
  31   2.0000      -0.681925       -18.5561
  32   2.0000      -0.668573       -18.1928
  33   2.0000      -0.662519       -18.0281
  34   2.0000      -0.636630       -17.3236
  35   2.0000      -0.609374       -16.5819
  36   2.0000      -0.579979       -15.7820
  37   2.0000      -0.572848       -15.5880
  38   2.0000      -0.562838       -15.3156
  39   2.0000      -0.554903       -15.0997
  40   2.0000      -0.546237       -14.8639
  41   2.0000      -0.541253       -14.7283
  42   2.0000      -0.518561       -14.1108
  43   2.0000      -0.507944       -13.8219
  44   2.0000      -0.493399       -13.4261
  45   2.0000      -0.480101       -13.0642
  46   2.0000      -0.472471       -12.8566
  47   2.0000      -0.461163       -12.5489
  48   2.0000      -0.451511       -12.2862
  49   2.0000      -0.442813       -12.0496
  50   2.0000      -0.435324       -11.8458
  51   2.0000      -0.431971       -11.7545
  52   2.0000      -0.420630       -11.4459
  53   2.0000      -0.409851       -11.1526
  54   2.0000      -0.404356       -11.0031
  55   2.0000      -0.399569       -10.8728
  56   2.0000      -0.395335       -10.7576
  57   2.0000      -0.390811       -10.6345
  58   2.0000      -0.318924        -8.6784
  59   2.0000      -0.217288        -5.9127
  60   0.0000       0.043619         1.1869
  61   0.0000       0.054305         1.4777
  62   0.0000       0.067799         1.8449
  63   0.0000       0.071690         1.9508
  64   0.0000       0.078875         2.1463

MULLIKEN ATOMIC CHARGES
-----------------------
   0 C :   -0.359065
   1 N :   -0.341985
   2 C :   -0.249737
   3 C :   -0.400632
   4 H :    0.208192
   5 H :    0.206017
   6 S :    0.953915
   7 C :    0.484296
   8 C :   -0.585004
   9 N :   -0.583081
  10 H :    0.240531
  11 H :    0.255055
  12 H :    0.253195
  13 H :    0.111811
  14 H :    0.106212
  15 O :   -0.447983
  16 O :   -0.445524
  17 C :   -0.198153
  18 H :    0.156734
  19 H :    0.189281
  20 C :   -0.401954
  21 H :    0.185152
  22 H :    0.163184
  23 C :   -0.314946
  24 H :    0.157200
  25 H :    0.142587
  26 F :   -0.157058
  27 H :    0.173337
  28 H :    0.155619
  29 H :    0.182026
  30 H :    0.160779
Sum of atomic charges:   -0.0000000

LOEWDIN ATOMIC CHARGES
----------------------
   0 C :   -0.299718
   1 N :    0.114449
   2 C :   -0.285524
   3 C :   -0.367427
   4 H :    0.144095
   5 H :    0.155621
   6 S :    0.578565
   7 C :   -0.466949
   8 C :   -0.347148
   9 N :   -0.023968
  10 H :    0.162498
  11 H :    0.177361
  12 H :    0.178920
  13 H :    0.093711
  14 H :    0.095375
  15 O :   -0.265186
  16 O :   -0.269006
  17 C :   -0.273148
  18 H :    0.130431
  19 H :    0.136983
  20 C :   -0.277649
  21 H :    0.150018
  22 H :    0.148560
  23 C :   -0.275511
  24 H :    0.141305
  25 H :    0.138749
  26 F :    0.042670
  27 H :    0.139553
  28 H :    0.141894
  29 H :    0.134930
  30 H :    0.145543

  Mayer bond orders larger than 0.100000
B(  0-C ,  1-N ) :   0.9181 B(  0-C , 17-C ) :   0.8509 B(  0-C , 18-H ) :   1.0021
B(  0-C , 19-H ) :   0.9914 B(  1-N ,  7-C ) :   1.1672 B(  1-N , 12-H ) :   0.9185
B(  2-C ,  3-C ) :   0.8917 B(  2-C , 20-C ) :   0.9188 B(  2-C , 21-H ) :   0.9784
B(  2-C , 22-H ) :   0.9660 B(  3-C ,  4-H ) :   0.9427 B(  3-C ,  5-H ) :   0.9477
B(  3-C ,  6-S ) :   0.9162 B(  6-S , 15-O ) :   1.9395 B(  6-S , 16-O ) :   1.8988
B(  6-S , 26-F ) :   1.0010 B(  7-C ,  8-C ) :   1.5959 B(  7-C ,  9-N ) :   1.0500
B(  8-C , 13-H ) :   1.0151 B(  8-C , 14-H ) :   1.0064 B(  9-N , 10-H ) :   0.9198
B(  9-N , 11-H ) :   0.9304 B( 17-C , 23-C ) :   0.9120 B( 17-C , 24-H ) :   0.9787
B( 17-C , 25-H ) :   0.9830 B( 20-C , 23-C ) :   0.8490 B( 20-C , 29-H ) :   0.9899
B( 20-C , 30-H ) :   0.9762 B( 23-C , 27-H ) :   0.9758 B( 23-C , 28-H ) :   0.9794

Dispersion correction           -0.001910975
FINAL SINGLE POINT ENERGY     -1072.982740446877

DIPOLE MOMENT
-------------
                                X             Y             Z
Electronic contribution:     -0.84659      -2.93422     -18.30221
Nuclear contribution   :      0.50676       3.90127      20.40426
                        -----------------------------------------
Total Dipole Moment    :     -0.33984       0.96705       2.10206
                        -----------------------------------------
Magnitude (a.u.)       :      2.33866
Magnitude (Debye)      :      5.94439

Rotational constants in cm-1:     0.029548     0.014706     0.011197
Rotational constants in MHz :   885.834387   440.871746   335.667619

                             ****ORCA TERMINATED NORMALLY****
TOTAL RUN TIME: 0 days 0 hours 1 minutes 16 seconds 776 msec
