                         Program Version 5.0.0 -  RELEASE  -
|  1> !M062X D3Zero RIJCOSX def2-TZVP def2/J TightSCF xyzfile
|  2>
|  3> *xyzfile 0 1 D9.xyz
|  4>
|  5> %MaxCore 64000
|  6>
|  7> %pal nprocs 18
|  8> end
|  9>
| 10> %scf
| 11>   MaxIter 150
| 12> end
| 13>
| 14>
| 15>                          ****END OF INPUT****

CARTESIAN COORDINATES (ANGSTROEM)
---------------------------------
  C      1.963365   -1.749150   -1.896887
  N      2.738490   -2.015170   -3.097113
  C      0.611877    1.657634   -4.500288
  C      1.694991    1.541794   -5.570447
  H      2.697326    1.734659   -5.183996
  H      1.506656    2.272239   -6.358076
  S      1.780287   -0.033128   -6.428739
  C      4.049736   -2.154717   -3.152044
  N      4.658206   -1.986293   -4.318655
  C      4.764231   -2.454435   -2.050491
  H      4.287363   -2.776259   -1.217496
  H      5.750825   -2.658351   -2.125988
  H      2.345176   -1.690274   -3.971447
  H      4.109004   -1.592677   -5.071760
  H      5.649095   -2.156462   -4.427237
  O      2.569287    0.213657   -7.607360
  O      0.416880   -0.462969   -6.618595
  C      2.088520   -0.300912   -1.415204
  H      2.231272   -2.451616   -1.102643
  H      0.930249   -1.977801   -2.155438
  C      0.680356    0.655418   -3.348038
  H     -0.356865    1.549231   -4.991128
  H      0.650228    2.675438   -4.096000
  C      1.968993    0.733582   -2.535654
  H      3.051356   -0.168602   -0.911868
  H      1.316501   -0.136231   -0.657252
  F      2.505129   -0.933263   -5.482570
  H      2.824195    0.624726   -3.208464
  H      2.058919    1.730331   -2.093112
  H      0.542252   -0.344731   -3.766662
  H     -0.174219    0.829692   -2.685182

 Total Charge           Charge          ....    0
 Multiplicity           Mult            ....    1
 Number of Electrons    NEL             ....  120
 Basis Dimension        Dim             ....  542

ORBITAL ENERGIES
----------------

  NO   OCC          E(Eh)            E(eV)
   0   2.0000     -90.167434     -2453.5806
   1   2.0000     -25.377219      -690.5492
   2   2.0000     -19.659438      -534.9605
   3   2.0000     -19.658579      -534.9371
   4   2.0000     -14.744643      -401.2221
   5   2.0000     -14.743902      -401.2020
   6   2.0000     -10.607817      -288.6534
   7   2.0000     -10.583241      -287.9846
   8   2.0000     -10.571444      -287.6636
   9   2.0000     -10.570591      -287.6404
  10   2.0000     -10.555496      -287.2296
  11   2.0000     -10.546022      -286.9718
  12   2.0000     -10.535766      -286.6928
  13   2.0000     -10.446501      -284.2637
  14   2.0000      -8.493178      -231.1111
  15   2.0000      -6.418396      -174.6534
  16   2.0000      -6.412810      -174.5014
  17   2.0000      -6.412093      -174.4819
  18   2.0000      -1.527827       -41.5743
  19   2.0000      -1.259484       -34.2723
  20   2.0000      -1.164974       -31.7006
  21   2.0000      -1.086342       -29.5609
  22   2.0000      -0.993461       -27.0334
  23   2.0000      -0.951580       -25.8938
  24   2.0000      -0.901119       -24.5207
  25   2.0000      -0.863295       -23.4915
  26   2.0000      -0.831133       -22.6163
  27   2.0000      -0.793922       -21.6037
  28   2.0000      -0.784933       -21.3591
  29   2.0000      -0.729636       -19.8544
  30   2.0000      -0.707201       -19.2439
  31   2.0000      -0.694226       -18.8908
  32   2.0000      -0.677457       -18.4345
  33   2.0000      -0.652694       -17.7607
  34   2.0000      -0.630086       -17.1455
  35   2.0000      -0.617656       -16.8073
  36   2.0000      -0.595825       -16.2132
  37   2.0000      -0.586630       -15.9630
  38   2.0000      -0.575345       -15.6559
  39   2.0000      -0.560605       -15.2548
  40   2.0000      -0.552806       -15.0426
  41   2.0000      -0.534894       -14.5552
  42   2.0000      -0.517679       -14.0868
  43   2.0000      -0.508761       -13.8441
  44   2.0000      -0.497915       -13.5490
  45   2.0000      -0.486381       -13.2351
  46   2.0000      -0.472123       -12.8471
  47   2.0000      -0.467053       -12.7092
  48   2.0000      -0.449145       -12.2218
  49   2.0000      -0.441346       -12.0096
  50   2.0000      -0.437976       -11.9179
  51   2.0000      -0.433271       -11.7899
  52   2.0000      -0.430053       -11.7023
  53   2.0000      -0.417099       -11.3498
  54   2.0000      -0.412430       -11.2228
  55   2.0000      -0.404520       -11.0075
  56   2.0000      -0.399686       -10.8760
  57   2.0000      -0.387774       -10.5519
  58   2.0000      -0.313907        -8.5418
  59   2.0000      -0.216501        -5.8913
  60   0.0000       0.035566         0.9678
  61   0.0000       0.059040         1.6066
  62   0.0000       0.061957         1.6859
  63   0.0000       0.068256         1.8573
  64   0.0000       0.078606         2.1390

MULLIKEN ATOMIC CHARGES
-----------------------
   0 C :   -0.319547
   1 N :   -0.353467
   2 C :   -0.248177
   3 C :   -0.401080
   4 H :    0.207811
   5 H :    0.209818
   6 S :    0.948581
   7 C :    0.450965
   8 N :   -0.583314
   9 C :   -0.553702
  10 H :    0.105144
  11 H :    0.097826
  12 H :    0.235754
  13 H :    0.251134
  14 H :    0.258907
  15 O :   -0.445523
  16 O :   -0.433485
  17 C :   -0.211035
  18 H :    0.173431
  19 H :    0.183560
  20 C :   -0.405479
  21 H :    0.186539
  22 H :    0.165891
  23 C :   -0.312707
  24 H :    0.172538
  25 H :    0.145912
  26 F :   -0.180469
  27 H :    0.151865
  28 H :    0.156354
  29 H :    0.182133
  30 H :    0.163820
Sum of atomic charges:    0.0000000

LOEWDIN ATOMIC CHARGES
----------------------
   0 C :   -0.281170
   1 N :    0.112242
   2 C :   -0.284946
   3 C :   -0.366817
   4 H :    0.143583
   5 H :    0.156959
   6 S :    0.576582
   7 C :   -0.474966
   8 N :   -0.020869
   9 C :   -0.347928
  10 H :    0.096882
  11 H :    0.093498
  12 H :    0.165092
  13 H :    0.154728
  14 H :    0.179486
  15 O :   -0.264611
  16 O :   -0.260861
  17 C :   -0.269769
  18 H :    0.140643
  19 H :    0.134508
  20 C :   -0.277849
  21 H :    0.150272
  22 H :    0.149780
  23 C :   -0.276705
  24 H :    0.146958
  25 H :    0.139555
  26 F :    0.027910
  27 H :    0.134537
  28 H :    0.141989
  29 H :    0.134448
  30 H :    0.146838

  Mayer bond orders larger than 0.100000
B(  0-C ,  1-N ) :   0.9044 B(  0-C , 17-C ) :   0.8778 B(  0-C , 18-H ) :   0.9873
B(  0-C , 19-H ) :   0.9909 B(  1-N ,  7-C ) :   1.1402 B(  1-N , 12-H ) :   0.9247
B(  2-C ,  3-C ) :   0.8902 B(  2-C , 20-C ) :   0.9150 B(  2-C , 21-H ) :   0.9787
B(  2-C , 22-H ) :   0.9645 B(  3-C ,  4-H ) :   0.9408 B(  3-C ,  5-H ) :   0.9462
B(  3-C ,  6-S ) :   0.9186 B(  6-S , 15-O ) :   1.9419 B(  6-S , 16-O ) :   1.9113
B(  6-S , 26-F ) :   0.9724 B(  7-C ,  8-N ) :   1.0634 B(  7-C ,  9-C ) :   1.6480
B(  8-N , 13-H ) :   0.9168 B(  8-N , 14-H ) :   0.9261 B(  9-C , 10-H ) :   1.0034
B(  9-C , 11-H ) :   1.0015 B( 17-C , 23-C ) :   0.9176 B( 17-C , 24-H ) :   0.9731
B( 17-C , 25-H ) :   0.9875 B( 20-C , 23-C ) :   0.8464 B( 20-C , 29-H ) :   0.9926
B( 20-C , 30-H ) :   0.9762 B( 23-C , 27-H ) :   0.9791 B( 23-C , 28-H ) :   0.9787

Dispersion correction           -0.001927384
FINAL SINGLE POINT ENERGY     -1072.985534311832

DIPOLE MOMENT
-------------
                                X             Y             Z
Electronic contribution:     -1.03296      -2.36673     -20.31414
Nuclear contribution   :      0.52036       3.84122      20.69523
                        -----------------------------------------
Total Dipole Moment    :     -0.51260       1.47449       0.38109
                        -----------------------------------------
Magnitude (a.u.)       :      1.60690
Magnitude (Debye)      :      4.08440

Rotational constants in cm-1:     0.029184     0.014996     0.011314
Rotational constants in MHz :   874.907122   449.569665   339.178205

                             ****ORCA TERMINATED NORMALLY****
TOTAL RUN TIME: 0 days 0 hours 1 minutes 16 seconds 367 msec
