                         Program Version 5.0.0 -  RELEASE  -
|  1> !PBE0 D3BJ RIJCOSX def2-SVPD def2/J TightSCF
|  2> *xyz -1 1
|  3> C         -2.79070       -0.78527        5.70281
|  4> C         -2.45380        0.05510        6.94145
|  5> C         -2.07842        1.48042        6.56410
|  6> H         -1.62558       -0.38216        7.49891
|  7> H         -3.32527        0.08775        7.59917
|  8> O         -0.90125        1.85816        6.82810
|  9> O         -2.93658        2.17731        5.96415
| 10> H         -1.94052       -0.82114        5.05412
| 11> H         -3.61590       -0.34261        5.18514
| 12> H         -3.05063       -1.77815        6.00536
| 13> *
| 14> %MaxCore 64000
| 15>
| 16> %pal nprocs 4
| 17> end
| 18>
| 19> %scf
| 20>   MaxIter 150
| 21> end
| 22>
| 23>
| 24>                          ****END OF INPUT****

CARTESIAN COORDINATES (ANGSTROEM)
---------------------------------
  C     -2.790700   -0.785270    5.702810
  C     -2.453800    0.055100    6.941450
  C     -2.078420    1.480420    6.564100
  H     -1.625580   -0.382160    7.498910
  H     -3.325270    0.087750    7.599170
  O     -0.901250    1.858160    6.828100
  O     -2.936580    2.177310    5.964150
  H     -1.940520   -0.821140    5.054120
  H     -3.615900   -0.342610    5.185140
  H     -3.050630   -1.778150    6.005360

 Total Charge           Charge          ....   -1
 Multiplicity           Mult            ....    1
 Number of Electrons    NEL             ....   40
 Basis Dimension        Dim             ....  146

ORBITAL ENERGIES
----------------

  NO   OCC          E(Eh)            E(eV)
   0   2.0000     -18.954182      -515.7695
   1   2.0000     -18.952837      -515.7329
   2   2.0000     -10.115746      -275.2635
   3   2.0000     -10.072031      -274.0739
   4   2.0000     -10.059589      -273.7353
   5   2.0000      -0.837218       -22.7819
   6   2.0000      -0.741862       -20.1871
   7   2.0000      -0.623345       -16.9621
   8   2.0000      -0.489798       -13.3281
   9   2.0000      -0.336035        -9.1440
  10   2.0000      -0.307010        -8.3542
  11   2.0000      -0.273227        -7.4349
  12   2.0000      -0.245896        -6.6912
  13   2.0000      -0.228393        -6.2149
  14   2.0000      -0.222707        -6.0602
  15   2.0000      -0.191219        -5.2033
  16   2.0000      -0.175974        -4.7885
  17   2.0000      -0.061609        -1.6765
  18   2.0000      -0.055715        -1.5161
  19   2.0000      -0.040640        -1.1059
  20   0.0000       0.161956         4.4071
  21   0.0000       0.195220         5.3122
  22   0.0000       0.210280         5.7220
  23   0.0000       0.226395         6.1605
  24   0.0000       0.247879         6.7451

MULLIKEN ATOMIC CHARGES
-----------------------
   0 C :    0.379006
   1 C :   -0.428395
   2 C :    0.606630
   3 H :    0.010879
   4 H :    0.048725
   5 O :   -0.776768
   6 O :   -0.793904
   7 H :   -0.024572
   8 H :    0.007141
   9 H :   -0.028741
Sum of atomic charges:   -1.0000000

LOEWDIN ATOMIC CHARGES
----------------------
   0 C :    0.098586
   1 C :   -0.045745
   2 C :   -0.297268
   3 H :    0.001270
   4 H :    0.010023
   5 O :   -0.344450
   6 O :   -0.334097
   7 H :   -0.020321
   8 H :   -0.025686
   9 H :   -0.042313

  Mayer bond orders larger than 0.100000
B(  0-C ,  1-C ) :   1.2936 B(  0-C ,  7-H ) :   0.8866 B(  0-C ,  8-H ) :   0.8629
B(  0-C ,  9-H ) :   0.8753 B(  1-C ,  2-C ) :   1.0336 B(  1-C ,  3-H ) :   0.9793
B(  1-C ,  4-H ) :   0.9123 B(  1-C ,  7-H ) :   0.1496 B(  1-C ,  8-H ) :   0.1703
B(  1-C ,  9-H ) :   0.1322 B(  2-C ,  3-H ) :   0.1655 B(  2-C ,  5-O ) :   1.3570
B(  2-C ,  6-O ) :   1.3878

Dispersion correction           -0.005467074
FINAL SINGLE POINT ENERGY      -267.362053430177

DIPOLE MOMENT
-------------
                                X             Y             Z
Electronic contribution:      1.62452       5.52669       0.67740
Nuclear contribution   :     -2.24498      -7.51881      -0.57245
                        -----------------------------------------
Total Dipole Moment    :     -0.62046      -1.99212       0.10495
                        -----------------------------------------
Magnitude (a.u.)       :      2.08915
Magnitude (Debye)      :      5.31019

Rotational constants in cm-1:     0.305589     0.135336     0.107479
Rotational constants in MHz :  9161.317320  4057.276612  3222.126231

                             ****ORCA TERMINATED NORMALLY****
TOTAL RUN TIME: 0 days 0 hours 0 minutes 17 seconds 143 msec
