                         Program Version 5.0.0 -  RELEASE  -
|  1> !PBE0 D3BJ RIJCOSX def2-SVPD def2/J TightSCF
|  2> *xyz 1 1
|  3> C         -0.69912        3.48945        3.75516
|  4> H         -0.96672        4.34901        3.14049
|  5> N         -1.08067        3.79296        5.15686
|  6> C          0.77696        3.13839        3.61741
|  7> H         -1.33146        2.65651        3.44632
|  8> H         -0.87449        4.76274        5.42734
|  9> H         -0.68079        3.13476        5.83900
| 10> H         -2.05755        3.53169        5.34620
| 11> H          0.99957        2.92898        2.59199
| 12> H          0.99576        2.27685        4.21303
| 13> H          1.37223        3.96279        3.95046
| 14> *
| 15> %MaxCore 64000
| 16>
| 17> %pal nprocs 4
| 18> end
| 19>
| 20> %scf
| 21>   MaxIter 150
| 22> end
| 23>
| 24>
| 25>                          ****END OF INPUT****

CARTESIAN COORDINATES (ANGSTROEM)
---------------------------------
  C     -0.699120    3.489450    3.755160
  H     -0.966720    4.349010    3.140490
  N     -1.080670    3.792960    5.156860
  C      0.776960    3.138390    3.617410
  H     -1.331460    2.656510    3.446320
  H     -0.874490    4.762740    5.427340
  H     -0.680790    3.134760    5.839000
  H     -2.057550    3.531690    5.346200
  H      0.999570    2.928980    2.591990
  H      0.995760    2.276850    4.213030
  H      1.372230    3.962790    3.950460

 Total Charge           Charge          ....    1
 Multiplicity           Mult            ....    1
 Number of Electrons    NEL             ....   26
 Basis Dimension        Dim             ....  124

ORBITAL ENERGIES
----------------

  NO   OCC          E(Eh)            E(eV)
   0   2.0000     -14.733296      -400.9134
   1   2.0000     -10.488163      -285.3974
   2   2.0000     -10.407561      -283.2041
   3   2.0000      -1.236771       -33.6542
   4   2.0000      -0.984537       -26.7906
   5   2.0000      -0.862136       -23.4599
   6   2.0000      -0.833064       -22.6688
   7   2.0000      -0.783954       -21.3325
   8   2.0000      -0.715347       -19.4656
   9   2.0000      -0.657677       -17.8963
  10   2.0000      -0.595799       -16.2125
  11   2.0000      -0.581077       -15.8119
  12   2.0000      -0.562689       -15.3116
  13   0.0000      -0.187012        -5.0889
  14   0.0000      -0.128212        -3.4888
  15   0.0000      -0.125024        -3.4021
  16   0.0000      -0.114644        -3.1196
  17   0.0000      -0.085314        -2.3215

MULLIKEN ATOMIC CHARGES
-----------------------
   0 C :    0.147847
   1 H :   -0.029063
   2 N :   -0.878982
   3 C :    0.435955
   4 H :    0.008955
   5 H :    0.418137
   6 H :    0.398633
   7 H :    0.375111
   8 H :    0.045136
   9 H :    0.016807
  10 H :    0.061465
Sum of atomic charges:    1.0000000

LOEWDIN ATOMIC CHARGES
----------------------
   0 C :    0.053442
   1 H :    0.056108
   2 N :    0.319620
   3 C :    0.168561
   4 H :    0.054045
   5 H :    0.114993
   6 H :    0.105297
   7 H :    0.106901
   8 H :    0.016535
   9 H :    0.001235
  10 H :    0.003263

  Mayer bond orders larger than 0.100000
B(  0-C ,  1-H ) :   0.9466 B(  0-C ,  2-N ) :   0.6973 B(  0-C ,  3-C ) :   1.3331
B(  0-C ,  4-H ) :   0.9360 B(  0-C ,  8-H ) :   0.1561 B(  0-C ,  9-H ) :   0.1412
B(  0-C , 10-H ) :   0.1275 B(  1-H ,  2-N ) :   0.1045 B(  2-N ,  5-H ) :   0.6984
B(  2-N ,  6-H ) :   0.7355 B(  2-N ,  7-H ) :   0.7622 B(  3-C ,  8-H ) :   0.8525
B(  3-C ,  9-H ) :   0.8690 B(  3-C , 10-H ) :   0.8408

Dispersion correction           -0.005000239
FINAL SINGLE POINT ENERGY      -135.279111646344

DIPOLE MOMENT
-------------
                                X             Y             Z
Electronic contribution:     -1.32894       0.57282       1.10137
Nuclear contribution   :      0.33986      -0.24565       0.10678
                        -----------------------------------------
Total Dipole Moment    :     -0.98908       0.32717       1.20815
                        -----------------------------------------
Magnitude (a.u.)       :      1.59529
Magnitude (Debye)      :      4.05489

Rotational constants in cm-1:     1.016237     0.277523     0.247812
Rotational constants in MHz : 30466.024354  8319.937961  7429.230177

                             ****ORCA TERMINATED NORMALLY****
TOTAL RUN TIME: 0 days 0 hours 0 minutes 11 seconds 494 msec
