                         Program Version 5.0.0 -  RELEASE  -
|  1> !PBE0 D3BJ RIJCOSX def2-SVPD def2/J TightSCF xyzfile
|  2>
|  3> *xyzfile 0 1 B.xyz
|  4>
|  5> %MaxCore 64000
|  6>
|  7> %pal nprocs 4
|  8> end
|  9>
| 10> %scf
| 11>   MaxIter 150
| 12> end
| 13>
| 14>
| 15>                          ****END OF INPUT****

CARTESIAN COORDINATES (ANGSTROEM)
---------------------------------
  C     -0.699123    3.489451    3.755163
  H     -0.966716    4.349013    3.140491
  N     -1.080669    3.792957    5.156857
  C      0.776956    3.138391    3.617408
  H     -1.331455    2.656510    3.446323
  H      1.371398    3.888342    4.149744
  H      1.046926    3.232057    2.561331
  C      1.118917    1.731170    4.115155
  H      2.200573    1.654226    4.254882
  C      0.659466    0.635182    3.153306
  H      0.677024    1.576674    5.103150
  H      1.312288    0.638870    2.274207
  H     -0.339563    0.868049    2.772876
  C      0.639957   -0.771175    3.755619
  C     -0.341821   -0.965537    4.915046
  H      1.648266   -1.028665    4.097015
  H      0.398568   -1.482386    2.958453
  H     -0.279892   -2.005646    5.252547
  C     -1.789164   -0.639231    4.557496
  H     -0.032380   -0.352918    5.765118
  H     -2.107151   -1.270102    3.719619
  H     -1.856352    0.391636    4.197604
  C     -2.790700   -0.785275    5.702812
  H     -2.867308   -1.835651    6.001675
  H     -3.774554   -0.486577    5.334807
  C     -2.453797    0.055101    6.941445
  C     -2.078419    1.480421    6.564098
  H     -1.625584   -0.382163    7.498914
  H     -3.325274    0.087746    7.599175
  H     -0.874488    4.762737    5.427344
  H     -0.680793    3.134762    5.839000
  H     -2.057550    3.531691    5.346197
  O     -0.901252    1.858156    6.828104
  O     -2.936582    2.177309    5.964151

 Total Charge           Charge          ....    0
 Multiplicity           Mult            ....    1
 Number of Electrons    NEL             ....  104
 Basis Dimension        Dim             ....  434

ORBITAL ENERGIES
----------------

  NO   OCC          E(Eh)            E(eV)
   0   2.0000     -19.156019      -521.2618
   1   2.0000     -19.154360      -521.2166
   2   2.0000     -14.477701      -393.9583
   3   2.0000     -10.308857      -280.5183
   4   2.0000     -10.303249      -280.3657
   5   2.0000     -10.256761      -279.1007
   6   2.0000     -10.232419      -278.4383
   7   2.0000     -10.229362      -278.3551
   8   2.0000     -10.222599      -278.1711
   9   2.0000     -10.213911      -277.9346
  10   2.0000     -10.213576      -277.9255
  11   2.0000     -10.212205      -277.8882
  12   2.0000     -10.205278      -277.6997
  13   2.0000      -1.049435       -28.5566
  14   2.0000      -1.000564       -27.2267
  15   2.0000      -0.947724       -25.7889
  16   2.0000      -0.840502       -22.8712
  17   2.0000      -0.811999       -22.0956
  18   2.0000      -0.783427       -21.3181
  19   2.0000      -0.736189       -20.0327
  20   2.0000      -0.703735       -19.1496
  21   2.0000      -0.664089       -18.0708
  22   2.0000      -0.625662       -17.0251
  23   2.0000      -0.611555       -16.6413
  24   2.0000      -0.591068       -16.0838
  25   2.0000      -0.566872       -15.4254
  26   2.0000      -0.558511       -15.1979
  27   2.0000      -0.517687       -14.0870
  28   2.0000      -0.496958       -13.5229
  29   2.0000      -0.488962       -13.3053
  30   2.0000      -0.486345       -13.2341
  31   2.0000      -0.461545       -12.5593
  32   2.0000      -0.457908       -12.4603
  33   2.0000      -0.447039       -12.1646
  34   2.0000      -0.436701       -11.8832
  35   2.0000      -0.423166       -11.5149
  36   2.0000      -0.415205       -11.2983
  37   2.0000      -0.414771       -11.2865
  38   2.0000      -0.400358       -10.8943
  39   2.0000      -0.393175       -10.6988
  40   2.0000      -0.375189       -10.2094
  41   2.0000      -0.370889       -10.0924
  42   2.0000      -0.364331        -9.9139
  43   2.0000      -0.348227        -9.4757
  44   2.0000      -0.338229        -9.2037
  45   2.0000      -0.334124        -9.0920
  46   2.0000      -0.320136        -8.7114
  47   2.0000      -0.313910        -8.5419
  48   2.0000      -0.308329        -8.3901
  49   2.0000      -0.264332        -7.1928
  50   2.0000      -0.250290        -6.8107
  51   2.0000      -0.248716        -6.7679
  52   0.0000       0.001650         0.0449
  53   0.0000       0.030095         0.8189
  54   0.0000       0.035816         0.9746
  55   0.0000       0.040525         1.1027
  56   0.0000       0.049359         1.3431

MULLIKEN ATOMIC CHARGES
-----------------------
   0 C :    0.945073
   1 H :   -0.150382
   2 N :   -0.819265
   3 C :    0.179954
   4 H :   -0.207499
   5 H :   -0.005110
   6 H :    0.002250
   7 C :    0.494475
   8 H :    0.041248
   9 C :   -0.122170
  10 H :   -0.561226
  11 H :   -0.192627
  12 H :   -0.040337
  13 C :    0.581810
  14 C :   -0.137528
  15 H :   -0.066145
  16 H :    0.091655
  17 H :   -0.220488
  18 C :    0.076602
  19 H :    0.089959
  20 H :   -0.049562
  21 H :   -0.370152
  22 C :    0.324310
  23 H :   -0.130634
  24 H :    0.128978
  25 C :    0.180820
  26 C :    0.514462
  27 H :    0.180862
  28 H :   -0.099653
  29 H :    0.343172
  30 H :    0.324427
  31 H :    0.296987
  32 O :   -0.820603
  33 O :   -0.803667
Sum of atomic charges:    0.0000000

LOEWDIN ATOMIC CHARGES
----------------------
   0 C :    0.098518
   1 H :    0.034124
   2 N :    0.322772
   3 C :   -0.014135
   4 H :    0.027048
   5 H :    0.026112
   6 H :    0.029865
   7 C :   -0.010937
   8 H :    0.031881
   9 C :   -0.035296
  10 H :   -0.010639
  11 H :    0.024773
  12 H :    0.000977
  13 C :   -0.030464
  14 C :   -0.025272
  15 H :    0.024664
  16 H :    0.023344
  17 H :    0.028068
  18 C :   -0.030949
  19 H :    0.002098
  20 H :    0.028717
  21 H :   -0.002971
  22 C :   -0.020333
  23 H :    0.021386
  24 H :    0.025930
  25 C :    0.034422
  26 C :   -0.182522
  27 H :    0.020624
  28 H :    0.031448
  29 H :    0.094286
  30 H :   -0.052570
  31 H :   -0.017450
  32 O :   -0.253082
  33 O :   -0.244437

  Mayer bond orders larger than 0.100000
B(  0-C ,  1-H ) :   0.7827 B(  0-C ,  2-N ) :   0.6026 B(  0-C ,  3-C ) :   1.1697
B(  0-C ,  4-H ) :   0.7174 B(  0-C ,  7-C ) :   0.1614 B(  0-C , 10-H ) :  -0.1530
B(  1-H ,  3-C ) :   0.1304 B(  2-N ,  4-H ) :   0.2724 B(  2-N , 26-C ) :   0.1275
B(  2-N , 29-H ) :   0.8548 B(  2-N , 30-H ) :   0.6910 B(  2-N , 31-H ) :   0.7139
B(  3-C ,  4-H ) :   0.1361 B(  3-C ,  5-H ) :   0.7721 B(  3-C ,  6-H ) :   0.8311
B(  3-C ,  7-C ) :   1.1644 B(  3-C , 10-H ) :   0.1747 B(  4-H , 12-H ) :   0.1035
B(  4-H , 21-H ) :   0.1474 B(  5-H ,  7-C ) :   0.1123 B(  7-C ,  8-H ) :   0.7357
B(  7-C ,  9-C ) :   1.1507 B(  7-C , 10-H ) :   0.5815 B(  7-C , 11-H ) :   0.1855
B(  8-H ,  9-C ) :   0.1737 B(  9-C , 10-H ) :   0.2265 B(  9-C , 11-H ) :   0.9395
B(  9-C , 12-H ) :   0.9060 B(  9-C , 13-C ) :   1.1960 B(  9-C , 15-H ) :   0.1353
B(  9-C , 16-H ) :   0.2021 B( 10-H , 19-H ) :   0.1164 B( 13-C , 14-C ) :   1.1479
B( 13-C , 15-H ) :   0.7281 B( 13-C , 16-H ) :   0.7129 B( 14-C , 15-H ) :   0.2442
B( 14-C , 17-H ) :   0.9658 B( 14-C , 18-C ) :   1.1843 B( 14-C , 19-H ) :   0.8751
B( 14-C , 20-H ) :   0.1675 B( 14-C , 21-H ) :   0.1867 B( 17-H , 18-C ) :   0.1557
B( 18-C , 20-H ) :   0.7246 B( 18-C , 21-H ) :   0.8684 B( 18-C , 22-C ) :   1.2736
B( 18-C , 23-H ) :   0.1697 B( 18-C , 24-H ) :   0.2089 B( 20-H , 21-H ) :   0.1597
B( 21-H , 22-C ) :   0.1182 B( 22-C , 23-H ) :   0.8530 B( 22-C , 24-H ) :   0.6916
B( 22-C , 25-C ) :   1.1826 B( 22-C , 28-H ) :   0.1483 B( 23-H , 24-H ) :  -0.1092
B( 23-H , 25-C ) :   0.1203 B( 25-C , 26-C ) :   1.1768 B( 25-C , 27-H ) :   0.8022
B( 25-C , 28-H ) :   0.7182 B( 26-C , 27-H ) :   0.1664 B( 26-C , 28-H ) :   0.2514
B( 26-C , 32-O ) :   1.1800 B( 26-C , 33-O ) :   1.1343 B( 30-H , 32-O ) :   0.2124
B( 31-H , 33-O ) :   0.2019

Dispersion correction           -0.033467819
FINAL SINGLE POINT ENERGY      -597.883756954169

DIPOLE MOMENT
-------------
                                X             Y             Z
Electronic contribution:     -4.65986       4.83155       6.69663
Nuclear contribution   :      5.60885      -3.40606      -8.06960
                        -----------------------------------------
Total Dipole Moment    :      0.94898       1.42549      -1.37297
                        -----------------------------------------
Magnitude (a.u.)       :      2.19491
Magnitude (Debye)      :      5.57901

Rotational constants in cm-1:     0.028465     0.023505     0.015110
Rotational constants in MHz :   853.363165   704.655786   452.976312

                             ****ORCA TERMINATED NORMALLY****
TOTAL RUN TIME: 0 days 0 hours 2 minutes 45 seconds 987 msec
