                         Program Version 5.0.0 -  RELEASE  -
|  1> !PBE0 D3BJ RIJCOSX def2-SVPD def2/J TightSCF
|  2> *xyz 0 1
|  3> C         -2.79070       -0.78527        5.70281
|  4> C         -2.45380        0.05510        6.94145
|  5> C         -2.07842        1.48042        6.56410
|  6> H         -1.62558       -0.38216        7.49891
|  7> H         -3.32527        0.08775        7.59917
|  8> F         -0.90125        1.85816        6.82810
|  9> O         -2.93658        2.17731        5.96415
| 10> H         -1.94052       -0.82114        5.05412
| 11> H         -3.61590       -0.34261        5.18514
| 12> H         -3.05063       -1.77815        6.00536
| 13> *
| 14> %MaxCore 64000
| 15>
| 16> %pal nprocs 4
| 17> end
| 18>
| 19> %scf
| 20>   MaxIter 150
| 21> end
| 22>
| 23>
| 24>                          ****END OF INPUT****

CARTESIAN COORDINATES (ANGSTROEM)
---------------------------------
  C     -2.790700   -0.785270    5.702810
  C     -2.453800    0.055100    6.941450
  C     -2.078420    1.480420    6.564100
  H     -1.625580   -0.382160    7.498910
  H     -3.325270    0.087750    7.599170
  F     -0.901250    1.858160    6.828100
  O     -2.936580    2.177310    5.964150
  H     -1.940520   -0.821140    5.054120
  H     -3.615900   -0.342610    5.185140
  H     -3.050630   -1.778150    6.005360

 Total Charge           Charge          ....    0
 Multiplicity           Mult            ....    1
 Number of Electrons    NEL             ....   40
 Basis Dimension        Dim             ....  146

ORBITAL ENERGIES
----------------

  NO   OCC          E(Eh)            E(eV)
   0   2.0000     -24.854408      -676.3228
   1   2.0000     -19.227967      -523.2196
   2   2.0000     -10.416007      -283.4340
   3   2.0000     -10.268317      -279.4151
   4   2.0000     -10.241603      -278.6882
   5   2.0000      -1.334722       -36.3196
   6   2.0000      -1.054504       -28.6945
   7   2.0000      -0.821970       -22.3669
   8   2.0000      -0.708348       -19.2751
   9   2.0000      -0.657834       -17.9006
  10   2.0000      -0.567905       -15.4535
  11   2.0000      -0.553467       -15.0606
  12   2.0000      -0.526952       -14.3391
  13   2.0000      -0.482155       -13.1201
  14   2.0000      -0.452514       -12.3135
  15   2.0000      -0.418068       -11.3762
  16   2.0000      -0.396549       -10.7907
  17   2.0000      -0.390059       -10.6141
  18   2.0000      -0.364564        -9.9203
  19   2.0000      -0.311735        -8.4827
  20   0.0000      -0.031863        -0.8670
  21   0.0000       0.021528         0.5858
  22   0.0000       0.052352         1.4246
  23   0.0000       0.064088         1.7439
  24   0.0000       0.081193         2.2094

MULLIKEN ATOMIC CHARGES
-----------------------
   0 C :    0.405529
   1 C :   -0.484093
   2 C :    0.875989
   3 H :    0.047596
   4 H :    0.108874
   5 F :   -0.411697
   6 O :   -0.572646
   7 H :   -0.003686
   8 H :    0.023545
   9 H :    0.010587
Sum of atomic charges:    0.0000000

LOEWDIN ATOMIC CHARGES
----------------------
   0 C :    0.140206
   1 C :   -0.000355
   2 C :    0.003108
   3 H :    0.024459
   4 H :    0.042785
   5 F :   -0.046002
   6 O :   -0.140759
   7 H :   -0.006688
   8 H :   -0.006183
   9 H :   -0.010571

  Mayer bond orders larger than 0.100000
B(  0-C ,  1-C ) :   1.3212 B(  0-C ,  7-H ) :   0.8799 B(  0-C ,  8-H ) :   0.8618
B(  0-C ,  9-H ) :   0.8737 B(  1-C ,  2-C ) :   1.0921 B(  1-C ,  3-H ) :   0.9668
B(  1-C ,  4-H ) :   0.8945 B(  1-C ,  7-H ) :   0.1367 B(  1-C ,  8-H ) :   0.1512
B(  1-C ,  9-H ) :   0.1219 B(  2-C ,  5-F ) :   0.6787 B(  2-C ,  6-O ) :   1.7250

Dispersion correction           -0.005178714
FINAL SINGLE POINT ENERGY      -291.884265911629

DIPOLE MOMENT
-------------
                                X             Y             Z
Electronic contribution:      3.96527       7.40547       1.49334
Nuclear contribution   :     -3.69486      -8.49563      -1.04945
                        -----------------------------------------
Total Dipole Moment    :      0.27041      -1.09016       0.44389
                        -----------------------------------------
Magnitude (a.u.)       :      1.20773
Magnitude (Debye)      :      3.06980

Rotational constants in cm-1:     0.293725     0.129218     0.102393
Rotational constants in MHz :  8805.653529  3873.869810  3069.666716

                             ****ORCA TERMINATED NORMALLY****
TOTAL RUN TIME: 0 days 0 hours 0 minutes 15 seconds 998 msec
