                         Program Version 5.0.0 -  RELEASE  -
|  1> !PBE0 D3BJ RIJCOSX def2-SVPD def2/J TightSCF
|  2> *xyz 0 1
|  3> C         -0.69912        3.48945        3.75516
|  4> H         -0.96672        4.34901        3.14049
|  5> C         -1.08067        3.79296        5.15686
|  6> C          0.77696        3.13839        3.61741
|  7> H         -1.33146        2.65651        3.44632
|  8> H         -0.87449        4.76274        5.42734
|  9> H         -0.68079        3.13476        5.83900
| 10> H         -2.05755        3.53169        5.34620
| 11> H          0.99957        2.92898        2.59199
| 12> H          0.99576        2.27685        4.21303
| 13> H          1.37223        3.96279        3.95046
| 14> *
| 15> %MaxCore 64000
| 16>
| 17> %pal nprocs 4
| 18> end
| 19>
| 20> %scf
| 21>   MaxIter 150
| 22> end
| 23>
| 24>
| 25>                          ****END OF INPUT****

CARTESIAN COORDINATES (ANGSTROEM)
---------------------------------
  C     -0.699120    3.489450    3.755160
  H     -0.966720    4.349010    3.140490
  C     -1.080670    3.792960    5.156860
  C      0.776960    3.138390    3.617410
  H     -1.331460    2.656510    3.446320
  H     -0.874490    4.762740    5.427340
  H     -0.680790    3.134760    5.839000
  H     -2.057550    3.531690    5.346200
  H      0.999570    2.928980    2.591990
  H      0.995760    2.276850    4.213030
  H      1.372230    3.962790    3.950460

 Total Charge           Charge          ....    0
 Multiplicity           Mult            ....    1
 Number of Electrons    NEL             ....   26
 Basis Dimension        Dim             ....  124

ORBITAL ENERGIES
----------------

  NO   OCC          E(Eh)            E(eV)
   0   2.0000     -10.220384      -278.1108
   1   2.0000     -10.210649      -277.8459
   2   2.0000     -10.193312      -277.3741
   3   2.0000      -0.808331       -21.9958
   4   2.0000      -0.706466       -19.2239
   5   2.0000      -0.601112       -16.3571
   6   2.0000      -0.485970       -13.2239
   7   2.0000      -0.452932       -12.3249
   8   2.0000      -0.413083       -11.2406
   9   2.0000      -0.408696       -11.1212
  10   2.0000      -0.352108        -9.5814
  11   2.0000      -0.339583        -9.2405
  12   2.0000      -0.336712        -9.1624
  13   0.0000       0.033910         0.9227
  14   0.0000       0.063303         1.7226
  15   0.0000       0.069817         1.8998
  16   0.0000       0.091478         2.4893
  17   0.0000       0.112555         3.0628

MULLIKEN ATOMIC CHARGES
-----------------------
   0 C :   -0.685702
   1 H :   -0.067090
   2 C :    0.771192
   3 C :    0.480672
   4 H :    0.012690
   5 H :   -0.155835
   6 H :   -0.188627
   7 H :   -0.139958
   8 H :   -0.028958
   9 H :    0.012920
  10 H :   -0.011306
Sum of atomic charges:   -0.0000000

LOEWDIN ATOMIC CHARGES
----------------------
   0 C :   -0.119923
   1 H :    0.023068
   2 C :    0.105345
   3 C :    0.112083
   4 H :    0.022251
   5 H :   -0.024211
   6 H :   -0.033357
   7 H :   -0.034815
   8 H :   -0.020987
   9 H :   -0.015340
  10 H :   -0.014114

  Mayer bond orders larger than 0.100000
B(  0-C ,  1-H ) :   0.9930 B(  0-C ,  2-C ) :   1.3005 B(  0-C ,  3-C ) :   1.2547
B(  0-C ,  4-H ) :   0.9366 B(  0-C ,  5-H ) :   0.2034 B(  0-C ,  6-H ) :   0.1830
B(  0-C ,  7-H ) :   0.1828 B(  0-C ,  8-H ) :   0.1636 B(  0-C ,  9-H ) :   0.1355
B(  0-C , 10-H ) :   0.1612 B(  2-C ,  5-H ) :   0.7838 B(  2-C ,  6-H ) :   0.7304
B(  2-C ,  7-H ) :   0.6992 B(  3-C ,  8-H ) :   0.8565 B(  3-C ,  9-H ) :   0.8655
B(  3-C , 10-H ) :   0.8613 B(  6-H ,  7-H ) :   0.2589

Dispersion correction           -0.005019913
FINAL SINGLE POINT ENERGY      -118.891587001745

DIPOLE MOMENT
-------------
                                X             Y             Z
Electronic contribution:     -0.14373       0.12000      -0.39560
Nuclear contribution   :      0.10024      -0.14218       0.41628
                        -----------------------------------------
Total Dipole Moment    :     -0.04348      -0.02218       0.02069
                        -----------------------------------------
Magnitude (a.u.)       :      0.05301
Magnitude (Debye)      :      0.13475

Rotational constants in cm-1:     1.024179     0.291605     0.259489
Rotational constants in MHz : 30704.103454  8742.106283  7779.285909

                             ****ORCA TERMINATED NORMALLY****
TOTAL RUN TIME: 0 days 0 hours 0 minutes 11 seconds 901 msec
