                         Program Version 5.0.0 -  RELEASE  -
|  1> !PBE0 D3BJ RIJCOSX def2-SVPD def2/J TightSCF
|  2> *xyz 0 1
|  3> C         -2.79070       -0.78527        5.70281
|  4> C         -2.45380        0.05510        6.94145
|  5> C         -2.07842        1.48042        6.56410
|  6> H         -1.62558       -0.38216        7.49891
|  7> H         -3.32527        0.08775        7.59917
|  8> O         -0.90125        1.85816        6.82810
|  9> F         -2.93658        2.17731        5.96415
| 10> H         -1.94052       -0.82114        5.05412
| 11> H         -3.61590       -0.34261        5.18514
| 12> H         -3.05063       -1.77815        6.00536
| 13> *
| 14> %MaxCore 64000
| 15>
| 16> %pal nprocs 4
| 17> end
| 18>
| 19> %scf
| 20>   MaxIter 150
| 21> end
| 22>
| 23>
| 24>                          ****END OF INPUT****

CARTESIAN COORDINATES (ANGSTROEM)
---------------------------------
  C     -2.790700   -0.785270    5.702810
  C     -2.453800    0.055100    6.941450
  C     -2.078420    1.480420    6.564100
  H     -1.625580   -0.382160    7.498910
  H     -3.325270    0.087750    7.599170
  O     -0.901250    1.858160    6.828100
  F     -2.936580    2.177310    5.964150
  H     -1.940520   -0.821140    5.054120
  H     -3.615900   -0.342610    5.185140
  H     -3.050630   -1.778150    6.005360

 Total Charge           Charge          ....    0
 Multiplicity           Mult            ....    1
 Number of Electrons    NEL             ....   40
 Basis Dimension        Dim             ....  146

ORBITAL ENERGIES
----------------

  NO   OCC          E(Eh)            E(eV)
   0   2.0000     -24.857652      -676.4111
   1   2.0000     -19.226134      -523.1697
   2   2.0000     -10.415782      -283.4278
   3   2.0000     -10.267989      -279.4062
   4   2.0000     -10.245703      -278.7997
   5   2.0000      -1.340057       -36.4648
   6   2.0000      -1.049630       -28.5619
   7   2.0000      -0.825159       -22.4537
   8   2.0000      -0.706174       -19.2160
   9   2.0000      -0.664447       -18.0805
  10   2.0000      -0.572154       -15.5691
  11   2.0000      -0.560238       -15.2449
  12   2.0000      -0.520792       -14.1715
  13   2.0000      -0.482735       -13.1359
  14   2.0000      -0.453332       -12.3358
  15   2.0000      -0.420566       -11.4442
  16   2.0000      -0.400327       -10.8934
  17   2.0000      -0.392241       -10.6734
  18   2.0000      -0.366641        -9.9768
  19   2.0000      -0.305562        -8.3148
  20   0.0000      -0.029339        -0.7984
  21   0.0000       0.019521         0.5312
  22   0.0000       0.052941         1.4406
  23   0.0000       0.063169         1.7189
  24   0.0000       0.081909         2.2289

MULLIKEN ATOMIC CHARGES
-----------------------
   0 C :    0.395996
   1 C :   -0.460387
   2 C :    0.900138
   3 H :    0.031323
   4 H :    0.099555
   5 O :   -0.563881
   6 F :   -0.427528
   7 H :    0.000943
   8 H :    0.011642
   9 H :    0.012200
Sum of atomic charges:   -0.0000000

LOEWDIN ATOMIC CHARGES
----------------------
   0 C :    0.135333
   1 C :    0.003030
   2 C :   -0.000547
   3 H :    0.036132
   4 H :    0.037192
   5 O :   -0.146782
   6 F :   -0.038076
   7 H :   -0.004689
   8 H :   -0.011421
   9 H :   -0.010171

  Mayer bond orders larger than 0.100000
B(  0-C ,  1-C ) :   1.2942 B(  0-C ,  7-H ) :   0.8927 B(  0-C ,  8-H ) :   0.8548
B(  0-C ,  9-H ) :   0.8796 B(  1-C ,  2-C ) :   1.0609 B(  1-C ,  3-H ) :   0.9971
B(  1-C ,  4-H ) :   0.8919 B(  1-C ,  7-H ) :   0.1318 B(  1-C ,  8-H ) :   0.1442
B(  1-C ,  9-H ) :   0.1227 B(  2-C ,  3-H ) :   0.1158 B(  2-C ,  5-O ) :   1.7122
B(  2-C ,  6-F ) :   0.6629

Dispersion correction           -0.005153064
FINAL SINGLE POINT ENERGY      -291.881934416773

DIPOLE MOMENT
-------------
                                X             Y             Z
Electronic contribution:      0.56788       7.91590       0.05476
Nuclear contribution   :     -1.47571      -8.84360      -0.10748
                        -----------------------------------------
Total Dipole Moment    :     -0.90784      -0.92771      -0.05272
                        -----------------------------------------
Magnitude (a.u.)       :      1.29907
Magnitude (Debye)      :      3.30198

Rotational constants in cm-1:     0.283081     0.133379     0.103386
Rotational constants in MHz :  8486.545774  3998.599544  3099.448040

                             ****ORCA TERMINATED NORMALLY****
TOTAL RUN TIME: 0 days 0 hours 0 minutes 16 seconds 282 msec
