                         Program Version 5.0.0 -  RELEASE  -
|  1> !DLPNO-CCSD(T) aug-cc-pVTZ aug-cc-pVTZ/C TightSCF TightPNO RIJCOSX def2/J
|  2> *xyz -1 1
|  3> C         -1.10433        0.25137       -2.86006
|  4> C         -0.71189        0.84252       -4.21834
|  5> H          0.15463        1.49980       -4.13091
|  6> H         -1.53813        1.45922       -4.58267
|  7> C         -0.39762       -0.20587       -5.28802
|  8> O          0.61717       -0.00535       -5.99827
|  9> O         -1.13317       -1.22138       -5.34147
| 10> H         -1.95489       -0.38644       -2.98099
| 11> H         -1.34603        1.04362       -2.18269
| 12> H         -0.28606       -0.31581       -2.46809
| 13> *
| 14>
| 15> %MaxCore 64000
| 16>
| 17> %pal nprocs 18
| 18> end
| 19>
| 20> %scf
| 21>   MaxIter 150
| 22> end
| 23>
| 24>
| 25>                          ****END OF INPUT****

CARTESIAN COORDINATES (ANGSTROEM)
---------------------------------
  C     -1.104330    0.251370   -2.860060
  C     -0.711890    0.842520   -4.218340
  H      0.154630    1.499800   -4.130910
  H     -1.538130    1.459220   -4.582670
  C     -0.397620   -0.205870   -5.288020
  O      0.617170   -0.005350   -5.998270
  O     -1.133170   -1.221380   -5.341470
  H     -1.954890   -0.386440   -2.980990
  H     -1.346030    1.043620   -2.182690
  H     -0.286060   -0.315810   -2.468090

 Total Charge           Charge          ....   -1
 Multiplicity           Mult            ....    1
 Number of Electrons    NEL             ....   40
 Basis Dimension        Dim             ....  345

ORBITAL ENERGIES
----------------

  NO   OCC          E(Eh)            E(eV)
   0   2.0000     -20.282687      -551.9200
   1   2.0000     -20.282597      -551.9175
   2   2.0000     -11.124455      -302.7118
   3   2.0000     -11.060930      -300.9832
   4   2.0000     -11.052908      -300.7649
   5   2.0000      -1.163108       -31.6498
   6   2.0000      -1.055890       -28.7322
   7   2.0000      -0.875280       -23.8176
   8   2.0000      -0.711203       -19.3528
   9   2.0000      -0.516012       -14.0414
  10   2.0000      -0.461527       -12.5588
  11   2.0000      -0.445021       -12.1096
  12   2.0000      -0.400836       -10.9073
  13   2.0000      -0.379658       -10.3310
  14   2.0000      -0.370467       -10.0809
  15   2.0000      -0.334836        -9.1113
  16   2.0000      -0.309570        -8.4238
  17   2.0000      -0.197850        -5.3838
  18   2.0000      -0.195470        -5.3190
  19   2.0000      -0.184751        -5.0273
  20   0.0000       0.117432         3.1955
  21   0.0000       0.134448         3.6585
  22   0.0000       0.138017         3.7556
  23   0.0000       0.146745         3.9931
  24   0.0000       0.158238         4.3059

MULLIKEN ATOMIC CHARGES
-----------------------
   0 C :   -0.915222
   1 C :   -0.192228
   2 H :    0.223693
   3 H :    0.223602
   4 C :    0.470638
   5 O :   -0.836517
   6 O :   -0.839861
   7 H :    0.306781
   8 H :    0.251468
   9 H :    0.307646
Sum of atomic charges:   -1.0000000

LOEWDIN ATOMIC CHARGES
----------------------
   0 C :    0.546334
   1 C :    0.171544
   2 H :   -0.200993
   3 H :   -0.180720
   4 C :   -1.210113
   5 O :    0.239420
   6 O :    0.249153
   7 H :   -0.208613
   8 H :   -0.211086
   9 H :   -0.194927

  Mayer bond orders larger than 0.100000
B(  0-C ,  1-C ) :   0.8446 B(  0-C ,  7-H ) :   0.9289 B(  0-C ,  8-H ) :   0.9855
B(  0-C ,  9-H ) :   0.9153 B(  1-C ,  2-H ) :   0.9748 B(  1-C ,  3-H ) :   0.9501
B(  1-C ,  4-C ) :   0.7085 B(  4-C ,  5-O ) :   1.3847 B(  4-C ,  6-O ) :   1.4469

E(0)                                       ...   -266.375716252
E(0)                                       ...   -266.375716252
E(CORR)(strong-pairs)                      ...     -1.023448666
E(CORR)(weak-pairs)                        ...     -0.000897847
E(CORR)(corrected)                         ...     -1.024346513
E(TOT)                                     ...   -267.400062765
E(CCSD(T))                                 ...   -267.443755875
FINAL SINGLE POINT ENERGY      -267.443755875186

DIPOLE MOMENT
-------------
                                X             Y             Z
Electronic contribution:      1.49740      -2.25534      -5.08464
Nuclear contribution   :     -2.09607       3.44215       6.87744
                        -----------------------------------------
Total Dipole Moment    :     -0.59867       1.18680       1.79280
                        -----------------------------------------
Magnitude (a.u.)       :      2.23182
Magnitude (Debye)      :      5.67285

Rotational constants in cm-1:     0.324698     0.133739     0.103466
Rotational constants in MHz :  9734.203431  4009.406827  3101.846422

                             ****ORCA TERMINATED NORMALLY****
TOTAL RUN TIME: 0 days 0 hours 3 minutes 43 seconds 167 msec
