                         Program Version 5.0.0 -  RELEASE  -
|  1> !DLPNO-CCSD(T) aug-cc-pVTZ aug-cc-pVTZ/C TightSCF TightPNO RIJCOSX def2/J
|  2> *xyz 1 1
|  3> C          2.23447       -2.98975       -2.39762
|  4> N          2.75680       -2.94555       -3.76503
|  5> C          1.98721       -2.59045       -4.81898
|  6> N          0.74322       -3.01749       -4.91352
|  7> N          2.49964       -1.84860       -5.80324
|  8> H          3.30978       -1.29282       -5.55895
|  9> H          1.80103       -1.30430       -6.28913
| 10> H          3.71612       -2.62880       -3.82953
| 11> H          0.39583       -3.62775       -4.18502
| 12> H          0.03920       -2.45438       -5.37137
| 13> C          2.19120       -1.61950       -1.71549
| 14> H          2.87278       -3.66637       -1.82801
| 15> H          1.24619       -3.44744       -2.40784
| 16> H          1.56387       -0.96046       -2.27853
| 17> H          3.18033       -1.21449       -1.66568
| 18> H          1.79916       -1.72608       -0.72562
| 19> *
| 20>
| 21> %MaxCore 64000
| 22>
| 23> %pal nprocs 18
| 24> end
| 25>
| 26> %scf
| 27>   MaxIter 150
| 28> end
| 29>
| 30>
| 31>                          ****END OF INPUT****

CARTESIAN COORDINATES (ANGSTROEM)
---------------------------------
  C      2.234470   -2.989750   -2.397620
  N      2.756800   -2.945550   -3.765030
  C      1.987210   -2.590450   -4.818980
  N      0.743220   -3.017490   -4.913520
  N      2.499640   -1.848600   -5.803240
  H      3.309780   -1.292820   -5.558950
  H      1.801030   -1.304300   -6.289130
  H      3.716120   -2.628800   -3.829530
  H      0.395830   -3.627750   -4.185020
  H      0.039200   -2.454380   -5.371370
  C      2.191200   -1.619500   -1.715490
  H      2.872780   -3.666370   -1.828010
  H      1.246190   -3.447440   -2.407840
  H      1.563870   -0.960460   -2.278530
  H      3.180330   -1.214490   -1.665680
  H      1.799160   -1.726080   -0.725620

 Total Charge           Charge          ....    1
 Multiplicity           Mult            ....    1
 Number of Electrons    NEL             ....   48
 Basis Dimension        Dim             ....  506

ORBITAL ENERGIES
----------------

  NO   OCC          E(Eh)            E(eV)
   0   2.0000     -15.793827      -429.7719
   1   2.0000     -15.790223      -429.6738
   2   2.0000     -15.782792      -429.4716
   3   2.0000     -11.594525      -315.5031
   4   2.0000     -11.436177      -311.1942
   5   2.0000     -11.363296      -309.2110
   6   2.0000      -1.547411       -42.1072
   7   2.0000      -1.407134       -38.2901
   8   2.0000      -1.401558       -38.1383
   9   2.0000      -1.189171       -32.3590
  10   2.0000      -1.067315       -29.0431
  11   2.0000      -1.019844       -27.7514
  12   2.0000      -0.975030       -26.5319
  13   2.0000      -0.929786       -25.3008
  14   2.0000      -0.874897       -23.8071
  15   2.0000      -0.856057       -23.2945
  16   2.0000      -0.814543       -22.1648
  17   2.0000      -0.784739       -21.3538
  18   2.0000      -0.765807       -20.8387
  19   2.0000      -0.723791       -19.6954
  20   2.0000      -0.686543       -18.6818
  21   2.0000      -0.664976       -18.0949
  22   2.0000      -0.636994       -17.3335
  23   2.0000      -0.587187       -15.9782
  24   0.0000      -0.096664        -2.6304
  25   0.0000      -0.076745        -2.0883
  26   0.0000      -0.070985        -1.9316
  27   0.0000      -0.060674        -1.6510
  28   0.0000      -0.048911        -1.3309

MULLIKEN ATOMIC CHARGES
-----------------------
   0 C :   -0.433367
   1 N :   -0.052390
   2 C :    0.774068
   3 N :   -0.349460
   4 N :   -0.420737
   5 H :    0.155776
   6 H :    0.155686
   7 H :    0.092257
   8 H :    0.215635
   9 H :    0.141717
  10 C :   -0.882544
  11 H :    0.347130
  12 H :    0.322933
  13 H :    0.287641
  14 H :    0.289864
  15 H :    0.355792
Sum of atomic charges:    1.0000000

LOEWDIN ATOMIC CHARGES
----------------------
   0 C :    0.232165
   1 N :    0.634115
   2 C :   -0.363225
   3 N :    0.946524
   4 N :    0.946367
   5 H :   -0.248206
   6 H :   -0.256587
   7 H :   -0.251480
   8 H :   -0.265612
   9 H :   -0.226786
  10 C :    0.648833
  11 H :   -0.124594
  12 H :   -0.158123
  13 H :   -0.177503
  14 H :   -0.172645
  15 H :   -0.163244

  Mayer bond orders larger than 0.100000
B(  0-C ,  1-N ) :   0.8765 B(  0-C , 10-C ) :   0.8672 B(  0-C , 11-H ) :   0.8980
B(  0-C , 12-H ) :   0.8761 B(  1-N ,  2-C ) :   0.9585 B(  1-N ,  7-H ) :   1.0141
B(  2-C ,  3-N ) :   0.9210 B(  2-C ,  4-N ) :   0.8983 B(  3-N ,  8-H ) :   0.9741
B(  3-N ,  9-H ) :   1.0860 B(  4-N ,  5-H ) :   1.0146 B(  4-N ,  6-H ) :   1.0292
B( 10-C , 13-H ) :   0.9479 B( 10-C , 14-H ) :   0.9527 B( 10-C , 15-H ) :   0.8841

E(0)                                       ...   -282.695302530
E(0)                                       ...   -282.695302530
E(CORR)(strong-pairs)                      ...     -1.183691205
E(CORR)(weak-pairs)                        ...     -0.001259229
E(CORR)(corrected)                         ...     -1.184950434
E(TOT)                                     ...   -283.880252964
E(CCSD(T))                                 ...   -283.928036216
FINAL SINGLE POINT ENERGY      -283.928036215556

DIPOLE MOMENT
-------------
                                X             Y             Z
Electronic contribution:      0.15791      -1.64733      -5.19804
Nuclear contribution   :     -0.59121       2.30298       4.63196
                        -----------------------------------------
Total Dipole Moment    :     -0.43330       0.65565      -0.56609
                        -----------------------------------------
Magnitude (a.u.)       :      0.96854
Magnitude (Debye)      :      2.46184

Rotational constants in cm-1:     0.205874     0.074757     0.066901
Rotational constants in MHz :  6171.937773  2241.151057  2005.629823

                             ****ORCA TERMINATED NORMALLY****
TOTAL RUN TIME: 0 days 0 hours 10 minutes 52 seconds 765 msec
