                         Program Version 5.0.0 -  RELEASE  -
|  1> !DLPNO-CCSD(T) aug-cc-pVTZ aug-cc-pVTZ/C TightSCF TightPNO RIJCOSX def2/J
|  2> *xyz 0 1
|  3> C         -1.10433        0.25137       -2.86006
|  4> C         -0.71189        0.84252       -4.21834
|  5> H          0.15463        1.49980       -4.13091
|  6> H         -1.53813        1.45922       -4.58267
|  7> C         -0.39762       -0.20587       -5.28802
|  8> F          0.61717       -0.00535       -5.99827
|  9> O         -1.13317       -1.22138       -5.34147
| 10> H         -1.95489       -0.38644       -2.98099
| 11> H         -1.34603        1.04362       -2.18269
| 12> H         -0.28606       -0.31581       -2.46809
| 13> *
| 14>
| 15> %MaxCore 64000
| 16>
| 17> %pal nprocs 18
| 18> end
| 19>
| 20> %scf
| 21>   MaxIter 150
| 22> end
| 23>
| 24>
| 25>                          ****END OF INPUT****

CARTESIAN COORDINATES (ANGSTROEM)
---------------------------------
  C     -1.104330    0.251370   -2.860060
  C     -0.711890    0.842520   -4.218340
  H      0.154630    1.499800   -4.130910
  H     -1.538130    1.459220   -4.582670
  C     -0.397620   -0.205870   -5.288020
  F      0.617170   -0.005350   -5.998270
  O     -1.133170   -1.221380   -5.341470
  H     -1.954890   -0.386440   -2.980990
  H     -1.346030    1.043620   -2.182690
  H     -0.286060   -0.315810   -2.468090

 Total Charge           Charge          ....    0
 Multiplicity           Mult            ....    1
 Number of Electrons    NEL             ....   40
 Basis Dimension        Dim             ....  345

ORBITAL ENERGIES
----------------

  NO   OCC          E(Eh)            E(eV)
   0   2.0000     -26.376631      -717.7446
   1   2.0000     -20.562778      -559.5416
   2   2.0000     -11.430741      -311.0463
   3   2.0000     -11.262764      -306.4754
   4   2.0000     -11.228670      -305.5476
   5   2.0000      -1.730865       -47.0992
   6   2.0000      -1.375056       -37.4172
   7   2.0000      -1.075091       -29.2547
   8   2.0000      -0.941810       -25.6280
   9   2.0000      -0.870967       -23.7002
  10   2.0000      -0.772866       -21.0308
  11   2.0000      -0.765884       -20.8408
  12   2.0000      -0.712860       -19.3979
  13   2.0000      -0.638114       -17.3640
  14   2.0000      -0.615184       -16.7400
  15   2.0000      -0.552688       -15.0394
  16   2.0000      -0.538701       -14.6588
  17   2.0000      -0.527095       -14.3430
  18   2.0000      -0.489652       -13.3241
  19   2.0000      -0.466008       -12.6807
  20   0.0000       0.026258         0.7145
  21   0.0000       0.039351         1.0708
  22   0.0000       0.040693         1.1073
  23   0.0000       0.048582         1.3220
  24   0.0000       0.064843         1.7645

MULLIKEN ATOMIC CHARGES
-----------------------
   0 C :   -0.889776
   1 C :   -0.293942
   2 H :    0.241719
   3 H :    0.284556
   4 C :    0.622544
   5 F :   -0.254544
   6 O :   -0.643732
   7 H :    0.321781
   8 H :    0.291340
   9 H :    0.320055
Sum of atomic charges:   -0.0000000

LOEWDIN ATOMIC CHARGES
----------------------
   0 C :    0.594122
   1 C :    0.244309
   2 H :   -0.176752
   3 H :   -0.158589
   4 C :   -0.917877
   5 F :    0.581861
   6 O :    0.386733
   7 H :   -0.190484
   8 H :   -0.181624
   9 H :   -0.181699

  Mayer bond orders larger than 0.100000
B(  0-C ,  1-C ) :   0.8669 B(  0-C ,  7-H ) :   0.9211 B(  0-C ,  8-H ) :   0.9539
B(  0-C ,  9-H ) :   0.9025 B(  1-C ,  2-H ) :   0.9574 B(  1-C ,  3-H ) :   0.8971
B(  1-C ,  4-C ) :   0.7896 B(  4-C ,  5-F ) :   0.8346 B(  4-C ,  6-O ) :   1.6846

E(0)                                       ...   -290.928034145
E(0)                                       ...   -290.928034145
E(CORR)(strong-pairs)                      ...     -1.024336431
E(CORR)(weak-pairs)                        ...     -0.000880987
E(CORR)(corrected)                         ...     -1.025217418
E(TOT)                                     ...   -291.953251564
E(CCSD(T))                                 ...   -291.993421807
FINAL SINGLE POINT ENERGY      -291.993421807015

DIPOLE MOMENT
-------------
                                X             Y             Z
Electronic contribution:      3.63104      -2.23815      -7.64259
Nuclear contribution   :     -3.36368       3.36392       8.24820
                        -----------------------------------------
Total Dipole Moment    :      0.26736       1.12577       0.60561
                        -----------------------------------------
Magnitude (a.u.)       :      1.30598
Magnitude (Debye)      :      3.31955

Rotational constants in cm-1:     0.315013     0.126712     0.098430
Rotational constants in MHz :  9443.861322  3798.734540  2950.846388

                             ****ORCA TERMINATED NORMALLY****
TOTAL RUN TIME: 0 days 0 hours 3 minutes 35 seconds 101 msec
