                         Program Version 5.0.0 -  RELEASE  -
|  1> !DLPNO-CCSD(T) aug-cc-pVTZ aug-cc-pVTZ/C TightSCF TightPNO RIJCOSX def2/J
|  2> *xyz 0 1
|  3> C          2.23447       -2.98975       -2.39762
|  4> C          2.75680       -2.94555       -3.76503
|  5> C          1.98721       -2.59045       -4.81898
|  6> N          0.74322       -3.01749       -4.91352
|  7> N          2.49964       -1.84860       -5.80324
|  8> H          3.30978       -1.29282       -5.55895
|  9> H          1.80103       -1.30430       -6.28913
| 10> H          3.71612       -2.62880       -3.82953
| 11> H          0.39583       -3.62775       -4.18502
| 12> H          0.03920       -2.45438       -5.37137
| 13> C          2.19120       -1.61950       -1.71549
| 14> H          2.87278       -3.66637       -1.82801
| 15> H          1.24619       -3.44744       -2.40784
| 16> H          1.56387       -0.96046       -2.27853
| 17> H          3.18033       -1.21449       -1.66568
| 18> H          1.79916       -1.72608       -0.72562
| 19> *
| 20>
| 21> %MaxCore 64000
| 22>
| 23> %pal nprocs 18
| 24> end
| 25>
| 26> %scf
| 27>   MaxIter 150
| 28> end
| 29>
| 30>
| 31>                          ****END OF INPUT****

CARTESIAN COORDINATES (ANGSTROEM)
---------------------------------
  C      2.234470   -2.989750   -2.397620
  C      2.756800   -2.945550   -3.765030
  C      1.987210   -2.590450   -4.818980
  N      0.743220   -3.017490   -4.913520
  N      2.499640   -1.848600   -5.803240
  H      3.309780   -1.292820   -5.558950
  H      1.801030   -1.304300   -6.289130
  H      3.716120   -2.628800   -3.829530
  H      0.395830   -3.627750   -4.185020
  H      0.039200   -2.454380   -5.371370
  C      2.191200   -1.619500   -1.715490
  H      2.872780   -3.666370   -1.828010
  H      1.246190   -3.447440   -2.407840
  H      1.563870   -0.960460   -2.278530
  H      3.180330   -1.214490   -1.665680
  H      1.799160   -1.726080   -0.725620

 Total Charge           Charge          ....    0
 Multiplicity           Mult            ....    1
 Number of Electrons    NEL             ....   48
 Basis Dimension        Dim             ....  506

ORBITAL ENERGIES
----------------

  NO   OCC          E(Eh)            E(eV)
   0   2.0000     -15.568970      -423.6532
   1   2.0000     -15.565818      -423.5674
   2   2.0000     -11.291149      -307.2478
   3   2.0000     -11.199628      -304.7574
   4   2.0000     -11.190567      -304.5108
   5   2.0000     -11.141789      -303.1835
   6   2.0000      -1.291224       -35.1360
   7   2.0000      -1.176374       -32.0108
   8   2.0000      -1.049317       -28.5534
   9   2.0000      -0.945742       -25.7350
  10   2.0000      -0.842608       -22.9285
  11   2.0000      -0.782652       -21.2970
  12   2.0000      -0.726326       -19.7643
  13   2.0000      -0.690218       -18.7818
  14   2.0000      -0.638369       -17.3709
  15   2.0000      -0.620661       -16.8891
  16   2.0000      -0.574312       -15.6278
  17   2.0000      -0.557264       -15.1639
  18   2.0000      -0.529556       -14.4100
  19   2.0000      -0.504102       -13.7173
  20   2.0000      -0.472965       -12.8700
  21   2.0000      -0.464264       -12.6333
  22   2.0000      -0.428332       -11.6555
  23   2.0000      -0.259341        -7.0570
  24   0.0000       0.022451         0.6109
  25   0.0000       0.034629         0.9423
  26   0.0000       0.039361         1.0711
  27   0.0000       0.044184         1.2023
  28   0.0000       0.052979         1.4416

MULLIKEN ATOMIC CHARGES
-----------------------
   0 C :   -0.278639
   1 C :   -0.396156
   2 C :    0.744564
   3 N :   -0.523771
   4 N :   -0.558077
   5 H :    0.090461
   6 H :    0.101321
   7 H :    0.250195
   8 H :    0.122452
   9 H :    0.094156
  10 C :   -0.987924
  11 H :    0.227760
  12 H :    0.254076
  13 H :    0.306492
  14 H :    0.298524
  15 H :    0.254565
Sum of atomic charges:   -0.0000000

LOEWDIN ATOMIC CHARGES
----------------------
   0 C :    0.200842
   1 C :    0.215954
   2 C :   -0.433010
   3 N :    0.863528
   4 N :    0.863149
   5 H :   -0.278157
   6 H :   -0.293793
   7 H :   -0.285609
   8 H :   -0.293218
   9 H :   -0.268599
  10 C :    0.605557
  11 H :   -0.157606
  12 H :   -0.181343
  13 H :   -0.185463
  14 H :   -0.183533
  15 H :   -0.188698

  Mayer bond orders larger than 0.100000
B(  0-C ,  1-C ) :   0.8363 B(  0-C , 10-C ) :   0.7775 B(  0-C , 11-H ) :   1.0517
B(  0-C , 12-H ) :   0.9132 B(  1-C ,  2-C ) :   1.0850 B(  1-C ,  3-N ) :  -0.1933
B(  1-C ,  7-H ) :   0.9761 B(  1-C , 10-C ) :   0.1289 B(  2-C ,  3-N ) :   0.7386
B(  2-C ,  4-N ) :   0.5779 B(  3-N ,  4-N ) :  -0.1047 B(  3-N ,  8-H ) :   1.0899
B(  3-N ,  9-H ) :   1.1091 B(  4-N ,  5-H ) :   1.0896 B(  4-N ,  6-H ) :   1.0605
B( 10-C , 13-H ) :   0.9322 B( 10-C , 14-H ) :   0.9421 B( 10-C , 15-H ) :   0.9939

E(0)                                       ...   -266.242966241
E(0)                                       ...   -266.242966241
E(CORR)(strong-pairs)                      ...     -1.167949568
E(CORR)(weak-pairs)                        ...     -0.001261696
E(CORR)(corrected)                         ...     -1.169211264
E(TOT)                                     ...   -267.412177505
E(CCSD(T))                                 ...   -267.460522662
FINAL SINGLE POINT ENERGY      -267.460522661577

DIPOLE MOMENT
-------------
                                X             Y             Z
Electronic contribution:     -0.37175      -1.30254      -4.99511
Nuclear contribution   :     -0.44240       2.20379       4.66256
                        -----------------------------------------
Total Dipole Moment    :     -0.81414       0.90125      -0.33255
                        -----------------------------------------
Magnitude (a.u.)       :      1.25923
Magnitude (Debye)      :      3.20071

Rotational constants in cm-1:     0.209447     0.075194     0.066975
Rotational constants in MHz :  6279.068019  2254.272519  2007.845458

                             ****ORCA TERMINATED NORMALLY****
TOTAL RUN TIME: 0 days 0 hours 12 minutes 59 seconds 618 msec
