                         Program Version 5.0.0 -  RELEASE  -
|  1> !DLPNO-CCSD(T) aug-cc-pVTZ aug-cc-pVTZ/C TightSCF TightPNO RIJCOSX def2/J
|  2> *xyz 0 1
|  3> C         -1.10433        0.25137       -2.86006
|  4> C         -0.71189        0.84252       -4.21834
|  5> H          0.15463        1.49980       -4.13091
|  6> H         -1.53813        1.45922       -4.58267
|  7> C         -0.39762       -0.20587       -5.28802
|  8> O          0.61717       -0.00535       -5.99827
|  9> F         -1.13317       -1.22138       -5.34147
| 10> H         -1.95489       -0.38644       -2.98099
| 11> H         -1.34603        1.04362       -2.18269
| 12> H         -0.28606       -0.31581       -2.46809
| 13> *
| 14>
| 15> %MaxCore 64000
| 16>
| 17> %pal nprocs 18
| 18> end
| 19>
| 20> %scf
| 21>   MaxIter 150
| 22> end
| 23>
| 24>
| 25>                          ****END OF INPUT****

CARTESIAN COORDINATES (ANGSTROEM)
---------------------------------
  C     -1.104330    0.251370   -2.860060
  C     -0.711890    0.842520   -4.218340
  H      0.154630    1.499800   -4.130910
  H     -1.538130    1.459220   -4.582670
  C     -0.397620   -0.205870   -5.288020
  O      0.617170   -0.005350   -5.998270
  F     -1.133170   -1.221380   -5.341470
  H     -1.954890   -0.386440   -2.980990
  H     -1.346030    1.043620   -2.182690
  H     -0.286060   -0.315810   -2.468090

 Total Charge           Charge          ....    0
 Multiplicity           Mult            ....    1
 Number of Electrons    NEL             ....   40
 Basis Dimension        Dim             ....  345

ORBITAL ENERGIES
----------------

  NO   OCC          E(Eh)            E(eV)
   0   2.0000     -26.377217      -717.7606
   1   2.0000     -20.562469      -559.5332
   2   2.0000     -11.429800      -311.0207
   3   2.0000     -11.262033      -306.4555
   4   2.0000     -11.235139      -305.7237
   5   2.0000      -1.731320       -47.1116
   6   2.0000      -1.374294       -37.3964
   7   2.0000      -1.079963       -29.3873
   8   2.0000      -0.936221       -25.4759
   9   2.0000      -0.878886       -23.9157
  10   2.0000      -0.779151       -21.2018
  11   2.0000      -0.769607       -20.9421
  12   2.0000      -0.701580       -19.0910
  13   2.0000      -0.640599       -17.4316
  14   2.0000      -0.612634       -16.6706
  15   2.0000      -0.567237       -15.4353
  16   2.0000      -0.544223       -14.8091
  17   2.0000      -0.532793       -14.4980
  18   2.0000      -0.489602       -13.3228
  19   2.0000      -0.460093       -12.5198
  20   0.0000       0.025544         0.6951
  21   0.0000       0.038126         1.0375
  22   0.0000       0.040679         1.1069
  23   0.0000       0.047579         1.2947
  24   0.0000       0.062858         1.7105

MULLIKEN ATOMIC CHARGES
-----------------------
   0 C :   -0.916874
   1 C :   -0.270627
   2 H :    0.276261
   3 H :    0.284719
   4 C :    0.631603
   5 O :   -0.641301
   6 F :   -0.275502
   7 H :    0.300506
   8 H :    0.286326
   9 H :    0.324889
Sum of atomic charges:   -0.0000000

LOEWDIN ATOMIC CHARGES
----------------------
   0 C :    0.593351
   1 C :    0.244128
   2 H :   -0.167933
   3 H :   -0.160037
   4 C :   -0.920084
   5 O :    0.379988
   6 F :    0.584271
   7 H :   -0.191043
   8 H :   -0.180299
   9 H :   -0.182340

  Mayer bond orders larger than 0.100000
B(  0-C ,  1-C ) :   0.8610 B(  0-C ,  7-H ) :   0.9287 B(  0-C ,  8-H ) :   0.9705
B(  0-C ,  9-H ) :   0.8989 B(  1-C ,  2-H ) :   0.9421 B(  1-C ,  3-H ) :   0.9098
B(  1-C ,  4-C ) :   0.7914 B(  4-C ,  5-O ) :   1.6375 B(  4-C ,  6-F ) :   0.8575

E(0)                                       ...   -290.927514102
E(0)                                       ...   -290.927514102
E(CORR)(strong-pairs)                      ...     -1.024147343
E(CORR)(weak-pairs)                        ...     -0.000872663
E(CORR)(corrected)                         ...     -1.025020006
E(TOT)                                     ...   -291.952534108
E(CCSD(T))                                 ...   -291.992616765
FINAL SINGLE POINT ENERGY      -291.992616765474

DIPOLE MOMENT
-------------
                                X             Y             Z
Electronic contribution:      0.59029      -4.32946      -6.47766
Nuclear contribution   :     -1.45527       4.68977       7.53208
                        -----------------------------------------
Total Dipole Moment    :     -0.86497       0.36031       1.05441
                        -----------------------------------------
Magnitude (a.u.)       :      1.41060
Magnitude (Debye)      :      3.58546

Rotational constants in cm-1:     0.298240     0.132464     0.099915
Rotational constants in MHz :  8940.998095  3971.171647  2995.369122

                             ****ORCA TERMINATED NORMALLY****
TOTAL RUN TIME: 0 days 0 hours 3 minutes 21 seconds 676 msec
