                         Program Version 5.0.0 -  RELEASE  -
|  1> !DLPNO-CCSD(T) aug-cc-pVTZ aug-cc-pVTZ/C TightSCF TightPNO RIJCOSX def2/J
|  2> *xyz 0 1
|  3> C          2.23447       -2.98975       -2.39762
|  4> N          2.75680       -2.94555       -3.76503
|  5> C          1.98721       -2.59045       -4.81898
|  6> C          0.74322       -3.01749       -4.91352
|  7> N          2.49964       -1.84860       -5.80324
|  8> H          3.30978       -1.29282       -5.55895
|  9> H          1.80103       -1.30430       -6.28913
| 10> H          3.71612       -2.62880       -3.82953
| 11> H          0.39583       -3.62775       -4.18502
| 12> H          0.03920       -2.45438       -5.37137
| 13> C          2.19120       -1.61950       -1.71549
| 14> H          2.87278       -3.66637       -1.82801
| 15> H          1.24619       -3.44744       -2.40784
| 16> H          1.56387       -0.96046       -2.27853
| 17> H          3.18033       -1.21449       -1.66568
| 18> H          1.79916       -1.72608       -0.72562
| 19> *
| 20>
| 21> %MaxCore 64000
| 22>
| 23> %pal nprocs 18
| 24> end
| 25>
| 26> %scf
| 27>   MaxIter 150
| 28> end
| 29>
| 30>
| 31>                          ****END OF INPUT****

CARTESIAN COORDINATES (ANGSTROEM)
---------------------------------
  C      2.234470   -2.989750   -2.397620
  N      2.756800   -2.945550   -3.765030
  C      1.987210   -2.590450   -4.818980
  C      0.743220   -3.017490   -4.913520
  N      2.499640   -1.848600   -5.803240
  H      3.309780   -1.292820   -5.558950
  H      1.801030   -1.304300   -6.289130
  H      3.716120   -2.628800   -3.829530
  H      0.395830   -3.627750   -4.185020
  H      0.039200   -2.454380   -5.371370
  C      2.191200   -1.619500   -1.715490
  H      2.872780   -3.666370   -1.828010
  H      1.246190   -3.447440   -2.407840
  H      1.563870   -0.960460   -2.278530
  H      3.180330   -1.214490   -1.665680
  H      1.799160   -1.726080   -0.725620

 Total Charge           Charge          ....    0
 Multiplicity           Mult            ....    1
 Number of Electrons    NEL             ....   48
 Basis Dimension        Dim             ....  506

ORBITAL ENERGIES
----------------

  NO   OCC          E(Eh)            E(eV)
   0   2.0000     -15.563379      -423.5011
   1   2.0000     -15.560857      -423.4324
   2   2.0000     -11.286266      -307.1149
   3   2.0000     -11.260157      -306.4044
   4   2.0000     -11.212185      -305.0991
   5   2.0000     -11.134948      -302.9973
   6   2.0000      -1.286178       -34.9987
   7   2.0000      -1.186251       -32.2795
   8   2.0000      -1.020358       -27.7654
   9   2.0000      -0.975942       -26.5567
  10   2.0000      -0.866269       -23.5724
  11   2.0000      -0.764095       -20.7921
  12   2.0000      -0.725790       -19.7498
  13   2.0000      -0.691062       -18.8047
  14   2.0000      -0.627699       -17.0806
  15   2.0000      -0.612361       -16.6632
  16   2.0000      -0.578337       -15.7374
  17   2.0000      -0.559858       -15.2345
  18   2.0000      -0.549434       -14.9509
  19   2.0000      -0.522505       -14.2181
  20   2.0000      -0.511908       -13.9297
  21   2.0000      -0.496034       -13.4978
  22   2.0000      -0.397104       -10.8058
  23   2.0000      -0.279545        -7.6068
  24   0.0000       0.024610         0.6697
  25   0.0000       0.034547         0.9401
  26   0.0000       0.038235         1.0404
  27   0.0000       0.042358         1.1526
  28   0.0000       0.053609         1.4588

MULLIKEN ATOMIC CHARGES
-----------------------
   0 C :   -0.498372
   1 N :   -0.247233
   2 C :    0.923253
   3 C :   -1.206288
   4 N :   -0.656461
   5 H :    0.148912
   6 H :    0.059464
   7 H :    0.052526
   8 H :    0.493677
   9 H :    0.225704
  10 C :   -0.895074
  11 H :    0.331367
  12 H :    0.367664
  13 H :    0.312586
  14 H :    0.261670
  15 H :    0.326607
Sum of atomic charges:   -0.0000000

LOEWDIN ATOMIC CHARGES
----------------------
   0 C :    0.201770
   1 N :    0.576156
   2 C :   -0.455411
   3 C :    0.546956
   4 N :    0.858684
   5 H :   -0.289757
   6 H :   -0.287930
   7 H :   -0.281879
   8 H :   -0.323304
   9 H :   -0.295812
  10 C :    0.620315
  11 H :   -0.144766
  12 H :   -0.172742
  13 H :   -0.181961
  14 H :   -0.186740
  15 H :   -0.183578

  Mayer bond orders larger than 0.100000
B(  0-C ,  1-N ) :   0.9423 B(  0-C , 10-C ) :   0.8644 B(  0-C , 11-H ) :   0.9234
B(  0-C , 12-H ) :   0.8771 B(  1-N ,  2-C ) :   0.7159 B(  1-N ,  4-N ) :  -0.1012
B(  1-N ,  7-H ) :   1.0177 B(  2-C ,  3-C ) :   1.1157 B(  2-C ,  4-N ) :   0.7157
B(  2-C ,  9-H ) :  -0.1050 B(  3-C ,  4-N ) :  -0.1424 B(  3-C ,  8-H ) :   0.7039
B(  3-C ,  9-H ) :   1.2177 B(  4-N ,  5-H ) :   0.9615 B(  4-N ,  6-H ) :   1.1440
B( 10-C , 13-H ) :   0.9258 B( 10-C , 14-H ) :   0.9722 B( 10-C , 15-H ) :   0.9060

E(0)                                       ...   -266.242200695
E(0)                                       ...   -266.242200695
E(CORR)(strong-pairs)                      ...     -1.164574739
E(CORR)(weak-pairs)                        ...     -0.001250480
E(CORR)(corrected)                         ...     -1.165825219
E(TOT)                                     ...   -267.408025915
E(CCSD(T))                                 ...   -267.455878123
FINAL SINGLE POINT ENERGY      -267.455878122587

DIPOLE MOMENT
-------------
                                X             Y             Z
Electronic contribution:      1.52045      -1.19236      -3.79189
Nuclear contribution   :     -0.86957       2.18853       4.41892
                        -----------------------------------------
Total Dipole Moment    :      0.65089       0.99617       0.62703
                        -----------------------------------------
Magnitude (a.u.)       :      1.34506
Magnitude (Debye)      :      3.41886

Rotational constants in cm-1:     0.214718     0.075736     0.068547
Rotational constants in MHz :  6437.075121  2270.519635  2054.974198

                             ****ORCA TERMINATED NORMALLY****
TOTAL RUN TIME: 0 days 0 hours 11 minutes 54 seconds 756 msec
