                         Program Version 5.0.0 -  RELEASE  -
|  1> !DLPNO-CCSD(T) aug-cc-pVTZ aug-cc-pVTZ/C TightSCF TightPNO RIJCOSX def2/J
|  2> *xyz 0 1
|  3> C          2.23447       -2.98975       -2.39762
|  4> N          2.75680       -2.94555       -3.76503
|  5> C          1.98721       -2.59045       -4.81898
|  6> N          0.74322       -3.01749       -4.91352
|  7> C          2.49964       -1.84860       -5.80324
|  8> H          3.30978       -1.29282       -5.55895
|  9> H          1.80103       -1.30430       -6.28913
| 10> H          3.71612       -2.62880       -3.82953
| 11> H          0.39583       -3.62775       -4.18502
| 12> H          0.03920       -2.45438       -5.37137
| 13> C          2.19120       -1.61950       -1.71549
| 14> H          2.87278       -3.66637       -1.82801
| 15> H          1.24619       -3.44744       -2.40784
| 16> H          1.56387       -0.96046       -2.27853
| 17> H          3.18033       -1.21449       -1.66568
| 18> H          1.79916       -1.72608       -0.72562
| 19> *
| 20>
| 21> %MaxCore 64000
| 22>
| 23> %pal nprocs 18
| 24> end
| 25>
| 26> %scf
| 27>   MaxIter 150
| 28> end
| 29>
| 30>
| 31>                          ****END OF INPUT****

CARTESIAN COORDINATES (ANGSTROEM)
---------------------------------
  C      2.234470   -2.989750   -2.397620
  N      2.756800   -2.945550   -3.765030
  C      1.987210   -2.590450   -4.818980
  N      0.743220   -3.017490   -4.913520
  C      2.499640   -1.848600   -5.803240
  H      3.309780   -1.292820   -5.558950
  H      1.801030   -1.304300   -6.289130
  H      3.716120   -2.628800   -3.829530
  H      0.395830   -3.627750   -4.185020
  H      0.039200   -2.454380   -5.371370
  C      2.191200   -1.619500   -1.715490
  H      2.872780   -3.666370   -1.828010
  H      1.246190   -3.447440   -2.407840
  H      1.563870   -0.960460   -2.278530
  H      3.180330   -1.214490   -1.665680
  H      1.799160   -1.726080   -0.725620

 Total Charge           Charge          ....    0
 Multiplicity           Mult            ....    1
 Number of Electrons    NEL             ....   48
 Basis Dimension        Dim             ....  506

ORBITAL ENERGIES
----------------

  NO   OCC          E(Eh)            E(eV)
   0   2.0000     -15.566350      -423.5819
   1   2.0000     -15.561173      -423.4410
   2   2.0000     -11.292572      -307.2865
   3   2.0000     -11.269637      -306.6624
   4   2.0000     -11.217045      -305.2313
   5   2.0000     -11.128883      -302.8323
   6   2.0000      -1.289905       -35.1001
   7   2.0000      -1.187543       -32.3147
   8   2.0000      -1.035268       -28.1711
   9   2.0000      -0.967476       -26.3264
  10   2.0000      -0.857609       -23.3367
  11   2.0000      -0.804245       -21.8846
  12   2.0000      -0.724614       -19.7178
  13   2.0000      -0.665138       -18.0993
  14   2.0000      -0.660851       -17.9827
  15   2.0000      -0.601929       -16.3793
  16   2.0000      -0.594689       -16.1823
  17   2.0000      -0.562285       -15.3006
  18   2.0000      -0.532837       -14.4992
  19   2.0000      -0.518628       -14.1126
  20   2.0000      -0.516007       -14.0413
  21   2.0000      -0.505268       -13.7490
  22   2.0000      -0.399869       -10.8810
  23   2.0000      -0.275043        -7.4843
  24   0.0000       0.024591         0.6692
  25   0.0000       0.033865         0.9215
  26   0.0000       0.037762         1.0276
  27   0.0000       0.040736         1.1085
  28   0.0000       0.054182         1.4744

MULLIKEN ATOMIC CHARGES
-----------------------
   0 C :   -0.454443
   1 N :   -0.129768
   2 C :    0.987468
   3 N :   -0.565316
   4 C :   -1.364238
   5 H :    0.262805
   6 H :    0.390760
   7 H :    0.033452
   8 H :    0.161058
   9 H :    0.052142
  10 C :   -0.907759
  11 H :    0.320181
  12 H :    0.311402
  13 H :    0.296542
  14 H :    0.275641
  15 H :    0.330074
Sum of atomic charges:   -0.0000000

LOEWDIN ATOMIC CHARGES
----------------------
   0 C :    0.198616
   1 N :    0.578381
   2 C :   -0.461451
   3 N :    0.862308
   4 C :    0.548938
   5 H :   -0.321296
   6 H :   -0.329020
   7 H :   -0.274467
   8 H :   -0.303665
   9 H :   -0.257506
  10 C :    0.622794
  11 H :   -0.145253
  12 H :   -0.171507
  13 H :   -0.180225
  14 H :   -0.181731
  15 H :   -0.184913

  Mayer bond orders larger than 0.100000
B(  0-C ,  1-N ) :   0.9495 B(  0-C , 10-C ) :   0.8543 B(  0-C , 11-H ) :   0.9171
B(  0-C , 12-H ) :   0.8941 B(  1-N ,  2-C ) :   0.7440 B(  1-N ,  3-N ) :  -0.1307
B(  1-N ,  4-C ) :  -0.1494 B(  1-N ,  7-H ) :   1.0649 B(  2-C ,  3-N ) :   0.6657
B(  2-C ,  4-C ) :   0.9954 B(  3-N ,  8-H ) :   1.0167 B(  3-N ,  9-H ) :   1.1843
B(  4-C ,  5-H ) :   1.0516 B(  4-C ,  6-H ) :   0.8860 B( 10-C , 13-H ) :   0.9445
B( 10-C , 14-H ) :   0.9592 B( 10-C , 15-H ) :   0.9039

E(0)                                       ...   -266.235467115
E(0)                                       ...   -266.235467115
E(CORR)(strong-pairs)                      ...     -1.164611300
E(CORR)(weak-pairs)                        ...     -0.001246806
E(CORR)(corrected)                         ...     -1.165858106
E(TOT)                                     ...   -267.401325221
E(CCSD(T))                                 ...   -267.449363031
FINAL SINGLE POINT ENERGY      -267.449363031382

DIPOLE MOMENT
-------------
                                X             Y             Z
Electronic contribution:     -0.17444      -2.38600      -2.84276
Nuclear contribution   :     -0.49695       2.43650       4.23017
                        -----------------------------------------
Total Dipole Moment    :     -0.67139       0.05050       1.38741
                        -----------------------------------------
Magnitude (a.u.)       :      1.54215
Magnitude (Debye)      :      3.91984

Rotational constants in cm-1:     0.211102     0.077011     0.069221
Rotational constants in MHz :  6328.667765  2308.731604  2075.192956

                             ****ORCA TERMINATED NORMALLY****
TOTAL RUN TIME: 0 days 0 hours 11 minutes 54 seconds 352 msec
