                         Program Version 5.0.0 -  RELEASE  -
|  1> !DLPNO-CCSD(T) aug-cc-pVTZ aug-cc-pVTZ/C TightSCF TightPNO RIJCOSX def2/J
|  2>
|  3> *xyzfile 0 1 D5.xyz
|  4>
|  5> %MaxCore 64000
|  6>
|  7> %pal nprocs 18
|  8> end
|  9>
| 10> %scf
| 11>   MaxIter 150
| 12> end
| 13>
| 14>
| 15>                          ****END OF INPUT****

CARTESIAN COORDINATES (ANGSTROEM)
---------------------------------
  C      2.234473   -2.989754   -2.397622
  N      2.756799   -2.945553   -3.765029
  C     -1.104325    0.251374   -2.860056
  C     -0.711893    0.842517   -4.218344
  H      0.154626    1.499800   -4.130909
  H     -1.538134    1.459222   -4.582671
  C     -0.397624   -0.205875   -5.288018
  C      1.987208   -2.590451   -4.818975
  C      0.743221   -3.017493   -4.913524
  N      2.499636   -1.848598   -5.803241
  H      3.309780   -1.292818   -5.558947
  H      1.801025   -1.304298   -6.289129
  H      3.716116   -2.628797   -3.829533
  H      0.395828   -3.627747   -4.185024
  H      0.039201   -2.454383   -5.371367
  O      0.617165   -0.005348   -5.998273
  F     -1.133173   -1.221380   -5.341465
  C      2.191199   -1.619503   -1.715492
  H      2.872783   -3.666368   -1.828014
  H      1.246188   -3.447444   -2.407842
  C      1.298729   -0.554314   -2.359773
  H      1.872917   -1.787955   -0.681310
  H      3.216809   -1.238432   -1.654428
  C     -0.196255   -0.863365   -2.325763
  H      1.612531   -0.371346   -3.393065
  H      1.480944    0.388638   -1.834444
  H     -0.404105   -1.761825   -2.909448
  H     -0.490439   -1.087880   -1.294131
  H     -1.143842    1.066711   -2.129680
  H     -2.114401   -0.156834   -2.930323

 Total Charge           Charge          ....    0
 Multiplicity           Mult            ....    1
 Number of Electrons    NEL             ....  102
 Basis Dimension        Dim             ....  989

ORBITAL ENERGIES
----------------

  NO   OCC          E(Eh)            E(eV)
   0   2.0000     -26.382591      -717.9068
   1   2.0000     -20.575040      -559.8753
   2   2.0000     -15.550311      -423.1455
   3   2.0000     -15.530047      -422.5941
   4   2.0000     -11.443913      -311.4047
   5   2.0000     -11.270556      -306.6874
   6   2.0000     -11.265231      -306.5425
   7   2.0000     -11.255738      -306.2842
   8   2.0000     -11.244681      -305.9833
   9   2.0000     -11.226057      -305.4766
  10   2.0000     -11.225735      -305.4678
  11   2.0000     -11.225142      -305.4516
  12   2.0000     -11.115431      -302.4663
  13   2.0000      -1.743011       -47.4297
  14   2.0000      -1.394624       -37.9497
  15   2.0000      -1.270231       -34.5647
  16   2.0000      -1.169854       -31.8333
  17   2.0000      -1.110817       -30.2269
  18   2.0000      -1.058542       -28.8044
  19   2.0000      -0.996407       -27.1136
  20   2.0000      -0.964843       -26.2547
  21   2.0000      -0.933511       -25.4021
  22   2.0000      -0.900307       -24.4986
  23   2.0000      -0.842956       -22.9380
  24   2.0000      -0.807173       -21.9643
  25   2.0000      -0.790160       -21.5013
  26   2.0000      -0.781223       -21.2582
  27   2.0000      -0.744286       -20.2531
  28   2.0000      -0.717851       -19.5337
  29   2.0000      -0.706636       -19.2286
  30   2.0000      -0.666131       -18.1263
  31   2.0000      -0.656645       -17.8682
  32   2.0000      -0.645539       -17.5660
  33   2.0000      -0.619980       -16.8705
  34   2.0000      -0.610355       -16.6086
  35   2.0000      -0.596567       -16.2334
  36   2.0000      -0.570518       -15.5246
  37   2.0000      -0.568548       -15.4710
  38   2.0000      -0.558120       -15.1872
  39   2.0000      -0.544292       -14.8109
  40   2.0000      -0.527645       -14.3579
  41   2.0000      -0.523408       -14.2426
  42   2.0000      -0.508247       -13.8301
  43   2.0000      -0.506440       -13.7809
  44   2.0000      -0.492231       -13.3943
  45   2.0000      -0.479455       -13.0466
  46   2.0000      -0.469118       -12.7654
  47   2.0000      -0.460946       -12.5430
  48   2.0000      -0.455414       -12.3924
  49   2.0000      -0.379254       -10.3200
  50   2.0000      -0.265724        -7.2307
  51   0.0000       0.022041         0.5998
  52   0.0000       0.027295         0.7427
  53   0.0000       0.031459         0.8560
  54   0.0000       0.037058         1.0084
  55   0.0000       0.043918         1.1951

MULLIKEN ATOMIC CHARGES
-----------------------
   0 C :   -0.411406
   1 N :   -0.494528
   2 C :   -0.554591
   3 C :   -0.367295
   4 H :    0.225197
   5 H :    0.393378
   6 C :    1.055950
   7 C :    1.326259
   8 C :   -1.066857
   9 N :   -0.880065
  10 H :    0.072291
  11 H :    0.144331
  12 H :   -0.025247
  13 H :    0.452103
  14 H :    0.226207
  15 O :   -0.847509
  16 F :   -0.476563
  17 C :   -0.555266
  18 H :    0.404052
  19 H :    0.137524
  20 C :   -0.450576
  21 H :    0.221824
  22 H :    0.183812
  23 C :   -0.347157
  24 H :    0.246582
  25 H :    0.300002
  26 H :    0.386444
  27 H :    0.310961
  28 H :    0.231383
  29 H :    0.158761
Sum of atomic charges:   -0.0000000

LOEWDIN ATOMIC CHARGES
----------------------
   0 C :    0.223251
   1 N :    0.590065
   2 C :    0.293771
   3 C :    0.290375
   4 H :   -0.159058
   5 H :   -0.147275
   6 C :   -0.812729
   7 C :   -0.446731
   8 C :    0.535922
   9 N :    0.866367
  10 H :   -0.278035
  11 H :   -0.516439
  12 H :   -0.277094
  13 H :   -0.303570
  14 H :   -0.501692
  15 O :    0.538758
  16 F :    0.710510
  17 C :    0.317022
  18 H :   -0.137557
  19 H :   -0.171759
  20 C :    0.289243
  21 H :   -0.144680
  22 H :   -0.142740
  23 C :    0.290232
  24 H :   -0.173097
  25 H :   -0.134145
  26 H :   -0.186774
  27 H :   -0.129218
  28 H :   -0.136389
  29 H :   -0.146532

  Mayer bond orders larger than 0.100000
B(  0-C ,  1-N ) :   0.9271 B(  0-C , 17-C ) :   0.8779 B(  0-C , 18-H ) :   0.8599
B(  0-C , 19-H ) :   1.1034 B(  1-N ,  7-C ) :   0.4088 B(  1-N , 12-H ) :   1.0953
B(  1-N , 19-H ) :   0.1566 B(  2-C ,  3-C ) :   0.8935 B(  2-C ,  6-C ) :   0.1329
B(  2-C , 23-C ) :   0.8687 B(  2-C , 28-H ) :   0.9764 B(  2-C , 29-H ) :   1.0652
B(  3-C ,  4-H ) :   1.0049 B(  3-C ,  5-H ) :   0.9093 B(  3-C ,  6-C ) :   0.7914
B(  3-C , 16-F ) :   0.1572 B(  5-H ,  6-C ) :  -0.1329 B(  6-C , 15-O ) :   1.2318
B(  6-C , 16-F ) :   0.6110 B(  7-C ,  8-C ) :   1.2851 B(  7-C ,  9-N ) :   0.2055
B(  7-C , 10-H ) :  -0.1127 B(  7-C , 14-H ) :  -0.1720 B(  8-C ,  9-N ) :  -0.1570
B(  8-C , 13-H ) :   0.8212 B(  8-C , 14-H ) :   1.1739 B(  8-C , 16-F ) :  -0.1111
B(  9-N , 10-H ) :   1.0711 B(  9-N , 11-H ) :   1.0536 B( 13-H , 14-H ) :   0.1014
B( 14-H , 15-O ) :   0.1090 B( 17-C , 20-C ) :   0.9256 B( 17-C , 21-H ) :   0.9667
B( 17-C , 22-H ) :   1.0606 B( 20-C , 23-C ) :   0.8269 B( 20-C , 24-H ) :   0.9189
B( 20-C , 25-H ) :   0.9725 B( 23-C , 26-H ) :   0.9567 B( 23-C , 27-H ) :   0.9230

E(0)                                       ...   -634.065863677
E(0)                                       ...   -634.065863677
E(CORR)(strong-pairs)                      ...     -2.549033251
E(CORR)(weak-pairs)                        ...     -0.004221486
E(CORR)(corrected)                         ...     -2.553254737
E(TOT)                                     ...   -636.619118414
E(CCSD(T))                                 ...   -636.726783623
FINAL SINGLE POINT ENERGY      -636.726783622698

DIPOLE MOMENT
-------------
                                X             Y             Z
Electronic contribution:     -4.45475       0.32110     -12.25640
Nuclear contribution   :      4.07548       1.14852      13.79455
                        -----------------------------------------
Total Dipole Moment    :     -0.37927       1.46962       1.53814
                        -----------------------------------------
Magnitude (a.u.)       :      2.16091
Magnitude (Debye)      :      5.49259

Rotational constants in cm-1:     0.033274     0.023559     0.016968
Rotational constants in MHz :   997.539108   706.293545   508.690532

                             ****ORCA TERMINATED NORMALLY****
TOTAL RUN TIME: 0 days 3 hours 56 minutes 18 seconds 354 msec
