                         Program Version 5.0.0 -  RELEASE  -
|  1> !CAM-B3LYP RIJCOSX def2-SVP def2/J TightSCF
|  2> *xyz -1 1
|  3> C         -1.91658       -2.48508       -3.64367
|  4> C         -1.36353       -1.98134       -2.29361
|  5> O         -0.35039       -2.74969       -1.79601
|  6> H         -2.22622       -1.90839       -1.60204
|  7> H         -1.05135       -0.91567       -2.44333
|  8> H         -1.11522       -2.57167       -4.34739
|  9> H         -2.64227       -1.79099       -4.01314
| 10> H         -2.37564       -3.44180       -3.50640
| 11> *
| 12>
| 13> %MaxCore 64000
| 14> %pal nprocs 4
| 15> end
| 16>
| 17> %scf
| 18>   MaxIter 150
| 19> end
| 20>
| 21>
| 22>                          ****END OF INPUT****

CARTESIAN COORDINATES (ANGSTROEM)
---------------------------------
  C     -1.916580   -2.485080   -3.643670
  C     -1.363530   -1.981340   -2.293610
  O     -0.350390   -2.749690   -1.796010
  H     -2.226220   -1.908390   -1.602040
  H     -1.051350   -0.915670   -2.443330
  H     -1.115220   -2.571670   -4.347390
  H     -2.642270   -1.790990   -4.013140
  H     -2.375640   -3.441800   -3.506400

 Total Charge           Charge          ....   -1
 Multiplicity           Mult            ....    1
 Number of Electrons    NEL             ....   26
 Basis Dimension        Dim             ....   67

ORBITAL ENERGIES
----------------

  NO   OCC          E(Eh)            E(eV)
   0   2.0000     -18.814893      -511.9793
   1   2.0000     -10.047403      -273.4037
   2   2.0000     -10.035169      -273.0708
   3   2.0000      -0.705844       -19.2070
   4   2.0000      -0.578744       -15.7484
   5   2.0000      -0.418898       -11.3988
   6   2.0000      -0.301354        -8.2003
   7   2.0000      -0.278565        -7.5801
   8   2.0000      -0.218647        -5.9497
   9   2.0000      -0.200945        -5.4680
  10   2.0000      -0.133243        -3.6257
  11   2.0000       0.015619         0.4250
  12   2.0000       0.018604         0.5062
  13   0.0000       0.293687         7.9916
  14   0.0000       0.339012         9.2250
  15   0.0000       0.352682         9.5970
  16   0.0000       0.362436         9.8624
  17   0.0000       0.406007        11.0480

MULLIKEN ATOMIC CHARGES
-----------------------
   0 C :    0.069070
   1 C :    0.263186
   2 O :   -0.701648
   3 H :   -0.182745
   4 H :   -0.186297
   5 H :   -0.070250
   6 H :   -0.121198
   7 H :   -0.070119
Sum of atomic charges:   -1.0000000

LOEWDIN ATOMIC CHARGES
----------------------
   0 C :   -0.109009
   1 C :    0.009911
   2 O :   -0.666120
   3 H :   -0.083895
   4 H :   -0.087182
   5 H :   -0.015018
   6 H :   -0.033737
   7 H :   -0.014950

  Mayer bond orders larger than 0.100000
B(  0-C ,  1-C ) :   0.9974 B(  0-C ,  5-H ) :   0.9551 B(  0-C ,  6-H ) :   0.9219
B(  0-C ,  7-H ) :   0.9581 B(  1-C ,  2-O ) :   1.5294 B(  1-C ,  3-H ) :   0.8657
B(  1-C ,  4-H ) :   0.8647

FINAL SINGLE POINT ENERGY      -154.199076270262

DIPOLE MOMENT
-------------
                                X             Y             Z
Electronic contribution:      2.28242      -1.08354       1.94782
Nuclear contribution   :     -3.14382       1.30299      -2.83231
                        -----------------------------------------
Total Dipole Moment    :     -0.86141       0.21945      -0.88449
                        -----------------------------------------
Magnitude (a.u.)       :      1.25399
Magnitude (Debye)      :      3.18740

Rotational constants in cm-1:     1.288206     0.322942     0.285188
Rotational constants in MHz : 38619.437223  9681.562038  8549.712012

                             ****ORCA TERMINATED NORMALLY****
TOTAL RUN TIME: 0 days 0 hours 0 minutes 9 seconds 656 msec
