                         Program Version 5.0.0 -  RELEASE  -
|  1> !CAM-B3LYP RIJCOSX def2-SVP def2/J TightSCF
|  2> *xyz 1 1
|  3> C          1.64703       -2.34528       -5.02041
|  4> C          2.20996       -2.81239       -3.66571
|  5> C          2.48901       -1.66851       -2.73754
|  6> N          3.59631       -0.94761       -2.95225
|  7> N          1.66394       -1.41369       -1.77781
|  8> H          0.81164       -1.96318       -1.70275
|  9> H          1.84550       -0.63508       -1.15875
| 10> H          4.20535       -1.17600       -3.73383
| 11> H          3.81723       -0.12585       -2.40604
| 12> H          3.14311       -3.36280       -3.81152
| 13> H          1.48768       -3.45893       -3.16521
| 14> H          1.46566       -3.19589       -5.64368
| 15> H          2.35406       -1.69850       -5.49654
| 16> H          0.73014       -1.81680       -4.86253
| 17> *
| 18>
| 19> %MaxCore 64000
| 20> %pal nprocs 4
| 21> end
| 22>
| 23> %scf
| 24>   MaxIter 150
| 25> end
| 26>
| 27>
| 28>                          ****END OF INPUT****

CARTESIAN COORDINATES (ANGSTROEM)
---------------------------------
  C      1.647030   -2.345280   -5.020410
  C      2.209960   -2.812390   -3.665710
  C      2.489010   -1.668510   -2.737540
  N      3.596310   -0.947610   -2.952250
  N      1.663940   -1.413690   -1.777810
  H      0.811640   -1.963180   -1.702750
  H      1.845500   -0.635080   -1.158750
  H      4.205350   -1.176000   -3.733830
  H      3.817230   -0.125850   -2.406040
  H      3.143110   -3.362800   -3.811520
  H      1.487680   -3.458930   -3.165210
  H      1.465660   -3.195890   -5.643680
  H      2.354060   -1.698500   -5.496540
  H      0.730140   -1.816800   -4.862530

 Total Charge           Charge          ....    1
 Multiplicity           Mult            ....    1
 Number of Electrons    NEL             ....   40
 Basis Dimension        Dim             ....  115

ORBITAL ENERGIES
----------------

  NO   OCC          E(Eh)            E(eV)
   0   2.0000     -14.656266      -398.8173
   1   2.0000     -14.646222      -398.5439
   2   2.0000     -10.582831      -287.9735
   3   2.0000     -10.456284      -284.5299
   4   2.0000     -10.414673      -283.3977
   5   2.0000      -1.280796       -34.8522
   6   2.0000      -1.181503       -32.1503
   7   2.0000      -1.044326       -28.4176
   8   2.0000      -0.932451       -25.3733
   9   2.0000      -0.890026       -24.2188
  10   2.0000      -0.848051       -23.0766
  11   2.0000      -0.821371       -22.3506
  12   2.0000      -0.773818       -21.0567
  13   2.0000      -0.719953       -19.5909
  14   2.0000      -0.691457       -18.8155
  15   2.0000      -0.682134       -18.5618
  16   2.0000      -0.609699       -16.5908
  17   2.0000      -0.600748       -16.3472
  18   2.0000      -0.595107       -16.1937
  19   2.0000      -0.555539       -15.1170
  20   0.0000      -0.151649        -4.1266
  21   0.0000      -0.104052        -2.8314
  22   0.0000      -0.057133        -1.5547
  23   0.0000      -0.056164        -1.5283
  24   0.0000      -0.024821        -0.6754

MULLIKEN ATOMIC CHARGES
-----------------------
   0 C :    0.032082
   1 C :   -0.007053
   2 C :   -0.094795
   3 N :   -0.002887
   4 N :    0.066218
   5 H :    0.190431
   6 H :    0.175123
   7 H :    0.184284
   8 H :    0.171679
   9 H :    0.080373
  10 H :    0.051514
  11 H :    0.077766
  12 H :    0.034363
  13 H :    0.040901
Sum of atomic charges:    1.0000000

LOEWDIN ATOMIC CHARGES
----------------------
   0 C :   -0.021419
   1 C :   -0.030304
   2 C :    0.155291
   3 N :    0.076491
   4 N :    0.114377
   5 H :    0.127778
   6 H :    0.115933
   7 H :    0.121704
   8 H :    0.110399
   9 H :    0.060718
  10 H :    0.049687
  11 H :    0.052628
  12 H :    0.030883
  13 H :    0.035834

  Mayer bond orders larger than 0.100000
B(  0-C ,  1-C ) :   1.0723 B(  0-C , 11-H ) :   0.9651 B(  0-C , 12-H ) :   0.9730
B(  0-C , 13-H ) :   0.9695 B(  1-C ,  2-C ) :   1.0221 B(  1-C ,  9-H ) :   0.9256
B(  1-C , 10-H ) :   0.9272 B(  2-C ,  3-N ) :   1.4862 B(  2-C ,  4-N ) :   1.5600
B(  3-N ,  7-H ) :   0.9233 B(  3-N ,  8-H ) :   0.9319 B(  4-N ,  5-H ) :   0.9120
B(  4-N ,  6-H ) :   0.9253

FINAL SINGLE POINT ENERGY      -228.739231985338

DIPOLE MOMENT
-------------
                                X             Y             Z
Electronic contribution:      1.20541       1.69147       3.66464
Nuclear contribution   :     -0.98617      -1.03178      -2.77619
                        -----------------------------------------
Total Dipole Moment    :      0.21924       0.65970       0.88846
                        -----------------------------------------
Magnitude (a.u.)       :      1.12810
Magnitude (Debye)      :      2.86741

Rotational constants in cm-1:     0.257311     0.127495     0.099037
Rotational constants in MHz :  7713.982239  3822.189706  2969.039713

                             ****ORCA TERMINATED NORMALLY****
TOTAL RUN TIME: 0 days 0 hours 0 minutes 18 seconds 448 msec
