                         Program Version 5.0.0 -  RELEASE  -
|  1> !CAM-B3LYP RIJCOSX def2-TZVP def2/J TightSCF xyzfile
|  2>
|  3> *xyzfile 0 1 B.xyz
|  4>
|  5> %MaxCore 64000
|  6>
|  7> %pal nprocs 18
|  8> end
|  9>
| 10> %scf
| 11>   MaxIter 150
| 12> end
| 13>
| 14>
| 15>                          ****END OF INPUT****

CARTESIAN COORDINATES (ANGSTROEM)
---------------------------------
  C      1.647032   -2.345276   -5.020411
  C      0.217628   -1.814022   -4.924389
  C      2.209964   -2.812388   -3.665708
  C     -0.811356   -2.908780   -4.607625
  C     -1.916579   -2.485081   -3.643665
  H     -2.554525   -1.712428   -4.091993
  C     -1.363531   -1.981337   -2.293608
  H     -2.553448   -3.355667   -3.458815
  O     -0.350395   -2.749689   -1.796006
  H      2.308385   -1.588704   -5.457128
  H      1.674286   -3.203478   -5.697392
  C      2.489007   -1.668510   -2.737538
  N      3.596314   -0.947608   -2.952247
  N      1.663936   -1.413685   -1.777806
  H      0.811642   -1.963178   -1.702755
  H      1.845503   -0.635078   -1.158749
  H      4.205351   -1.176003   -3.733825
  H      3.817230   -0.125845   -2.406041
  H     -1.244829   -3.280884   -5.541040
  H     -0.306331   -3.757746   -4.142734
  H     -0.036244   -1.318555   -5.865303
  H      0.175004   -1.035382   -4.158095
  H      3.143106   -3.362803   -3.811524
  H      1.487683   -3.458935   -3.165211
  H     -2.226220   -1.908386   -1.602039
  H     -1.051353   -0.915671   -2.443331

 Total Charge           Charge          ....    0
 Multiplicity           Mult            ....    1
 Number of Electrons    NEL             ....   80
 Basis Dimension        Dim             ....  406

ORBITAL ENERGIES
----------------

  NO   OCC          E(Eh)            E(eV)
   0   2.0000     -19.047160      -518.2996
   1   2.0000     -14.465220      -393.6186
   2   2.0000     -14.419659      -392.3789
   3   2.0000     -10.385298      -282.5983
   4   2.0000     -10.268238      -279.4129
   5   2.0000     -10.255760      -279.0734
   6   2.0000     -10.225492      -278.2498
   7   2.0000     -10.215236      -277.9707
   8   2.0000     -10.205473      -277.7050
   9   2.0000     -10.188059      -277.2312
  10   2.0000      -1.106273       -30.1032
  11   2.0000      -1.011241       -27.5173
  12   2.0000      -0.955791       -26.0084
  13   2.0000      -0.899511       -24.4769
  14   2.0000      -0.835907       -22.7462
  15   2.0000      -0.784110       -21.3367
  16   2.0000      -0.727400       -19.7935
  17   2.0000      -0.708249       -19.2724
  18   2.0000      -0.669630       -18.2216
  19   2.0000      -0.663887       -18.0653
  20   2.0000      -0.636648       -17.3241
  21   2.0000      -0.594946       -16.1893
  22   2.0000      -0.572726       -15.5847
  23   2.0000      -0.556368       -15.1395
  24   2.0000      -0.534535       -14.5454
  25   2.0000      -0.509068       -13.8524
  26   2.0000      -0.498672       -13.5696
  27   2.0000      -0.470681       -12.8079
  28   2.0000      -0.456789       -12.4299
  29   2.0000      -0.454002       -12.3540
  30   2.0000      -0.420635       -11.4461
  31   2.0000      -0.413385       -11.2488
  32   2.0000      -0.402615       -10.9557
  33   2.0000      -0.382340       -10.4040
  34   2.0000      -0.373479       -10.1629
  35   2.0000      -0.361649        -9.8410
  36   2.0000      -0.352634        -9.5957
  37   2.0000      -0.345629        -9.4050
  38   2.0000      -0.228769        -6.2251
  39   2.0000      -0.222151        -6.0450
  40   0.0000       0.018211         0.4955
  41   0.0000       0.022329         0.6076
  42   0.0000       0.060892         1.6570
  43   0.0000       0.087620         2.3843
  44   0.0000       0.099523         2.7082

MULLIKEN ATOMIC CHARGES
-----------------------
   0 C :   -0.201964
   1 C :   -0.204939
   2 C :   -0.286439
   3 C :   -0.182321
   4 C :   -0.113315
   5 H :    0.057132
   6 C :   -0.042275
   7 H :    0.075457
   8 O :   -0.695962
   9 H :    0.093539
  10 H :    0.119130
  11 C :    0.270911
  12 N :   -0.401052
  13 N :   -0.290737
  14 H :    0.311468
  15 H :    0.212905
  16 H :    0.262173
  17 H :    0.244485
  18 H :    0.086829
  19 H :    0.095798
  20 H :    0.099901
  21 H :    0.106497
  22 H :    0.137447
  23 H :    0.193988
  24 H :    0.044172
  25 H :    0.007171
Sum of atomic charges:    0.0000000

LOEWDIN ATOMIC CHARGES
----------------------
   0 C :   -0.257859
   1 C :   -0.259089
   2 C :   -0.210246
   3 C :   -0.273050
   4 C :   -0.285389
   5 H :    0.122381
   6 C :   -0.487025
   7 H :    0.129247
   8 O :   -0.286378
   9 H :    0.127307
  10 H :    0.142835
  11 C :   -0.308284
  12 N :    0.035057
  13 N :    0.145812
  14 H :    0.103288
  15 H :    0.173425
  16 H :    0.188169
  17 H :    0.176238
  18 H :    0.126782
  19 H :    0.139076
  20 H :    0.131800
  21 H :    0.137223
  22 H :    0.146520
  23 H :    0.167752
  24 H :    0.098518
  25 H :    0.075893

  Mayer bond orders larger than 0.100000
B(  0-C ,  1-C ) :   0.9467 B(  0-C ,  2-C ) :   0.9268 B(  0-C ,  9-H ) :   0.9802
B(  0-C , 10-H ) :   0.9700 B(  1-C ,  3-C ) :   0.9262 B(  1-C , 20-H ) :   0.9729
B(  1-C , 21-H ) :   0.9888 B(  2-C , 11-C ) :   0.9439 B(  2-C , 22-H ) :   0.9679
B(  2-C , 23-H ) :   0.9559 B(  3-C ,  4-C ) :   0.9635 B(  3-C , 18-H ) :   0.9716
B(  3-C , 19-H ) :   0.9733 B(  4-C ,  5-H ) :   0.9645 B(  4-C ,  6-C ) :   0.9219
B(  4-C ,  7-H ) :   0.9640 B(  4-C ,  8-O ) :  -0.1099 B(  6-C ,  8-O ) :   1.2430
B(  6-C , 24-H ) :   0.9693 B(  6-C , 25-H ) :   0.9760 B(  8-O , 14-H ) :   0.3928
B( 11-C , 12-N ) :   1.2868 B( 11-C , 13-N ) :   1.6764 B( 12-N , 16-H ) :   0.9071
B( 12-N , 17-H ) :   0.9110 B( 13-N , 14-H ) :   0.6227 B( 13-N , 15-H ) :   0.9144

FINAL SINGLE POINT ENERGY      -461.008088533324

DIPOLE MOMENT
-------------
                                X             Y             Z
Electronic contribution:      5.62551       0.89604       4.32673
Nuclear contribution   :     -2.25948       0.71378      -5.15247
                        -----------------------------------------
Total Dipole Moment    :      3.36603       1.60982      -0.82574
                        -----------------------------------------
Magnitude (a.u.)       :      3.82145
Magnitude (Debye)      :      9.71336

Rotational constants in cm-1:     0.063973     0.031829     0.024059
Rotational constants in MHz :  1917.874550   954.201145   721.285252

                             ****ORCA TERMINATED NORMALLY****
TOTAL RUN TIME: 0 days 0 hours 1 minutes 6 seconds 258 msec
