                         Program Version 5.0.0 -  RELEASE  -
|  1> !CAM-B3LYP RIJCOSX def2-SVP def2/J TightSCF
|  2> *xyz 0 1
|  3> C         -1.91658       -2.48508       -3.64367
|  4> C         -1.36353       -1.98134       -2.29361
|  5> F         -0.35039       -2.74969       -1.79601
|  6> H         -2.22622       -1.90839       -1.60204
|  7> H         -1.05135       -0.91567       -2.44333
|  8> H         -1.11522       -2.57167       -4.34739
|  9> H         -2.64227       -1.79099       -4.01314
| 10> H         -2.37564       -3.44180       -3.50640
| 11> *
| 12>
| 13> %MaxCore 64000
| 14> %pal nprocs 4
| 15> end
| 16>
| 17> %scf
| 18>   MaxIter 150
| 19> end
| 20>
| 21>
| 22>                          ****END OF INPUT****

CARTESIAN COORDINATES (ANGSTROEM)
---------------------------------
  C     -1.916580   -2.485080   -3.643670
  C     -1.363530   -1.981340   -2.293610
  F     -0.350390   -2.749690   -1.796010
  H     -2.226220   -1.908390   -1.602040
  H     -1.051350   -0.915670   -2.443330
  H     -1.115220   -2.571670   -4.347390
  H     -2.642270   -1.790990   -4.013140
  H     -2.375640   -3.441800   -3.506400

 Total Charge           Charge          ....    0
 Multiplicity           Mult            ....    1
 Number of Electrons    NEL             ....   26
 Basis Dimension        Dim             ....   67

ORBITAL ENERGIES
----------------

  NO   OCC          E(Eh)            E(eV)
   0   2.0000     -24.738713      -673.1746
   1   2.0000     -10.334200      -281.2079
   2   2.0000     -10.253626      -279.0153
   3   2.0000      -1.250623       -34.0312
   4   2.0000      -0.834907       -22.7190
   5   2.0000      -0.698038       -18.9946
   6   2.0000      -0.571993       -15.5647
   7   2.0000      -0.561574       -15.2812
   8   2.0000      -0.522298       -14.2125
   9   2.0000      -0.468941       -12.7605
  10   2.0000      -0.465726       -12.6730
  11   2.0000      -0.395107       -10.7514
  12   2.0000      -0.389030       -10.5860
  13   0.0000       0.105197         2.8626
  14   0.0000       0.151477         4.1219
  15   0.0000       0.159989         4.3535
  16   0.0000       0.179989         4.8978
  17   0.0000       0.197956         5.3866

MULLIKEN ATOMIC CHARGES
-----------------------
   0 C :   -0.034365
   1 C :    0.221443
   2 F :   -0.257318
   3 H :    0.004361
   4 H :    0.005203
   5 H :    0.024369
   6 H :    0.013100
   7 H :    0.023207
Sum of atomic charges:   -0.0000000

LOEWDIN ATOMIC CHARGES
----------------------
   0 C :   -0.072301
   1 C :    0.105681
   2 F :   -0.131857
   3 H :    0.009055
   4 H :    0.010074
   5 H :    0.025510
   6 H :    0.029432
   7 H :    0.024405

  Mayer bond orders larger than 0.100000
B(  0-C ,  1-C ) :   1.0927 B(  0-C ,  5-H ) :   0.9714 B(  0-C ,  6-H ) :   0.9620
B(  0-C ,  7-H ) :   0.9729 B(  1-C ,  2-F ) :   1.0149 B(  1-C ,  3-H ) :   0.9589
B(  1-C ,  4-H ) :   0.9600

FINAL SINGLE POINT ENERGY      -178.843639055788

DIPOLE MOMENT
-------------
                                X             Y             Z
Electronic contribution:      3.64541      -1.37253       3.45061
Nuclear contribution   :     -4.15401       1.70894      -3.75000
                        -----------------------------------------
Total Dipole Moment    :     -0.50860       0.33641      -0.29939
                        -----------------------------------------
Magnitude (a.u.)       :      0.67932
Magnitude (Debye)      :      1.72670

Rotational constants in cm-1:     1.266842     0.300492     0.266603
Rotational constants in MHz : 37978.968232  9008.526876  7992.551454

                             ****ORCA TERMINATED NORMALLY****
TOTAL RUN TIME: 0 days 0 hours 0 minutes 8 seconds 528 msec
