                         Program Version 5.0.0 -  RELEASE  -
|  1> !CAM-B3LYP RIJCOSX def2-SVP def2/J TightSCF
|  2> *xyz 0 1
|  3> C          1.64703       -2.34528       -5.02041
|  4> C          2.20996       -2.81239       -3.66571
|  5> C          2.48901       -1.66851       -2.73754
|  6> C          3.59631       -0.94761       -2.95225
|  7> N          1.66394       -1.41369       -1.77781
|  8> H          0.81164       -1.96318       -1.70275
|  9> H          1.84550       -0.63508       -1.15875
| 10> H          4.20535       -1.17600       -3.73383
| 11> H          3.81723       -0.12585       -2.40604
| 12> H          3.14311       -3.36280       -3.81152
| 13> H          1.48768       -3.45893       -3.16521
| 14> H          1.46566       -3.19589       -5.64368
| 15> H          2.35406       -1.69850       -5.49654
| 16> H          0.73014       -1.81680       -4.86253
| 17> *
| 18>
| 19> %MaxCore 64000
| 20> %pal nprocs 4
| 21> end
| 22>
| 23> %scf
| 24>   MaxIter 150
| 25> end
| 26>
| 27>
| 28>                          ****END OF INPUT****

CARTESIAN COORDINATES (ANGSTROEM)
---------------------------------
  C      1.647030   -2.345280   -5.020410
  C      2.209960   -2.812390   -3.665710
  C      2.489010   -1.668510   -2.737540
  C      3.596310   -0.947610   -2.952250
  N      1.663940   -1.413690   -1.777810
  H      0.811640   -1.963180   -1.702750
  H      1.845500   -0.635080   -1.158750
  H      4.205350   -1.176000   -3.733830
  H      3.817230   -0.125850   -2.406040
  H      3.143110   -3.362800   -3.811520
  H      1.487680   -3.458930   -3.165210
  H      1.465660   -3.195890   -5.643680
  H      2.354060   -1.698500   -5.496540
  H      0.730140   -1.816800   -4.862530

 Total Charge           Charge          ....    0
 Multiplicity           Mult            ....    1
 Number of Electrons    NEL             ....   40
 Basis Dimension        Dim             ....  115

ORBITAL ENERGIES
----------------

  NO   OCC          E(Eh)            E(eV)
   0   2.0000     -14.401934      -391.8965
   1   2.0000     -10.272729      -279.5352
   2   2.0000     -10.254691      -279.0443
   3   2.0000     -10.242149      -278.7031
   4   2.0000     -10.181964      -277.0653
   5   2.0000      -1.006273       -27.3821
   6   2.0000      -0.850476       -23.1426
   7   2.0000      -0.775949       -21.1146
   8   2.0000      -0.707500       -19.2520
   9   2.0000      -0.633624       -17.2418
  10   2.0000      -0.596605       -16.2344
  11   2.0000      -0.545248       -14.8370
  12   2.0000      -0.507966       -13.8225
  13   2.0000      -0.475919       -12.9504
  14   2.0000      -0.456825       -12.4308
  15   2.0000      -0.442933       -12.0528
  16   2.0000      -0.413771       -11.2593
  17   2.0000      -0.396005       -10.7758
  18   2.0000      -0.394901       -10.7458
  19   2.0000      -0.233567        -6.3557
  20   0.0000       0.088650         2.4123
  21   0.0000       0.112406         3.0587
  22   0.0000       0.138025         3.7558
  23   0.0000       0.142574         3.8796
  24   0.0000       0.164125         4.4661

MULLIKEN ATOMIC CHARGES
-----------------------
   0 C :    0.051144
   1 C :    0.046325
   2 C :   -0.164543
   3 C :   -0.043025
   4 N :   -0.019868
   5 H :    0.108938
   6 H :    0.114028
   7 H :   -0.046668
   8 H :   -0.064160
   9 H :    0.022157
  10 H :   -0.023952
  11 H :    0.006184
  12 H :    0.013210
  13 H :    0.000229
Sum of atomic charges:    0.0000000

LOEWDIN ATOMIC CHARGES
----------------------
   0 C :   -0.040830
   1 C :   -0.026391
   2 C :    0.004413
   3 C :   -0.194582
   4 N :    0.008590
   5 H :    0.073824
   6 H :    0.080208
   7 H :   -0.003494
   8 H :   -0.011706
   9 H :    0.035611
  10 H :    0.012723
  11 H :    0.018955
  12 H :    0.023635
  13 H :    0.019044

  Mayer bond orders larger than 0.100000
B(  0-C ,  1-C ) :   1.0984 B(  0-C , 11-H ) :   0.9685 B(  0-C , 12-H ) :   0.9732
B(  0-C , 13-H ) :   0.9684 B(  1-C ,  2-C ) :   1.0085 B(  1-C ,  9-H ) :   0.9393
B(  1-C , 10-H ) :   0.9339 B(  2-C ,  3-C ) :   1.8547 B(  2-C ,  4-N ) :   1.3030
B(  3-C ,  7-H ) :   0.9413 B(  3-C ,  8-H ) :   0.9496 B(  4-N ,  5-H ) :   0.9449
B(  4-N ,  6-H ) :   0.9452

FINAL SINGLE POINT ENERGY      -212.275561835081

DIPOLE MOMENT
-------------
                                X             Y             Z
Electronic contribution:     -0.10334       0.64723       3.06806
Nuclear contribution   :     -0.69146      -0.83112      -2.71336
                        -----------------------------------------
Total Dipole Moment    :     -0.79480      -0.18388       0.35470
                        -----------------------------------------
Magnitude (a.u.)       :      0.88957
Magnitude (Debye)      :      2.26111

Rotational constants in cm-1:     0.270661     0.129240     0.102040
Rotational constants in MHz :  8114.202941  3874.518141  3059.074383

                             ****ORCA TERMINATED NORMALLY****
TOTAL RUN TIME: 0 days 0 hours 0 minutes 20 seconds 112 msec
