                         Program Version 5.0.0 -  RELEASE  -
|  1> !CAM-B3LYP RIJCOSX def2-SVP def2/J TightSCF
|  2> *xyz 0 1
|  3> C          1.64703       -2.34528       -5.02041
|  4> C          2.20996       -2.81239       -3.66571
|  5> C          2.48901       -1.66851       -2.73754
|  6> N          3.59631       -0.94761       -2.95225
|  7> C          1.66394       -1.41369       -1.77781
|  8> H          0.81164       -1.96318       -1.70275
|  9> H          1.84550       -0.63508       -1.15875
| 10> H          4.20535       -1.17600       -3.73383
| 11> H          3.81723       -0.12585       -2.40604
| 12> H          3.14311       -3.36280       -3.81152
| 13> H          1.48768       -3.45893       -3.16521
| 14> H          1.46566       -3.19589       -5.64368
| 15> H          2.35406       -1.69850       -5.49654
| 16> H          0.73014       -1.81680       -4.86253
| 17> *
| 18>
| 19> %MaxCore 64000
| 20> %pal nprocs 4
| 21> end
| 22>
| 23> %scf
| 24>   MaxIter 150
| 25> end
| 26>
| 27>
| 28>                          ****END OF INPUT****

CARTESIAN COORDINATES (ANGSTROEM)
---------------------------------
  C      1.647030   -2.345280   -5.020410
  C      2.209960   -2.812390   -3.665710
  C      2.489010   -1.668510   -2.737540
  N      3.596310   -0.947610   -2.952250
  C      1.663940   -1.413690   -1.777810
  H      0.811640   -1.963180   -1.702750
  H      1.845500   -0.635080   -1.158750
  H      4.205350   -1.176000   -3.733830
  H      3.817230   -0.125850   -2.406040
  H      3.143110   -3.362800   -3.811520
  H      1.487680   -3.458930   -3.165210
  H      1.465660   -3.195890   -5.643680
  H      2.354060   -1.698500   -5.496540
  H      0.730140   -1.816800   -4.862530

 Total Charge           Charge          ....    0
 Multiplicity           Mult            ....    1
 Number of Electrons    NEL             ....   40
 Basis Dimension        Dim             ....  115

ORBITAL ENERGIES
----------------

  NO   OCC          E(Eh)            E(eV)
   0   2.0000     -14.394615      -391.6974
   1   2.0000     -10.269625      -279.4507
   2   2.0000     -10.253105      -279.0012
   3   2.0000     -10.243624      -278.7432
   4   2.0000     -10.186350      -277.1847
   5   2.0000      -0.987573       -26.8732
   6   2.0000      -0.850277       -23.1372
   7   2.0000      -0.790887       -21.5211
   8   2.0000      -0.702993       -19.1294
   9   2.0000      -0.629673       -17.1343
  10   2.0000      -0.584570       -15.9069
  11   2.0000      -0.545619       -14.8470
  12   2.0000      -0.500396       -13.6165
  13   2.0000      -0.487703       -13.2711
  14   2.0000      -0.459367       -12.5000
  15   2.0000      -0.447079       -12.1656
  16   2.0000      -0.413795       -11.2599
  17   2.0000      -0.394552       -10.7363
  18   2.0000      -0.386774       -10.5247
  19   2.0000      -0.245863        -6.6903
  20   0.0000       0.089948         2.4476
  21   0.0000       0.116187         3.1616
  22   0.0000       0.141618         3.8536
  23   0.0000       0.147079         4.0022
  24   0.0000       0.160393         4.3645

MULLIKEN ATOMIC CHARGES
-----------------------
   0 C :    0.049453
   1 C :    0.047717
   2 C :   -0.109731
   3 N :   -0.084403
   4 C :   -0.018705
   5 H :   -0.046474
   6 H :   -0.062855
   7 H :    0.104683
   8 H :    0.109727
   9 H :   -0.004408
  10 H :    0.002991
  11 H :    0.009443
  12 H :   -0.006327
  13 H :    0.008889
Sum of atomic charges:   -0.0000000

LOEWDIN ATOMIC CHARGES
----------------------
   0 C :   -0.044939
   1 C :   -0.026215
   2 C :    0.012559
   3 N :   -0.024524
   4 C :   -0.165065
   5 H :    0.001820
   6 H :   -0.006620
   7 H :    0.069243
   8 H :    0.073956
   9 H :    0.019246
  10 H :    0.031228
  11 H :    0.020710
  12 H :    0.014819
  13 H :    0.023783

  Mayer bond orders larger than 0.100000
B(  0-C ,  1-C ) :   1.0915 B(  0-C , 11-H ) :   0.9697 B(  0-C , 12-H ) :   0.9704
B(  0-C , 13-H ) :   0.9697 B(  1-C ,  2-C ) :   1.0263 B(  1-C ,  9-H ) :   0.9329
B(  1-C , 10-H ) :   0.9355 B(  2-C ,  3-N ) :   1.2402 B(  2-C ,  4-C ) :   1.9131
B(  3-N ,  7-H ) :   0.9537 B(  3-N ,  8-H ) :   0.9524 B(  4-C ,  5-H ) :   0.9277
B(  4-C ,  6-H ) :   0.9422

FINAL SINGLE POINT ENERGY      -212.279746611302

DIPOLE MOMENT
-------------
                                X             Y             Z
Electronic contribution:      1.70922       1.09814       1.96968
Nuclear contribution   :     -1.13902      -0.93906      -2.44135
                        -----------------------------------------
Total Dipole Moment    :      0.57021       0.15907      -0.47167
                        -----------------------------------------
Magnitude (a.u.)       :      0.75691
Magnitude (Debye)      :      1.92391

Rotational constants in cm-1:     0.267243     0.130607     0.102304
Rotational constants in MHz :  8011.748167  3915.504600  3066.999841

                             ****ORCA TERMINATED NORMALLY****
TOTAL RUN TIME: 0 days 0 hours 0 minutes 20 seconds 619 msec
