                         Program Version 5.0.0 -  RELEASE  -
|  1> !CAM-B3LYP RIJCOSX def2-TZVP def2/J TightSCF xyzfile
|  2>
|  3> *xyzfile 0 1 D2.xyz
|  4>
|  5> %MaxCore 64000
|  6>
|  7> %pal nprocs 18
|  8> end
|  9>
| 10> %scf
| 11>   MaxIter 150
| 12> end
| 13>
| 14>
| 15>                          ****END OF INPUT****

CARTESIAN COORDINATES (ANGSTROEM)
---------------------------------
  C      1.647032   -2.345276   -5.020411
  C      0.217628   -1.814022   -4.924389
  C      2.209964   -2.812388   -3.665708
  C     -0.811356   -2.908780   -4.607625
  C     -1.916579   -2.485081   -3.643665
  H     -2.554525   -1.712428   -4.091993
  C     -1.363531   -1.981337   -2.293608
  H     -2.553448   -3.355667   -3.458815
  F     -0.350395   -2.749689   -1.796006
  H      2.308385   -1.588704   -5.457128
  H      1.674286   -3.203478   -5.697392
  C      2.489007   -1.668510   -2.737538
  N      3.596314   -0.947608   -2.952247
  C      1.663936   -1.413685   -1.777806
  H      0.811642   -1.963178   -1.702755
  H      1.845503   -0.635078   -1.158749
  H      4.205351   -1.176003   -3.733825
  H      3.817230   -0.125845   -2.406041
  H     -1.244829   -3.280884   -5.541040
  H     -0.306331   -3.757746   -4.142734
  H     -0.036244   -1.318555   -5.865303
  H      0.175004   -1.035382   -4.158095
  H      3.143106   -3.362803   -3.811524
  H      1.487683   -3.458935   -3.165211
  H     -2.226220   -1.908386   -1.602039
  H     -1.051353   -0.915671   -2.443331

 Total Charge           Charge          ....    0
 Multiplicity           Mult            ....    1
 Number of Electrons    NEL             ....   80
 Basis Dimension        Dim             ....  406

ORBITAL ENERGIES
----------------

  NO   OCC          E(Eh)            E(eV)
   0   2.0000     -24.756985      -673.6718
   1   2.0000     -14.370782      -391.0489
   2   2.0000     -10.324041      -280.9314
   3   2.0000     -10.249020      -278.8900
   4   2.0000     -10.242578      -278.7147
   5   2.0000     -10.236600      -278.5520
   6   2.0000     -10.233590      -278.4701
   7   2.0000     -10.229692      -278.3641
   8   2.0000     -10.228121      -278.3213
   9   2.0000     -10.139136      -275.8999
  10   2.0000      -1.307826       -35.5878
  11   2.0000      -0.989210       -26.9178
  12   2.0000      -0.896121       -24.3847
  13   2.0000      -0.859678       -23.3930
  14   2.0000      -0.808137       -21.9905
  15   2.0000      -0.781138       -21.2558
  16   2.0000      -0.736574       -20.0432
  17   2.0000      -0.680657       -18.5216
  18   2.0000      -0.645871       -17.5750
  19   2.0000      -0.641605       -17.4589
  20   2.0000      -0.599702       -16.3187
  21   2.0000      -0.586205       -15.9514
  22   2.0000      -0.569006       -15.4834
  23   2.0000      -0.558897       -15.2084
  24   2.0000      -0.532912       -14.5013
  25   2.0000      -0.516273       -14.0485
  26   2.0000      -0.511492       -13.9184
  27   2.0000      -0.499206       -13.5841
  28   2.0000      -0.470152       -12.7935
  29   2.0000      -0.449605       -12.2344
  30   2.0000      -0.434496       -11.8232
  31   2.0000      -0.423633       -11.5276
  32   2.0000      -0.416390       -11.3305
  33   2.0000      -0.402678       -10.9574
  34   2.0000      -0.391701       -10.6587
  35   2.0000      -0.388060       -10.5597
  36   2.0000      -0.374520       -10.1912
  37   2.0000      -0.370044       -10.0694
  38   2.0000      -0.357627        -9.7315
  39   2.0000      -0.236321        -6.4306
  40   0.0000       0.070536         1.9194
  41   0.0000       0.077723         2.1150
  42   0.0000       0.088091         2.3971
  43   0.0000       0.103477         2.8157
  44   0.0000       0.113583         3.0907

MULLIKEN ATOMIC CHARGES
-----------------------
   0 C :   -0.172045
   1 C :   -0.207597
   2 C :   -0.284930
   3 C :   -0.213413
   4 C :   -0.200254
   5 H :    0.107503
   6 C :   -0.055402
   7 H :    0.108869
   8 F :   -0.198078
   9 H :    0.097218
  10 H :    0.099365
  11 C :    0.268804
  12 N :   -0.475771
  13 C :   -0.533439
  14 H :    0.210818
  15 H :    0.074038
  16 H :    0.218251
  17 H :    0.219071
  18 H :    0.108890
  19 H :    0.113470
  20 H :    0.101657
  21 H :    0.125136
  22 H :    0.109811
  23 H :    0.130687
  24 H :    0.116547
  25 H :    0.130795
Sum of atomic charges:    0.0000000

LOEWDIN ATOMIC CHARGES
----------------------
   0 C :   -0.260632
   1 C :   -0.259617
   2 C :   -0.216336
   3 C :   -0.268509
   4 C :   -0.275908
   5 H :    0.141078
   6 C :   -0.350216
   7 H :    0.135962
   8 F :    0.165492
   9 H :    0.131927
  10 H :    0.134559
  11 C :   -0.369172
  12 N :   -0.025489
  13 C :   -0.268139
  14 H :    0.075791
  15 H :    0.095146
  16 H :    0.163955
  17 H :    0.164982
  18 H :    0.134837
  19 H :    0.140195
  20 H :    0.131836
  21 H :    0.140962
  22 H :    0.136645
  23 H :    0.147146
  24 H :    0.124371
  25 H :    0.129133

  Mayer bond orders larger than 0.100000
B(  0-C ,  1-C ) :   0.9611 B(  0-C ,  2-C ) :   0.9201 B(  0-C ,  9-H ) :   0.9706
B(  0-C , 10-H ) :   0.9778 B(  1-C ,  3-C ) :   0.9171 B(  1-C , 20-H ) :   0.9732
B(  1-C , 21-H ) :   0.9873 B(  2-C , 11-C ) :   0.9215 B(  2-C , 22-H ) :   0.9841
B(  2-C , 23-H ) :   1.0133 B(  3-C ,  4-C ) :   0.9513 B(  3-C , 18-H ) :   0.9752
B(  3-C , 19-H ) :   0.9840 B(  4-C ,  5-H ) :   0.9591 B(  4-C ,  6-C ) :   0.9676
B(  4-C ,  7-H ) :   0.9768 B(  6-C ,  8-F ) :   0.9293 B(  6-C , 24-H ) :   0.9770
B(  6-C , 25-H ) :   0.9829 B( 11-C , 12-N ) :   1.0953 B( 11-C , 13-C ) :   1.7400
B( 12-N , 16-H ) :   0.9325 B( 12-N , 17-H ) :   0.9293 B( 13-C , 14-H ) :   0.9662
B( 13-C , 15-H ) :   0.9879

FINAL SINGLE POINT ENERGY      -468.952122407274

DIPOLE MOMENT
-------------
                                X             Y             Z
Electronic contribution:      0.42326      -1.30291       6.06477
Nuclear contribution   :     -0.73748       1.64619      -6.72655
                        -----------------------------------------
Total Dipole Moment    :     -0.31423       0.34328      -0.66178
                        -----------------------------------------
Magnitude (a.u.)       :      0.80903
Magnitude (Debye)      :      2.05640

Rotational constants in cm-1:     0.063169     0.031711     0.023958
Rotational constants in MHz :  1893.751676   950.657187   718.229932

                             ****ORCA TERMINATED NORMALLY****
TOTAL RUN TIME: 0 days 0 hours 1 minutes 4 seconds 930 msec
