                         Program Version 5.0.0 -  RELEASE  -
|  1> !CAM-B3LYP RIJCOSX def2-SVPD def2/J TightSCF
|  2> *xyz -1 1
|  3> C          1.44442        5.26658       -0.97546
|  4> O          1.56525        4.23349       -1.86489
|  5> C          0.14812        5.21087       -0.13809
|  6> H          1.47425        6.26464       -1.47692
|  7> H          2.28962        5.30327       -0.26445
|  8> H         -0.69779        5.17417       -0.79230
|  9> H          0.08430        6.08276        0.47887
| 10> H          0.15965        4.33708        0.47938
| 11> *
| 12> %MaxCore 64000
| 13>
| 14> %pal nprocs 4
| 15> end
| 16>
| 17> %scf
| 18>   MaxIter 150
| 19> end
| 20>
| 21>
| 22>                          ****END OF INPUT****

CARTESIAN COORDINATES (ANGSTROEM)
---------------------------------
  C      1.444420    5.266580   -0.975460
  O      1.565250    4.233490   -1.864890
  C      0.148120    5.210870   -0.138090
  H      1.474250    6.264640   -1.476920
  H      2.289620    5.303270   -0.264450
  H     -0.697790    5.174170   -0.792300
  H      0.084300    6.082760    0.478870
  H      0.159650    4.337080    0.479380

 Total Charge           Charge          ....   -1
 Multiplicity           Mult            ....    1
 Number of Electrons    NEL             ....   26
 Basis Dimension        Dim             ....  103

ORBITAL ENERGIES
----------------

  NO   OCC          E(Eh)            E(eV)
   0   2.0000     -18.879037      -513.7247
   1   2.0000     -10.074026      -274.1282
   2   2.0000     -10.051575      -273.5173
   3   2.0000      -0.749554       -20.3964
   4   2.0000      -0.600343       -16.3362
   5   2.0000      -0.443301       -12.0628
   6   2.0000      -0.320647        -8.7253
   7   2.0000      -0.297272        -8.0892
   8   2.0000      -0.241546        -6.5728
   9   2.0000      -0.223596        -6.0843
  10   2.0000      -0.177899        -4.8409
  11   2.0000      -0.032642        -0.8882
  12   2.0000      -0.029932        -0.8145
  13   0.0000       0.207306         5.6411
  14   0.0000       0.238741         6.4965
  15   0.0000       0.275535         7.4977
  16   0.0000       0.288092         7.8394
  17   0.0000       0.305393         8.3102

MULLIKEN ATOMIC CHARGES
-----------------------
   0 C :    0.237010
   1 O :   -0.879380
   2 C :    0.502130
   3 H :   -0.196454
   4 H :   -0.231666
   5 H :   -0.157583
   6 H :   -0.123034
   7 H :   -0.151023
Sum of atomic charges:   -1.0000000

LOEWDIN ATOMIC CHARGES
----------------------
   0 C :   -0.261957
   1 O :   -0.588766
   2 C :    0.066492
   3 H :   -0.031266
   4 H :   -0.036190
   5 H :   -0.043457
   6 H :   -0.060312
   7 H :   -0.044544

  Mayer bond orders larger than 0.100000
B(  0-C ,  1-O ) :   1.1815 B(  0-C ,  2-C ) :   1.1535 B(  0-C ,  3-H ) :   0.9602
B(  0-C ,  4-H ) :   0.9626 B(  0-C ,  5-H ) :   0.1942 B(  0-C ,  6-H ) :   0.1391
B(  0-C ,  7-H ) :   0.1843 B(  1-O ,  2-C ) :   0.1285 B(  2-C ,  3-H ) :   0.1245
B(  2-C ,  4-H ) :   0.1279 B(  2-C ,  5-H ) :   0.8742 B(  2-C ,  6-H ) :   0.8687
B(  2-C ,  7-H ) :   0.8728

FINAL SINGLE POINT ENERGY      -154.246704877393

DIPOLE MOMENT
-------------
                                X             Y             Z
Electronic contribution:      1.14857      -1.53981      -1.96860
Nuclear contribution   :     -1.83256       2.47114       3.17273
                        -----------------------------------------
Total Dipole Moment    :     -0.68399       0.93133       1.20413
                        -----------------------------------------
Magnitude (a.u.)       :      1.66888
Magnitude (Debye)      :      4.24196

Rotational constants in cm-1:     1.286062     0.322579     0.284728
Rotational constants in MHz : 38555.180127  9670.683110  8535.939140

                             ****ORCA TERMINATED NORMALLY****
TOTAL RUN TIME: 0 days 0 hours 0 minutes 13 seconds 141 msec
