                         Program Version 5.0.0 -  RELEASE  -
|  1> !CAM-B3LYP RIJCOSX def2-SVPD def2/J TightSCF
|  2> *xyz 1 1
|  3> C         -0.70169        4.07250       -4.00392
|  4> N          0.68053        4.61482       -4.04800
|  5> H          0.69993        5.58489       -4.38827
|  6> H          1.27804        4.05598       -4.66824
|  7> H          1.08573        4.53358       -3.10652
|  8> C         -1.70347        5.09320       -3.47740
|  9> H         -0.99590        3.74039       -5.00065
| 10> H         -0.64358        3.20191       -3.35153
| 11> H         -1.73704        5.93384       -4.13853
| 12> H         -1.40338        5.41759       -2.50291
| 13> H         -2.67335        4.64479       -3.42108
| 14> *
| 15> %MaxCore 64000
| 16>
| 17> %pal nprocs 4
| 18> end
| 19>
| 20> %scf
| 21>   MaxIter 150
| 22> end
| 23>
| 24>
| 25>                          ****END OF INPUT****

CARTESIAN COORDINATES (ANGSTROEM)
---------------------------------
  C     -0.701690    4.072500   -4.003920
  N      0.680530    4.614820   -4.048000
  H      0.699930    5.584890   -4.388270
  H      1.278040    4.055980   -4.668240
  H      1.085730    4.533580   -3.106520
  C     -1.703470    5.093200   -3.477400
  H     -0.995900    3.740390   -5.000650
  H     -0.643580    3.201910   -3.351530
  H     -1.737040    5.933840   -4.138530
  H     -1.403380    5.417590   -2.502910
  H     -2.673350    4.644790   -3.421080

 Total Charge           Charge          ....    1
 Multiplicity           Mult            ....    1
 Number of Electrons    NEL             ....   26
 Basis Dimension        Dim             ....  124

ORBITAL ENERGIES
----------------

  NO   OCC          E(Eh)            E(eV)
   0   2.0000     -14.742188      -401.1553
   1   2.0000     -10.513715      -286.0927
   2   2.0000     -10.435094      -283.9533
   3   2.0000      -1.293060       -35.1859
   4   2.0000      -1.042209       -28.3599
   5   2.0000      -0.919720       -25.0269
   6   2.0000      -0.878938       -23.9171
   7   2.0000      -0.860027       -23.4025
   8   2.0000      -0.767780       -20.8924
   9   2.0000      -0.713728       -19.4215
  10   2.0000      -0.651716       -17.7341
  11   2.0000      -0.635550       -17.2942
  12   2.0000      -0.618003       -16.8167
  13   0.0000      -0.159349        -4.3361
  14   0.0000      -0.099126        -2.6973
  15   0.0000      -0.096237        -2.6187
  16   0.0000      -0.088837        -2.4174
  17   0.0000      -0.057958        -1.5771

MULLIKEN ATOMIC CHARGES
-----------------------
   0 C :    0.319242
   1 N :   -0.732490
   2 H :    0.383340
   3 H :    0.337965
   4 H :    0.397326
   5 C :    0.799672
   6 H :   -0.135090
   7 H :   -0.140844
   8 H :   -0.089083
   9 H :   -0.059882
  10 H :   -0.080155
Sum of atomic charges:    1.0000000

LOEWDIN ATOMIC CHARGES
----------------------
   0 C :    0.048104
   1 N :    0.330005
   2 H :    0.108422
   3 H :    0.107637
   4 H :    0.110256
   5 C :    0.173164
   6 H :    0.053886
   7 H :    0.052434
   8 H :    0.000288
   9 H :    0.000493
  10 H :    0.015310

  Mayer bond orders larger than 0.100000
B(  0-C ,  1-N ) :   0.7903 B(  0-C ,  5-C ) :   1.3085 B(  0-C ,  6-H ) :   0.9179
B(  0-C ,  7-H ) :   0.8876 B(  0-C ,  8-H ) :   0.1759 B(  0-C ,  9-H ) :   0.1626
B(  0-C , 10-H ) :   0.2043 B(  1-N ,  2-H ) :   0.7357 B(  1-N ,  3-H ) :   0.8002
B(  1-N ,  4-H ) :   0.7309 B(  1-N ,  7-H ) :   0.1319 B(  5-C ,  8-H ) :   0.8040
B(  5-C ,  9-H ) :   0.7975 B(  5-C , 10-H ) :   0.7880

FINAL SINGLE POINT ENERGY      -135.361316443750

DIPOLE MOMENT
-------------
                                X             Y             Z
Electronic contribution:      1.77159      -0.33130      -0.45688
Nuclear contribution   :     -0.23930       0.27560       0.19485
                        -----------------------------------------
Total Dipole Moment    :      1.53229      -0.05570      -0.26203
                        -----------------------------------------
Magnitude (a.u.)       :      1.55553
Magnitude (Debye)      :      3.95385

Rotational constants in cm-1:     1.018556     0.279088     0.248454
Rotational constants in MHz : 30535.536069  8366.847891  7448.451392

                             ****ORCA TERMINATED NORMALLY****
TOTAL RUN TIME: 0 days 0 hours 0 minutes 17 seconds 257 msec
