                         Program Version 5.0.0 -  RELEASE  -
|  1> !CAM-B3LYP RIJCOSX def2-SVPD def2/J TightSCF
|  2> *xyz 0 1
|  3> C          1.44442        5.26658       -0.97546
|  4> F          1.56525        4.23349       -1.86489
|  5> C          0.14812        5.21087       -0.13809
|  6> H          1.47425        6.26464       -1.47692
|  7> H          2.28962        5.30327       -0.26445
|  8> H         -0.69779        5.17417       -0.79230
|  9> H          0.08430        6.08276        0.47887
| 10> H          0.15965        4.33708        0.47938
| 11> *
| 12> %MaxCore 64000
| 13>
| 14> %pal nprocs 4
| 15> end
| 16>
| 17> %scf
| 18>   MaxIter 150
| 19> end
| 20>
| 21>
| 22>                          ****END OF INPUT****

CARTESIAN COORDINATES (ANGSTROEM)
---------------------------------
  C      1.444420    5.266580   -0.975460
  F      1.565250    4.233490   -1.864890
  C      0.148120    5.210870   -0.138090
  H      1.474250    6.264640   -1.476920
  H      2.289620    5.303270   -0.264450
  H     -0.697790    5.174170   -0.792300
  H      0.084300    6.082760    0.478870
  H      0.159650    4.337080    0.479380

 Total Charge           Charge          ....    0
 Multiplicity           Mult            ....    1
 Number of Electrons    NEL             ....   26
 Basis Dimension        Dim             ....  103

ORBITAL ENERGIES
----------------

  NO   OCC          E(Eh)            E(eV)
   0   2.0000     -24.763613      -673.8522
   1   2.0000     -10.342418      -281.4315
   2   2.0000     -10.257818      -279.1294
   3   2.0000      -1.267618       -34.4936
   4   2.0000      -0.841243       -22.8914
   5   2.0000      -0.707025       -19.2391
   6   2.0000      -0.585111       -15.9217
   7   2.0000      -0.571882       -15.5617
   8   2.0000      -0.534768       -14.5518
   9   2.0000      -0.478372       -13.0172
  10   2.0000      -0.471751       -12.8370
  11   2.0000      -0.407347       -11.0845
  12   2.0000      -0.399879       -10.8813
  13   0.0000       0.051467         1.4005
  14   0.0000       0.082199         2.2367
  15   0.0000       0.109688         2.9848
  16   0.0000       0.114623         3.1191
  17   0.0000       0.142649         3.8817

MULLIKEN ATOMIC CHARGES
-----------------------
   0 C :    0.512509
   1 F :   -0.435696
   2 C :    0.536987
   3 H :   -0.106954
   4 H :   -0.142532
   5 H :   -0.134677
   6 H :   -0.103538
   7 H :   -0.126099
Sum of atomic charges:    0.0000000

LOEWDIN ATOMIC CHARGES
----------------------
   0 C :    0.061166
   1 F :   -0.216071
   2 C :    0.139516
   3 H :    0.033951
   4 H :    0.027265
   5 H :   -0.015383
   6 H :   -0.014222
   7 H :   -0.016222

  Mayer bond orders larger than 0.100000
B(  0-C ,  1-F ) :   0.7714 B(  0-C ,  2-C ) :   1.3086 B(  0-C ,  3-H ) :   0.9243
B(  0-C ,  4-H ) :   0.9260 B(  0-C ,  5-H ) :   0.1529 B(  0-C ,  6-H ) :   0.1300
B(  0-C ,  7-H ) :   0.1465 B(  2-C ,  5-H ) :   0.8603 B(  2-C ,  6-H ) :   0.8322
B(  2-C ,  7-H ) :   0.8615

FINAL SINGLE POINT ENERGY      -178.861806063122

DIPOLE MOMENT
-------------
                                X             Y             Z
Electronic contribution:      2.29560      -2.71430      -3.67506
Nuclear contribution   :     -2.43357       3.25919       4.19687
                        -----------------------------------------
Total Dipole Moment    :     -0.13797       0.54489       0.52181
                        -----------------------------------------
Magnitude (a.u.)       :      0.76696
Magnitude (Debye)      :      1.94945

Rotational constants in cm-1:     1.264662     0.300144     0.266170
Rotational constants in MHz : 37913.611527  8998.095216  7979.576054

                             ****ORCA TERMINATED NORMALLY****
TOTAL RUN TIME: 0 days 0 hours 0 minutes 13 seconds 386 msec
