                         Program Version 5.0.0 -  RELEASE  -
|  1> !CAM-B3LYP RIJCOSX def2-SVPD def2/J TightSCF
|  2> *xyz 0 1
|  3> C         -0.70169        4.07250       -4.00392
|  4> C          0.68053        4.61482       -4.04800
|  5> H          0.69993        5.58489       -4.38827
|  6> H          1.27804        4.05598       -4.66824
|  7> H          1.08573        4.53358       -3.10652
|  8> C         -1.70347        5.09320       -3.47740
|  9> H         -0.99590        3.74039       -5.00065
| 10> H         -0.64358        3.20191       -3.35153
| 11> H         -1.73704        5.93384       -4.13853
| 12> H         -1.40338        5.41759       -2.50291
| 13> H         -2.67335        4.64479       -3.42108
| 14> *
| 15> %MaxCore 64000
| 16>
| 17> %pal nprocs 4
| 18> end
| 19>
| 20> %scf
| 21>   MaxIter 150
| 22> end
| 23>
| 24>
| 25>                          ****END OF INPUT****

CARTESIAN COORDINATES (ANGSTROEM)
---------------------------------
  C     -0.701690    4.072500   -4.003920
  C      0.680530    4.614820   -4.048000
  H      0.699930    5.584890   -4.388270
  H      1.278040    4.055980   -4.668240
  H      1.085730    4.533580   -3.106520
  C     -1.703470    5.093200   -3.477400
  H     -0.995900    3.740390   -5.000650
  H     -0.643580    3.201910   -3.351530
  H     -1.737040    5.933840   -4.138530
  H     -1.403380    5.417590   -2.502910
  H     -2.673350    4.644790   -3.421080

 Total Charge           Charge          ....    0
 Multiplicity           Mult            ....    1
 Number of Electrons    NEL             ....   26
 Basis Dimension        Dim             ....  124

ORBITAL ENERGIES
----------------

  NO   OCC          E(Eh)            E(eV)
   0   2.0000     -10.244698      -278.7724
   1   2.0000     -10.237422      -278.5744
   2   2.0000     -10.220317      -278.1090
   3   2.0000      -0.869373       -23.6569
   4   2.0000      -0.765155       -20.8209
   5   2.0000      -0.656643       -17.8682
   6   2.0000      -0.541897       -14.7458
   7   2.0000      -0.515937       -14.0394
   8   2.0000      -0.471003       -12.8167
   9   2.0000      -0.459652       -12.5078
  10   2.0000      -0.403064       -10.9679
  11   2.0000      -0.399598       -10.8736
  12   2.0000      -0.391010       -10.6399
  13   0.0000       0.056361         1.5337
  14   0.0000       0.083558         2.2737
  15   0.0000       0.090818         2.4713
  16   0.0000       0.117183         3.1887
  17   0.0000       0.136796         3.7224

MULLIKEN ATOMIC CHARGES
-----------------------
   0 C :   -0.452813
   1 C :    1.136008
   2 H :   -0.296647
   3 H :   -0.263398
   4 H :   -0.214811
   5 C :    0.821033
   6 H :   -0.185568
   7 H :   -0.156711
   8 H :   -0.101720
   9 H :   -0.123569
  10 H :   -0.161804
Sum of atomic charges:   -0.0000000

LOEWDIN ATOMIC CHARGES
----------------------
   0 C :   -0.119915
   1 C :    0.113165
   2 H :   -0.030722
   3 H :   -0.034428
   4 H :   -0.028727
   5 C :    0.116487
   6 H :    0.020071
   7 H :    0.019968
   8 H :   -0.017513
   9 H :   -0.016039
  10 H :   -0.022347

  Mayer bond orders larger than 0.100000
B(  0-C ,  1-C ) :   1.2728 B(  0-C ,  2-H ) :   0.2070 B(  0-C ,  3-H ) :   0.2325
B(  0-C ,  4-H ) :   0.2941 B(  0-C ,  5-C ) :   1.2575 B(  0-C ,  6-H ) :   0.9225
B(  0-C ,  7-H ) :   0.9030 B(  0-C ,  8-H ) :   0.1759 B(  0-C ,  9-H ) :   0.2011
B(  0-C , 10-H ) :   0.2089 B(  1-C ,  2-H ) :   0.6755 B(  1-C ,  3-H ) :   0.6440
B(  1-C ,  4-H ) :   0.6187 B(  1-C ,  7-H ) :   0.1370 B(  5-C ,  8-H ) :   0.7984
B(  5-C ,  9-H ) :   0.7974 B(  5-C , 10-H ) :   0.7813

FINAL SINGLE POINT ENERGY      -118.963756744899

DIPOLE MOMENT
-------------
                                X             Y             Z
Electronic contribution:     -0.13636      -0.31037      -0.13723
Nuclear contribution   :      0.16058       0.27975       0.12812
                        -----------------------------------------
Total Dipole Moment    :      0.02422      -0.03062      -0.00911
                        -----------------------------------------
Magnitude (a.u.)       :      0.04008
Magnitude (Debye)      :      0.10188

Rotational constants in cm-1:     1.027122     0.293327     0.260229
Rotational constants in MHz : 30792.337141  8793.723318  7801.458329

                             ****ORCA TERMINATED NORMALLY****
TOTAL RUN TIME: 0 days 0 hours 0 minutes 15 seconds 526 msec
