                         Program Version 5.0.0 -  RELEASE  -
|  1> !LC-PBE RIJCOSX def2-SVPD def2/J TightSCF
|  2> *xyz -1 1
|  3> C         -0.29041        0.95134       -5.15342
|  4> C         -0.05517        1.61942       -3.78858
|  5> H          0.04501        0.86230       -3.00301
|  6> H         -0.92294        2.23033       -3.51703
|  7> C          1.22302        2.46987       -3.75691
|  8> H          1.11470        3.25807       -4.53300
|  9> H          1.23773        3.01124       -2.79216
| 10> O          2.35381        1.71203       -3.93448
| 11> H         -0.38575        1.70447       -5.90748
| 12> H         -1.18723        0.36894       -5.11561
| 13> H          0.53806        0.31571       -5.38692
| 14> *
| 15>
| 16> %MaxCore 64000
| 17>
| 18> %pal nprocs 4
| 19> end
| 20>
| 21> %scf
| 22>   MaxIter 150
| 23> end
| 24>
| 25>
| 26>                          ****END OF INPUT****

CARTESIAN COORDINATES (ANGSTROEM)
---------------------------------
  C     -0.290410    0.951340   -5.153420
  C     -0.055170    1.619420   -3.788580
  H      0.045010    0.862300   -3.003010
  H     -0.922940    2.230330   -3.517030
  C      1.223020    2.469870   -3.756910
  H      1.114700    3.258070   -4.533000
  H      1.237730    3.011240   -2.792160
  O      2.353810    1.712030   -3.934480
  H     -0.385750    1.704470   -5.907480
  H     -1.187230    0.368940   -5.115610
  H      0.538060    0.315710   -5.386920

 Total Charge           Charge          ....   -1
 Multiplicity           Mult            ....    1
 Number of Electrons    NEL             ....   34
 Basis Dimension        Dim             ....  139

ORBITAL ENERGIES
----------------

  NO   OCC          E(Eh)            E(eV)
   0   2.0000     -18.651005      -507.5196
   1   2.0000      -9.944862      -270.6134
   2   2.0000      -9.940784      -270.5025
   3   2.0000      -9.936009      -270.3726
   4   2.0000      -0.839604       -22.8468
   5   2.0000      -0.748712       -20.3735
   6   2.0000      -0.626522       -17.0485
   7   2.0000      -0.516872       -14.0648
   8   2.0000      -0.417401       -11.3581
   9   2.0000      -0.410873       -11.1804
  10   2.0000      -0.359292        -9.7768
  11   2.0000      -0.320252        -8.7145
  12   2.0000      -0.293483        -7.9861
  13   2.0000      -0.282914        -7.6985
  14   2.0000      -0.241228        -6.5641
  15   2.0000      -0.096195        -2.6176
  16   2.0000      -0.092918        -2.5284
  17   0.0000       0.231183         6.2908
  18   0.0000       0.256361         6.9759
  19   0.0000       0.273478         7.4417
  20   0.0000       0.309376         8.4186
  21   0.0000       0.325406         8.8547

MULLIKEN ATOMIC CHARGES
-----------------------
   0 C :    0.389064
   1 C :   -0.567331
   2 H :    0.001995
   3 H :   -0.021514
   4 C :    0.227498
   5 H :   -0.052246
   6 H :   -0.092991
   7 O :   -0.866776
   8 H :   -0.020510
   9 H :   -0.023454
  10 H :    0.026266
Sum of atomic charges:   -1.0000000

LOEWDIN ATOMIC CHARGES
----------------------
   0 C :    0.061889
   1 C :   -0.138156
   2 H :    0.015542
   3 H :    0.000150
   4 C :   -0.251524
   5 H :   -0.011338
   6 H :   -0.016867
   7 O :   -0.578968
   8 H :   -0.023526
   9 H :   -0.037162
  10 H :   -0.020040

  Mayer bond orders larger than 0.100000
B(  0-C ,  1-C ) :   1.2468 B(  0-C ,  8-H ) :   0.8646 B(  0-C ,  9-H ) :   0.8452
B(  0-C , 10-H ) :   0.8777 B(  1-C ,  2-H ) :   0.9966 B(  1-C ,  3-H ) :   1.0098
B(  1-C ,  4-C ) :   1.0566 B(  1-C ,  6-H ) :   0.1018 B(  1-C ,  8-H ) :   0.1477
B(  1-C ,  9-H ) :   0.1494 B(  1-C , 10-H ) :   0.1655 B(  2-H ,  4-C ) :   0.1156
B(  4-C ,  5-H ) :   0.9715 B(  4-C ,  6-H ) :   0.9799 B(  4-C ,  7-O ) :   1.2998

FINAL SINGLE POINT ENERGY      -192.998579493503

DIPOLE MOMENT
-------------
                                X             Y             Z
Electronic contribution:      2.74660       0.01320       0.72104
Nuclear contribution   :     -4.97104      -0.06484      -1.04325
                        -----------------------------------------
Total Dipole Moment    :     -2.22444      -0.05163      -0.32221
                        -----------------------------------------
Magnitude (a.u.)       :      2.24825
Magnitude (Debye)      :      5.71460

Rotational constants in cm-1:     0.508668     0.174500     0.148765
Rotational constants in MHz : 15249.486055  5231.367342  4459.875680

                             ****ORCA TERMINATED NORMALLY****
TOTAL RUN TIME: 0 days 0 hours 0 minutes 11 seconds 138 msec
