                         Program Version 5.0.0 -  RELEASE  -
|  1> !LC-PBE RIJCOSX def2-SVPD def2/J TightSCF
|  2> *xyz 1 1
|  3> C          1.63556       -1.67040       -5.29211
|  4> C          0.33848       -1.50091       -4.50540
|  5> N          2.48451       -0.50741       -5.14039
|  6> C         -0.68487       -0.52803       -5.09989
|  7> H          1.39834       -1.82924       -6.35259
|  8> H          2.15586       -2.56540       -4.93209
|  9> C          3.45115       -0.14953       -5.95259
| 10> N          3.92267        1.08956       -5.85071
| 11> N          3.96616       -1.00618       -6.86788
| 12> H          3.52139       -1.90647       -6.99527
| 13> H          4.44482       -0.62347       -7.67035
| 14> H          2.25200        0.24080       -4.49879
| 15> H          3.46428        1.64078       -5.13639
| 16> H          4.83447        1.31375       -6.22465
| 17> H          0.59489       -1.21158       -3.48231
| 18> H         -0.12653       -2.48766       -4.43418
| 19> H         -0.92267       -0.82721       -6.09931
| 20> H         -0.27317        0.45953       -5.11162
| 21> H         -1.57350       -0.53693       -4.50394
| 22> *
| 23>
| 24> %MaxCore 64000
| 25>
| 26> %pal nprocs 4
| 27> end
| 28>
| 29> %scf
| 30>   MaxIter 150
| 31> end
| 32>
| 33>
| 34>                          ****END OF INPUT****

CARTESIAN COORDINATES (ANGSTROEM)
---------------------------------
  C      1.635560   -1.670400   -5.292110
  C      0.338480   -1.500910   -4.505400
  N      2.484510   -0.507410   -5.140390
  C     -0.684870   -0.528030   -5.099890
  H      1.398340   -1.829240   -6.352590
  H      2.155860   -2.565400   -4.932090
  C      3.451150   -0.149530   -5.952590
  N      3.922670    1.089560   -5.850710
  N      3.966160   -1.006180   -6.867880
  H      3.521390   -1.906470   -6.995270
  H      4.444820   -0.623470   -7.670350
  H      2.252000    0.240800   -4.498790
  H      3.464280    1.640780   -5.136390
  H      4.834470    1.313750   -6.224650
  H      0.594890   -1.211580   -3.482310
  H     -0.126530   -2.487660   -4.434180
  H     -0.922670   -0.827210   -6.099310
  H     -0.273170    0.459530   -5.111620
  H     -1.573500   -0.536930   -4.503940

 Total Charge           Charge          ....    1
 Multiplicity           Mult            ....    1
 Number of Electrons    NEL             ....   56
 Basis Dimension        Dim             ....  236

ORBITAL ENERGIES
----------------

  NO   OCC          E(Eh)            E(eV)
   0   2.0000     -14.458403      -393.4332
   1   2.0000     -14.452877      -393.2828
   2   2.0000     -14.450674      -393.2228
   3   2.0000     -10.469874      -284.8998
   4   2.0000     -10.333078      -281.1774
   5   2.0000     -10.273567      -279.5580
   6   2.0000     -10.240536      -278.6592
   7   2.0000      -1.392627       -37.8953
   8   2.0000      -1.270621       -34.5754
   9   2.0000      -1.255014       -34.1507
  10   2.0000      -1.115194       -30.3460
  11   2.0000      -1.024353       -27.8741
  12   2.0000      -0.978778       -26.6339
  13   2.0000      -0.936087       -25.4722
  14   2.0000      -0.919520       -25.0214
  15   2.0000      -0.882977       -24.0270
  16   2.0000      -0.831660       -22.6306
  17   2.0000      -0.825664       -22.4675
  18   2.0000      -0.809119       -22.0172
  19   2.0000      -0.786585       -21.4041
  20   2.0000      -0.741443       -20.1757
  21   2.0000      -0.716621       -19.5002
  22   2.0000      -0.692565       -18.8457
  23   2.0000      -0.635135       -17.2829
  24   2.0000      -0.616367       -16.7722
  25   2.0000      -0.614149       -16.7119
  26   2.0000      -0.608253       -16.5514
  27   2.0000      -0.577056       -15.7025
  28   0.0000      -0.079512        -2.1636
  29   0.0000      -0.072614        -1.9759
  30   0.0000      -0.044964        -1.2235
  31   0.0000      -0.027700        -0.7538
  32   0.0000      -0.008117        -0.2209

MULLIKEN ATOMIC CHARGES
-----------------------
   0 C :    0.296317
   1 C :   -0.408830
   2 N :   -0.487923
   3 C :    0.485020
   4 H :    0.077950
   5 H :   -0.048995
   6 C :    1.189648
   7 N :   -0.089651
   8 N :   -0.117283
   9 H :    0.035377
  10 H :   -0.026331
  11 H :   -0.074007
  12 H :    0.071996
  13 H :   -0.046842
  14 H :    0.019398
  15 H :    0.040629
  16 H :    0.051322
  17 H :   -0.005795
  18 H :    0.038000
Sum of atomic charges:    1.0000000

LOEWDIN ATOMIC CHARGES
----------------------
   0 C :    0.034115
   1 C :   -0.078152
   2 N :    0.036393
   3 C :    0.111175
   4 H :    0.050394
   5 H :    0.053814
   6 C :   -0.032932
   7 N :    0.247525
   8 N :    0.265561
   9 H :    0.023848
  10 H :    0.044445
  11 H :    0.060741
  12 H :    0.041579
  13 H :    0.053119
  14 H :    0.041045
  15 H :    0.047972
  16 H :    0.002364
  17 H :   -0.012079
  18 H :    0.009072

  Mayer bond orders larger than 0.100000
B(  0-C ,  1-C ) :   1.1904 B(  0-C ,  2-N ) :   0.9589 B(  0-C ,  4-H ) :   0.8506
B(  0-C ,  5-H ) :   0.9671 B(  0-C , 11-H ) :  -0.1175 B(  0-C , 14-H ) :   0.1125
B(  0-C , 15-H ) :   0.1601 B(  1-C ,  2-N ) :   0.1016 B(  1-C ,  3-C ) :   1.2874
B(  1-C , 14-H ) :   0.9187 B(  1-C , 15-H ) :   0.8968 B(  1-C , 16-H ) :   0.1474
B(  1-C , 17-H ) :   0.1791 B(  1-C , 18-H ) :   0.1782 B(  2-N ,  4-H ) :   0.1341
B(  2-N ,  5-H ) :   0.1038 B(  2-N ,  6-C ) :   1.0819 B(  2-N ,  7-N ) :   0.3026
B(  2-N ,  8-N ) :   0.1997 B(  2-N , 11-H ) :   1.1704 B(  3-C , 16-H ) :   0.8455
B(  3-C , 17-H ) :   0.8480 B(  3-C , 18-H ) :   0.8235 B(  6-C ,  7-N ) :   0.9417
B(  6-C ,  8-N ) :   0.9353 B(  6-C ,  9-H ) :  -0.1051 B(  6-C , 10-H ) :  -0.1112
B(  6-C , 11-H ) :  -0.2426 B(  6-C , 13-H ) :  -0.1008 B(  7-N ,  8-N ) :   0.1417
B(  7-N , 12-H ) :   1.0480 B(  7-N , 13-H ) :   1.2058 B(  8-N ,  9-H ) :   1.0293
B(  8-N , 10-H ) :   1.1966 B(  9-H , 10-H ) :  -0.1428 B( 12-H , 13-H ) :  -0.1345

FINAL SINGLE POINT ENERGY      -322.461636977563

DIPOLE MOMENT
-------------
                                X             Y             Z
Electronic contribution:      7.36268       1.75027      -1.60557
Nuclear contribution   :     -5.91327      -1.13589       1.03073
                        -----------------------------------------
Total Dipole Moment    :      1.44941       0.61439      -0.57485
                        -----------------------------------------
Magnitude (a.u.)       :      1.67592
Magnitude (Debye)      :      4.25985

Rotational constants in cm-1:     0.176161     0.043658     0.038822
Rotational constants in MHz :  5281.161077  1308.843263  1163.840625

                             ****ORCA TERMINATED NORMALLY****
TOTAL RUN TIME: 0 days 0 hours 0 minutes 36 seconds 495 msec
