                         Program Version 5.0.0 -  RELEASE  -
|  1> !LC-PBE RIJCOSX def2-SVPD def2/J TightSCF xyzfile
|  2>
|  3> *xyzfile 0 1 B.xyz
|  4>
|  5> %MaxCore 64000
|  6>
|  7> %pal nprocs 4
|  8> end
|  9>
| 10> %scf
| 11>   MaxIter 150
| 12> end
| 13>
| 14>
| 15>                          ****END OF INPUT****

CARTESIAN COORDINATES (ANGSTROEM)
---------------------------------
  C      1.635557   -1.670396   -5.292109
  C      0.338484   -1.500907   -4.505398
  N      2.484511   -0.507410   -5.140392
  C     -0.684873   -0.528026   -5.099889
  C     -0.290406    0.951335   -5.153423
  H      0.607991    1.070692   -5.764412
  C     -0.055168    1.619420   -3.788577
  H     -1.080912    1.483775   -5.689436
  H      0.045006    0.862302   -3.003015
  H     -0.922936    2.230329   -3.517028
  C      1.223022    2.469865   -3.756911
  H      1.114701    3.258074   -4.532999
  H      1.237732    3.011242   -2.792157
  O      2.353815    1.712032   -3.934477
  H      1.398337   -1.829239   -6.352591
  H      2.155864   -2.565398   -4.932091
  C      3.451149   -0.149530   -5.952589
  N      3.922667    1.089559   -5.850711
  N      3.966162   -1.006183   -6.867880
  H      3.521391   -1.906467   -6.995270
  H      4.444824   -0.623472   -7.670348
  H      2.251995    0.240804   -4.498792
  H      3.464277    1.640782   -5.136392
  H      4.834470    1.313745   -6.224653
  H     -0.937999   -0.869056   -6.110838
  H     -1.604638   -0.622496   -4.513132
  H      0.594887   -1.211578   -3.482312
  H     -0.126530   -2.487656   -4.434176

 Total Charge           Charge          ....    0
 Multiplicity           Mult            ....    1
 Number of Electrons    NEL             ....   88
 Basis Dimension        Dim             ....  359

ORBITAL ENERGIES
----------------

  NO   OCC          E(Eh)            E(eV)
   0   2.0000     -18.855755      -513.0912
   1   2.0000     -14.289661      -388.8414
   2   2.0000     -14.246964      -387.6796
   3   2.0000     -14.242928      -387.5698
   4   2.0000     -10.282870      -279.8111
   5   2.0000     -10.180366      -277.0219
   6   2.0000     -10.131957      -275.7046
   7   2.0000     -10.118583      -275.3406
   8   2.0000     -10.104369      -274.9539
   9   2.0000     -10.099718      -274.8273
  10   2.0000     -10.081140      -274.3218
  11   2.0000      -1.205442       -32.8017
  12   2.0000      -1.092129       -29.7183
  13   2.0000      -1.071217       -29.1493
  14   2.0000      -1.037586       -28.2342
  15   2.0000      -0.973408       -26.4878
  16   2.0000      -0.914619       -24.8880
  17   2.0000      -0.854368       -23.2485
  18   2.0000      -0.809655       -22.0318
  19   2.0000      -0.784316       -21.3423
  20   2.0000      -0.752700       -20.4820
  21   2.0000      -0.731384       -19.9020
  22   2.0000      -0.713425       -19.4133
  23   2.0000      -0.678503       -18.4630
  24   2.0000      -0.652315       -17.7504
  25   2.0000      -0.648209       -17.6387
  26   2.0000      -0.634787       -17.2734
  27   2.0000      -0.623468       -16.9654
  28   2.0000      -0.587900       -15.9976
  29   2.0000      -0.569320       -15.4920
  30   2.0000      -0.560608       -15.2549
  31   2.0000      -0.551450       -15.0057
  32   2.0000      -0.523057       -14.2331
  33   2.0000      -0.501554       -13.6480
  34   2.0000      -0.492384       -13.3985
  35   2.0000      -0.470619       -12.8062
  36   2.0000      -0.449804       -12.2398
  37   2.0000      -0.444465       -12.0945
  38   2.0000      -0.434188       -11.8148
  39   2.0000      -0.424533       -11.5521
  40   2.0000      -0.417644       -11.3647
  41   2.0000      -0.387389       -10.5414
  42   2.0000      -0.304537        -8.2869
  43   2.0000      -0.297616        -8.0985
  44   0.0000       0.066441         1.8080
  45   0.0000       0.092906         2.5281
  46   0.0000       0.096544         2.6271
  47   0.0000       0.109161         2.9704
  48   0.0000       0.117160         3.1881

MULLIKEN ATOMIC CHARGES
-----------------------
   0 C :    0.502326
   1 C :   -0.019237
   2 N :    0.041660
   3 C :    0.025547
   4 C :    0.031745
   5 H :    0.056587
   6 C :   -0.105006
   7 H :   -0.150556
   8 H :    0.016613
   9 H :   -0.112051
  10 C :    0.581339
  11 H :   -0.056857
  12 H :   -0.063030
  13 O :   -0.990700
  14 H :    0.075374
  15 H :   -0.123385
  16 C :    1.066716
  17 N :    0.210948
  18 N :   -0.074495
  19 H :   -0.007338
  20 H :   -0.057923
  21 H :   -0.666768
  22 H :   -0.129446
  23 H :   -0.170375
  24 H :    0.143598
  25 H :   -0.033321
  26 H :    0.083063
  27 H :   -0.075028
Sum of atomic charges:   -0.0000000

LOEWDIN ATOMIC CHARGES
----------------------
   0 C :    0.034349
   1 C :   -0.040190
   2 N :    0.060286
   3 C :   -0.054537
   4 C :   -0.049635
   5 H :    0.016103
   6 C :   -0.047106
   7 H :    0.027253
   8 H :    0.019424
   9 H :    0.025869
  10 C :   -0.094703
  11 H :    0.025871
  12 H :    0.020134
  13 O :   -0.439009
  14 H :    0.034954
  15 H :    0.036764
  16 C :   -0.040359
  17 N :    0.254275
  18 N :    0.227825
  19 H :    0.001285
  20 H :    0.020390
  21 H :   -0.101317
  22 H :   -0.097349
  23 H :    0.027232
  24 H :    0.029575
  25 H :    0.034866
  26 H :    0.033772
  27 H :    0.033977

  Mayer bond orders larger than 0.100000
B(  0-C ,  1-C ) :   1.2229 B(  0-C ,  2-N ) :   0.9280 B(  0-C , 14-H ) :   0.7805
B(  0-C , 15-H ) :   0.9207 B(  0-C , 21-H ) :  -0.1992 B(  0-C , 26-H ) :   0.1122
B(  0-C , 27-H ) :   0.1619 B(  1-C ,  2-N ) :   0.1016 B(  1-C ,  3-C ) :   1.2422
B(  1-C , 24-H ) :   0.1337 B(  1-C , 25-H ) :   0.1526 B(  1-C , 26-H ) :   0.8112
B(  1-C , 27-H ) :   0.8555 B(  2-N , 14-H ) :   0.2471 B(  2-N , 15-H ) :   0.1306
B(  2-N , 16-C ) :   1.3036 B(  2-N , 17-N ) :   0.1440 B(  2-N , 18-N ) :   0.1294
B(  2-N , 21-H ) :   1.0832 B(  3-C ,  4-C ) :   1.2838 B(  3-C ,  5-H ) :   0.1349
B(  3-C ,  7-H ) :   0.1080 B(  3-C , 24-H ) :   0.7105 B(  3-C , 25-H ) :   0.8948
B(  3-C , 26-H ) :   0.1362 B(  3-C , 27-H ) :   0.1253 B(  4-C ,  5-H ) :   0.8327
B(  4-C ,  6-C ) :   1.2134 B(  4-C ,  7-H ) :   0.8705 B(  4-C ,  8-H ) :   0.1038
B(  4-C ,  9-H ) :   0.1453 B(  4-C , 24-H ) :   0.1957 B(  4-C , 25-H ) :   0.1031
B(  5-H ,  6-C ) :   0.1119 B(  6-C ,  8-H ) :   0.8763 B(  6-C ,  9-H ) :   0.9817
B(  6-C , 10-C ) :   1.0907 B(  6-C , 12-H ) :   0.1516 B( 10-C , 11-H ) :   0.8922
B( 10-C , 12-H ) :   0.8716 B( 10-C , 13-O ) :   1.0716 B( 11-H , 13-O ) :   0.1881
B( 13-O , 21-H ) :   0.3994 B( 13-O , 22-H ) :   0.3163 B( 16-C , 17-N ) :   0.9091
B( 16-C , 18-N ) :   0.8899 B( 16-C , 21-H ) :  -0.4802 B( 16-C , 22-H ) :  -0.1313
B( 16-C , 23-H ) :  -0.1315 B( 17-N , 18-N ) :   0.1195 B( 17-N , 22-H ) :   1.0448
B( 17-N , 23-H ) :   1.2797 B( 18-N , 19-H ) :   1.0492 B( 18-N , 20-H ) :   1.2125
B( 19-H , 20-H ) :  -0.1453 B( 22-H , 23-H ) :  -0.1788

FINAL SINGLE POINT ENERGY      -514.492205819310

DIPOLE MOMENT
-------------
                                X             Y             Z
Electronic contribution:      8.30455      -0.93919      -2.28902
Nuclear contribution   :     -7.46499      -1.05836       0.01518
                        -----------------------------------------
Total Dipole Moment    :      0.83956      -1.99756      -2.27384
                        -----------------------------------------
Magnitude (a.u.)       :      3.14093
Magnitude (Debye)      :      7.98361

Rotational constants in cm-1:     0.044680     0.028958     0.019773
Rotational constants in MHz :  1339.486245   868.136755   592.791310

                             ****ORCA TERMINATED NORMALLY****
TOTAL RUN TIME: 0 days 0 hours 2 minutes 12 seconds 428 msec
