                         Program Version 5.0.0 -  RELEASE  -
|  1> !LC-PBE RIJCOSX def2-SVPD def2/J TightSCF
|  2> *xyz 0 1
|  3> C         -0.29041        0.95134       -5.15342
|  4> C         -0.05517        1.61942       -3.78858
|  5> H          0.04501        0.86230       -3.00301
|  6> H         -0.92294        2.23033       -3.51703
|  7> C          1.22302        2.46987       -3.75691
|  8> H          1.11470        3.25807       -4.53300
|  9> H          1.23773        3.01124       -2.79216
| 10> F          2.35381        1.71203       -3.93448
| 11> H         -0.38575        1.70447       -5.90748
| 12> H         -1.18723        0.36894       -5.11561
| 13> H          0.53806        0.31571       -5.38692
| 14> *
| 15>
| 16> %MaxCore 64000
| 17>
| 18> %pal nprocs 4
| 19> end
| 20>
| 21> %scf
| 22>   MaxIter 150
| 23> end
| 24>
| 25>
| 26>                          ****END OF INPUT****

CARTESIAN COORDINATES (ANGSTROEM)
---------------------------------
  C     -0.290410    0.951340   -5.153420
  C     -0.055170    1.619420   -3.788580
  H      0.045010    0.862300   -3.003010
  H     -0.922940    2.230330   -3.517030
  C      1.223020    2.469870   -3.756910
  H      1.114700    3.258070   -4.533000
  H      1.237730    3.011240   -2.792160
  F      2.353810    1.712030   -3.934480
  H     -0.385750    1.704470   -5.907480
  H     -1.187230    0.368940   -5.115610
  H      0.538060    0.315710   -5.386920

 Total Charge           Charge          ....    0
 Multiplicity           Mult            ....    1
 Number of Electrons    NEL             ....   34
 Basis Dimension        Dim             ....  139

ORBITAL ENERGIES
----------------

  NO   OCC          E(Eh)            E(eV)
   0   2.0000     -24.494584      -666.5315
   1   2.0000     -10.206885      -277.7435
   2   2.0000     -10.135648      -275.8050
   3   2.0000     -10.114219      -275.2219
   4   2.0000      -1.339594       -36.4522
   5   2.0000      -0.962076       -26.1794
   6   2.0000      -0.853146       -23.2153
   7   2.0000      -0.754565       -20.5328
   8   2.0000      -0.661460       -17.9992
   9   2.0000      -0.647102       -17.6086
  10   2.0000      -0.617975       -16.8160
  11   2.0000      -0.578557       -15.7433
  12   2.0000      -0.541956       -14.7474
  13   2.0000      -0.514650       -14.0043
  14   2.0000      -0.483462       -13.1557
  15   2.0000      -0.459015       -12.4904
  16   2.0000      -0.458046       -12.4641
  17   0.0000       0.091543         2.4910
  18   0.0000       0.115620         3.1462
  19   0.0000       0.125133         3.4050
  20   0.0000       0.146569         3.9883
  21   0.0000       0.171765         4.6740

MULLIKEN ATOMIC CHARGES
-----------------------
   0 C :    0.381196
   1 C :   -0.610031
   2 H :    0.017646
   3 H :    0.019756
   4 C :    0.504595
   5 H :    0.046750
   6 H :    0.012664
   7 F :   -0.420397
   8 H :    0.006036
   9 H :    0.014134
  10 H :    0.027653
Sum of atomic charges:    0.0000000

LOEWDIN ATOMIC CHARGES
----------------------
   0 C :    0.093276
   1 C :   -0.090644
   2 H :    0.035218
   3 H :    0.036126
   4 C :    0.065189
   5 H :    0.046783
   6 H :    0.041850
   7 F :   -0.206344
   8 H :   -0.007281
   9 H :   -0.008858
  10 H :   -0.005315

  Mayer bond orders larger than 0.100000
B(  0-C ,  1-C ) :   1.2692 B(  0-C ,  8-H ) :   0.8652 B(  0-C ,  9-H ) :   0.8669
B(  0-C , 10-H ) :   0.8738 B(  1-C ,  2-H ) :   0.9967 B(  1-C ,  3-H ) :   0.9953
B(  1-C ,  4-C ) :   1.1690 B(  1-C ,  8-H ) :   0.1360 B(  1-C ,  9-H ) :   0.1395
B(  1-C , 10-H ) :   0.1459 B(  4-C ,  5-H ) :   0.9416 B(  4-C ,  6-H ) :   0.9482
B(  4-C ,  7-F ) :   0.7951

FINAL SINGLE POINT ENERGY      -217.587532836740

DIPOLE MOMENT
-------------
                                X             Y             Z
Electronic contribution:      6.13425       0.41891       1.41180
Nuclear contribution   :     -6.82889      -0.09322      -1.32039
                        -----------------------------------------
Total Dipole Moment    :     -0.69463       0.32569       0.09141
                        -----------------------------------------
Magnitude (a.u.)       :      0.77262
Magnitude (Debye)      :      1.96385

Rotational constants in cm-1:     0.494282     0.164406     0.140369
Rotational constants in MHz : 14818.207649  4928.760399  4208.156468

                             ****ORCA TERMINATED NORMALLY****
TOTAL RUN TIME: 0 days 0 hours 0 minutes 9 seconds 528 msec
