                         Program Version 5.0.0 -  RELEASE  -
|  1> !LC-PBE RIJCOSX def2-SVPD def2/J TightSCF
|  2> *xyz 0 1
|  3> C          1.63556       -1.67040       -5.29211
|  4> C          0.33848       -1.50091       -4.50540
|  5> C          2.48451       -0.50741       -5.14039
|  6> C         -0.68487       -0.52803       -5.09989
|  7> H          1.39834       -1.82924       -6.35259
|  8> H          2.15586       -2.56540       -4.93209
|  9> C          3.45115       -0.14953       -5.95259
| 10> N          3.92267        1.08956       -5.85071
| 11> N          3.96616       -1.00618       -6.86788
| 12> H          3.52139       -1.90647       -6.99527
| 13> H          4.44482       -0.62347       -7.67035
| 14> H          2.25200        0.24080       -4.49879
| 15> H          3.46428        1.64078       -5.13639
| 16> H          4.83447        1.31375       -6.22465
| 17> H          0.59489       -1.21158       -3.48231
| 18> H         -0.12653       -2.48766       -4.43418
| 19> H         -0.92267       -0.82721       -6.09931
| 20> H         -0.27317        0.45953       -5.11162
| 21> H         -1.57350       -0.53693       -4.50394
| 22> *
| 23>
| 24> %MaxCore 64000
| 25>
| 26> %pal nprocs 4
| 27> end
| 28>
| 29> %scf
| 30>   MaxIter 150
| 31> end
| 32>
| 33>
| 34>                          ****END OF INPUT****

CARTESIAN COORDINATES (ANGSTROEM)
---------------------------------
  C      1.635560   -1.670400   -5.292110
  C      0.338480   -1.500910   -4.505400
  C      2.484510   -0.507410   -5.140390
  C     -0.684870   -0.528030   -5.099890
  H      1.398340   -1.829240   -6.352590
  H      2.155860   -2.565400   -4.932090
  C      3.451150   -0.149530   -5.952590
  N      3.922670    1.089560   -5.850710
  N      3.966160   -1.006180   -6.867880
  H      3.521390   -1.906470   -6.995270
  H      4.444820   -0.623470   -7.670350
  H      2.252000    0.240800   -4.498790
  H      3.464280    1.640780   -5.136390
  H      4.834470    1.313750   -6.224650
  H      0.594890   -1.211580   -3.482310
  H     -0.126530   -2.487660   -4.434180
  H     -0.922670   -0.827210   -6.099310
  H     -0.273170    0.459530   -5.111620
  H     -1.573500   -0.536930   -4.503940

 Total Charge           Charge          ....    0
 Multiplicity           Mult            ....    1
 Number of Electrons    NEL             ....   56
 Basis Dimension        Dim             ....  236

ORBITAL ENERGIES
----------------

  NO   OCC          E(Eh)            E(eV)
   0   2.0000     -14.229968      -387.2171
   1   2.0000     -14.224766      -387.0756
   2   2.0000     -10.171546      -276.7818
   3   2.0000     -10.108589      -275.0687
   4   2.0000     -10.104217      -274.9497
   5   2.0000     -10.096965      -274.7524
   6   2.0000     -10.050888      -273.4986
   7   2.0000      -1.128068       -30.6963
   8   2.0000      -1.030627       -28.0448
   9   2.0000      -0.962786       -26.1987
  10   2.0000      -0.890775       -24.2392
  11   2.0000      -0.821058       -22.3421
  12   2.0000      -0.745754       -20.2930
  13   2.0000      -0.724718       -19.7206
  14   2.0000      -0.682069       -18.5600
  15   2.0000      -0.661581       -18.0025
  16   2.0000      -0.606020       -16.4907
  17   2.0000      -0.587720       -15.9927
  18   2.0000      -0.583310       -15.8727
  19   2.0000      -0.558236       -15.1904
  20   2.0000      -0.527621       -14.3573
  21   2.0000      -0.515001       -14.0139
  22   2.0000      -0.497818       -13.5463
  23   2.0000      -0.458464       -12.4754
  24   2.0000      -0.445485       -12.1223
  25   2.0000      -0.440605       -11.9895
  26   2.0000      -0.399445       -10.8694
  27   2.0000      -0.279822        -7.6143
  28   0.0000       0.091956         2.5023
  29   0.0000       0.110727         3.0130
  30   0.0000       0.114487         3.1154
  31   0.0000       0.129890         3.5345
  32   0.0000       0.142158         3.8683

MULLIKEN ATOMIC CHARGES
-----------------------
   0 C :    0.070052
   1 C :   -0.266611
   2 C :   -0.173669
   3 C :    0.497968
   4 H :    0.032580
   5 H :   -0.071278
   6 C :    0.552611
   7 N :   -0.053976
   8 N :   -0.146800
   9 H :    0.031280
  10 H :   -0.111612
  11 H :   -0.385997
  12 H :    0.105750
  13 H :   -0.156854
  14 H :    0.043909
  15 H :   -0.005299
  16 H :    0.024453
  17 H :   -0.005843
  18 H :    0.019336
Sum of atomic charges:   -0.0000000

LOEWDIN ATOMIC CHARGES
----------------------
   0 C :   -0.098427
   1 C :   -0.109357
   2 C :   -0.054427
   3 C :    0.093485
   4 H :    0.031280
   5 H :    0.031838
   6 C :   -0.231174
   7 N :    0.157632
   8 N :    0.186896
   9 H :   -0.006097
  10 H :   -0.001772
  11 H :   -0.038454
  12 H :    0.010280
  13 H :    0.003804
  14 H :    0.032204
  15 H :    0.024447
  16 H :   -0.008418
  17 H :   -0.013047
  18 H :   -0.010696

  Mayer bond orders larger than 0.100000
B(  0-C ,  1-C ) :   1.2241 B(  0-C ,  2-C ) :   0.9046 B(  0-C ,  4-H ) :   0.8443
B(  0-C ,  5-H ) :   0.8350 B(  0-C , 11-H ) :   0.2457 B(  0-C , 14-H ) :   0.1536
B(  0-C , 15-H ) :   0.2023 B(  1-C ,  2-C ) :   0.1606 B(  1-C ,  3-C ) :   1.2723
B(  1-C , 14-H ) :   0.8912 B(  1-C , 15-H ) :   0.8464 B(  1-C , 16-H ) :   0.1532
B(  1-C , 17-H ) :   0.1906 B(  1-C , 18-H ) :   0.1781 B(  2-C ,  4-H ) :   0.1225
B(  2-C ,  5-H ) :   0.2144 B(  2-C ,  6-C ) :   1.7178 B(  2-C ,  7-N ) :   0.3400
B(  2-C ,  8-N ) :   0.2084 B(  2-C ,  9-H ) :  -0.1062 B(  2-C , 11-H ) :   0.8661
B(  3-C , 16-H ) :   0.8502 B(  3-C , 17-H ) :   0.8528 B(  3-C , 18-H ) :   0.8080
B(  6-C ,  7-N ) :   0.9284 B(  6-C ,  8-N ) :   0.9517 B(  7-N ,  8-N ) :   0.1023
B(  7-N , 12-H ) :   1.0267 B(  7-N , 13-H ) :   1.2237 B(  8-N ,  9-H ) :   1.0349
B(  8-N , 10-H ) :   1.2004 B(  9-H , 10-H ) :  -0.1237 B( 12-H , 13-H ) :  -0.1344

FINAL SINGLE POINT ENERGY      -306.011719057214

DIPOLE MOMENT
-------------
                                X             Y             Z
Electronic contribution:      6.36105       1.41538      -1.65683
Nuclear contribution   :     -5.84539      -1.11717       1.11949
                        -----------------------------------------
Total Dipole Moment    :      0.51565       0.29821      -0.53734
                        -----------------------------------------
Magnitude (a.u.)       :      0.80223
Magnitude (Debye)      :      2.03910

Rotational constants in cm-1:     0.177055     0.043715     0.038831
Rotational constants in MHz :  5307.971484  1310.555422  1164.112547

                             ****ORCA TERMINATED NORMALLY****
TOTAL RUN TIME: 0 days 0 hours 0 minutes 38 seconds 33 msec
