                         Program Version 5.0.0 -  RELEASE  -
|  1> !LC-PBE RIJCOSX def2-SVPD def2/J TightSCF
|  2> *xyz 0 1
|  3> C          1.63556       -1.67040       -5.29211
|  4> C          0.33848       -1.50091       -4.50540
|  5> N          2.48451       -0.50741       -5.14039
|  6> C         -0.68487       -0.52803       -5.09989
|  7> H          1.39834       -1.82924       -6.35259
|  8> H          2.15586       -2.56540       -4.93209
|  9> C          3.45115       -0.14953       -5.95259
| 10> C          3.92267        1.08956       -5.85071
| 11> N          3.96616       -1.00618       -6.86788
| 12> H          3.52139       -1.90647       -6.99527
| 13> H          4.44482       -0.62347       -7.67035
| 14> H          2.25200        0.24080       -4.49879
| 15> H          3.46428        1.64078       -5.13639
| 16> H          4.83447        1.31375       -6.22465
| 17> H          0.59489       -1.21158       -3.48231
| 18> H         -0.12653       -2.48766       -4.43418
| 19> H         -0.92267       -0.82721       -6.09931
| 20> H         -0.27317        0.45953       -5.11162
| 21> H         -1.57350       -0.53693       -4.50394
| 22> *
| 23>
| 24> %MaxCore 64000
| 25>
| 26> %pal nprocs 4
| 27> end
| 28>
| 29> %scf
| 30>   MaxIter 150
| 31> end
| 32>
| 33>
| 34>                          ****END OF INPUT****

CARTESIAN COORDINATES (ANGSTROEM)
---------------------------------
  C      1.635560   -1.670400   -5.292110
  C      0.338480   -1.500910   -4.505400
  N      2.484510   -0.507410   -5.140390
  C     -0.684870   -0.528030   -5.099890
  H      1.398340   -1.829240   -6.352590
  H      2.155860   -2.565400   -4.932090
  C      3.451150   -0.149530   -5.952590
  C      3.922670    1.089560   -5.850710
  N      3.966160   -1.006180   -6.867880
  H      3.521390   -1.906470   -6.995270
  H      4.444820   -0.623470   -7.670350
  H      2.252000    0.240800   -4.498790
  H      3.464280    1.640780   -5.136390
  H      4.834470    1.313750   -6.224650
  H      0.594890   -1.211580   -3.482310
  H     -0.126530   -2.487660   -4.434180
  H     -0.922670   -0.827210   -6.099310
  H     -0.273170    0.459530   -5.111620
  H     -1.573500   -0.536930   -4.503940

 Total Charge           Charge          ....    0
 Multiplicity           Mult            ....    1
 Number of Electrons    NEL             ....   56
 Basis Dimension        Dim             ....  236

ORBITAL ENERGIES
----------------

  NO   OCC          E(Eh)            E(eV)
   0   2.0000     -14.230511      -387.2319
   1   2.0000     -14.228474      -387.1765
   2   2.0000     -10.177099      -276.9330
   3   2.0000     -10.168250      -276.6921
   4   2.0000     -10.138769      -275.8899
   5   2.0000     -10.118721      -275.3444
   6   2.0000     -10.034898      -273.0635
   7   2.0000      -1.141710       -31.0675
   8   2.0000      -1.047312       -28.4988
   9   2.0000      -0.967320       -26.3221
  10   2.0000      -0.894995       -24.3541
  11   2.0000      -0.832480       -22.6529
  12   2.0000      -0.761179       -20.7127
  13   2.0000      -0.745977       -20.2991
  14   2.0000      -0.686327       -18.6759
  15   2.0000      -0.646286       -17.5863
  16   2.0000      -0.621319       -16.9069
  17   2.0000      -0.609284       -16.5795
  18   2.0000      -0.588370       -16.0104
  19   2.0000      -0.557637       -15.1741
  20   2.0000      -0.533213       -14.5095
  21   2.0000      -0.521330       -14.1861
  22   2.0000      -0.510715       -13.8973
  23   2.0000      -0.487753       -13.2724
  24   2.0000      -0.478779       -13.0282
  25   2.0000      -0.473544       -12.8858
  26   2.0000      -0.389368       -10.5952
  27   2.0000      -0.279441        -7.6040
  28   0.0000       0.085016         2.3134
  29   0.0000       0.103234         2.8091
  30   0.0000       0.111258         3.0275
  31   0.0000       0.120444         3.2775
  32   0.0000       0.143230         3.8975

MULLIKEN ATOMIC CHARGES
-----------------------
   0 C :    0.313960
   1 C :   -0.388207
   2 N :   -0.403257
   3 C :    0.478343
   4 H :    0.020709
   5 H :   -0.119608
   6 C :    0.552383
   7 C :    0.277267
   8 N :   -0.052217
   9 H :   -0.083042
  10 H :   -0.024010
  11 H :   -0.093997
  12 H :   -0.172754
  13 H :   -0.373666
  14 H :    0.004120
  15 H :    0.008148
  16 H :    0.040968
  17 H :    0.003515
  18 H :    0.011344
Sum of atomic charges:    0.0000000

LOEWDIN ATOMIC CHARGES
----------------------
   0 C :    0.005481
   1 C :   -0.095391
   2 N :   -0.028072
   3 C :    0.096996
   4 H :    0.034251
   5 H :    0.032810
   6 C :   -0.235327
   7 C :    0.107554
   8 N :    0.184619
   9 H :   -0.017784
  10 H :    0.013362
  11 H :    0.036636
  12 H :   -0.092279
  13 H :   -0.085297
  14 H :    0.032876
  15 H :    0.031137
  16 H :   -0.005529
  17 H :   -0.009715
  18 H :   -0.006328

  Mayer bond orders larger than 0.100000
B(  0-C ,  1-C ) :   1.1856 B(  0-C ,  2-N ) :   0.9486 B(  0-C ,  4-H ) :   0.8693
B(  0-C ,  5-H ) :   0.9810 B(  0-C , 11-H ) :  -0.1357 B(  0-C , 14-H ) :   0.1309
B(  0-C , 15-H ) :   0.1695 B(  1-C ,  3-C ) :   1.2683 B(  1-C , 14-H ) :   0.9159
B(  1-C , 15-H ) :   0.9021 B(  1-C , 16-H ) :   0.1547 B(  1-C , 17-H ) :   0.1853
B(  1-C , 18-H ) :   0.1825 B(  2-N ,  4-H ) :   0.1328 B(  2-N ,  5-H ) :   0.1272
B(  2-N ,  6-C ) :   1.1320 B(  2-N ,  7-C ) :   0.2782 B(  2-N ,  8-N ) :   0.1176
B(  2-N , 11-H ) :   1.1311 B(  3-C , 16-H ) :   0.8471 B(  3-C , 17-H ) :   0.8517
B(  3-C , 18-H ) :   0.8194 B(  6-C ,  7-C ) :   1.7030 B(  6-C ,  8-N ) :   0.9118
B(  6-C , 11-H ) :  -0.1922 B(  6-C , 12-H ) :   0.1736 B(  6-C , 13-H ) :   0.2403
B(  7-C ,  8-N ) :   0.2157 B(  7-C , 12-H ) :   0.8672 B(  7-C , 13-H ) :   0.7301
B(  8-N ,  9-H ) :   1.0456 B(  8-N , 10-H ) :   1.1575 B(  9-H , 10-H ) :  -0.1337

FINAL SINGLE POINT ENERGY      -305.998799504947

DIPOLE MOMENT
-------------
                                X             Y             Z
Electronic contribution:      4.75300      -0.16636      -1.05338
Nuclear contribution   :     -5.53036      -0.76734       0.96389
                        -----------------------------------------
Total Dipole Moment    :     -0.77735      -0.93371      -0.08948
                        -----------------------------------------
Magnitude (a.u.)       :      1.21823
Magnitude (Debye)      :      3.09650

Rotational constants in cm-1:     0.181901     0.044719     0.039941
Rotational constants in MHz :  5453.254735  1340.639344  1197.391002

                             ****ORCA TERMINATED NORMALLY****
TOTAL RUN TIME: 0 days 0 hours 0 minutes 35 seconds 190 msec
