                         Program Version 5.0.0 -  RELEASE  -
|  1> !LC-PBE RIJCOSX def2-SVPD def2/J TightSCF
|  2> *xyz 0 1
|  3> C          1.63556       -1.67040       -5.29211
|  4> C          0.33848       -1.50091       -4.50540
|  5> N          2.48451       -0.50741       -5.14039
|  6> C         -0.68487       -0.52803       -5.09989
|  7> H          1.39834       -1.82924       -6.35259
|  8> H          2.15586       -2.56540       -4.93209
|  9> C          3.45115       -0.14953       -5.95259
| 10> N          3.92267        1.08956       -5.85071
| 11> C          3.96616       -1.00618       -6.86788
| 12> H          3.52139       -1.90647       -6.99527
| 13> H          4.44482       -0.62347       -7.67035
| 14> H          2.25200        0.24080       -4.49879
| 15> H          3.46428        1.64078       -5.13639
| 16> H          4.83447        1.31375       -6.22465
| 17> H          0.59489       -1.21158       -3.48231
| 18> H         -0.12653       -2.48766       -4.43418
| 19> H         -0.92267       -0.82721       -6.09931
| 20> H         -0.27317        0.45953       -5.11162
| 21> H         -1.57350       -0.53693       -4.50394
| 22> *
| 23>
| 24> %MaxCore 64000
| 25>
| 26> %pal nprocs 4
| 27> end
| 28>
| 29> %scf
| 30>   MaxIter 150
| 31> end
| 32>
| 33>
| 34>                          ****END OF INPUT****

CARTESIAN COORDINATES (ANGSTROEM)
---------------------------------
  C      1.635560   -1.670400   -5.292110
  C      0.338480   -1.500910   -4.505400
  N      2.484510   -0.507410   -5.140390
  C     -0.684870   -0.528030   -5.099890
  H      1.398340   -1.829240   -6.352590
  H      2.155860   -2.565400   -4.932090
  C      3.451150   -0.149530   -5.952590
  N      3.922670    1.089560   -5.850710
  C      3.966160   -1.006180   -6.867880
  H      3.521390   -1.906470   -6.995270
  H      4.444820   -0.623470   -7.670350
  H      2.252000    0.240800   -4.498790
  H      3.464280    1.640780   -5.136390
  H      4.834470    1.313750   -6.224650
  H      0.594890   -1.211580   -3.482310
  H     -0.126530   -2.487660   -4.434180
  H     -0.922670   -0.827210   -6.099310
  H     -0.273170    0.459530   -5.111620
  H     -1.573500   -0.536930   -4.503940

 Total Charge           Charge          ....    0
 Multiplicity           Mult            ....    1
 Number of Electrons    NEL             ....   56
 Basis Dimension        Dim             ....  236

ORBITAL ENERGIES
----------------

  NO   OCC          E(Eh)            E(eV)
   0   2.0000     -14.237201      -387.4139
   1   2.0000     -14.230957      -387.2440
   2   2.0000     -10.178918      -276.9824
   3   2.0000     -10.161272      -276.5023
   4   2.0000     -10.135245      -275.7940
   5   2.0000     -10.117558      -275.3128
   6   2.0000     -10.036746      -273.1137
   7   2.0000      -1.150127       -31.2965
   8   2.0000      -1.053477       -28.6666
   9   2.0000      -0.958695       -26.0874
  10   2.0000      -0.872483       -23.7415
  11   2.0000      -0.859801       -23.3964
  12   2.0000      -0.765799       -20.8384
  13   2.0000      -0.720182       -19.5971
  14   2.0000      -0.685694       -18.6587
  15   2.0000      -0.671277       -18.2664
  16   2.0000      -0.619669       -16.8621
  17   2.0000      -0.616454       -16.7746
  18   2.0000      -0.576435       -15.6856
  19   2.0000      -0.561218       -15.2715
  20   2.0000      -0.530101       -14.4248
  21   2.0000      -0.521558       -14.1923
  22   2.0000      -0.501395       -13.6436
  23   2.0000      -0.486167       -13.2293
  24   2.0000      -0.476671       -12.9709
  25   2.0000      -0.471563       -12.8319
  26   2.0000      -0.381831       -10.3902
  27   2.0000      -0.283646        -7.7184
  28   0.0000       0.083234         2.2649
  29   0.0000       0.102167         2.7801
  30   0.0000       0.114657         3.1200
  31   0.0000       0.119321         3.2469
  32   0.0000       0.142921         3.8891

MULLIKEN ATOMIC CHARGES
-----------------------
   0 C :    0.321819
   1 C :   -0.385164
   2 N :   -0.425790
   3 C :    0.488579
   4 H :    0.075200
   5 H :   -0.094893
   6 C :    0.430304
   7 N :    0.000283
   8 C :    0.308339
   9 H :   -0.027312
  10 H :   -0.401637
  11 H :   -0.203551
  12 H :   -0.065677
  13 H :   -0.067212
  14 H :   -0.004368
  15 H :   -0.000376
  16 H :    0.044734
  17 H :   -0.007225
  18 H :    0.013946
Sum of atomic charges:    0.0000000

LOEWDIN ATOMIC CHARGES
----------------------
   0 C :    0.017536
   1 C :   -0.096655
   2 N :   -0.028167
   3 C :    0.094761
   4 H :    0.041435
   5 H :    0.040571
   6 C :   -0.245232
   7 N :    0.169956
   8 C :    0.128124
   9 H :   -0.110173
  10 H :   -0.094445
  11 H :    0.026795
  12 H :   -0.002927
  13 H :    0.021872
  14 H :    0.029873
  15 H :    0.031905
  16 H :   -0.004473
  17 H :   -0.013631
  18 H :   -0.007123

  Mayer bond orders larger than 0.100000
B(  0-C ,  1-C ) :   1.1726 B(  0-C ,  2-N ) :   1.0059 B(  0-C ,  4-H ) :   0.8538
B(  0-C ,  5-H ) :   0.9774 B(  0-C , 11-H ) :  -0.1213 B(  0-C , 14-H ) :   0.1294
B(  0-C , 15-H ) :   0.1575 B(  1-C ,  3-C ) :   1.2715 B(  1-C , 14-H ) :   0.9093
B(  1-C , 15-H ) :   0.9135 B(  1-C , 16-H ) :   0.1552 B(  1-C , 17-H ) :   0.1872
B(  1-C , 18-H ) :   0.1845 B(  2-N ,  4-H ) :   0.1455 B(  2-N ,  5-H ) :   0.1057
B(  2-N ,  6-C ) :   1.0969 B(  2-N ,  7-N ) :   0.2197 B(  2-N ,  8-C ) :   0.2874
B(  2-N , 11-H ) :   1.2008 B(  3-C , 16-H ) :   0.8487 B(  3-C , 17-H ) :   0.8540
B(  3-C , 18-H ) :   0.8140 B(  6-C ,  7-N ) :   0.9289 B(  6-C ,  8-C ) :   1.8547
B(  6-C ,  9-H ) :   0.2538 B(  6-C , 10-H ) :   0.1987 B(  6-C , 11-H ) :  -0.2576
B(  7-N ,  8-C ) :   0.2268 B(  7-N , 12-H ) :   1.0720 B(  7-N , 13-H ) :   1.1975
B(  8-C ,  9-H ) :   0.6861 B(  8-C , 10-H ) :   0.7988 B(  9-H , 10-H ) :   0.1352
B( 12-H , 13-H ) :  -0.1268

FINAL SINGLE POINT ENERGY      -305.999267521727

DIPOLE MOMENT
-------------
                                X             Y             Z
Electronic contribution:      4.82414       1.90081       0.03903
Nuclear contribution   :     -5.52083      -1.22643       0.74108
                        -----------------------------------------
Total Dipole Moment    :     -0.69669       0.67438       0.78010
                        -----------------------------------------
Magnitude (a.u.)       :      1.24448
Magnitude (Debye)      :      3.16322

Rotational constants in cm-1:     0.181479     0.044588     0.039739
Rotational constants in MHz :  5440.604457  1336.706831  1191.355312

                             ****ORCA TERMINATED NORMALLY****
TOTAL RUN TIME: 0 days 0 hours 0 minutes 37 seconds 853 msec
