                         Program Version 5.0.0 -  RELEASE  -
|  1> !LC-PBE RIJCOSX def2-SVPD def2/J TightSCF xyzfile
|  2>
|  3> *xyzfile 0 1 D1.xyz
|  4>
|  5> %MaxCore 64000
|  6>
|  7> %pal nprocs 4
|  8> end
|  9>
| 10> %scf
| 11>   MaxIter 150
| 12> end
| 13>
| 14>
| 15>                          ****END OF INPUT****

CARTESIAN COORDINATES (ANGSTROEM)
---------------------------------
  C      1.635557   -1.670396   -5.292109
  C      0.338484   -1.500907   -4.505398
  C      2.484511   -0.507410   -5.140392
  C     -0.684873   -0.528026   -5.099889
  C     -0.290406    0.951335   -5.153423
  H      0.607991    1.070692   -5.764412
  C     -0.055168    1.619420   -3.788577
  H     -1.080912    1.483775   -5.689436
  H      0.045006    0.862302   -3.003015
  H     -0.922936    2.230329   -3.517028
  C      1.223022    2.469865   -3.756911
  H      1.114701    3.258074   -4.532999
  H      1.237732    3.011242   -2.792157
  F      2.353815    1.712032   -3.934477
  H      1.398337   -1.829239   -6.352591
  H      2.155864   -2.565398   -4.932091
  C      3.451149   -0.149530   -5.952589
  N      3.922667    1.089559   -5.850711
  N      3.966162   -1.006183   -6.867880
  H      3.521391   -1.906467   -6.995270
  H      4.444824   -0.623472   -7.670348
  H      2.251995    0.240804   -4.498792
  H      3.464277    1.640782   -5.136392
  H      4.834470    1.313745   -6.224653
  H     -0.937999   -0.869056   -6.110838
  H     -1.604638   -0.622496   -4.513132
  H      0.594887   -1.211578   -3.482312
  H     -0.126530   -2.487656   -4.434176

 Total Charge           Charge          ....    0
 Multiplicity           Mult            ....    1
 Number of Electrons    NEL             ....   88
 Basis Dimension        Dim             ....  359

ORBITAL ENERGIES
----------------

  NO   OCC          E(Eh)            E(eV)
   0   2.0000     -24.522870      -667.3012
   1   2.0000     -14.214820      -386.8049
   2   2.0000     -14.197847      -386.3431
   3   2.0000     -10.219094      -278.0757
   4   2.0000     -10.151823      -276.2451
   5   2.0000     -10.135394      -275.7981
   6   2.0000     -10.117337      -275.3067
   7   2.0000     -10.114304      -275.2242
   8   2.0000     -10.104964      -274.9701
   9   2.0000     -10.093833      -274.6672
  10   2.0000     -10.021838      -272.7081
  11   2.0000      -1.376005       -37.4430
  12   2.0000      -1.109102       -30.1802
  13   2.0000      -1.013113       -27.5682
  14   2.0000      -0.985544       -26.8180
  15   2.0000      -0.948146       -25.8004
  16   2.0000      -0.893443       -24.3118
  17   2.0000      -0.855813       -23.2879
  18   2.0000      -0.798878       -21.7386
  19   2.0000      -0.765840       -20.8396
  20   2.0000      -0.731578       -19.9073
  21   2.0000      -0.709485       -19.3061
  22   2.0000      -0.689447       -18.7608
  23   2.0000      -0.671312       -18.2673
  24   2.0000      -0.657716       -17.8974
  25   2.0000      -0.650175       -17.6922
  26   2.0000      -0.633563       -17.2401
  27   2.0000      -0.603318       -16.4171
  28   2.0000      -0.584752       -15.9119
  29   2.0000      -0.578045       -15.7294
  30   2.0000      -0.558559       -15.1992
  31   2.0000      -0.543800       -14.7976
  32   2.0000      -0.531486       -14.4625
  33   2.0000      -0.519281       -14.1304
  34   2.0000      -0.496702       -13.5159
  35   2.0000      -0.493782       -13.4365
  36   2.0000      -0.482092       -13.1184
  37   2.0000      -0.467438       -12.7196
  38   2.0000      -0.448152       -12.1948
  39   2.0000      -0.434490       -11.8231
  40   2.0000      -0.429401       -11.6846
  41   2.0000      -0.416418       -11.3313
  42   2.0000      -0.381384       -10.3780
  43   2.0000      -0.259851        -7.0709
  44   0.0000       0.089136         2.4255
  45   0.0000       0.101960         2.7745
  46   0.0000       0.106597         2.9006
  47   0.0000       0.116350         3.1660
  48   0.0000       0.128555         3.4982

MULLIKEN ATOMIC CHARGES
-----------------------
   0 C :    0.178043
   1 C :    0.194510
   2 C :    0.029849
   3 C :    0.030546
   4 C :   -0.028284
   5 H :    0.071102
   6 C :   -0.138410
   7 H :   -0.142850
   8 H :    0.048133
   9 H :   -0.115446
  10 C :    0.782056
  11 H :    0.018206
  12 H :    0.023417
  13 F :   -0.677819
  14 H :    0.100376
  15 H :   -0.095633
  16 C :    0.490612
  17 N :    0.096029
  18 N :   -0.169365
  19 H :    0.012618
  20 H :   -0.099862
  21 H :   -0.485424
  22 H :    0.013226
  23 H :   -0.227403
  24 H :    0.166111
  25 H :   -0.039538
  26 H :    0.060107
  27 H :   -0.094906
Sum of atomic charges:    0.0000000

LOEWDIN ATOMIC CHARGES
----------------------
   0 C :   -0.078938
   1 C :   -0.061100
   2 C :   -0.040596
   3 C :   -0.047646
   4 C :   -0.043734
   5 H :    0.021997
   6 C :   -0.023428
   7 H :    0.028579
   8 H :    0.029091
   9 H :    0.040096
  10 C :    0.130132
  11 H :    0.058416
  12 H :    0.048380
  13 F :   -0.210743
  14 H :    0.029798
  15 H :    0.029948
  16 C :   -0.209200
  17 N :    0.178850
  18 N :    0.183563
  19 H :   -0.009447
  20 H :   -0.005345
  21 H :   -0.106336
  22 H :   -0.062790
  23 H :    0.002064
  24 H :    0.035041
  25 H :    0.030632
  26 H :    0.025347
  27 H :    0.027368

  Mayer bond orders larger than 0.100000
B(  0-C ,  1-C ) :   1.1949 B(  0-C ,  2-C ) :   0.8503 B(  0-C , 14-H ) :   0.7889
B(  0-C , 15-H ) :   0.7196 B(  0-C , 21-H ) :   0.4245 B(  0-C , 26-H ) :   0.1402
B(  0-C , 27-H ) :   0.1834 B(  1-C ,  2-C ) :   0.2274 B(  1-C ,  3-C ) :   1.2397
B(  1-C , 21-H ) :  -0.1543 B(  1-C , 24-H ) :   0.1330 B(  1-C , 25-H ) :   0.1540
B(  1-C , 26-H ) :   0.7566 B(  1-C , 27-H ) :   0.8197 B(  2-C ,  5-H ) :  -0.1053
B(  2-C , 13-F ) :  -0.1032 B(  2-C , 14-H ) :   0.1694 B(  2-C , 15-H ) :   0.2829
B(  2-C , 16-C ) :   1.9421 B(  2-C , 17-N ) :   0.4039 B(  2-C , 18-N ) :   0.2497
B(  2-C , 19-H ) :  -0.1297 B(  2-C , 21-H ) :   0.3805 B(  3-C ,  4-C ) :   1.2974
B(  3-C ,  5-H ) :   0.1352 B(  3-C ,  7-H ) :   0.1218 B(  3-C , 24-H ) :   0.7084
B(  3-C , 25-H ) :   0.8918 B(  3-C , 26-H ) :   0.1375 B(  3-C , 27-H ) :   0.1267
B(  4-C ,  5-H ) :   0.8404 B(  4-C ,  6-C ) :   1.2164 B(  4-C ,  7-H ) :   0.8962
B(  4-C ,  8-H ) :   0.1103 B(  4-C ,  9-H ) :   0.1306 B(  4-C , 24-H ) :   0.1848
B(  5-H , 21-H ) :   0.1277 B(  6-C ,  8-H ) :   0.8811 B(  6-C ,  9-H ) :   0.9846
B(  6-C , 10-C ) :   1.1731 B(  6-C , 12-H ) :   0.1378 B(  6-C , 13-F ) :   0.1159
B( 10-C , 11-H ) :   0.8552 B( 10-C , 12-H ) :   0.8312 B( 10-C , 13-F ) :   0.7039
B( 11-H , 13-F ) :   0.2236 B( 13-F , 22-H ) :   0.1059 B( 14-H , 21-H ) :   0.1121
B( 16-C , 17-N ) :   0.7306 B( 16-C , 18-N ) :   0.9167 B( 16-C , 21-H ) :   0.1778
B( 16-C , 23-H ) :  -0.1611 B( 17-N , 22-H ) :   1.0808 B( 17-N , 23-H ) :   1.2928
B( 18-N , 19-H ) :   1.0690 B( 18-N , 20-H ) :   1.2044 B( 19-H , 20-H ) :  -0.1305
B( 21-H , 27-H ) :  -0.1095 B( 22-H , 23-H ) :  -0.1593

FINAL SINGLE POINT ENERGY      -522.393463077745

DIPOLE MOMENT
-------------
                                X             Y             Z
Electronic contribution:      7.76750       3.84703       1.14908
Nuclear contribution   :     -8.11591      -2.99033      -1.35383
                        -----------------------------------------
Total Dipole Moment    :     -0.34841       0.85670      -0.20476
                        -----------------------------------------
Magnitude (a.u.)       :      0.94723
Magnitude (Debye)      :      2.40767

Rotational constants in cm-1:     0.043530     0.028984     0.019589
Rotational constants in MHz :  1305.007140   868.923804   587.262638

                             ****ORCA TERMINATED NORMALLY****
TOTAL RUN TIME: 0 days 0 hours 2 minutes 7 seconds 787 msec
