                         Program Version 5.0.0 -  RELEASE  -
|  1> !BLYP D3BJ RIJCOSX def2-SVPD def2/J TightSCF
|  2> *xyz -1 1
|  3> C          4.90646       -3.10282       -5.95484
|  4> C          3.51177       -2.80621       -6.49228
|  5> H          2.73604       -3.37345       -5.97374
|  6> H          3.44490       -3.04083       -7.55528
|  7> S          3.00462       -1.09621       -6.38926
|  8> O          4.12886       -0.32965       -6.95372
|  9> O          1.78128       -1.00078       -7.13640
| 10> O          2.85155       -0.78368       -4.95679
| 11> H          5.62703       -2.52424       -6.49422
| 12> H          5.12164       -4.14387       -6.07654
| 13> H          4.95004       -2.84862       -4.91639
| 14> *
| 15>
| 16> %MaxCore 64000
| 17>
| 18> %pal nprocs 4
| 19> end
| 20>
| 21> %scf
| 22>   MaxIter 150
| 23> end
| 24>
| 25>
| 26>                          ****END OF INPUT****

CARTESIAN COORDINATES (ANGSTROEM)
---------------------------------
  C      4.906460   -3.102820   -5.954840
  C      3.511770   -2.806210   -6.492280
  H      2.736040   -3.373450   -5.973740
  H      3.444900   -3.040830   -7.555280
  S      3.004620   -1.096210   -6.389260
  O      4.128860   -0.329650   -6.953720
  O      1.781280   -1.000780   -7.136400
  O      2.851550   -0.783680   -4.956790
  H      5.627030   -2.524240   -6.494220
  H      5.121640   -4.143870   -6.076540
  H      4.950040   -2.848620   -4.916390

 Total Charge           Charge          ....   -1
 Multiplicity           Mult            ....    1
 Number of Electrons    NEL             ....   58
 Basis Dimension        Dim             ....  176

ORBITAL ENERGIES
----------------

  NO   OCC          E(Eh)            E(eV)
   0   2.0000     -88.127113     -2398.0607
   1   2.0000     -18.573265      -505.4042
   2   2.0000     -18.562179      -505.1026
   3   2.0000     -18.561831      -505.0931
   4   2.0000      -9.785819      -266.2857
   5   2.0000      -9.780871      -266.1510
   6   2.0000      -7.663991      -208.5478
   7   2.0000      -5.699107      -155.0806
   8   2.0000      -5.699017      -155.0781
   9   2.0000      -5.698186      -155.0555
  10   2.0000      -0.832206       -22.6455
  11   2.0000      -0.696256       -18.9461
  12   2.0000      -0.676203       -18.4004
  13   2.0000      -0.552582       -15.0365
  14   2.0000      -0.438619       -11.9354
  15   2.0000      -0.319166        -8.6850
  16   2.0000      -0.268276        -7.3002
  17   2.0000      -0.257697        -7.0123
  18   2.0000      -0.225390        -6.1332
  19   2.0000      -0.207831        -5.6554
  20   2.0000      -0.203402        -5.5349
  21   2.0000      -0.184136        -5.0106
  22   2.0000      -0.169386        -4.6092
  23   2.0000      -0.098628        -2.6838
  24   2.0000      -0.097460        -2.6520
  25   2.0000      -0.067730        -1.8430
  26   2.0000      -0.060830        -1.6553
  27   2.0000      -0.052929        -1.4403
  28   2.0000      -0.015215        -0.4140
  29   0.0000       0.125453         3.4137
  30   0.0000       0.154133         4.1942
  31   0.0000       0.165341         4.4992
  32   0.0000       0.171188         4.6583
  33   0.0000       0.193135         5.2555

MULLIKEN ATOMIC CHARGES
-----------------------
   0 C :    1.176895
   1 C :   -0.069268
   2 H :   -0.221710
   3 H :   -0.188218
   4 S :    1.145947
   5 O :   -0.767155
   6 O :   -0.716948
   7 O :   -0.763838
   8 H :   -0.169261
   9 H :   -0.249409
  10 H :   -0.177034
Sum of atomic charges:   -1.0000000

LOEWDIN ATOMIC CHARGES
----------------------
   0 C :    0.117078
   1 C :   -0.136490
   2 H :   -0.001678
   3 H :   -0.004670
   4 S :    0.811078
   5 O :   -0.568052
   6 O :   -0.553823
   7 O :   -0.572101
   8 H :   -0.027994
   9 H :   -0.040873
  10 H :   -0.022474

  Mayer bond orders larger than 0.100000
B(  0-C ,  1-C ) :   1.2707 B(  0-C ,  3-H ) :   0.1141 B(  0-C ,  8-H ) :   0.7236
B(  0-C ,  9-H ) :   0.6042 B(  0-C , 10-H ) :   0.7108 B(  1-C ,  2-H ) :   0.9102
B(  1-C ,  3-H ) :   0.9194 B(  1-C ,  4-S ) :   0.8887 B(  1-C ,  8-H ) :   0.2582
B(  1-C ,  9-H ) :   0.3065 B(  1-C , 10-H ) :   0.2501 B(  4-S ,  5-O ) :   1.3066
B(  4-S ,  6-O ) :   1.3781 B(  4-S ,  7-O ) :   1.3091

Dispersion correction           -0.020546471
FINAL SINGLE POINT ENERGY      -702.712344537965

DIPOLE MOMENT
-------------
                                X             Y             Z
Electronic contribution:     -4.36056       6.40424      -0.65979
Nuclear contribution   :      5.05690      -8.21735       0.57889
                        -----------------------------------------
Total Dipole Moment    :      0.69634      -1.81312      -0.08090
                        -----------------------------------------
Magnitude (a.u.)       :      1.94392
Magnitude (Debye)      :      4.94105

Rotational constants in cm-1:     0.162547     0.083494     0.081672
Rotational constants in MHz :  4873.033504  2503.090885  2448.458543

                             ****ORCA TERMINATED NORMALLY****
TOTAL RUN TIME: 0 days 0 hours 0 minutes 5 seconds 829 msec
