                         Program Version 5.0.0 -  RELEASE  -
|  1> !BLYP D3BJ RIJCOSX def2-SVPD def2/J TightSCF
|  2> *xyz 1 1
|  3> C          4.49059        1.15590       -2.46929
|  4> N          4.30539        1.22276       -3.90832
|  5> C          4.63192        2.24637       -4.67096
|  6> N          4.54169        2.14399       -5.98714
|  7> N          5.08409        3.39358       -4.11855
|  8> H          4.92067        3.57050       -3.13587
|  9> H          5.25465        4.19739       -4.70696
| 10> H          3.82453        0.44911       -4.35093
| 11> H          4.34337        1.24932       -6.41665
| 12> H          4.67671        2.95662       -6.57411
| 13> C          5.94213        0.93950       -2.03689
| 14> H          3.86431        0.32853       -2.13661
| 15> H          4.07623        2.04999       -1.98901
| 16> H          6.32982        0.06401       -2.51451
| 17> H          5.98308        0.81426       -0.97504
| 18> H          6.52865        1.78889       -2.31873
| 19> *
| 20>
| 21> %MaxCore 64000
| 22>
| 23> %pal nprocs 4
| 24> end
| 25>
| 26> %scf
| 27>   MaxIter 150
| 28> end
| 29>
| 30>
| 31>                          ****END OF INPUT****

CARTESIAN COORDINATES (ANGSTROEM)
---------------------------------
  C      4.490590    1.155900   -2.469290
  N      4.305390    1.222760   -3.908320
  C      4.631920    2.246370   -4.670960
  N      4.541690    2.143990   -5.987140
  N      5.084090    3.393580   -4.118550
  H      4.920670    3.570500   -3.135870
  H      5.254650    4.197390   -4.706960
  H      3.824530    0.449110   -4.350930
  H      4.343370    1.249320   -6.416650
  H      4.676710    2.956620   -6.574110
  C      5.942130    0.939500   -2.036890
  H      3.864310    0.328530   -2.136610
  H      4.076230    2.049990   -1.989010
  H      6.329820    0.064010   -2.514510
  H      5.983080    0.814260   -0.975040
  H      6.528650    1.788890   -2.318730

 Total Charge           Charge          ....    1
 Multiplicity           Mult            ....    1
 Number of Electrons    NEL             ....   48
 Basis Dimension        Dim             ....  200

ORBITAL ENERGIES
----------------

  NO   OCC          E(Eh)            E(eV)
   0   2.0000     -14.246995      -387.6804
   1   2.0000     -14.246394      -387.6641
   2   2.0000     -14.244632      -387.6161
   3   2.0000     -10.247591      -278.8511
   4   2.0000     -10.129212      -275.6299
   5   2.0000     -10.058916      -273.7170
   6   2.0000      -1.115323       -30.3495
   7   2.0000      -1.013494       -27.5786
   8   2.0000      -0.999049       -27.1855
   9   2.0000      -0.849775       -23.1236
  10   2.0000      -0.775037       -21.0898
  11   2.0000      -0.736218       -20.0335
  12   2.0000      -0.727181       -19.7876
  13   2.0000      -0.683267       -18.5926
  14   2.0000      -0.640061       -17.4169
  15   2.0000      -0.638492       -17.3742
  16   2.0000      -0.607408       -16.5284
  17   2.0000      -0.573109       -15.5951
  18   2.0000      -0.552718       -15.0402
  19   2.0000      -0.510637       -13.8951
  20   2.0000      -0.484745       -13.1906
  21   2.0000      -0.466798       -12.7022
  22   2.0000      -0.431668       -11.7463
  23   2.0000      -0.409913       -11.1543
  24   0.0000      -0.199280        -5.4227
  25   0.0000      -0.178516        -4.8577
  26   0.0000      -0.145822        -3.9680
  27   0.0000      -0.139592        -3.7985
  28   0.0000      -0.118891        -3.2352

MULLIKEN ATOMIC CHARGES
-----------------------
   0 C :    0.516883
   1 N :   -0.155514
   2 C :    1.066561
   3 N :    0.241521
   4 N :    0.243866
   5 H :   -0.096714
   6 H :   -0.254297
   7 H :   -0.291812
   8 H :   -0.133480
   9 H :   -0.122126
  10 C :    1.076136
  11 H :   -0.506204
  12 H :   -0.120310
  13 H :   -0.179159
  14 H :   -0.127391
  15 H :   -0.157960
Sum of atomic charges:    1.0000000

LOEWDIN ATOMIC CHARGES
----------------------
   0 C :    0.040710
   1 N :    0.060258
   2 C :   -0.059194
   3 N :    0.281491
   4 N :    0.302015
   5 H :    0.011552
   6 H :    0.030765
   7 H :    0.057617
   8 H :    0.036853
   9 H :    0.035968
  10 C :    0.177367
  11 H :    0.036788
  12 H :    0.024754
  13 H :   -0.008743
  14 H :   -0.001060
  15 H :   -0.027141

  Mayer bond orders larger than 0.100000
B(  0-C ,  1-N ) :   1.0123 B(  0-C ,  2-C ) :  -0.1300 B(  0-C ,  7-H ) :  -0.1564
B(  0-C , 10-C ) :   1.2594 B(  0-C , 11-H ) :   0.7440 B(  0-C , 12-H ) :   0.8173
B(  0-C , 13-H ) :   0.3051 B(  0-C , 14-H ) :   0.2023 B(  0-C , 15-H ) :   0.2400
B(  1-N ,  2-C ) :   1.0858 B(  1-N ,  3-N ) :   0.2666 B(  1-N ,  4-N ) :   0.2506
B(  1-N ,  7-H ) :   1.2577 B(  1-N , 11-H ) :   0.2136 B(  1-N , 12-H ) :   0.1087
B(  2-C ,  3-N ) :   0.9323 B(  2-C ,  4-N ) :   0.9886 B(  2-C ,  5-H ) :  -0.1477
B(  2-C ,  6-H ) :  -0.1889 B(  2-C ,  7-H ) :  -0.2823 B(  2-C ,  8-H ) :  -0.1873
B(  2-C ,  9-H ) :  -0.1528 B(  3-N ,  4-N ) :   0.1679 B(  3-N ,  8-H ) :   1.2071
B(  3-N ,  9-H ) :   1.2344 B(  4-N ,  5-H ) :   1.1015 B(  4-N ,  6-H ) :   1.2748
B(  5-H ,  6-H ) :  -0.2265 B(  8-H ,  9-H ) :  -0.1964 B( 10-C , 13-H ) :   0.6997
B( 10-C , 14-H ) :   0.7517 B( 10-C , 15-H ) :   0.7307

Dispersion correction           -0.025127171
FINAL SINGLE POINT ENERGY      -284.108566886727

DIPOLE MOMENT
-------------
                                X             Y             Z
Electronic contribution:     -1.79918       1.56924      -4.44390
Nuclear contribution   :      1.34333      -1.11039       3.43667
                        -----------------------------------------
Total Dipole Moment    :     -0.45586       0.45885      -1.00723
                        -----------------------------------------
Magnitude (a.u.)       :      1.19702
Magnitude (Debye)      :      3.04260

Rotational constants in cm-1:     0.227161     0.075356     0.065003
Rotational constants in MHz :  6810.114531  2259.122204  1948.738523

                             ****ORCA TERMINATED NORMALLY****
TOTAL RUN TIME: 0 days 0 hours 0 minutes 7 seconds 489 msec
