                         Program Version 5.0.0 -  RELEASE  -
|  1> !BLYP D3BJ RIJCOSX def2-SVPD def2/J TightSCF
|  2> *xyz 0 1
|  3> C          4.90646       -3.10282       -5.95484
|  4> C          3.51177       -2.80621       -6.49228
|  5> H          2.73604       -3.37345       -5.97374
|  6> H          3.44490       -3.04083       -7.55528
|  7> S          3.00462       -1.09621       -6.38926
|  8> F          4.12886       -0.32965       -6.95372
|  9> O          1.78128       -1.00078       -7.13640
| 10> O          2.85155       -0.78368       -4.95679
| 11> H          5.62703       -2.52424       -6.49422
| 12> H          5.12164       -4.14387       -6.07654
| 13> H          4.95004       -2.84862       -4.91639
| 14> *
| 15>
| 16> %MaxCore 64000
| 17>
| 18> %pal nprocs 4
| 19> end
| 20>
| 21> %scf
| 22>   MaxIter 150
| 23> end
| 24>
| 25>
| 26>                          ****END OF INPUT****

CARTESIAN COORDINATES (ANGSTROEM)
---------------------------------
  C      4.906460   -3.102820   -5.954840
  C      3.511770   -2.806210   -6.492280
  H      2.736040   -3.373450   -5.973740
  H      3.444900   -3.040830   -7.555280
  S      3.004620   -1.096210   -6.389260
  F      4.128860   -0.329650   -6.953720
  O      1.781280   -1.000780   -7.136400
  O      2.851550   -0.783680   -4.956790
  H      5.627030   -2.524240   -6.494220
  H      5.121640   -4.143870   -6.076540
  H      4.950040   -2.848620   -4.916390

 Total Charge           Charge          ....    0
 Multiplicity           Mult            ....    1
 Number of Electrons    NEL             ....   58
 Basis Dimension        Dim             ....  176

ORBITAL ENERGIES
----------------

  NO   OCC          E(Eh)            E(eV)
   0   2.0000     -88.380605     -2404.9585
   1   2.0000     -24.404164      -664.0711
   2   2.0000     -18.804601      -511.6992
   3   2.0000     -18.793173      -511.3882
   4   2.0000      -9.986452      -271.7452
   5   2.0000      -9.949128      -270.7295
   6   2.0000      -7.918489      -215.4731
   7   2.0000      -5.957792      -162.1198
   8   2.0000      -5.951467      -161.9476
   9   2.0000      -5.949736      -161.9006
  10   2.0000      -1.240158       -33.7464
  11   2.0000      -1.016158       -27.6511
  12   2.0000      -0.918079       -24.9822
  13   2.0000      -0.747924       -20.3520
  14   2.0000      -0.653616       -17.7858
  15   2.0000      -0.609076       -16.5738
  16   2.0000      -0.522589       -14.2204
  17   2.0000      -0.501827       -13.6554
  18   2.0000      -0.484689       -13.1891
  19   2.0000      -0.445305       -12.1174
  20   2.0000      -0.423393       -11.5211
  21   2.0000      -0.403471       -10.9790
  22   2.0000      -0.388459       -10.5705
  23   2.0000      -0.367057        -9.9881
  24   2.0000      -0.355218        -9.6660
  25   2.0000      -0.333292        -9.0693
  26   2.0000      -0.291520        -7.9327
  27   2.0000      -0.280239        -7.6257
  28   2.0000      -0.262655        -7.1472
  29   0.0000      -0.031648        -0.8612
  30   0.0000       0.004069         0.1107
  31   0.0000       0.015648         0.4258
  32   0.0000       0.019525         0.5313
  33   0.0000       0.027765         0.7555

MULLIKEN ATOMIC CHARGES
-----------------------
   0 C :    1.196777
   1 C :   -0.080949
   2 H :   -0.168120
   3 H :   -0.144948
   4 S :    1.310979
   5 F :   -0.375711
   6 O :   -0.575753
   7 O :   -0.625732
   8 H :   -0.165992
   9 H :   -0.216297
  10 H :   -0.154253
Sum of atomic charges:    0.0000000

LOEWDIN ATOMIC CHARGES
----------------------
   0 C :    0.147589
   1 C :   -0.089271
   2 H :    0.032460
   3 H :    0.016587
   4 S :    1.074654
   5 F :   -0.255596
   6 O :   -0.438912
   7 O :   -0.455283
   8 H :   -0.015445
   9 H :   -0.009624
  10 H :   -0.007157

  Mayer bond orders larger than 0.100000
B(  0-C ,  1-C ) :   1.3004 B(  0-C ,  3-H ) :   0.1045 B(  0-C ,  8-H ) :   0.7173
B(  0-C ,  9-H ) :   0.6071 B(  0-C , 10-H ) :   0.7197 B(  1-C ,  2-H ) :   0.9135
B(  1-C ,  3-H ) :   0.9249 B(  1-C ,  4-S ) :   0.9566 B(  1-C ,  8-H ) :   0.2441
B(  1-C ,  9-H ) :   0.2937 B(  1-C , 10-H ) :   0.2439 B(  4-S ,  5-F ) :   0.6839
B(  4-S ,  6-O ) :   1.5873 B(  4-S ,  7-O ) :   1.5201 B(  6-O ,  7-O ) :   0.1118

Dispersion correction           -0.019523440
FINAL SINGLE POINT ENERGY      -727.217180342118

DIPOLE MOMENT
-------------
                                X             Y             Z
Electronic contribution:     -3.01118       8.17994      -1.72825
Nuclear contribution   :      4.18919      -9.36357       1.23251
                        -----------------------------------------
Total Dipole Moment    :      1.17801      -1.18363      -0.49574
                        -----------------------------------------
Magnitude (a.u.)       :      1.74197
Magnitude (Debye)      :      4.42773

Rotational constants in cm-1:     0.153152     0.082513     0.079874
Rotational constants in MHz :  4591.373714  2473.673397  2394.575279

                             ****ORCA TERMINATED NORMALLY****
TOTAL RUN TIME: 0 days 0 hours 0 minutes 5 seconds 819 msec
