                         Program Version 5.0.0 -  RELEASE  -
|  1> !BLYP D3BJ RIJCOSX def2-SVPD def2/J TightSCF
|  2> *xyz 0 1
|  3> C          4.49059        1.15590       -2.46929
|  4> C          4.30539        1.22276       -3.90832
|  5> C          4.63192        2.24637       -4.67096
|  6> N          4.54169        2.14399       -5.98714
|  7> N          5.08409        3.39358       -4.11855
|  8> H          4.92067        3.57050       -3.13587
|  9> H          5.25465        4.19739       -4.70696
| 10> H          3.82453        0.44911       -4.35093
| 11> H          4.34337        1.24932       -6.41665
| 12> H          4.67671        2.95662       -6.57411
| 13> C          5.94213        0.93950       -2.03689
| 14> H          3.86431        0.32853       -2.13661
| 15> H          4.07623        2.04999       -1.98901
| 16> H          6.32982        0.06401       -2.51451
| 17> H          5.98308        0.81426       -0.97504
| 18> H          6.52865        1.78889       -2.31873
| 19> *
| 20>
| 21> %MaxCore 64000
| 22>
| 23> %pal nprocs 4
| 24> end
| 25>
| 26> %scf
| 27>   MaxIter 150
| 28> end
| 29>
| 30>
| 31>                          ****END OF INPUT****

CARTESIAN COORDINATES (ANGSTROEM)
---------------------------------
  C      4.490590    1.155900   -2.469290
  C      4.305390    1.222760   -3.908320
  C      4.631920    2.246370   -4.670960
  N      4.541690    2.143990   -5.987140
  N      5.084090    3.393580   -4.118550
  H      4.920670    3.570500   -3.135870
  H      5.254650    4.197390   -4.706960
  H      3.824530    0.449110   -4.350930
  H      4.343370    1.249320   -6.416650
  H      4.676710    2.956620   -6.574110
  C      5.942130    0.939500   -2.036890
  H      3.864310    0.328530   -2.136610
  H      4.076230    2.049990   -1.989010
  H      6.329820    0.064010   -2.514510
  H      5.983080    0.814260   -0.975040
  H      6.528650    1.788890   -2.318730

 Total Charge           Charge          ....    0
 Multiplicity           Mult            ....    1
 Number of Electrons    NEL             ....   48
 Basis Dimension        Dim             ....  200

ORBITAL ENERGIES
----------------

  NO   OCC          E(Eh)            E(eV)
   0   2.0000     -14.025944      -381.6653
   1   2.0000     -14.023889      -381.6094
   2   2.0000      -9.959396      -271.0089
   3   2.0000      -9.896046      -269.2851
   4   2.0000      -9.886092      -269.0142
   5   2.0000      -9.844113      -267.8719
   6   2.0000      -0.862263       -23.4634
   7   2.0000      -0.779242       -21.2043
   8   2.0000      -0.685763       -18.6606
   9   2.0000      -0.614779       -16.7290
  10   2.0000      -0.547707       -14.9039
  11   2.0000      -0.515045       -14.0151
  12   2.0000      -0.485734       -13.2175
  13   2.0000      -0.450207       -12.2507
  14   2.0000      -0.424622       -11.5546
  15   2.0000      -0.385214       -10.4822
  16   2.0000      -0.368263       -10.0209
  17   2.0000      -0.341310        -9.2875
  18   2.0000      -0.331688        -9.0257
  19   2.0000      -0.303752        -8.2655
  20   2.0000      -0.283179        -7.7057
  21   2.0000      -0.272423        -7.4130
  22   2.0000      -0.218819        -5.9544
  23   2.0000      -0.126556        -3.4438
  24   0.0000      -0.008152        -0.2218
  25   0.0000       0.018000         0.4898
  26   0.0000       0.028635         0.7792
  27   0.0000       0.039085         1.0635
  28   0.0000       0.054124         1.4728

MULLIKEN ATOMIC CHARGES
-----------------------
   0 C :    0.086247
   1 C :   -0.250718
   2 C :    0.888260
   3 N :    0.277181
   4 N :    0.264361
   5 H :   -0.117369
   6 H :   -0.364126
   7 H :   -0.571818
   8 H :   -0.122956
   9 H :   -0.253984
  10 C :    1.034110
  11 H :   -0.189645
  12 H :   -0.167117
  13 H :   -0.173461
  14 H :   -0.159410
  15 H :   -0.179555
Sum of atomic charges:   -0.0000000

LOEWDIN ATOMIC CHARGES
----------------------
   0 C :   -0.096981
   1 C :   -0.029999
   2 C :   -0.229933
   3 N :    0.197419
   4 N :    0.225742
   5 H :   -0.019312
   6 H :   -0.020294
   7 H :   -0.055974
   8 H :    0.002478
   9 H :   -0.017129
  10 C :    0.133094
  11 H :    0.009395
  12 H :   -0.001644
  13 H :   -0.024803
  14 H :   -0.033647
  15 H :   -0.038412

  Mayer bond orders larger than 0.100000
B(  0-C ,  1-C ) :   1.2389 B(  0-C ,  7-H ) :   0.3729 B(  0-C , 10-C ) :   1.2352
B(  0-C , 11-H ) :   0.6976 B(  0-C , 12-H ) :   0.7941 B(  0-C , 13-H ) :   0.2335
B(  0-C , 14-H ) :   0.2223 B(  0-C , 15-H ) :   0.2656 B(  1-C ,  2-C ) :   1.3197
B(  1-C ,  3-N ) :   0.4364 B(  1-C ,  4-N ) :   0.2774 B(  1-C ,  7-H ) :   0.8255
B(  1-C , 11-H ) :   0.4026 B(  1-C , 12-H ) :   0.2101 B(  2-C ,  3-N ) :   0.8883
B(  2-C ,  4-N ) :   1.0249 B(  2-C ,  6-H ) :  -0.1767 B(  2-C ,  8-H ) :  -0.1048
B(  3-N ,  4-N ) :   0.1153 B(  3-N ,  7-H ) :   0.1048 B(  3-N ,  8-H ) :   1.1903
B(  3-N ,  9-H ) :   1.2173 B(  4-N ,  5-H ) :   1.0818 B(  4-N ,  6-H ) :   1.2983
B(  5-H ,  6-H ) :  -0.2069 B(  7-H , 11-H ) :  -0.1382 B(  8-H ,  9-H ) :  -0.1846
B( 10-C , 13-H ) :   0.7552 B( 10-C , 14-H ) :   0.7380 B( 10-C , 15-H ) :   0.7198

Dispersion correction           -0.026253614
FINAL SINGLE POINT ENERGY      -267.627072517523

DIPOLE MOMENT
-------------
                                X             Y             Z
Electronic contribution:     -1.26953       1.96070      -4.13586
Nuclear contribution   :      1.23062      -1.24683       3.43056
                        -----------------------------------------
Total Dipole Moment    :     -0.03891       0.71387      -0.70529
                        -----------------------------------------
Magnitude (a.u.)       :      1.00427
Magnitude (Debye)      :      2.55266

Rotational constants in cm-1:     0.231477     0.075416     0.065327
Rotational constants in MHz :  6939.497385  2260.912204  1958.442932

                             ****ORCA TERMINATED NORMALLY****
TOTAL RUN TIME: 0 days 0 hours 0 minutes 8 seconds 596 msec
