                         Program Version 5.0.0 -  RELEASE  -
|  1> !BLYP D3BJ RIJCOSX def2-SVPD def2/J TightSCF
|  2> *xyz 0 1
|  3> C          4.90646       -3.10282       -5.95484
|  4> C          3.51177       -2.80621       -6.49228
|  5> H          2.73604       -3.37345       -5.97374
|  6> H          3.44490       -3.04083       -7.55528
|  7> S          3.00462       -1.09621       -6.38926
|  8> O          4.12886       -0.32965       -6.95372
|  9> F          1.78128       -1.00078       -7.13640
| 10> O          2.85155       -0.78368       -4.95679
| 11> H          5.62703       -2.52424       -6.49422
| 12> H          5.12164       -4.14387       -6.07654
| 13> H          4.95004       -2.84862       -4.91639
| 14> *
| 15>
| 16> %MaxCore 64000
| 17>
| 18> %pal nprocs 4
| 19> end
| 20>
| 21> %scf
| 22>   MaxIter 150
| 23> end
| 24>
| 25>
| 26>                          ****END OF INPUT****

CARTESIAN COORDINATES (ANGSTROEM)
---------------------------------
  C      4.906460   -3.102820   -5.954840
  C      3.511770   -2.806210   -6.492280
  H      2.736040   -3.373450   -5.973740
  H      3.444900   -3.040830   -7.555280
  S      3.004620   -1.096210   -6.389260
  O      4.128860   -0.329650   -6.953720
  F      1.781280   -1.000780   -7.136400
  O      2.851550   -0.783680   -4.956790
  H      5.627030   -2.524240   -6.494220
  H      5.121640   -4.143870   -6.076540
  H      4.950040   -2.848620   -4.916390

 Total Charge           Charge          ....    0
 Multiplicity           Mult            ....    1
 Number of Electrons    NEL             ....   58
 Basis Dimension        Dim             ....  176

ORBITAL ENERGIES
----------------

  NO   OCC          E(Eh)            E(eV)
   0   2.0000     -88.382599     -2405.0128
   1   2.0000     -24.421790      -664.5507
   2   2.0000     -18.793264      -511.3907
   3   2.0000     -18.793229      -511.3898
   4   2.0000      -9.987337      -271.7693
   5   2.0000      -9.944974      -270.6165
   6   2.0000      -7.920461      -215.5267
   7   2.0000      -5.959867      -162.1762
   8   2.0000      -5.953263      -161.9965
   9   2.0000      -5.951596      -161.9511
  10   2.0000      -1.270259       -34.5655
  11   2.0000      -1.003463       -27.3056
  12   2.0000      -0.904770       -24.6201
  13   2.0000      -0.745393       -20.2832
  14   2.0000      -0.667435       -18.1618
  15   2.0000      -0.610575       -16.6146
  16   2.0000      -0.524742       -14.2789
  17   2.0000      -0.523224       -14.2377
  18   2.0000      -0.495571       -13.4852
  19   2.0000      -0.446064       -12.1380
  20   2.0000      -0.426292       -11.6000
  21   2.0000      -0.389099       -10.5879
  22   2.0000      -0.385625       -10.4934
  23   2.0000      -0.364865        -9.9285
  24   2.0000      -0.346447        -9.4273
  25   2.0000      -0.328754        -8.9459
  26   2.0000      -0.281058        -7.6480
  27   2.0000      -0.277256        -7.5445
  28   2.0000      -0.251939        -6.8556
  29   0.0000      -0.026973        -0.7340
  30   0.0000      -0.006479        -0.1763
  31   0.0000       0.015999         0.4353
  32   0.0000       0.022794         0.6203
  33   0.0000       0.028066         0.7637

MULLIKEN ATOMIC CHARGES
-----------------------
   0 C :    1.178598
   1 C :   -0.107799
   2 H :   -0.163609
   3 H :   -0.133111
   4 S :    1.339706
   5 O :   -0.617819
   6 F :   -0.362073
   7 O :   -0.615014
   8 H :   -0.147560
   9 H :   -0.214024
  10 H :   -0.157294
Sum of atomic charges:   -0.0000000

LOEWDIN ATOMIC CHARGES
----------------------
   0 C :    0.162328
   1 C :   -0.101759
   2 H :    0.018414
   3 H :    0.014172
   4 S :    1.079213
   5 O :   -0.455464
   6 F :   -0.240953
   7 O :   -0.456392
   8 H :   -0.008763
   9 H :   -0.007351
  10 H :   -0.003445

  Mayer bond orders larger than 0.100000
B(  0-C ,  1-C ) :   1.3443 B(  0-C ,  3-H ) :   0.1147 B(  0-C ,  8-H ) :   0.7211
B(  0-C ,  9-H ) :   0.6145 B(  0-C , 10-H ) :   0.7110 B(  1-C ,  2-H ) :   0.9054
B(  1-C ,  3-H ) :   0.9042 B(  1-C ,  4-S ) :   0.9330 B(  1-C ,  8-H ) :   0.2523
B(  1-C ,  9-H ) :   0.2931 B(  1-C , 10-H ) :   0.2433 B(  4-S ,  5-O ) :   1.5122
B(  4-S ,  6-F ) :   0.7419 B(  4-S ,  7-O ) :   1.5092

Dispersion correction           -0.019640129
FINAL SINGLE POINT ENERGY      -727.202225787759

DIPOLE MOMENT
-------------
                                X             Y             Z
Electronic contribution:     -6.92108       7.07624      -2.03019
Nuclear contribution   :      6.63544      -8.66423       1.42287
                        -----------------------------------------
Total Dipole Moment    :     -0.28563      -1.58799      -0.60732
                        -----------------------------------------
Magnitude (a.u.)       :      1.72399
Magnitude (Debye)      :      4.38203

Rotational constants in cm-1:     0.158118     0.080978     0.078216
Rotational constants in MHz :  4740.271775  2427.649826  2344.849020

                             ****ORCA TERMINATED NORMALLY****
TOTAL RUN TIME: 0 days 0 hours 0 minutes 6 seconds 292 msec
