                         Program Version 5.0.0 -  RELEASE  -
|  1> !BLYP D3BJ RIJCOSX def2-SVPD def2/J TightSCF
|  2> *xyz 0 1
|  3> C          4.49059        1.15590       -2.46929
|  4> N          4.30539        1.22276       -3.90832
|  5> C          4.63192        2.24637       -4.67096
|  6> C          4.54169        2.14399       -5.98714
|  7> N          5.08409        3.39358       -4.11855
|  8> H          4.92067        3.57050       -3.13587
|  9> H          5.25465        4.19739       -4.70696
| 10> H          3.82453        0.44911       -4.35093
| 11> H          4.34337        1.24932       -6.41665
| 12> H          4.67671        2.95662       -6.57411
| 13> C          5.94213        0.93950       -2.03689
| 14> H          3.86431        0.32853       -2.13661
| 15> H          4.07623        2.04999       -1.98901
| 16> H          6.32982        0.06401       -2.51451
| 17> H          5.98308        0.81426       -0.97504
| 18> H          6.52865        1.78889       -2.31873
| 19> *
| 20>
| 21> %MaxCore 64000
| 22>
| 23> %pal nprocs 4
| 24> end
| 25>
| 26> %scf
| 27>   MaxIter 150
| 28> end
| 29>
| 30>
| 31>                          ****END OF INPUT****

CARTESIAN COORDINATES (ANGSTROEM)
---------------------------------
  C      4.490590    1.155900   -2.469290
  N      4.305390    1.222760   -3.908320
  C      4.631920    2.246370   -4.670960
  C      4.541690    2.143990   -5.987140
  N      5.084090    3.393580   -4.118550
  H      4.920670    3.570500   -3.135870
  H      5.254650    4.197390   -4.706960
  H      3.824530    0.449110   -4.350930
  H      4.343370    1.249320   -6.416650
  H      4.676710    2.956620   -6.574110
  C      5.942130    0.939500   -2.036890
  H      3.864310    0.328530   -2.136610
  H      4.076230    2.049990   -1.989010
  H      6.329820    0.064010   -2.514510
  H      5.983080    0.814260   -0.975040
  H      6.528650    1.788890   -2.318730

 Total Charge           Charge          ....    0
 Multiplicity           Mult            ....    1
 Number of Electrons    NEL             ....   48
 Basis Dimension        Dim             ....  200

ORBITAL ENERGIES
----------------

  NO   OCC          E(Eh)            E(eV)
   0   2.0000     -14.023316      -381.5938
   1   2.0000     -14.023086      -381.5876
   2   2.0000      -9.961875      -271.0764
   3   2.0000      -9.960076      -271.0274
   4   2.0000      -9.911519      -269.7061
   5   2.0000      -9.834186      -267.6018
   6   2.0000      -0.869663       -23.6647
   7   2.0000      -0.789350       -21.4793
   8   2.0000      -0.687158       -18.6985
   9   2.0000      -0.621218       -16.9042
  10   2.0000      -0.559534       -15.2257
  11   2.0000      -0.534342       -14.5402
  12   2.0000      -0.477663       -12.9979
  13   2.0000      -0.442086       -12.0298
  14   2.0000      -0.429177       -11.6785
  15   2.0000      -0.395594       -10.7647
  16   2.0000      -0.372170       -10.1273
  17   2.0000      -0.352049        -9.5797
  18   2.0000      -0.332824        -9.0566
  19   2.0000      -0.327929        -8.9234
  20   2.0000      -0.312975        -8.5165
  21   2.0000      -0.306055        -8.3282
  22   2.0000      -0.209945        -5.7129
  23   2.0000      -0.126781        -3.4499
  24   0.0000      -0.008628        -0.2348
  25   0.0000       0.016585         0.4513
  26   0.0000       0.024451         0.6654
  27   0.0000       0.033115         0.9011
  28   0.0000       0.054380         1.4798

MULLIKEN ATOMIC CHARGES
-----------------------
   0 C :    0.520320
   1 N :   -0.060526
   2 C :    0.608280
   3 C :    0.535383
   4 N :    0.405741
   5 H :   -0.202562
   6 H :   -0.278922
   7 H :   -0.345060
   8 H :   -0.428222
   9 H :   -0.535692
  10 C :    1.068251
  11 H :   -0.570181
  12 H :   -0.167109
  13 H :   -0.193424
  14 H :   -0.193185
  15 H :   -0.163092
Sum of atomic charges:    0.0000000

LOEWDIN ATOMIC CHARGES
----------------------
   0 C :    0.008285
   1 N :    0.002339
   2 C :   -0.247866
   3 C :    0.153650
   4 N :    0.222062
   5 H :   -0.033937
   6 H :   -0.002189
   7 H :    0.030741
   8 H :   -0.106201
   9 H :   -0.108929
  10 C :    0.148785
  11 H :    0.014094
  12 H :    0.003182
  13 H :   -0.021702
  14 H :   -0.026837
  15 H :   -0.035476

  Mayer bond orders larger than 0.100000
B(  0-C ,  1-N ) :   0.9795 B(  0-C ,  7-H ) :  -0.1702 B(  0-C , 10-C ) :   1.2372
B(  0-C , 11-H ) :   0.7352 B(  0-C , 12-H ) :   0.8161 B(  0-C , 13-H ) :   0.3096
B(  0-C , 14-H ) :   0.2229 B(  0-C , 15-H ) :   0.2483 B(  1-N ,  2-C ) :   1.1216
B(  1-N ,  3-C ) :   0.2525 B(  1-N ,  4-N ) :   0.1818 B(  1-N ,  7-H ) :   1.2290
B(  1-N , 11-H ) :   0.2163 B(  1-N , 12-H ) :   0.1362 B(  2-C ,  3-C ) :   1.1032
B(  2-C ,  4-N ) :   1.0026 B(  2-C ,  6-H ) :  -0.1261 B(  2-C ,  7-H ) :  -0.2310
B(  2-C ,  8-H ) :   0.1033 B(  2-C ,  9-H ) :   0.1668 B(  3-C ,  4-N ) :   0.2343
B(  3-C ,  8-H ) :   0.7404 B(  3-C ,  9-H ) :   0.6634 B(  4-N ,  5-H ) :   1.0480
B(  4-N ,  6-H ) :   1.2089 B(  4-N , 12-H ) :   0.1019 B(  5-H ,  6-H ) :  -0.2103
B(  8-H ,  9-H ) :   0.1010 B( 10-C , 13-H ) :   0.7018 B( 10-C , 14-H ) :   0.7548
B( 10-C , 15-H ) :   0.7363

Dispersion correction           -0.025952557
FINAL SINGLE POINT ENERGY      -267.619561911961

DIPOLE MOMENT
-------------
                                X             Y             Z
Electronic contribution:     -1.42219       1.07813      -1.97191
Nuclear contribution   :      1.28075      -1.05140       2.98955
                        -----------------------------------------
Total Dipole Moment    :     -0.14145       0.02673       1.01764
                        -----------------------------------------
Magnitude (a.u.)       :      1.02777
Magnitude (Debye)      :      2.61239

Rotational constants in cm-1:     0.229858     0.078444     0.067377
Rotational constants in MHz :  6890.979812  2351.691803  2019.910665

                             ****ORCA TERMINATED NORMALLY****
TOTAL RUN TIME: 0 days 0 hours 0 minutes 8 seconds 401 msec
