                         Program Version 5.0.0 -  RELEASE  -
|  1> !BLYP D3BJ RIJCOSX def2-SVPD def2/J TightSCF
|  2> *xyz 0 1
|  3> C          4.90646       -3.10282       -5.95484
|  4> C          3.51177       -2.80621       -6.49228
|  5> H          2.73604       -3.37345       -5.97374
|  6> H          3.44490       -3.04083       -7.55528
|  7> S          3.00462       -1.09621       -6.38926
|  8> O          4.12886       -0.32965       -6.95372
|  9> O          1.78128       -1.00078       -7.13640
| 10> F          2.85155       -0.78368       -4.95679
| 11> H          5.62703       -2.52424       -6.49422
| 12> H          5.12164       -4.14387       -6.07654
| 13> H          4.95004       -2.84862       -4.91639
| 14> *
| 15>
| 16> %MaxCore 64000
| 17>
| 18> %pal nprocs 4
| 19> end
| 20>
| 21> %scf
| 22>   MaxIter 150
| 23> end
| 24>
| 25>
| 26>                          ****END OF INPUT****

CARTESIAN COORDINATES (ANGSTROEM)
---------------------------------
  C      4.906460   -3.102820   -5.954840
  C      3.511770   -2.806210   -6.492280
  H      2.736040   -3.373450   -5.973740
  H      3.444900   -3.040830   -7.555280
  S      3.004620   -1.096210   -6.389260
  O      4.128860   -0.329650   -6.953720
  O      1.781280   -1.000780   -7.136400
  F      2.851550   -0.783680   -4.956790
  H      5.627030   -2.524240   -6.494220
  H      5.121640   -4.143870   -6.076540
  H      4.950040   -2.848620   -4.916390

 Total Charge           Charge          ....    0
 Multiplicity           Mult            ....    1
 Number of Electrons    NEL             ....   58
 Basis Dimension        Dim             ....  176

ORBITAL ENERGIES
----------------

  NO   OCC          E(Eh)            E(eV)
   0   2.0000     -88.380642     -2404.9595
   1   2.0000     -24.403766      -664.0602
   2   2.0000     -18.804780      -511.7041
   3   2.0000     -18.793500      -511.3971
   4   2.0000      -9.986331      -271.7419
   5   2.0000      -9.946230      -270.6507
   6   2.0000      -7.918519      -215.4739
   7   2.0000      -5.957779      -162.1194
   8   2.0000      -5.951497      -161.9485
   9   2.0000      -5.949811      -161.9026
  10   2.0000      -1.239195       -33.7202
  11   2.0000      -1.016247       -27.6535
  12   2.0000      -0.919707       -25.0265
  13   2.0000      -0.745739       -20.2926
  14   2.0000      -0.653015       -17.7694
  15   2.0000      -0.607999       -16.5445
  16   2.0000      -0.519936       -14.1482
  17   2.0000      -0.500628       -13.6228
  18   2.0000      -0.486438       -13.2367
  19   2.0000      -0.444078       -12.0840
  20   2.0000      -0.425771       -11.5858
  21   2.0000      -0.403616       -10.9829
  22   2.0000      -0.385479       -10.4894
  23   2.0000      -0.363117        -9.8809
  24   2.0000      -0.355203        -9.6656
  25   2.0000      -0.331580        -9.0227
  26   2.0000      -0.291429        -7.9302
  27   2.0000      -0.280907        -7.6439
  28   2.0000      -0.264243        -7.1904
  29   0.0000      -0.031356        -0.8532
  30   0.0000       0.001292         0.0352
  31   0.0000       0.013725         0.3735
  32   0.0000       0.020696         0.5632
  33   0.0000       0.027037         0.7357

MULLIKEN ATOMIC CHARGES
-----------------------
   0 C :    1.209297
   1 C :   -0.096155
   2 H :   -0.175612
   3 H :   -0.133737
   4 S :    1.317689
   5 O :   -0.630097
   6 O :   -0.578125
   7 F :   -0.375442
   8 H :   -0.145252
   9 H :   -0.213893
  10 H :   -0.178672
Sum of atomic charges:    0.0000000

LOEWDIN ATOMIC CHARGES
----------------------
   0 C :    0.148330
   1 C :   -0.090871
   2 H :    0.018102
   3 H :    0.028953
   4 S :    1.076239
   5 O :   -0.453354
   6 O :   -0.439242
   7 F :   -0.255781
   8 H :   -0.011052
   9 H :   -0.009997
  10 H :   -0.011326

  Mayer bond orders larger than 0.100000
B(  0-C ,  1-C ) :   1.3060 B(  0-C ,  3-H ) :   0.1027 B(  0-C ,  8-H ) :   0.7277
B(  0-C ,  9-H ) :   0.6057 B(  0-C , 10-H ) :   0.7003 B(  1-C ,  2-H ) :   0.9105
B(  1-C ,  3-H ) :   0.9219 B(  1-C ,  4-S ) :   0.9592 B(  1-C ,  8-H ) :   0.2543
B(  1-C ,  9-H ) :   0.2913 B(  1-C , 10-H ) :   0.2447 B(  4-S ,  5-O ) :   1.5212
B(  4-S ,  6-O ) :   1.5840 B(  4-S ,  7-F ) :   0.6764 B(  5-O ,  6-O ) :   0.1121

Dispersion correction           -0.019560807
FINAL SINGLE POINT ENERGY      -727.217555751195

DIPOLE MOMENT
-------------
                                X             Y             Z
Electronic contribution:     -5.14601       7.43380       1.61068
Nuclear contribution   :      5.52019      -8.89046      -0.84835
                        -----------------------------------------
Total Dipole Moment    :      0.37418      -1.45666       0.76233
                        -----------------------------------------
Magnitude (a.u.)       :      1.68612
Magnitude (Debye)      :      4.28579

Rotational constants in cm-1:     0.153332     0.082132     0.079755
Rotational constants in MHz :  4596.775407  2462.251277  2391.008596

                             ****ORCA TERMINATED NORMALLY****
TOTAL RUN TIME: 0 days 0 hours 0 minutes 6 seconds 40 msec
