                         Program Version 5.0.0 -  RELEASE  -
|  1> !BLYP D3BJ RIJCOSX def2-SVPD def2/J TightSCF
|  2> *xyz 0 1
|  3> C          4.49059        1.15590       -2.46929
|  4> N          4.30539        1.22276       -3.90832
|  5> C          4.63192        2.24637       -4.67096
|  6> N          4.54169        2.14399       -5.98714
|  7> C          5.08409        3.39358       -4.11855
|  8> H          4.92067        3.57050       -3.13587
|  9> H          5.25465        4.19739       -4.70696
| 10> H          3.82453        0.44911       -4.35093
| 11> H          4.34337        1.24932       -6.41665
| 12> H          4.67671        2.95662       -6.57411
| 13> C          5.94213        0.93950       -2.03689
| 14> H          3.86431        0.32853       -2.13661
| 15> H          4.07623        2.04999       -1.98901
| 16> H          6.32982        0.06401       -2.51451
| 17> H          5.98308        0.81426       -0.97504
| 18> H          6.52865        1.78889       -2.31873
| 19> *
| 20>
| 21> %MaxCore 64000
| 22>
| 23> %pal nprocs 4
| 24> end
| 25>
| 26> %scf
| 27>   MaxIter 150
| 28> end
| 29>
| 30>
| 31>                          ****END OF INPUT****

CARTESIAN COORDINATES (ANGSTROEM)
---------------------------------
  C      4.490590    1.155900   -2.469290
  N      4.305390    1.222760   -3.908320
  C      4.631920    2.246370   -4.670960
  N      4.541690    2.143990   -5.987140
  C      5.084090    3.393580   -4.118550
  H      4.920670    3.570500   -3.135870
  H      5.254650    4.197390   -4.706960
  H      3.824530    0.449110   -4.350930
  H      4.343370    1.249320   -6.416650
  H      4.676710    2.956620   -6.574110
  C      5.942130    0.939500   -2.036890
  H      3.864310    0.328530   -2.136610
  H      4.076230    2.049990   -1.989010
  H      6.329820    0.064010   -2.514510
  H      5.983080    0.814260   -0.975040
  H      6.528650    1.788890   -2.318730

 Total Charge           Charge          ....    0
 Multiplicity           Mult            ....    1
 Number of Electrons    NEL             ....   48
 Basis Dimension        Dim             ....  200

ORBITAL ENERGIES
----------------

  NO   OCC          E(Eh)            E(eV)
   0   2.0000     -14.027171      -381.6987
   1   2.0000     -14.025540      -381.6544
   2   2.0000      -9.962936      -271.1053
   3   2.0000      -9.953843      -270.8579
   4   2.0000      -9.901724      -269.4396
   5   2.0000      -9.835726      -267.6437
   6   2.0000      -0.873272       -23.7629
   7   2.0000      -0.795820       -21.6554
   8   2.0000      -0.669681       -18.2229
   9   2.0000      -0.626495       -17.0478
  10   2.0000      -0.568867       -15.4797
  11   2.0000      -0.498536       -13.5659
  12   2.0000      -0.495800       -13.4914
  13   2.0000      -0.464582       -12.6419
  14   2.0000      -0.418081       -11.3766
  15   2.0000      -0.387556       -10.5459
  16   2.0000      -0.361931        -9.8486
  17   2.0000      -0.345940        -9.4135
  18   2.0000      -0.332738        -9.0543
  19   2.0000      -0.317183        -8.6310
  20   2.0000      -0.312822        -8.5123
  21   2.0000      -0.300280        -8.1710
  22   2.0000      -0.206440        -5.6175
  23   2.0000      -0.128964        -3.5093
  24   0.0000      -0.007483        -0.2036
  25   0.0000       0.015990         0.4351
  26   0.0000       0.024595         0.6693
  27   0.0000       0.036936         1.0051
  28   0.0000       0.057104         1.5539

MULLIKEN ATOMIC CHARGES
-----------------------
   0 C :    0.521447
   1 N :   -0.122311
   2 C :    0.480730
   3 N :    0.369245
   4 C :    0.621487
   5 H :   -0.232957
   6 H :   -0.691623
   7 H :   -0.421522
   8 H :   -0.264005
   9 H :   -0.145091
  10 C :    1.081282
  11 H :   -0.560425
  12 H :   -0.055403
  13 H :   -0.217026
  14 H :   -0.169910
  15 H :   -0.193918
Sum of atomic charges:    0.0000000

LOEWDIN ATOMIC CHARGES
----------------------
   0 C :    0.015107
   1 N :   -0.003548
   2 C :   -0.247805
   3 N :    0.202559
   4 C :    0.174149
   5 H :   -0.121583
   6 H :   -0.112813
   7 H :    0.014992
   8 H :   -0.015304
   9 H :    0.003124
  10 C :    0.152035
  11 H :    0.012955
  12 H :    0.011608
  13 H :   -0.025346
  14 H :   -0.025422
  15 H :   -0.034708

  Mayer bond orders larger than 0.100000
B(  0-C ,  1-N ) :   1.0038 B(  0-C ,  2-C ) :  -0.1433 B(  0-C ,  4-C ) :   0.1003
B(  0-C ,  5-H ) :   0.1055 B(  0-C ,  7-H ) :  -0.1572 B(  0-C , 10-C ) :   1.2189
B(  0-C , 11-H ) :   0.7794 B(  0-C , 12-H ) :   0.8092 B(  0-C , 13-H ) :   0.2929
B(  0-C , 14-H ) :   0.2098 B(  0-C , 15-H ) :   0.2410 B(  1-N ,  2-C ) :   1.0747
B(  1-N ,  3-N ) :   0.1692 B(  1-N ,  4-C ) :   0.4020 B(  1-N ,  7-H ) :   1.3257
B(  1-N , 11-H ) :   0.1840 B(  2-C ,  3-N ) :   0.9963 B(  2-C ,  4-C ) :   1.5186
B(  2-C ,  5-H ) :   0.3131 B(  2-C ,  6-H ) :   0.2026 B(  2-C ,  7-H ) :  -0.3130
B(  3-N ,  4-C ) :   0.2815 B(  3-N ,  8-H ) :   1.1810 B(  3-N ,  9-H ) :   1.2046
B(  4-C ,  5-H ) :   0.5550 B(  4-C ,  6-H ) :   0.6877 B(  5-H ,  6-H ) :   0.1345
B(  5-H , 12-H ) :   0.1002 B(  8-H ,  9-H ) :  -0.1879 B( 10-C , 13-H ) :   0.6939
B( 10-C , 14-H ) :   0.7523 B( 10-C , 15-H ) :   0.7446 B( 11-H , 12-H ) :  -0.1283

Dispersion correction           -0.026154205
FINAL SINGLE POINT ENERGY      -267.619528807534

DIPOLE MOMENT
-------------
                                X             Y             Z
Electronic contribution:     -1.88431      -0.10382      -3.82733
Nuclear contribution   :      1.39581      -0.78630       3.38596
                        -----------------------------------------
Total Dipole Moment    :     -0.48850      -0.89012      -0.44137
                        -----------------------------------------
Magnitude (a.u.)       :      1.10714
Magnitude (Debye)      :      2.81412

Rotational constants in cm-1:     0.239249     0.075811     0.066261
Rotational constants in MHz :  7172.504830  2272.756282  1986.457543

                             ****ORCA TERMINATED NORMALLY****
TOTAL RUN TIME: 0 days 0 hours 0 minutes 8 seconds 134 msec
