                         Program Version 5.0.0 -  RELEASE  -
|  1> !BLYP D3BJ RIJCOSX def2-SVPD def2/J TightSCF xyzfile
|  2>
|  3> *xyzfile 0 1 D1.xyz
|  4>
|  5> %MaxCore 64000
|  6>
|  7> %pal nprocs 4
|  8> end
|  9>
| 10> %scf
| 11>   MaxIter 150
| 12> end
| 13>
| 14>
| 15>                          ****END OF INPUT****

CARTESIAN COORDINATES (ANGSTROEM)
---------------------------------
  C      4.490588    1.155899   -2.469290
  C      4.305394    1.222762   -3.908317
  C      4.906458   -3.102816   -5.954844
  C      3.511771   -2.806215   -6.492283
  H      2.736044   -3.373445   -5.973736
  H      3.444904   -3.040831   -7.555281
  S      3.004618   -1.096206   -6.389259
  C      4.631918    2.246365   -4.670958
  N      4.541686    2.143990   -5.987139
  N      5.084086    3.393584   -4.118545
  H      4.920675    3.570501   -3.135870
  H      5.254652    4.197390   -4.706956
  H      3.824530    0.449113   -4.350926
  H      4.343373    1.249318   -6.416646
  H      4.676712    2.956624   -6.574113
  F      4.128856   -0.329647   -6.953717
  O      1.781285   -1.000779   -7.136399
  C      5.942129    0.939500   -2.036893
  H      3.864305    0.328532   -2.136611
  H      4.076233    2.049994   -1.989010
  C      6.462677   -3.117775   -3.944671
  C      5.024977   -3.025679   -4.437625
  H      4.423321   -3.818693   -3.977648
  H      4.579350   -2.087131   -4.108727
  H      5.201533   -4.100207   -6.296905
  H      5.605922   -2.397822   -6.413368
  C      6.559957   -0.356290   -2.559086
  H      5.967976    0.952567   -0.942444
  H      6.547184    1.788331   -2.368849
  C      6.006283   -1.615917   -1.899301
  H      7.642360   -0.318000   -2.402059
  H      6.414855   -0.403433   -3.642587
  C      6.608718   -2.917014   -2.435655
  H      6.190324   -1.561115   -0.820948
  H      4.919250   -1.651245   -2.016586
  H      7.066975   -2.374258   -4.475514
  H      6.887808   -4.089747   -4.215332
  H      6.135197   -3.755573   -1.915159
  H      7.671142   -2.955503   -2.172291
  O      2.851546   -0.783683   -4.956789

 Total Charge           Charge          ....    0
 Multiplicity           Mult            ....    1
 Number of Electrons    NEL             ....  144
 Basis Dimension        Dim             ....  540

ORBITAL ENERGIES
----------------

  NO   OCC          E(Eh)            E(eV)
   0   2.0000     -88.390399     -2405.2250
   1   2.0000     -24.422876      -664.5803
   2   2.0000     -18.812328      -511.9095
   3   2.0000     -18.799501      -511.5604
   4   2.0000     -14.014407      -381.3514
   5   2.0000     -14.009728      -381.2241
   6   2.0000      -9.985984      -271.7324
   7   2.0000      -9.951542      -270.7952
   8   2.0000      -9.944424      -270.6015
   9   2.0000      -9.921404      -269.9751
  10   2.0000      -9.916799      -269.8498
  11   2.0000      -9.910262      -269.6719
  12   2.0000      -9.901447      -269.4321
  13   2.0000      -9.894677      -269.2478
  14   2.0000      -9.889351      -269.1029
  15   2.0000      -9.883175      -268.9349
  16   2.0000      -9.818357      -267.1711
  17   2.0000      -7.927128      -215.7081
  18   2.0000      -5.966642      -162.3606
  19   2.0000      -5.960170      -162.1845
  20   2.0000      -5.958205      -162.1310
  21   2.0000      -1.260181       -34.2913
  22   2.0000      -1.025248       -27.8984
  23   2.0000      -0.928345       -25.2615
  24   2.0000      -0.850498       -23.1432
  25   2.0000      -0.769388       -20.9361
  26   2.0000      -0.759312       -20.6619
  27   2.0000      -0.720509       -19.6060
  28   2.0000      -0.694098       -18.8874
  29   2.0000      -0.673615       -18.3300
  30   2.0000      -0.651394       -17.7253
  31   2.0000      -0.625821       -17.0295
  32   2.0000      -0.597139       -16.2490
  33   2.0000      -0.569725       -15.5030
  34   2.0000      -0.546903       -14.8820
  35   2.0000      -0.542024       -14.7492
  36   2.0000      -0.525853       -14.3092
  37   2.0000      -0.516271       -14.0484
  38   2.0000      -0.500402       -13.6166
  39   2.0000      -0.496919       -13.5218
  40   2.0000      -0.479026       -13.0350
  41   2.0000      -0.472029       -12.8446
  42   2.0000      -0.445466       -12.1217
  43   2.0000      -0.437467       -11.9041
  44   2.0000      -0.432189       -11.7605
  45   2.0000      -0.420138       -11.4325
  46   2.0000      -0.409844       -11.1524
  47   2.0000      -0.403199       -10.9716
  48   2.0000      -0.399077       -10.8594
  49   2.0000      -0.397661       -10.8209
  50   2.0000      -0.377466       -10.2714
  51   2.0000      -0.369210       -10.0467
  52   2.0000      -0.366470        -9.9721
  53   2.0000      -0.354810        -9.6549
  54   2.0000      -0.343210        -9.3392
  55   2.0000      -0.333418        -9.0728
  56   2.0000      -0.332179        -9.0390
  57   2.0000      -0.324751        -8.8369
  58   2.0000      -0.316499        -8.6124
  59   2.0000      -0.309193        -8.4136
  60   2.0000      -0.302883        -8.2419
  61   2.0000      -0.296136        -8.0583
  62   2.0000      -0.293075        -7.9750
  63   2.0000      -0.281207        -7.6520
  64   2.0000      -0.278762        -7.5855
  65   2.0000      -0.268174        -7.2974
  66   2.0000      -0.265726        -7.2308
  67   2.0000      -0.258877        -7.0444
  68   2.0000      -0.251543        -6.8448
  69   2.0000      -0.234543        -6.3822
  70   2.0000      -0.207940        -5.6583
  71   2.0000      -0.113061        -3.0765
  72   0.0000      -0.036305        -0.9879
  73   0.0000      -0.003072        -0.0836
  74   0.0000       0.001843         0.0501
  75   0.0000       0.007644         0.2080
  76   0.0000       0.009225         0.2510

MULLIKEN ATOMIC CHARGES
-----------------------
   0 C :    0.445574
   1 C :    0.455647
   2 C :    0.610127
   3 C :    0.607598
   4 H :   -0.108410
   5 H :   -0.212153
   6 S :    1.257998
   7 C :    0.696854
   8 N :    0.659093
   9 N :    0.296175
  10 H :   -0.119630
  11 H :   -0.371436
  12 H :   -0.955685
  13 H :   -0.424852
  14 H :   -0.301861
  15 F :   -0.408848
  16 O :   -0.602855
  17 C :    0.704080
  18 H :   -0.034205
  19 H :   -0.354089
  20 C :    0.326101
  21 C :    0.665345
  22 H :   -0.065923
  23 H :   -0.802907
  24 H :   -0.265997
  25 H :   -0.113298
  26 C :    0.405975
  27 H :   -0.224290
  28 H :   -0.284565
  29 C :    0.194905
  30 H :   -0.270261
  31 H :   -0.223603
  32 C :    0.955645
  33 H :   -0.523881
  34 H :   -0.007532
  35 H :    0.009439
  36 H :   -0.539289
  37 H :   -0.195721
  38 H :   -0.146300
  39 O :   -0.732966
Sum of atomic charges:    0.0000000

LOEWDIN ATOMIC CHARGES
----------------------
   0 C :   -0.033041
   1 C :   -0.007364
   2 C :   -0.026367
   3 C :   -0.035113
   4 H :    0.038596
   5 H :    0.018921
   6 S :    1.120908
   7 C :   -0.204134
   8 N :    0.221323
   9 N :    0.224284
  10 H :   -0.021200
  11 H :   -0.023773
  12 H :   -0.149572
  13 H :   -0.087092
  14 H :   -0.013113
  15 F :   -0.246227
  16 O :   -0.418887
  17 C :   -0.020856
  18 H :    0.007451
  19 H :   -0.000028
  20 C :   -0.027381
  21 C :   -0.017588
  22 H :    0.038408
  23 H :   -0.017216
  24 H :    0.032002
  25 H :    0.021823
  26 C :   -0.023754
  27 H :    0.009934
  28 H :    0.004468
  29 C :   -0.026222
  30 H :    0.018825
  31 H :    0.000563
  32 C :   -0.021450
  33 H :    0.018853
  34 H :    0.004150
  35 H :    0.012763
  36 H :    0.017330
  37 H :    0.015643
  38 H :    0.016862
  39 O :   -0.422732

  Mayer bond orders larger than 0.100000
B(  0-C ,  1-C ) :   1.1204 B(  0-C , 12-H ) :   1.0788 B(  0-C , 17-C ) :   1.0609
B(  0-C , 18-H ) :   0.6036 B(  0-C , 19-H ) :   0.7290 B(  0-C , 26-C ) :   0.2049
B(  0-C , 27-H ) :   0.2514 B(  0-C , 28-H ) :   0.1445 B(  0-C , 30-H ) :  -0.1560
B(  1-C ,  7-C ) :   1.6091 B(  1-C ,  8-N ) :   0.3196 B(  1-C ,  9-N ) :   0.3560
B(  1-C , 10-H ) :  -0.1056 B(  1-C , 12-H ) :  -1.0036 B(  1-C , 17-C ) :   0.1923
B(  1-C , 18-H ) :   0.5221 B(  1-C , 19-H ) :   0.2154 B(  2-C ,  3-C ) :   1.1431
B(  2-C ,  5-H ) :   0.3140 B(  2-C , 20-C ) :   0.1703 B(  2-C , 21-C ) :   1.0790
B(  2-C , 22-H ) :   0.1329 B(  2-C , 23-H ) :   0.1356 B(  2-C , 24-H ) :   0.6491
B(  2-C , 25-H ) :   0.7409 B(  3-C ,  4-H ) :   0.8182 B(  3-C ,  5-H ) :   0.6054
B(  3-C ,  6-S ) :   0.9819 B(  3-C , 21-C ) :   0.1783 B(  3-C , 24-H ) :   0.1043
B(  3-C , 25-H ) :   0.1084 B(  5-H ,  6-S ) :   0.1092 B(  6-S , 15-F ) :   0.6215
B(  6-S , 16-O ) :   1.5339 B(  6-S , 39-O ) :   1.5671 B(  7-C ,  8-N ) :   0.9330
B(  7-C ,  9-N ) :   0.9066 B(  7-C , 11-H ) :  -0.1730 B(  7-C , 12-H ) :  -0.2160
B(  7-C , 13-H ) :  -0.2879 B(  7-C , 14-H ) :  -0.1462 B(  8-N ,  9-N ) :   0.1082
B(  8-N , 13-H ) :   1.1433 B(  8-N , 14-H ) :   1.2760 B(  9-N , 10-H ) :   1.0830
B(  9-N , 11-H ) :   1.2985 B( 10-H , 11-H ) :  -0.2110 B( 11-H , 12-H ) :  -0.1093
B( 11-H , 18-H ) :   0.1079 B( 12-H , 18-H ) :  -0.2699 B( 12-H , 39-O ) :   0.2602
B( 13-H , 14-H ) :  -0.2407 B( 13-H , 15-F ) :   0.1777 B( 16-O , 39-O ) :   0.1644
B( 17-C , 18-H ) :   0.1360 B( 17-C , 19-H ) :   0.1099 B( 17-C , 26-C ) :   1.2364
B( 17-C , 27-H ) :   0.6460 B( 17-C , 28-H ) :   0.5382 B( 17-C , 30-H ) :   0.1426
B( 17-C , 31-H ) :   0.2145 B( 18-H , 19-H ) :  -0.1626 B( 20-C , 21-C ) :   1.1697
B( 20-C , 22-H ) :   0.1384 B( 20-C , 23-H ) :   0.1816 B( 20-C , 29-C ) :   0.2238
B( 20-C , 32-C ) :   1.0914 B( 20-C , 35-H ) :   0.7812 B( 20-C , 36-H ) :   0.7494
B( 20-C , 37-H ) :   0.1286 B( 20-C , 38-H ) :   0.3079 B( 21-C , 22-H ) :   0.5946
B( 21-C , 23-H ) :   0.4139 B( 21-C , 24-H ) :   0.2186 B( 21-C , 25-H ) :   0.1454
B( 21-C , 35-H ) :   0.1471 B( 21-C , 36-H ) :   0.2203 B( 22-H , 23-H ) :   0.1812
B( 23-H , 34-H ) :   0.1430 B( 24-H , 25-H ) :  -0.1180 B( 26-C , 27-H ) :   0.1483
B( 26-C , 28-H ) :   0.3033 B( 26-C , 29-C ) :   1.2267 B( 26-C , 30-H ) :   0.6677
B( 26-C , 31-H ) :   0.7607 B( 26-C , 33-H ) :   0.1645 B( 26-C , 34-H ) :   0.1386
B( 27-H , 28-H ) :  -0.1912 B( 29-C , 30-H ) :   0.1685 B( 29-C , 31-H ) :   0.1512
B( 29-C , 32-C ) :   1.0679 B( 29-C , 33-H ) :   0.8256 B( 29-C , 34-H ) :   0.7857
B( 29-C , 37-H ) :   0.3941 B( 29-C , 38-H ) :   0.1615 B( 32-C , 35-H ) :   0.1051
B( 32-C , 37-H ) :   0.4887 B( 32-C , 38-H ) :   0.5426 B( 37-H , 38-H ) :  -0.1649

Dispersion correction           -0.097268956
FINAL SINGLE POINT ENERGY     -1189.972417613727

DIPOLE MOMENT
-------------
                                X             Y             Z
Electronic contribution:    -16.35272       4.84285     -21.39879
Nuclear contribution   :     17.24138      -5.45913      20.34076
                        -----------------------------------------
Total Dipole Moment    :      0.88866      -0.61628      -1.05803
                        -----------------------------------------
Magnitude (a.u.)       :      1.51293
Magnitude (Debye)      :      3.84557

Rotational constants in cm-1:     0.014201     0.012275     0.007453
Rotational constants in MHz :   425.728191   368.008875   223.435232

                             ****ORCA TERMINATED NORMALLY****
TOTAL RUN TIME: 0 days 0 hours 1 minutes 8 seconds 271 msec
