                         Program Version 5.0.0 -  RELEASE  -
|  1> !BLYP D3BJ RIJCOSX def2-SVPD def2/J TightSCF xyzfile
|  2>
|  3> *xyzfile 0 1 D3.xyz
|  4>
|  5> %MaxCore 64000
|  6>
|  7> %pal nprocs 4
|  8> end
|  9>
| 10> %scf
| 11>   MaxIter 150
| 12> end
| 13>
| 14>
| 15>                          ****END OF INPUT****

CARTESIAN COORDINATES (ANGSTROEM)
---------------------------------
  C      4.490588    1.155899   -2.469290
  N      4.305394    1.222762   -3.908317
  C      4.906458   -3.102816   -5.954844
  C      3.511771   -2.806215   -6.492283
  H      2.736044   -3.373445   -5.973736
  H      3.444904   -3.040831   -7.555281
  S      3.004618   -1.096206   -6.389259
  C      4.631918    2.246365   -4.670958
  N      4.541686    2.143990   -5.987139
  C      5.084086    3.393584   -4.118545
  H      4.920675    3.570501   -3.135870
  H      5.254652    4.197390   -4.706956
  H      3.824530    0.449113   -4.350926
  H      4.343373    1.249318   -6.416646
  H      4.676712    2.956624   -6.574113
  F      4.128856   -0.329647   -6.953717
  O      1.781285   -1.000779   -7.136399
  C      5.942129    0.939500   -2.036893
  H      3.864305    0.328532   -2.136611
  H      4.076233    2.049994   -1.989010
  C      6.462677   -3.117775   -3.944671
  C      5.024977   -3.025679   -4.437625
  H      4.423321   -3.818693   -3.977648
  H      4.579350   -2.087131   -4.108727
  H      5.201533   -4.100207   -6.296905
  H      5.605922   -2.397822   -6.413368
  C      6.559957   -0.356290   -2.559086
  H      5.967976    0.952567   -0.942444
  H      6.547184    1.788331   -2.368849
  C      6.006283   -1.615917   -1.899301
  H      7.642360   -0.318000   -2.402059
  H      6.414855   -0.403433   -3.642587
  C      6.608718   -2.917014   -2.435655
  H      6.190324   -1.561115   -0.820948
  H      4.919250   -1.651245   -2.016586
  H      7.066975   -2.374258   -4.475514
  H      6.887808   -4.089747   -4.215332
  H      6.135197   -3.755573   -1.915159
  H      7.671142   -2.955503   -2.172291
  O      2.851546   -0.783683   -4.956789

 Total Charge           Charge          ....    0
 Multiplicity           Mult            ....    1
 Number of Electrons    NEL             ....  144
 Basis Dimension        Dim             ....  540

ORBITAL ENERGIES
----------------

  NO   OCC          E(Eh)            E(eV)
   0   2.0000     -88.408274     -2405.7115
   1   2.0000     -24.436691      -664.9562
   2   2.0000     -18.827901      -512.3332
   3   2.0000     -18.823684      -512.2185
   4   2.0000     -14.009244      -381.2109
   5   2.0000     -13.995566      -380.8387
   6   2.0000      -9.999232      -272.0929
   7   2.0000      -9.962864      -271.1033
   8   2.0000      -9.946005      -270.6446
   9   2.0000      -9.935693      -270.3639
  10   2.0000      -9.933525      -270.3050
  11   2.0000      -9.926647      -270.1178
  12   2.0000      -9.919784      -269.9311
  13   2.0000      -9.912758      -269.7399
  14   2.0000      -9.906825      -269.5784
  15   2.0000      -9.900627      -269.4098
  16   2.0000      -9.820736      -267.2358
  17   2.0000      -7.945065      -216.1962
  18   2.0000      -5.984610      -162.8495
  19   2.0000      -5.978230      -162.6759
  20   2.0000      -5.976021      -162.6158
  21   2.0000      -1.274501       -34.6809
  22   2.0000      -1.043198       -28.3869
  23   2.0000      -0.948840       -25.8193
  24   2.0000      -0.855338       -23.2749
  25   2.0000      -0.780403       -21.2358
  26   2.0000      -0.772689       -21.0259
  27   2.0000      -0.730792       -19.8859
  28   2.0000      -0.700459       -19.0605
  29   2.0000      -0.679235       -18.4829
  30   2.0000      -0.652962       -17.7680
  31   2.0000      -0.623108       -16.9556
  32   2.0000      -0.610925       -16.6241
  33   2.0000      -0.585767       -15.9395
  34   2.0000      -0.562285       -15.3006
  35   2.0000      -0.549707       -14.9583
  36   2.0000      -0.540336       -14.7033
  37   2.0000      -0.526689       -14.3319
  38   2.0000      -0.517625       -14.0853
  39   2.0000      -0.497533       -13.5386
  40   2.0000      -0.479371       -13.0443
  41   2.0000      -0.470099       -12.7920
  42   2.0000      -0.461740       -12.5646
  43   2.0000      -0.448290       -12.1986
  44   2.0000      -0.442201       -12.0329
  45   2.0000      -0.428715       -11.6659
  46   2.0000      -0.422100       -11.4859
  47   2.0000      -0.414137       -11.2692
  48   2.0000      -0.406366       -11.0578
  49   2.0000      -0.396003       -10.7758
  50   2.0000      -0.386783       -10.5249
  51   2.0000      -0.382858       -10.4181
  52   2.0000      -0.370352       -10.0778
  53   2.0000      -0.359541        -9.7836
  54   2.0000      -0.347957        -9.4684
  55   2.0000      -0.343321        -9.3422
  56   2.0000      -0.338237        -9.2039
  57   2.0000      -0.330668        -8.9979
  58   2.0000      -0.321517        -8.7489
  59   2.0000      -0.319993        -8.7074
  60   2.0000      -0.312446        -8.5021
  61   2.0000      -0.305882        -8.3235
  62   2.0000      -0.305072        -8.3014
  63   2.0000      -0.299901        -8.1607
  64   2.0000      -0.292649        -7.9634
  65   2.0000      -0.286476        -7.7954
  66   2.0000      -0.285923        -7.7804
  67   2.0000      -0.272418        -7.4129
  68   2.0000      -0.271171        -7.3789
  69   2.0000      -0.262853        -7.1526
  70   2.0000      -0.189489        -5.1563
  71   2.0000      -0.114386        -3.1126
  72   0.0000      -0.048508        -1.3200
  73   0.0000      -0.012441        -0.3385
  74   0.0000      -0.003143        -0.0855
  75   0.0000      -0.000969        -0.0264
  76   0.0000       0.004949         0.1347

MULLIKEN ATOMIC CHARGES
-----------------------
   0 C :    1.302586
   1 N :    0.708111
   2 C :    0.595667
   3 C :    0.609901
   4 H :   -0.109468
   5 H :   -0.191317
   6 S :    1.201539
   7 C :    0.388159
   8 N :    1.040153
   9 C :    0.714869
  10 H :    0.005476
  11 H :   -0.883117
  12 H :   -1.420229
  13 H :   -0.597209
  14 H :   -0.282385
  15 F :   -0.449671
  16 O :   -0.597866
  17 C :    0.641181
  18 H :   -0.548084
  19 H :   -0.255269
  20 C :    0.311154
  21 C :    0.610852
  22 H :   -0.064182
  23 H :   -0.748741
  24 H :   -0.264047
  25 H :   -0.103628
  26 C :    0.439361
  27 H :   -0.294902
  28 H :   -0.208732
  29 C :    0.115050
  30 H :   -0.322414
  31 H :   -0.285430
  32 C :    0.967567
  33 H :   -0.526450
  34 H :    0.027052
  35 H :    0.016524
  36 H :   -0.536567
  37 H :   -0.195066
  38 H :   -0.140504
  39 O :   -0.669924
Sum of atomic charges:    0.0000000

LOEWDIN ATOMIC CHARGES
----------------------
   0 C :    0.071287
   1 N :    0.029409
   2 C :   -0.024949
   3 C :   -0.032308
   4 H :    0.039924
   5 H :    0.021968
   6 S :    1.124777
   7 C :   -0.227329
   8 N :    0.229775
   9 C :    0.170843
  10 H :   -0.122977
  11 H :   -0.117356
  12 H :   -0.106570
  13 H :   -0.098960
  14 H :    0.006766
  15 F :   -0.247461
  16 O :   -0.409201
  17 C :   -0.004326
  18 H :    0.011358
  19 H :    0.012202
  20 C :   -0.026072
  21 C :   -0.019259
  22 H :    0.039309
  23 H :   -0.020906
  24 H :    0.034195
  25 H :    0.022926
  26 C :   -0.024208
  27 H :    0.016985
  28 H :    0.006468
  29 C :   -0.029015
  30 H :    0.021686
  31 H :   -0.000162
  32 C :   -0.019640
  33 H :    0.020311
  34 H :    0.001624
  35 H :    0.013604
  36 H :    0.019065
  37 H :    0.016767
  38 H :    0.018740
  39 O :   -0.419293

  Mayer bond orders larger than 0.100000
B(  0-C ,  1-N ) :   1.1270 B(  0-C ,  7-C ) :  -0.1042 B(  0-C , 10-H ) :   0.1242
B(  0-C , 12-H ) :  -0.6045 B(  0-C , 17-C ) :   1.0448 B(  0-C , 18-H ) :   0.4858
B(  0-C , 19-H ) :   0.7347 B(  0-C , 26-C ) :   0.2186 B(  0-C , 27-H ) :   0.1331
B(  0-C , 28-H ) :   0.1114 B(  1-N ,  7-C ) :   1.1094 B(  1-N ,  9-C ) :   0.2960
B(  1-N , 11-H ) :   0.1534 B(  1-N , 12-H ) :   0.1928 B(  1-N , 13-H ) :   0.1782
B(  1-N , 14-H ) :  -0.1323 B(  1-N , 17-C ) :   0.1077 B(  1-N , 18-H ) :   0.3570
B(  1-N , 28-H ) :   0.1031 B(  2-C ,  3-C ) :   1.1471 B(  2-C ,  5-H ) :   0.3171
B(  2-C , 20-C ) :   0.1734 B(  2-C , 21-C ) :   1.0849 B(  2-C , 22-H ) :   0.1339
B(  2-C , 23-H ) :   0.1263 B(  2-C , 24-H ) :   0.6608 B(  2-C , 25-H ) :   0.7412
B(  3-C ,  4-H ) :   0.8198 B(  3-C ,  5-H ) :   0.6045 B(  3-C ,  6-S ) :   0.9870
B(  3-C , 21-C ) :   0.1770 B(  3-C , 25-H ) :   0.1129 B(  5-H ,  6-S ) :   0.1176
B(  6-S , 15-F ) :   0.6359 B(  6-S , 16-O ) :   1.5583 B(  6-S , 39-O ) :   1.4693
B(  7-C ,  8-N ) :   1.0470 B(  7-C ,  9-C ) :   1.4018 B(  7-C , 10-H ) :   0.4417
B(  7-C , 11-H ) :   0.4412 B(  7-C , 12-H ) :  -0.8108 B(  7-C , 13-H ) :  -0.1809
B(  7-C , 18-H ) :   0.1704 B(  8-N ,  9-C ) :   0.2231 B(  8-N , 13-H ) :   0.6922
B(  8-N , 14-H ) :   1.1884 B(  9-C , 10-H ) :   0.4662 B(  9-C , 11-H ) :   0.3928
B( 10-H , 13-H ) :   0.2000 B( 10-H , 18-H ) :  -0.1410 B( 10-H , 19-H ) :   0.1384
B( 11-H , 12-H ) :  -0.1372 B( 12-H , 39-O ) :   0.2434 B( 13-H , 14-H ) :  -0.2450
B( 13-H , 15-F ) :   0.2311 B( 16-O , 39-O ) :   0.1612 B( 17-C , 18-H ) :   0.1316
B( 17-C , 19-H ) :   0.1328 B( 17-C , 26-C ) :   1.1418 B( 17-C , 27-H ) :   0.7790
B( 17-C , 28-H ) :   0.6200 B( 17-C , 30-H ) :   0.1012 B( 17-C , 31-H ) :   0.1619
B( 18-H , 19-H ) :  -0.3101 B( 20-C , 21-C ) :   1.1834 B( 20-C , 22-H ) :   0.1393
B( 20-C , 23-H ) :   0.1747 B( 20-C , 29-C ) :   0.2290 B( 20-C , 32-C ) :   1.0959
B( 20-C , 35-H ) :   0.7843 B( 20-C , 36-H ) :   0.7493 B( 20-C , 37-H ) :   0.1338
B( 20-C , 38-H ) :   0.3057 B( 21-C , 22-H ) :   0.6022 B( 21-C , 23-H ) :   0.4906
B( 21-C , 24-H ) :   0.2185 B( 21-C , 25-H ) :   0.1416 B( 21-C , 35-H ) :   0.1454
B( 21-C , 36-H ) :   0.2202 B( 22-H , 23-H ) :   0.1666 B( 23-H , 34-H ) :   0.1465
B( 24-H , 25-H ) :  -0.1289 B( 26-C , 27-H ) :   0.1181 B( 26-C , 28-H ) :   0.2962
B( 26-C , 29-C ) :   1.2167 B( 26-C , 30-H ) :   0.7124 B( 26-C , 31-H ) :   0.7843
B( 26-C , 33-H ) :   0.1717 B( 26-C , 34-H ) :   0.1459 B( 27-H , 28-H ) :  -0.2036
B( 29-C , 30-H ) :   0.1911 B( 29-C , 31-H ) :   0.1790 B( 29-C , 32-C ) :   1.0746
B( 29-C , 33-H ) :   0.8415 B( 29-C , 34-H ) :   0.7941 B( 29-C , 37-H ) :   0.3967
B( 29-C , 38-H ) :   0.1616 B( 31-H , 35-H ) :   0.1003 B( 32-C , 37-H ) :   0.4803
B( 32-C , 38-H ) :   0.5474 B( 37-H , 38-H ) :  -0.1679

Dispersion correction           -0.096580061
FINAL SINGLE POINT ENERGY     -1189.979782332893

DIPOLE MOMENT
-------------
                                X             Y             Z
Electronic contribution:    -16.90104       2.71801     -21.28396
Nuclear contribution   :     17.35766      -5.13497      20.30937
                        -----------------------------------------
Total Dipole Moment    :      0.45662      -2.41695      -0.97460
                        -----------------------------------------
Magnitude (a.u.)       :      2.64575
Magnitude (Debye)      :      6.72497

Rotational constants in cm-1:     0.014431     0.012329     0.007535
Rotational constants in MHz :   432.628327   369.619539   225.898827

                             ****ORCA TERMINATED NORMALLY****
TOTAL RUN TIME: 0 days 0 hours 1 minutes 8 seconds 626 msec
