                         Program Version 5.0.0 -  RELEASE  -
|  1> !BLYP D3BJ RIJCOSX def2-SVPD def2/J TightSCF xyzfile
|  2>
|  3> *xyzfile 0 1 D5.xyz
|  4>
|  5> %MaxCore 64000
|  6>
|  7> %pal nprocs 4
|  8> end
|  9>
| 10> %scf
| 11>   MaxIter 150
| 12> end
| 13>
| 14>
| 15>                          ****END OF INPUT****

CARTESIAN COORDINATES (ANGSTROEM)
---------------------------------
  C      4.490588    1.155899   -2.469290
  N      4.305394    1.222762   -3.908317
  C      4.906458   -3.102816   -5.954844
  C      3.511771   -2.806215   -6.492283
  H      2.736044   -3.373445   -5.973736
  H      3.444904   -3.040831   -7.555281
  S      3.004618   -1.096206   -6.389259
  C      4.631918    2.246365   -4.670958
  C      4.541686    2.143990   -5.987139
  N      5.084086    3.393584   -4.118545
  H      4.920675    3.570501   -3.135870
  H      5.254652    4.197390   -4.706956
  H      3.824530    0.449113   -4.350926
  H      4.343373    1.249318   -6.416646
  H      4.676712    2.956624   -6.574113
  O      4.128856   -0.329647   -6.953717
  F      1.781285   -1.000779   -7.136399
  C      5.942129    0.939500   -2.036893
  H      3.864305    0.328532   -2.136611
  H      4.076233    2.049994   -1.989010
  C      6.462677   -3.117775   -3.944671
  C      5.024977   -3.025679   -4.437625
  H      4.423321   -3.818693   -3.977648
  H      4.579350   -2.087131   -4.108727
  H      5.201533   -4.100207   -6.296905
  H      5.605922   -2.397822   -6.413368
  C      6.559957   -0.356290   -2.559086
  H      5.967976    0.952567   -0.942444
  H      6.547184    1.788331   -2.368849
  C      6.006283   -1.615917   -1.899301
  H      7.642360   -0.318000   -2.402059
  H      6.414855   -0.403433   -3.642587
  C      6.608718   -2.917014   -2.435655
  H      6.190324   -1.561115   -0.820948
  H      4.919250   -1.651245   -2.016586
  H      7.066975   -2.374258   -4.475514
  H      6.887808   -4.089747   -4.215332
  H      6.135197   -3.755573   -1.915159
  H      7.671142   -2.955503   -2.172291
  O      2.851546   -0.783683   -4.956789

 Total Charge           Charge          ....    0
 Multiplicity           Mult            ....    1
 Number of Electrons    NEL             ....  144
 Basis Dimension        Dim             ....  540

ORBITAL ENERGIES
----------------

  NO   OCC          E(Eh)            E(eV)
   0   2.0000     -88.397702     -2405.4238
   1   2.0000     -24.431343      -664.8106
   2   2.0000     -18.812194      -511.9058
   3   2.0000     -18.801746      -511.6215
   4   2.0000     -13.998977      -380.9315
   5   2.0000     -13.982845      -380.4926
   6   2.0000      -9.989840      -271.8374
   7   2.0000      -9.951986      -270.8073
   8   2.0000      -9.936239      -270.3788
   9   2.0000      -9.930348      -270.2185
  10   2.0000      -9.924900      -270.0703
  11   2.0000      -9.919474      -269.9226
  12   2.0000      -9.915364      -269.8108
  13   2.0000      -9.909894      -269.6619
  14   2.0000      -9.904162      -269.5060
  15   2.0000      -9.902908      -269.4718
  16   2.0000      -9.796199      -266.5681
  17   2.0000      -7.934044      -215.8963
  18   2.0000      -5.973506      -162.5474
  19   2.0000      -5.967141      -162.3742
  20   2.0000      -5.965153      -162.3201
  21   2.0000      -1.278869       -34.7998
  22   2.0000      -1.020865       -27.7792
  23   2.0000      -0.922727       -25.1087
  24   2.0000      -0.840537       -22.8722
  25   2.0000      -0.763668       -20.7805
  26   2.0000      -0.760272       -20.6880
  27   2.0000      -0.724633       -19.7183
  28   2.0000      -0.698921       -19.0186
  29   2.0000      -0.673287       -18.3211
  30   2.0000      -0.649971       -17.6866
  31   2.0000      -0.623253       -16.9596
  32   2.0000      -0.595182       -16.1957
  33   2.0000      -0.570691       -15.5293
  34   2.0000      -0.551047       -14.9947
  35   2.0000      -0.535480       -14.5712
  36   2.0000      -0.526140       -14.3170
  37   2.0000      -0.523650       -14.2493
  38   2.0000      -0.512549       -13.9472
  39   2.0000      -0.497342       -13.5334
  40   2.0000      -0.484484       -13.1835
  41   2.0000      -0.456248       -12.4151
  42   2.0000      -0.449258       -12.2249
  43   2.0000      -0.437175       -11.8961
  44   2.0000      -0.423807       -11.5324
  45   2.0000      -0.420018       -11.4293
  46   2.0000      -0.411176       -11.1887
  47   2.0000      -0.408728       -11.1220
  48   2.0000      -0.397014       -10.8033
  49   2.0000      -0.393584       -10.7100
  50   2.0000      -0.380522       -10.3545
  51   2.0000      -0.375317       -10.2129
  52   2.0000      -0.363603        -9.8941
  53   2.0000      -0.347936        -9.4678
  54   2.0000      -0.340374        -9.2620
  55   2.0000      -0.338773        -9.2185
  56   2.0000      -0.330101        -8.9825
  57   2.0000      -0.323134        -8.7929
  58   2.0000      -0.312951        -8.5158
  59   2.0000      -0.309970        -8.4347
  60   2.0000      -0.308291        -8.3890
  61   2.0000      -0.297901        -8.1063
  62   2.0000      -0.293819        -7.9952
  63   2.0000      -0.287887        -7.8338
  64   2.0000      -0.280501        -7.6328
  65   2.0000      -0.272633        -7.4187
  66   2.0000      -0.269021        -7.3204
  67   2.0000      -0.266891        -7.2625
  68   2.0000      -0.262221        -7.1354
  69   2.0000      -0.244777        -6.6607
  70   2.0000      -0.182762        -4.9732
  71   2.0000      -0.098686        -2.6854
  72   0.0000      -0.031766        -0.8644
  73   0.0000      -0.013511        -0.3677
  74   0.0000       0.006474         0.1762
  75   0.0000       0.008476         0.2306
  76   0.0000       0.012343         0.3359

MULLIKEN ATOMIC CHARGES
-----------------------
   0 C :    1.352927
   1 N :    0.553533
   2 C :    0.515374
   3 C :    0.581611
   4 H :   -0.118855
   5 H :   -0.159164
   6 S :    1.430257
   7 C :    0.815209
   8 C :    0.807532
   9 N :    0.548952
  10 H :   -0.148512
  11 H :   -0.306694
  12 H :   -1.195187
  13 H :   -0.584011
  14 H :   -0.880928
  15 O :   -0.624559
  16 F :   -0.470363
  17 C :    0.618378
  18 H :   -0.528439
  19 H :   -0.349516
  20 C :    0.315876
  21 C :    0.569580
  22 H :   -0.063724
  23 H :   -0.745537
  24 H :   -0.241232
  25 H :   -0.067521
  26 C :    0.490986
  27 H :   -0.343265
  28 H :   -0.195023
  29 C :    0.124808
  30 H :   -0.321454
  31 H :   -0.286023
  32 C :    0.960346
  33 H :   -0.534117
  34 H :    0.034367
  35 H :    0.013588
  36 H :   -0.534817
  37 H :   -0.195202
  38 H :   -0.139319
  39 O :   -0.699864
Sum of atomic charges:    0.0000000

LOEWDIN ATOMIC CHARGES
----------------------
   0 C :    0.061341
   1 N :    0.033225
   2 C :   -0.010115
   3 C :   -0.046881
   4 H :    0.023223
   5 H :    0.018835
   6 S :    1.156578
   7 C :   -0.222714
   8 C :    0.182860
   9 N :    0.217339
  10 H :   -0.038599
  11 H :   -0.007500
  12 H :   -0.092342
  13 H :   -0.200465
  14 H :   -0.106577
  15 O :   -0.422141
  16 F :   -0.223181
  17 C :   -0.012435
  18 H :    0.010681
  19 H :    0.001803
  20 C :   -0.024736
  21 C :   -0.017158
  22 H :    0.036595
  23 H :   -0.017996
  24 H :    0.035938
  25 H :    0.029460
  26 C :   -0.021354
  27 H :    0.012838
  28 H :    0.005357
  29 C :   -0.029398
  30 H :    0.021429
  31 H :    0.006430
  32 C :   -0.020253
  33 H :    0.018861
  34 H :    0.001516
  35 H :    0.016216
  36 H :    0.018628
  37 H :    0.016051
  38 H :    0.018103
  39 O :   -0.429463

  Mayer bond orders larger than 0.100000
B(  0-C ,  1-N ) :   1.0378 B(  0-C , 12-H ) :  -0.5796 B(  0-C , 17-C ) :   1.0598
B(  0-C , 18-H ) :   0.3988 B(  0-C , 19-H ) :   0.7206 B(  0-C , 26-C ) :   0.2276
B(  0-C , 27-H ) :   0.1540 B(  0-C , 28-H ) :   0.1191 B(  1-N ,  7-C ) :   1.2208
B(  1-N ,  8-C ) :   0.1422 B(  1-N ,  9-N ) :   0.3349 B(  1-N , 12-H ) :   0.5864
B(  1-N , 18-H ) :   0.3352 B(  2-C ,  3-C ) :   1.2037 B(  2-C ,  5-H ) :   0.3528
B(  2-C , 20-C ) :   0.1812 B(  2-C , 21-C ) :   1.1086 B(  2-C , 22-H ) :   0.1365
B(  2-C , 23-H ) :   0.1008 B(  2-C , 24-H ) :   0.6371 B(  2-C , 25-H ) :   0.7729
B(  3-C ,  4-H ) :   0.8226 B(  3-C ,  5-H ) :   0.5444 B(  3-C ,  6-S ) :   0.9481
B(  3-C , 16-F ) :   0.1043 B(  3-C , 21-C ) :   0.1990 B(  3-C , 24-H ) :   0.1202
B(  3-C , 25-H ) :   0.1196 B(  5-H ,  6-S ) :   0.1101 B(  6-S , 15-O ) :   1.4689
B(  6-S , 16-F ) :   0.5729 B(  6-S , 39-O ) :   1.3792 B(  7-C ,  8-C ) :   1.0371
B(  7-C ,  9-N ) :   0.8840 B(  7-C , 12-H ) :  -0.8742 B(  7-C , 14-H ) :   0.2137
B(  8-C ,  9-N ) :   0.3454 B(  8-C , 13-H ) :   0.3861 B(  8-C , 14-H ) :   0.5022
B(  9-N , 10-H ) :   0.9557 B(  9-N , 11-H ) :   1.1810 B(  9-N , 18-H ) :  -0.1129
B(  9-N , 19-H ) :   0.1078 B( 10-H , 11-H ) :  -0.2035 B( 12-H , 18-H ) :   0.1280
B( 12-H , 39-O ) :   0.1555 B( 13-H , 14-H ) :  -0.2553 B( 13-H , 15-O ) :   0.1807
B( 15-O , 39-O ) :   0.1260 B( 16-F , 39-O ) :   0.1000 B( 17-C , 18-H ) :   0.1315
B( 17-C , 19-H ) :   0.1641 B( 17-C , 26-C ) :   1.1703 B( 17-C , 27-H ) :   0.8026
B( 17-C , 28-H ) :   0.5815 B( 17-C , 30-H ) :   0.1121 B( 17-C , 31-H ) :   0.1642
B( 18-H , 19-H ) :  -0.2677 B( 18-H , 26-C ) :  -0.1154 B( 20-C , 21-C ) :   1.1900
B( 20-C , 22-H ) :   0.1404 B( 20-C , 23-H ) :   0.1742 B( 20-C , 29-C ) :   0.2307
B( 20-C , 32-C ) :   1.0957 B( 20-C , 35-H ) :   0.7831 B( 20-C , 36-H ) :   0.7403
B( 20-C , 37-H ) :   0.1316 B( 20-C , 38-H ) :   0.3045 B( 21-C , 22-H ) :   0.5969
B( 21-C , 23-H ) :   0.5172 B( 21-C , 24-H ) :   0.2269 B( 21-C , 25-H ) :   0.1367
B( 21-C , 35-H ) :   0.1469 B( 21-C , 36-H ) :   0.2221 B( 22-H , 23-H ) :   0.1755
B( 23-H , 34-H ) :   0.1522 B( 24-H , 25-H ) :  -0.1089 B( 26-C , 28-H ) :   0.2902
B( 26-C , 29-C ) :   1.2180 B( 26-C , 30-H ) :   0.6989 B( 26-C , 31-H ) :   0.7680
B( 26-C , 33-H ) :   0.1667 B( 26-C , 34-H ) :   0.1390 B( 27-H , 28-H ) :  -0.1769
B( 29-C , 30-H ) :   0.1925 B( 29-C , 31-H ) :   0.1640 B( 29-C , 32-C ) :   1.0722
B( 29-C , 33-H ) :   0.8409 B( 29-C , 34-H ) :   0.7877 B( 29-C , 37-H ) :   0.3918
B( 29-C , 38-H ) :   0.1619 B( 31-H , 35-H ) :   0.1106 B( 32-C , 37-H ) :   0.4832
B( 32-C , 38-H ) :   0.5469 B( 37-H , 38-H ) :  -0.1673

Dispersion correction           -0.097338356
FINAL SINGLE POINT ENERGY     -1189.959821807860

DIPOLE MOMENT
-------------
                                X             Y             Z
Electronic contribution:    -20.57336       2.67547     -20.18285
Nuclear contribution   :     20.03262      -4.53368      20.24480
                        -----------------------------------------
Total Dipole Moment    :     -0.54073      -1.85821       0.06195
                        -----------------------------------------
Magnitude (a.u.)       :      1.93628
Magnitude (Debye)      :      4.92163

Rotational constants in cm-1:     0.014367     0.012055     0.007393
Rotational constants in MHz :   430.711297   361.391195   221.649333

                             ****ORCA TERMINATED NORMALLY****
TOTAL RUN TIME: 0 days 0 hours 1 minutes 16 seconds 653 msec
