                         Program Version 5.0.0 -  RELEASE  -
|  1> !BLYP D3BJ RIJCOSX def2-SVPD def2/J TightSCF xyzfile
|  2>
|  3> *xyzfile 0 1 D8.xyz
|  4>
|  5> %MaxCore 64000
|  6>
|  7> %pal nprocs 4
|  8> end
|  9>
| 10> %scf
| 11>   MaxIter 150
| 12> end
| 13>
| 14>
| 15>                          ****END OF INPUT****

CARTESIAN COORDINATES (ANGSTROEM)
---------------------------------
  C      4.490588    1.155899   -2.469290
  N      4.305394    1.222762   -3.908317
  C      4.906458   -3.102816   -5.954844
  C      3.511771   -2.806215   -6.492283
  H      2.736044   -3.373445   -5.973736
  H      3.444904   -3.040831   -7.555281
  S      3.004618   -1.096206   -6.389259
  C      4.631918    2.246365   -4.670958
  C      4.541686    2.143990   -5.987139
  N      5.084086    3.393584   -4.118545
  H      4.920675    3.570501   -3.135870
  H      5.254652    4.197390   -4.706956
  H      3.824530    0.449113   -4.350926
  H      4.343373    1.249318   -6.416646
  H      4.676712    2.956624   -6.574113
  O      4.128856   -0.329647   -6.953717
  O      1.781285   -1.000779   -7.136399
  C      5.942129    0.939500   -2.036893
  H      3.864305    0.328532   -2.136611
  H      4.076233    2.049994   -1.989010
  C      6.462677   -3.117775   -3.944671
  C      5.024977   -3.025679   -4.437625
  H      4.423321   -3.818693   -3.977648
  H      4.579350   -2.087131   -4.108727
  H      5.201533   -4.100207   -6.296905
  H      5.605922   -2.397822   -6.413368
  C      6.559957   -0.356290   -2.559086
  H      5.967976    0.952567   -0.942444
  H      6.547184    1.788331   -2.368849
  C      6.006283   -1.615917   -1.899301
  H      7.642360   -0.318000   -2.402059
  H      6.414855   -0.403433   -3.642587
  C      6.608718   -2.917014   -2.435655
  H      6.190324   -1.561115   -0.820948
  H      4.919250   -1.651245   -2.016586
  H      7.066975   -2.374258   -4.475514
  H      6.887808   -4.089747   -4.215332
  H      6.135197   -3.755573   -1.915159
  H      7.671142   -2.955503   -2.172291
  F      2.851546   -0.783683   -4.956789

 Total Charge           Charge          ....    0
 Multiplicity           Mult            ....    1
 Number of Electrons    NEL             ....  144
 Basis Dimension        Dim             ....  540

ORBITAL ENERGIES
----------------

  NO   OCC          E(Eh)            E(eV)
   0   2.0000     -88.388077     -2405.1619
   1   2.0000     -24.420527      -664.5163
   2   2.0000     -18.809930      -511.8442
   3   2.0000     -18.796815      -511.4873
   4   2.0000     -14.009370      -381.2143
   5   2.0000     -14.007071      -381.1518
   6   2.0000      -9.985426      -271.7173
   7   2.0000      -9.952341      -270.8170
   8   2.0000      -9.950424      -270.7648
   9   2.0000      -9.942440      -270.5475
  10   2.0000      -9.936976      -270.3989
  11   2.0000      -9.927497      -270.1409
  12   2.0000      -9.923582      -270.0344
  13   2.0000      -9.920314      -269.9455
  14   2.0000      -9.914815      -269.7958
  15   2.0000      -9.914664      -269.7917
  16   2.0000      -9.806276      -266.8423
  17   2.0000      -7.924784      -215.6443
  18   2.0000      -5.964301      -162.2969
  19   2.0000      -5.957766      -162.1190
  20   2.0000      -5.955928      -162.0690
  21   2.0000      -1.257324       -34.2135
  22   2.0000      -1.022706       -27.8293
  23   2.0000      -0.926756       -25.2183
  24   2.0000      -0.857191       -23.3253
  25   2.0000      -0.778117       -21.1736
  26   2.0000      -0.761486       -20.7211
  27   2.0000      -0.731211       -19.8973
  28   2.0000      -0.705308       -19.1924
  29   2.0000      -0.674465       -18.3531
  30   2.0000      -0.655621       -17.8404
  31   2.0000      -0.632532       -17.2121
  32   2.0000      -0.601057       -16.3556
  33   2.0000      -0.579573       -15.7710
  34   2.0000      -0.561234       -15.2719
  35   2.0000      -0.543106       -14.7787
  36   2.0000      -0.529649       -14.4125
  37   2.0000      -0.521955       -14.2031
  38   2.0000      -0.507694       -13.8151
  39   2.0000      -0.498654       -13.5691
  40   2.0000      -0.492886       -13.4121
  41   2.0000      -0.460553       -12.5323
  42   2.0000      -0.446777       -12.1574
  43   2.0000      -0.436656       -11.8820
  44   2.0000      -0.429790       -11.6952
  45   2.0000      -0.428307       -11.6548
  46   2.0000      -0.419738       -11.4216
  47   2.0000      -0.414264       -11.2727
  48   2.0000      -0.409730       -11.1493
  49   2.0000      -0.394248       -10.7280
  50   2.0000      -0.391286       -10.6474
  51   2.0000      -0.383482       -10.4351
  52   2.0000      -0.368040       -10.0149
  53   2.0000      -0.353315        -9.6142
  54   2.0000      -0.345579        -9.4037
  55   2.0000      -0.343847        -9.3565
  56   2.0000      -0.336903        -9.1676
  57   2.0000      -0.329143        -8.9564
  58   2.0000      -0.323586        -8.8052
  59   2.0000      -0.318949        -8.6791
  60   2.0000      -0.316632        -8.6160
  61   2.0000      -0.304337        -8.2814
  62   2.0000      -0.299824        -8.1586
  63   2.0000      -0.298444        -8.1211
  64   2.0000      -0.292000        -7.9457
  65   2.0000      -0.280567        -7.6346
  66   2.0000      -0.278602        -7.5811
  67   2.0000      -0.273157        -7.4330
  68   2.0000      -0.271000        -7.3743
  69   2.0000      -0.248824        -6.7708
  70   2.0000      -0.197956        -5.3867
  71   2.0000      -0.110433        -3.0050
  72   0.0000      -0.032494        -0.8842
  73   0.0000      -0.006451        -0.1755
  74   0.0000      -0.003064        -0.0834
  75   0.0000       0.003642         0.0991
  76   0.0000       0.009725         0.2646

MULLIKEN ATOMIC CHARGES
-----------------------
   0 C :    1.352939
   1 N :    0.671593
   2 C :    0.573207
   3 C :    0.596716
   4 H :   -0.145114
   5 H :   -0.150615
   6 S :    1.275177
   7 C :    0.852812
   8 C :    0.753483
   9 N :    0.548382
  10 H :   -0.145658
  11 H :   -0.303160
  12 H :   -1.279515
  13 H :   -0.563072
  14 H :   -0.840519
  15 O :   -0.635910
  16 O :   -0.613127
  17 C :    0.617144
  18 H :   -0.541950
  19 H :   -0.348757
  20 C :    0.304007
  21 C :    0.569907
  22 H :   -0.061632
  23 H :   -0.787528
  24 H :   -0.235675
  25 H :   -0.057755
  26 C :    0.495005
  27 H :   -0.335611
  28 H :   -0.192423
  29 C :    0.132896
  30 H :   -0.317255
  31 H :   -0.285409
  32 C :    0.956256
  33 H :   -0.532577
  34 H :    0.022333
  35 H :    0.014161
  36 H :   -0.531932
  37 H :   -0.193685
  38 H :   -0.135885
  39 F :   -0.501252
Sum of atomic charges:    0.0000000

LOEWDIN ATOMIC CHARGES
----------------------
   0 C :    0.059699
   1 N :    0.025471
   2 C :   -0.023677
   3 C :   -0.037800
   4 H :    0.023046
   5 H :    0.032682
   6 S :    1.118155
   7 C :   -0.223796
   8 C :    0.188500
   9 N :    0.219094
  10 H :   -0.037384
  11 H :   -0.004175
  12 H :   -0.061417
  13 H :   -0.197618
  14 H :   -0.099410
  15 O :   -0.421147
  16 O :   -0.416363
  17 C :   -0.010651
  18 H :    0.008308
  19 H :    0.004457
  20 C :   -0.022582
  21 C :   -0.023568
  22 H :    0.036450
  23 H :   -0.019394
  24 H :    0.034021
  25 H :    0.027265
  26 C :   -0.021086
  27 H :    0.014951
  28 H :    0.007178
  29 C :   -0.030773
  30 H :    0.023433
  31 H :    0.005812
  32 C :   -0.019359
  33 H :    0.020026
  34 H :   -0.001920
  35 H :    0.017295
  36 H :    0.021613
  37 H :    0.016971
  38 H :    0.019450
  39 F :   -0.251756

  Mayer bond orders larger than 0.100000
B(  0-C ,  1-N ) :   1.0595 B(  0-C , 12-H ) :  -0.5779 B(  0-C , 17-C ) :   1.0657
B(  0-C , 18-H ) :   0.3873 B(  0-C , 19-H ) :   0.7229 B(  0-C , 26-C ) :   0.2262
B(  0-C , 27-H ) :   0.1554 B(  0-C , 28-H ) :   0.1257 B(  1-N ,  7-C ) :   1.2359
B(  1-N ,  8-C ) :   0.1499 B(  1-N ,  9-N ) :   0.3469 B(  1-N , 12-H ) :   0.3077
B(  1-N , 18-H ) :   0.3223 B(  2-C ,  3-C ) :   1.1719 B(  2-C ,  5-H ) :   0.3212
B(  2-C , 20-C ) :   0.1761 B(  2-C , 21-C ) :   1.1229 B(  2-C , 22-H ) :   0.1340
B(  2-C , 24-H ) :   0.6312 B(  2-C , 25-H ) :   0.7868 B(  3-C ,  4-H ) :   0.8338
B(  3-C ,  5-H ) :   0.5804 B(  3-C ,  6-S ) :   0.9292 B(  3-C , 16-O ) :   0.1086
B(  3-C , 21-C ) :   0.1992 B(  3-C , 24-H ) :   0.1116 B(  3-C , 25-H ) :   0.1223
B(  6-S , 15-O ) :   1.5055 B(  6-S , 16-O ) :   1.5274 B(  6-S , 39-F ) :   0.6181
B(  7-C ,  8-C ) :   1.0290 B(  7-C ,  9-N ) :   0.8880 B(  7-C , 12-H ) :  -0.8574
B(  7-C , 14-H ) :   0.2277 B(  8-C ,  9-N ) :   0.3486 B(  8-C , 12-H ) :   0.1020
B(  8-C , 13-H ) :   0.4184 B(  8-C , 14-H ) :   0.5019 B(  9-N , 10-H ) :   0.9547
B(  9-N , 11-H ) :   1.1771 B(  9-N , 18-H ) :  -0.1128 B(  9-N , 19-H ) :   0.1090
B( 10-H , 11-H ) :  -0.2044 B( 12-H , 18-H ) :   0.1521 B( 12-H , 39-F ) :   0.2597
B( 13-H , 14-H ) :  -0.2305 B( 13-H , 15-O ) :   0.1223 B( 15-O , 16-O ) :   0.1071
B( 17-C , 18-H ) :   0.1331 B( 17-C , 19-H ) :   0.1594 B( 17-C , 26-C ) :   1.1735
B( 17-C , 27-H ) :   0.8049 B( 17-C , 28-H ) :   0.5808 B( 17-C , 30-H ) :   0.1100
B( 17-C , 31-H ) :   0.1646 B( 18-H , 19-H ) :  -0.2632 B( 18-H , 26-C ) :  -0.1158
B( 20-C , 21-C ) :   1.2013 B( 20-C , 22-H ) :   0.1397 B( 20-C , 23-H ) :   0.1908
B( 20-C , 29-C ) :   0.2361 B( 20-C , 32-C ) :   1.0937 B( 20-C , 35-H ) :   0.7850
B( 20-C , 36-H ) :   0.7417 B( 20-C , 37-H ) :   0.1291 B( 20-C , 38-H ) :   0.3065
B( 21-C , 22-H ) :   0.6008 B( 21-C , 23-H ) :   0.4557 B( 21-C , 24-H ) :   0.2254
B( 21-C , 25-H ) :   0.1386 B( 21-C , 35-H ) :   0.1421 B( 21-C , 36-H ) :   0.2197
B( 22-H , 23-H ) :   0.1852 B( 23-H , 34-H ) :   0.1568 B( 24-H , 25-H ) :  -0.1060
B( 26-C , 28-H ) :   0.2869 B( 26-C , 29-C ) :   1.2159 B( 26-C , 30-H ) :   0.7034
B( 26-C , 31-H ) :   0.7681 B( 26-C , 33-H ) :   0.1654 B( 26-C , 34-H ) :   0.1359
B( 27-H , 28-H ) :  -0.1731 B( 29-C , 30-H ) :   0.1912 B( 29-C , 31-H ) :   0.1609
B( 29-C , 32-C ) :   1.0744 B( 29-C , 33-H ) :   0.8395 B( 29-C , 34-H ) :   0.7852
B( 29-C , 37-H ) :   0.3928 B( 29-C , 38-H ) :   0.1608 B( 31-H , 35-H ) :   0.1097
B( 32-C , 35-H ) :   0.1030 B( 32-C , 37-H ) :   0.4836 B( 32-C , 38-H ) :   0.5490
B( 37-H , 38-H ) :  -0.1671

Dispersion correction           -0.096532134
FINAL SINGLE POINT ENERGY     -1189.963685049470

DIPOLE MOMENT
-------------
                                X             Y             Z
Electronic contribution:    -18.43890       3.19877     -16.24418
Nuclear contribution   :     18.77618      -4.78855      17.68602
                        -----------------------------------------
Total Dipole Moment    :      0.33728      -1.58977       1.44184
                        -----------------------------------------
Magnitude (a.u.)       :      2.17257
Magnitude (Debye)      :      5.52223

Rotational constants in cm-1:     0.014368     0.012319     0.007509
Rotational constants in MHz :   430.738566   369.302170   225.105103

                             ****ORCA TERMINATED NORMALLY****
TOTAL RUN TIME: 0 days 0 hours 1 minutes 15 seconds 690 msec
