                         Program Version 5.0.0 -  RELEASE  -
|  1> !BLYP D3BJ RIJCOSX def2-SVPD def2/J TightSCF xyzfile
|  2>
|  3> *xyzfile 0 1 D9.xyz
|  4>
|  5> %MaxCore 64000
|  6>
|  7> %pal nprocs 4
|  8> end
|  9>
| 10> %scf
| 11>   MaxIter 150
| 12> end
| 13>
| 14>
| 15>                          ****END OF INPUT****

CARTESIAN COORDINATES (ANGSTROEM)
---------------------------------
  C      4.490588    1.155899   -2.469290
  N      4.305394    1.222762   -3.908317
  C      4.906458   -3.102816   -5.954844
  C      3.511771   -2.806215   -6.492283
  H      2.736044   -3.373445   -5.973736
  H      3.444904   -3.040831   -7.555281
  S      3.004618   -1.096206   -6.389259
  C      4.631918    2.246365   -4.670958
  N      4.541686    2.143990   -5.987139
  C      5.084086    3.393584   -4.118545
  H      4.920675    3.570501   -3.135870
  H      5.254652    4.197390   -4.706956
  H      3.824530    0.449113   -4.350926
  H      4.343373    1.249318   -6.416646
  H      4.676712    2.956624   -6.574113
  O      4.128856   -0.329647   -6.953717
  O      1.781285   -1.000779   -7.136399
  C      5.942129    0.939500   -2.036893
  H      3.864305    0.328532   -2.136611
  H      4.076233    2.049994   -1.989010
  C      6.462677   -3.117775   -3.944671
  C      5.024977   -3.025679   -4.437625
  H      4.423321   -3.818693   -3.977648
  H      4.579350   -2.087131   -4.108727
  H      5.201533   -4.100207   -6.296905
  H      5.605922   -2.397822   -6.413368
  C      6.559957   -0.356290   -2.559086
  H      5.967976    0.952567   -0.942444
  H      6.547184    1.788331   -2.368849
  C      6.006283   -1.615917   -1.899301
  H      7.642360   -0.318000   -2.402059
  H      6.414855   -0.403433   -3.642587
  C      6.608718   -2.917014   -2.435655
  H      6.190324   -1.561115   -0.820948
  H      4.919250   -1.651245   -2.016586
  H      7.066975   -2.374258   -4.475514
  H      6.887808   -4.089747   -4.215332
  H      6.135197   -3.755573   -1.915159
  H      7.671142   -2.955503   -2.172291
  F      2.851546   -0.783683   -4.956789

 Total Charge           Charge          ....    0
 Multiplicity           Mult            ....    1
 Number of Electrons    NEL             ....  144
 Basis Dimension        Dim             ....  540

ORBITAL ENERGIES
----------------

  NO   OCC          E(Eh)            E(eV)
   0   2.0000     -88.407251     -2405.6836
   1   2.0000     -24.434666      -664.9011
   2   2.0000     -18.827008      -512.3089
   3   2.0000     -18.822657      -512.1905
   4   2.0000     -14.009920      -381.2293
   5   2.0000     -13.990598      -380.7035
   6   2.0000      -9.998657      -272.0773
   7   2.0000      -9.959700      -271.0172
   8   2.0000      -9.944770      -270.6109
   9   2.0000      -9.944533      -270.6045
  10   2.0000      -9.942716      -270.5550
  11   2.0000      -9.930754      -270.2295
  12   2.0000      -9.924188      -270.0509
  13   2.0000      -9.918572      -269.8981
  14   2.0000      -9.910988      -269.6917
  15   2.0000      -9.905567      -269.5442
  16   2.0000      -9.819644      -267.2061
  17   2.0000      -7.944014      -216.1676
  18   2.0000      -5.983513      -162.8197
  19   2.0000      -5.977175      -162.6472
  20   2.0000      -5.975016      -162.5884
  21   2.0000      -1.272053       -34.6143
  22   2.0000      -1.042285       -28.3620
  23   2.0000      -0.948791       -25.8179
  24   2.0000      -0.856420       -23.3044
  25   2.0000      -0.776613       -21.1327
  26   2.0000      -0.771919       -21.0050
  27   2.0000      -0.734138       -19.9769
  28   2.0000      -0.704696       -19.1757
  29   2.0000      -0.678120       -18.4526
  30   2.0000      -0.658509       -17.9189
  31   2.0000      -0.624569       -16.9954
  32   2.0000      -0.610277       -16.6065
  33   2.0000      -0.590973       -16.0812
  34   2.0000      -0.569500       -15.4969
  35   2.0000      -0.545626       -14.8472
  36   2.0000      -0.536632       -14.6025
  37   2.0000      -0.529914       -14.4197
  38   2.0000      -0.516875       -14.0649
  39   2.0000      -0.500371       -13.6158
  40   2.0000      -0.475519       -12.9395
  41   2.0000      -0.469245       -12.7688
  42   2.0000      -0.458923       -12.4879
  43   2.0000      -0.452123       -12.3029
  44   2.0000      -0.441646       -12.0178
  45   2.0000      -0.436672       -11.8824
  46   2.0000      -0.421016       -11.4564
  47   2.0000      -0.419349       -11.4111
  48   2.0000      -0.403860       -10.9896
  49   2.0000      -0.400094       -10.8871
  50   2.0000      -0.388301       -10.5662
  51   2.0000      -0.387585       -10.5467
  52   2.0000      -0.368284       -10.0215
  53   2.0000      -0.361375        -9.8335
  54   2.0000      -0.350463        -9.5366
  55   2.0000      -0.346507        -9.4289
  56   2.0000      -0.337882        -9.1942
  57   2.0000      -0.331094        -9.0095
  58   2.0000      -0.323034        -8.7902
  59   2.0000      -0.318692        -8.6721
  60   2.0000      -0.311564        -8.4781
  61   2.0000      -0.310053        -8.4370
  62   2.0000      -0.306714        -8.3461
  63   2.0000      -0.300620        -8.1803
  64   2.0000      -0.298089        -8.1114
  65   2.0000      -0.290171        -7.8960
  66   2.0000      -0.288989        -7.8638
  67   2.0000      -0.278107        -7.5677
  68   2.0000      -0.276598        -7.5266
  69   2.0000      -0.268499        -7.3062
  70   2.0000      -0.188259        -5.1228
  71   2.0000      -0.113385        -3.0854
  72   0.0000      -0.045460        -1.2370
  73   0.0000      -0.014330        -0.3899
  74   0.0000      -0.006348        -0.1727
  75   0.0000       0.002041         0.0555
  76   0.0000       0.004060         0.1105

MULLIKEN ATOMIC CHARGES
-----------------------
   0 C :    1.317200
   1 N :    0.785789
   2 C :    0.575242
   3 C :    0.586304
   4 H :   -0.133497
   5 H :   -0.143552
   6 S :    1.253852
   7 C :    0.379893
   8 N :    0.985802
   9 C :    0.731016
  10 H :   -0.000567
  11 H :   -0.886451
  12 H :   -1.448685
  13 H :   -0.584520
  14 H :   -0.284201
  15 O :   -0.657452
  16 O :   -0.594348
  17 C :    0.631517
  18 H :   -0.567464
  19 H :   -0.256817
  20 C :    0.293536
  21 C :    0.580755
  22 H :   -0.064222
  23 H :   -0.787529
  24 H :   -0.234170
  25 H :   -0.054759
  26 C :    0.455345
  27 H :   -0.290353
  28 H :   -0.203126
  29 C :    0.122495
  30 H :   -0.319454
  31 H :   -0.288179
  32 C :    0.963565
  33 H :   -0.528512
  34 H :    0.015871
  35 H :    0.021889
  36 H :   -0.536523
  37 H :   -0.194371
  38 H :   -0.134627
  39 F :   -0.506692
Sum of atomic charges:    0.0000000

LOEWDIN ATOMIC CHARGES
----------------------
   0 C :    0.066673
   1 N :    0.024682
   2 C :   -0.022945
   3 C :   -0.033824
   4 H :    0.026691
   5 H :    0.033973
   6 S :    1.123524
   7 C :   -0.228487
   8 N :    0.235376
   9 C :    0.169784
  10 H :   -0.125487
  11 H :   -0.114981
  12 H :   -0.071054
  13 H :   -0.134129
  14 H :    0.006132
  15 O :   -0.418355
  16 O :   -0.410128
  17 C :   -0.003114
  18 H :    0.006880
  19 H :    0.012779
  20 C :   -0.022518
  21 C :   -0.023174
  22 H :    0.037216
  23 H :   -0.019338
  24 H :    0.035673
  25 H :    0.026878
  26 C :   -0.022817
  27 H :    0.017613
  28 H :    0.008230
  29 C :   -0.031250
  30 H :    0.023276
  31 H :    0.002343
  32 C :   -0.019346
  33 H :    0.020705
  34 H :   -0.002543
  35 H :    0.017018
  36 H :    0.021586
  37 H :    0.016690
  38 H :    0.019919
  39 F :   -0.250153

  Mayer bond orders larger than 0.100000
B(  0-C ,  1-N ) :   1.1232 B(  0-C ,  7-C ) :  -0.1052 B(  0-C , 10-H ) :   0.1244
B(  0-C , 12-H ) :  -0.5878 B(  0-C , 17-C ) :   1.0487 B(  0-C , 18-H ) :   0.4678
B(  0-C , 19-H ) :   0.7425 B(  0-C , 26-C ) :   0.2194 B(  0-C , 27-H ) :   0.1308
B(  0-C , 28-H ) :   0.1136 B(  1-N ,  7-C ) :   1.1201 B(  1-N ,  9-C ) :   0.3210
B(  1-N , 11-H ) :   0.1572 B(  1-N , 13-H ) :   0.1834 B(  1-N , 14-H ) :  -0.1423
B(  1-N , 17-C ) :   0.1091 B(  1-N , 18-H ) :   0.3537 B(  2-C ,  3-C ) :   1.1744
B(  2-C ,  5-H ) :   0.3253 B(  2-C , 20-C ) :   0.1760 B(  2-C , 21-C ) :   1.1159
B(  2-C , 22-H ) :   0.1312 B(  2-C , 23-H ) :   0.1007 B(  2-C , 24-H ) :   0.6375
B(  2-C , 25-H ) :   0.7760 B(  3-C ,  4-H ) :   0.8336 B(  3-C ,  5-H ) :   0.5764
B(  3-C ,  6-S ) :   0.9501 B(  3-C , 21-C ) :   0.2012 B(  3-C , 24-H ) :   0.1090
B(  3-C , 25-H ) :   0.1256 B(  6-S , 15-O ) :   1.4420 B(  6-S , 16-O ) :   1.5545
B(  6-S , 39-F ) :   0.6439 B(  7-C ,  8-N ) :   1.0525 B(  7-C ,  9-C ) :   1.4133
B(  7-C , 10-H ) :   0.4441 B(  7-C , 11-H ) :   0.4216 B(  7-C , 12-H ) :  -0.7682
B(  7-C , 13-H ) :  -0.1953 B(  7-C , 18-H ) :   0.1661 B(  8-N ,  9-C ) :   0.2330
B(  8-N , 11-H ) :   0.1127 B(  8-N , 13-H ) :   0.7396 B(  8-N , 14-H ) :   1.1982
B(  9-C , 10-H ) :   0.4597 B(  9-C , 11-H ) :   0.3931 B( 10-H , 13-H ) :   0.2196
B( 10-H , 18-H ) :  -0.1439 B( 10-H , 19-H ) :   0.1426 B( 11-H , 12-H ) :  -0.1287
B( 12-H , 39-F ) :   0.3304 B( 13-H , 14-H ) :  -0.2864 B( 13-H , 15-O ) :   0.1836
B( 15-O , 16-O ) :   0.1124 B( 17-C , 18-H ) :   0.1334 B( 17-C , 19-H ) :   0.1290
B( 17-C , 26-C ) :   1.1447 B( 17-C , 27-H ) :   0.7853 B( 17-C , 28-H ) :   0.6256
B( 17-C , 31-H ) :   0.1629 B( 18-H , 19-H ) :  -0.3088 B( 20-C , 21-C ) :   1.2033
B( 20-C , 22-H ) :   0.1381 B( 20-C , 23-H ) :   0.1949 B( 20-C , 29-C ) :   0.2360
B( 20-C , 32-C ) :   1.0928 B( 20-C , 35-H ) :   0.7854 B( 20-C , 36-H ) :   0.7483
B( 20-C , 37-H ) :   0.1315 B( 20-C , 38-H ) :   0.3062 B( 21-C , 22-H ) :   0.6026
B( 21-C , 23-H ) :   0.4456 B( 21-C , 24-H ) :   0.2215 B( 21-C , 25-H ) :   0.1376
B( 21-C , 35-H ) :   0.1465 B( 21-C , 36-H ) :   0.2205 B( 22-H , 23-H ) :   0.1831
B( 23-H , 34-H ) :   0.1552 B( 24-H , 25-H ) :  -0.1112 B( 26-C , 27-H ) :   0.1160
B( 26-C , 28-H ) :   0.2929 B( 26-C , 29-C ) :   1.2116 B( 26-C , 30-H ) :   0.7147
B( 26-C , 31-H ) :   0.7776 B( 26-C , 33-H ) :   0.1694 B( 26-C , 34-H ) :   0.1413
B( 27-H , 28-H ) :  -0.2006 B( 29-C , 30-H ) :   0.1924 B( 29-C , 31-H ) :   0.1739
B( 29-C , 32-C ) :   1.0754 B( 29-C , 33-H ) :   0.8425 B( 29-C , 34-H ) :   0.7916
B( 29-C , 37-H ) :   0.3976 B( 29-C , 38-H ) :   0.1615 B( 31-H , 35-H ) :   0.1064
B( 32-C , 35-H ) :   0.1020 B( 32-C , 37-H ) :   0.4802 B( 32-C , 38-H ) :   0.5512
B( 37-H , 38-H ) :  -0.1673

Dispersion correction           -0.096394199
FINAL SINGLE POINT ENERGY     -1189.980715325114

DIPOLE MOMENT
-------------
                                X             Y             Z
Electronic contribution:    -18.94506       1.89955     -17.87016
Nuclear contribution   :     18.85717      -4.60195      17.96505
                        -----------------------------------------
Total Dipole Moment    :     -0.08789      -2.70240       0.09490
                        -----------------------------------------
Magnitude (a.u.)       :      2.70549
Magnitude (Debye)      :      6.87681

Rotational constants in cm-1:     0.014436     0.012382     0.007563
Rotational constants in MHz :   432.785702   371.214592   226.743759

                             ****ORCA TERMINATED NORMALLY****
TOTAL RUN TIME: 0 days 0 hours 1 minutes 8 seconds 244 msec
