                         Program Version 5.0.0 -  RELEASE  -
|  1> !LC-PBE RIJCOSX def2-TZVPD def2/J TightSCF
|  2> *xyz -1 1
|  3> C         -2.79070       -0.78527        5.70281
|  4> C         -2.45380        0.05510        6.94145
|  5> C         -2.07842        1.48042        6.56410
|  6> H         -1.62558       -0.38216        7.49891
|  7> H         -3.32527        0.08775        7.59917
|  8> O         -0.90125        1.85816        6.82810
|  9> O         -2.93658        2.17731        5.96415
| 10> H         -1.94052       -0.82114        5.05412
| 11> H         -3.61590       -0.34261        5.18514
| 12> H         -3.05063       -1.77815        6.00536
| 13> *
| 14> %MaxCore 64000
| 15>
| 16> %pal nprocs 4
| 17> end
| 18>
| 19> %scf
| 20>   MaxIter 150
| 21> end
| 22>
| 23>
| 24>                          ****END OF INPUT****

CARTESIAN COORDINATES (ANGSTROEM)
---------------------------------
  C     -2.790700   -0.785270    5.702810
  C     -2.453800    0.055100    6.941450
  C     -2.078420    1.480420    6.564100
  H     -1.625580   -0.382160    7.498910
  H     -3.325270    0.087750    7.599170
  O     -0.901250    1.858160    6.828100
  O     -2.936580    2.177310    5.964150
  H     -1.940520   -0.821140    5.054120
  H     -3.615900   -0.342610    5.185140
  H     -3.050630   -1.778150    6.005360

 Total Charge           Charge          ....   -1
 Multiplicity           Mult            ....    1
 Number of Electrons    NEL             ....   40
 Basis Dimension        Dim             ....  236

ORBITAL ENERGIES
----------------

  NO   OCC          E(Eh)            E(eV)
   0   2.0000     -18.709209      -509.1035
   1   2.0000     -18.707845      -509.0663
   2   2.0000     -10.002395      -272.1790
   3   2.0000      -9.951871      -270.8042
   4   2.0000      -9.942256      -270.5425
   5   2.0000      -0.985892       -26.8275
   6   2.0000      -0.882606       -24.0169
   7   2.0000      -0.784934       -21.3591
   8   2.0000      -0.641150       -17.4466
   9   2.0000      -0.473331       -12.8800
  10   2.0000      -0.439557       -11.9609
  11   2.0000      -0.404442       -11.0054
  12   2.0000      -0.374969       -10.2034
  13   2.0000      -0.353695        -9.6245
  14   2.0000      -0.347319        -9.4510
  15   2.0000      -0.311879        -8.4867
  16   2.0000      -0.299446        -8.1483
  17   2.0000      -0.175872        -4.7857
  18   2.0000      -0.172920        -4.7054
  19   2.0000      -0.161034        -4.3820
  20   0.0000       0.188213         5.1215
  21   0.0000       0.209418         5.6986
  22   0.0000       0.215164         5.8549
  23   0.0000       0.229013         6.2318
  24   0.0000       0.258498         7.0341

MULLIKEN ATOMIC CHARGES
-----------------------
   0 C :   -1.127690
   1 C :   -0.367826
   2 C :    0.371191
   3 H :    0.276092
   4 H :    0.278473
   5 O :   -0.711515
   6 O :   -0.696129
   7 H :    0.335811
   8 H :    0.318319
   9 H :    0.323274
Sum of atomic charges:   -1.0000000

LOEWDIN ATOMIC CHARGES
----------------------
   0 C :   -0.147858
   1 C :   -0.230165
   2 C :   -0.789575
   3 H :    0.098087
   4 H :    0.104545
   5 O :   -0.117809
   6 O :   -0.106108
   7 H :    0.071605
   8 H :    0.065050
   9 H :    0.052227

  Mayer bond orders larger than 0.100000
B(  0-C ,  1-C ) :   0.5459 B(  0-C ,  7-H ) :   0.9389 B(  0-C ,  8-H ) :   0.9837
B(  0-C ,  9-H ) :   0.9177 B(  1-C ,  2-C ) :   0.9438 B(  1-C ,  3-H ) :   0.9752
B(  1-C ,  4-H ) :   0.9432 B(  2-C ,  5-O ) :   1.4564 B(  2-C ,  6-O ) :   1.4783

FINAL SINGLE POINT ENERGY      -267.156981003397

DIPOLE MOMENT
-------------
                                X             Y             Z
Electronic contribution:      1.60487       5.46087       0.69155
Nuclear contribution   :     -2.24498      -7.51881      -0.57245
                        -----------------------------------------
Total Dipole Moment    :     -0.64011      -2.05794       0.11910
                        -----------------------------------------
Magnitude (a.u.)       :      2.15848
Magnitude (Debye)      :      5.48643

Rotational constants in cm-1:     0.305589     0.135336     0.107479
Rotational constants in MHz :  9161.317320  4057.276612  3222.126231

                             ****ORCA TERMINATED NORMALLY****
TOTAL RUN TIME: 0 days 0 hours 0 minutes 31 seconds 634 msec
