                         Program Version 5.0.0 -  RELEASE  -
|  1> !LC-PBE RIJCOSX def2-TZVPD def2/J TightSCF
|  2> *xyz 1 1
|  3> C         -0.69912        3.48945        3.75516
|  4> H         -0.96672        4.34901        3.14049
|  5> N         -1.08067        3.79296        5.15686
|  6> C          0.77696        3.13839        3.61741
|  7> H         -1.33146        2.65651        3.44632
|  8> H         -0.87449        4.76274        5.42734
|  9> H         -0.68079        3.13476        5.83900
| 10> H         -2.05755        3.53169        5.34620
| 11> H          0.99957        2.92898        2.59199
| 12> H          0.99576        2.27685        4.21303
| 13> H          1.37223        3.96279        3.95046
| 14> *
| 15> %MaxCore 64000
| 16>
| 17> %pal nprocs 4
| 18> end
| 19>
| 20> %scf
| 21>   MaxIter 150
| 22> end
| 23>
| 24>
| 25>                          ****END OF INPUT****

CARTESIAN COORDINATES (ANGSTROEM)
---------------------------------
  C     -0.699120    3.489450    3.755160
  H     -0.966720    4.349010    3.140490
  N     -1.080670    3.792960    5.156860
  C      0.776960    3.138390    3.617410
  H     -1.331460    2.656510    3.446320
  H     -0.874490    4.762740    5.427340
  H     -0.680790    3.134760    5.839000
  H     -2.057550    3.531690    5.346200
  H      0.999570    2.928980    2.591990
  H      0.995760    2.276850    4.213030
  H      1.372230    3.962790    3.950460

 Total Charge           Charge          ....    1
 Multiplicity           Mult            ....    1
 Number of Electrons    NEL             ....   26
 Basis Dimension        Dim             ....  183

ORBITAL ENERGIES
----------------

  NO   OCC          E(Eh)            E(eV)
   0   2.0000     -14.549987      -395.9253
   1   2.0000     -10.369719      -282.1744
   2   2.0000     -10.285649      -279.8867
   3   2.0000      -1.392108       -37.8812
   4   2.0000      -1.141059       -31.0498
   5   2.0000      -1.008600       -27.4454
   6   2.0000      -0.963639       -26.2219
   7   2.0000      -0.914085       -24.8735
   8   2.0000      -0.841605       -22.9012
   9   2.0000      -0.785029       -21.3617
  10   2.0000      -0.715875       -19.4800
  11   2.0000      -0.700056       -19.0495
  12   2.0000      -0.679911       -18.5013
  13   0.0000      -0.122452        -3.3321
  14   0.0000      -0.068584        -1.8663
  15   0.0000      -0.065312        -1.7772
  16   0.0000      -0.059359        -1.6152
  17   0.0000      -0.029483        -0.8023

MULLIKEN ATOMIC CHARGES
-----------------------
   0 C :   -0.421854
   1 H :    0.373146
   2 N :   -0.438790
   3 C :   -1.276717
   4 H :    0.367035
   5 H :    0.390663
   6 H :    0.398726
   7 H :    0.397918
   8 H :    0.377206
   9 H :    0.423992
  10 H :    0.408674
Sum of atomic charges:    1.0000000

LOEWDIN ATOMIC CHARGES
----------------------
   0 C :   -0.219736
   1 H :    0.144420
   2 N :    0.168334
   3 C :   -0.079551
   4 H :    0.142121
   5 H :    0.191995
   6 H :    0.185869
   7 H :    0.186851
   8 H :    0.099139
   9 H :    0.089734
  10 H :    0.090826

  Mayer bond orders larger than 0.100000
B(  0-C ,  1-H ) :   0.9041 B(  0-C ,  2-N ) :   0.8747 B(  0-C ,  3-C ) :   0.6280
B(  0-C ,  4-H ) :   0.8726 B(  2-N ,  5-H ) :   0.8413 B(  2-N ,  6-H ) :   0.8334
B(  2-N ,  7-H ) :   0.8430 B(  3-C ,  8-H ) :   0.9352 B(  3-C ,  9-H ) :   0.8474
B(  3-C , 10-H ) :   0.8939

FINAL SINGLE POINT ENERGY      -135.126378355414

DIPOLE MOMENT
-------------
                                X             Y             Z
Electronic contribution:     -1.33796       0.57128       1.11030
Nuclear contribution   :      0.33986      -0.24565       0.10678
                        -----------------------------------------
Total Dipole Moment    :     -0.99811       0.32562       1.21708
                        -----------------------------------------
Magnitude (a.u.)       :      1.60734
Magnitude (Debye)      :      4.08553

Rotational constants in cm-1:     1.016237     0.277523     0.247812
Rotational constants in MHz : 30466.024354  8319.937961  7429.230177

                             ****ORCA TERMINATED NORMALLY****
TOTAL RUN TIME: 0 days 0 hours 0 minutes 17 seconds 38 msec
