                         Program Version 5.0.0 -  RELEASE  -
|  1> !LC-PBE RIJCOSX def2-TZVPD def2/J TightSCF xyzfile
|  2>
|  3> *xyzfile 0 1 B.xyz
|  4>
|  5> %MaxCore 64000
|  6>
|  7> %pal nprocs 4
|  8> end
|  9>
| 10> %scf
| 11>   MaxIter 150
| 12> end
| 13>
| 14>
| 15>                          ****END OF INPUT****

CARTESIAN COORDINATES (ANGSTROEM)
---------------------------------
  C     -0.699123    3.489451    3.755163
  H     -0.966716    4.349013    3.140491
  N     -1.080669    3.792957    5.156857
  C      0.776956    3.138391    3.617408
  H     -1.331455    2.656510    3.446323
  H      1.371398    3.888342    4.149744
  H      1.046926    3.232057    2.561331
  C      1.118917    1.731170    4.115155
  H      2.200573    1.654226    4.254882
  C      0.659466    0.635182    3.153306
  H      0.677024    1.576674    5.103150
  H      1.312288    0.638870    2.274207
  H     -0.339563    0.868049    2.772876
  C      0.639957   -0.771175    3.755619
  C     -0.341821   -0.965537    4.915046
  H      1.648266   -1.028665    4.097015
  H      0.398568   -1.482386    2.958453
  H     -0.279892   -2.005646    5.252547
  C     -1.789164   -0.639231    4.557496
  H     -0.032380   -0.352918    5.765118
  H     -2.107151   -1.270102    3.719619
  H     -1.856352    0.391636    4.197604
  C     -2.790700   -0.785275    5.702812
  H     -2.867308   -1.835651    6.001675
  H     -3.774554   -0.486577    5.334807
  C     -2.453797    0.055101    6.941445
  C     -2.078419    1.480421    6.564098
  H     -1.625584   -0.382163    7.498914
  H     -3.325274    0.087746    7.599175
  H     -0.874488    4.762737    5.427344
  H     -0.680793    3.134762    5.839000
  H     -2.057550    3.531691    5.346197
  O     -0.901252    1.858156    6.828104
  O     -2.936582    2.177309    5.964151

 Total Charge           Charge          ....    0
 Multiplicity           Mult            ....    1
 Number of Electrons    NEL             ....  104
 Basis Dimension        Dim             ....  676

ORBITAL ENERGIES
----------------

  NO   OCC          E(Eh)            E(eV)
   0   2.0000     -18.911984      -514.6213
   1   2.0000     -18.910153      -514.5714
   2   2.0000     -14.295483      -388.9999
   3   2.0000     -10.195990      -277.4470
   4   2.0000     -10.185660      -277.1659
   5   2.0000     -10.138176      -275.8738
   6   2.0000     -10.113089      -275.1911
   7   2.0000     -10.110141      -275.1109
   8   2.0000     -10.103722      -274.9362
   9   2.0000     -10.095393      -274.7096
  10   2.0000     -10.094573      -274.6873
  11   2.0000     -10.092944      -274.6430
  12   2.0000     -10.087797      -274.5029
  13   2.0000      -1.200706       -32.6729
  14   2.0000      -1.155827       -31.4516
  15   2.0000      -1.089844       -29.6562
  16   2.0000      -1.005022       -27.3480
  17   2.0000      -0.974883       -26.5279
  18   2.0000      -0.944176       -25.6923
  19   2.0000      -0.891823       -24.2677
  20   2.0000      -0.857751       -23.3406
  21   2.0000      -0.815416       -22.1886
  22   2.0000      -0.773151       -21.0385
  23   2.0000      -0.751600       -20.4521
  24   2.0000      -0.732411       -19.9299
  25   2.0000      -0.706026       -19.2119
  26   2.0000      -0.697027       -18.9671
  27   2.0000      -0.646509       -17.5924
  28   2.0000      -0.633575       -17.2405
  29   2.0000      -0.622528       -16.9398
  30   2.0000      -0.620320       -16.8798
  31   2.0000      -0.593275       -16.1438
  32   2.0000      -0.589553       -16.0425
  33   2.0000      -0.576220       -15.6797
  34   2.0000      -0.564138       -15.3510
  35   2.0000      -0.546685       -14.8760
  36   2.0000      -0.540900       -14.7186
  37   2.0000      -0.539115       -14.6701
  38   2.0000      -0.522736       -14.2244
  39   2.0000      -0.517900       -14.0928
  40   2.0000      -0.495266       -13.4769
  41   2.0000      -0.488903       -13.3037
  42   2.0000      -0.482314       -13.1244
  43   2.0000      -0.465084       -12.6556
  44   2.0000      -0.452024       -12.3002
  45   2.0000      -0.449087       -12.2203
  46   2.0000      -0.433138       -11.7863
  47   2.0000      -0.426041       -11.5932
  48   2.0000      -0.420220       -11.4348
  49   2.0000      -0.379709       -10.3324
  50   2.0000      -0.368481       -10.0269
  51   2.0000      -0.365315        -9.9407
  52   0.0000       0.046249         1.2585
  53   0.0000       0.068080         1.8526
  54   0.0000       0.071687         1.9507
  55   0.0000       0.076968         2.0944
  56   0.0000       0.089418         2.4332

MULLIKEN ATOMIC CHARGES
-----------------------
   0 C :   -0.554832
   1 H :    0.396038
   2 N :   -0.353624
   3 C :   -0.828234
   4 H :    0.298279
   5 H :    0.355314
   6 H :    0.383628
   7 C :   -0.414903
   8 H :    0.384031
   9 C :   -0.754662
  10 H :    0.326514
  11 H :    0.366902
  12 H :    0.407625
  13 C :   -0.893597
  14 C :   -0.648974
  15 H :    0.359849
  16 H :    0.387025
  17 H :    0.331316
  18 C :   -0.424065
  19 H :    0.379835
  20 H :    0.348166
  21 H :    0.083585
  22 C :   -0.801624
  23 H :    0.355847
  24 H :    0.365763
  25 C :   -0.736650
  26 C :    0.730530
  27 H :    0.362244
  28 H :    0.401975
  29 H :    0.324899
  30 H :    0.340971
  31 H :    0.421519
  32 O :   -0.858206
  33 O :   -0.842484
Sum of atomic charges:   -0.0000000

LOEWDIN ATOMIC CHARGES
----------------------
   0 C :   -0.176955
   1 H :    0.131615
   2 N :    0.138854
   3 C :   -0.204340
   4 H :    0.125752
   5 H :    0.123132
   6 H :    0.125385
   7 C :   -0.214809
   8 H :    0.127471
   9 C :   -0.233298
  10 H :    0.098434
  11 H :    0.122073
  12 H :    0.104735
  13 C :   -0.224539
  14 C :   -0.224376
  15 H :    0.120340
  16 H :    0.118518
  17 H :    0.125923
  18 C :   -0.226034
  19 H :    0.105028
  20 H :    0.127385
  21 H :    0.099934
  22 C :   -0.214657
  23 H :    0.118748
  24 H :    0.119202
  25 C :   -0.138007
  26 C :   -0.662487
  27 H :    0.119326
  28 H :    0.126442
  29 H :    0.175928
  30 H :    0.070949
  31 H :    0.099532
  32 O :   -0.063211
  33 O :   -0.041994

  Mayer bond orders larger than 0.100000
B(  0-C ,  1-H ) :   0.8762 B(  0-C ,  2-N ) :   0.8477 B(  0-C ,  3-C ) :   0.8364
B(  0-C ,  4-H ) :   0.9204 B(  2-N , 29-H ) :   0.8942 B(  2-N , 30-H ) :   0.7467
B(  2-N , 31-H ) :   0.7366 B(  3-C ,  5-H ) :   0.9149 B(  3-C ,  6-H ) :   0.8649
B(  3-C ,  7-C ) :   0.8136 B(  7-C ,  8-H ) :   0.9043 B(  7-C ,  9-C ) :   0.4638
B(  7-C , 10-H ) :   0.9266 B(  9-C , 11-H ) :   0.9295 B(  9-C , 12-H ) :   0.9191
B(  9-C , 13-C ) :   0.8785 B( 13-C , 14-C ) :   0.7471 B( 13-C , 15-H ) :   0.9419
B( 13-C , 16-H ) :   0.9363 B( 14-C , 17-H ) :   0.9377 B( 14-C , 18-C ) :   0.4785
B( 14-C , 19-H ) :   0.9350 B( 14-C , 21-H ) :  -0.1411 B( 14-C , 25-C ) :   0.1067
B( 18-C , 20-H ) :   0.8819 B( 18-C , 21-H ) :   1.1978 B( 18-C , 22-C ) :   0.7716
B( 18-C , 25-C ) :  -0.1218 B( 20-H , 21-H ) :   0.1420 B( 22-C , 23-H ) :   0.9169
B( 22-C , 24-H ) :   0.9069 B( 22-C , 25-C ) :   0.7187 B( 25-C , 26-C ) :   0.9049
B( 25-C , 27-H ) :   0.9841 B( 25-C , 28-H ) :   0.8734 B( 26-C , 32-O ) :   1.2018
B( 26-C , 33-O ) :   1.0931 B( 30-H , 32-O ) :   0.1522 B( 31-H , 33-O ) :   0.1107
B( 32-O , 33-O ) :   0.1340

FINAL SINGLE POINT ENERGY      -597.249046599346

DIPOLE MOMENT
-------------
                                X             Y             Z
Electronic contribution:     -4.65845       4.82612       6.68257
Nuclear contribution   :      5.60885      -3.40606      -8.06960
                        -----------------------------------------
Total Dipole Moment    :      0.95040       1.42006      -1.38703
                        -----------------------------------------
Magnitude (a.u.)       :      2.20084
Magnitude (Debye)      :      5.59409

Rotational constants in cm-1:     0.028465     0.023505     0.015110
Rotational constants in MHz :   853.363165   704.655786   452.976312

                             ****ORCA TERMINATED NORMALLY****
TOTAL RUN TIME: 0 days 0 hours 6 minutes 32 seconds 41 msec
