                         Program Version 5.0.0 -  RELEASE  -
|  1> !LC-PBE RIJCOSX def2-TZVPD def2/J TightSCF
|  2> *xyz 0 1
|  3> C         -2.79070       -0.78527        5.70281
|  4> C         -2.45380        0.05510        6.94145
|  5> C         -2.07842        1.48042        6.56410
|  6> H         -1.62558       -0.38216        7.49891
|  7> H         -3.32527        0.08775        7.59917
|  8> F         -0.90125        1.85816        6.82810
|  9> O         -2.93658        2.17731        5.96415
| 10> H         -1.94052       -0.82114        5.05412
| 11> H         -3.61590       -0.34261        5.18514
| 12> H         -3.05063       -1.77815        6.00536
| 13> *
| 14> %MaxCore 64000
| 15>
| 16> %pal nprocs 4
| 17> end
| 18>
| 19> %scf
| 20>   MaxIter 150
| 21> end
| 22>
| 23>
| 24>                          ****END OF INPUT****

CARTESIAN COORDINATES (ANGSTROEM)
---------------------------------
  C     -2.790700   -0.785270    5.702810
  C     -2.453800    0.055100    6.941450
  C     -2.078420    1.480420    6.564100
  H     -1.625580   -0.382160    7.498910
  H     -3.325270    0.087750    7.599170
  F     -0.901250    1.858160    6.828100
  O     -2.936580    2.177310    5.964150
  H     -1.940520   -0.821140    5.054120
  H     -3.615900   -0.342610    5.185140
  H     -3.050630   -1.778150    6.005360

 Total Charge           Charge          ....    0
 Multiplicity           Mult            ....    1
 Number of Electrons    NEL             ....   40
 Basis Dimension        Dim             ....  236

ORBITAL ENERGIES
----------------

  NO   OCC          E(Eh)            E(eV)
   0   2.0000     -24.560249      -668.3184
   1   2.0000     -18.985953      -516.6340
   2   2.0000     -10.303206      -280.3645
   3   2.0000     -10.150730      -276.2154
   4   2.0000     -10.120567      -275.3946
   5   2.0000      -1.473558       -40.0975
   6   2.0000      -1.199821       -32.6488
   7   2.0000      -0.983174       -26.7535
   8   2.0000      -0.856119       -23.2962
   9   2.0000      -0.796994       -21.6873
  10   2.0000      -0.704627       -19.1739
  11   2.0000      -0.688133       -18.7251
  12   2.0000      -0.661333       -17.9958
  13   2.0000      -0.612086       -16.6557
  14   2.0000      -0.578930       -15.7535
  15   2.0000      -0.539578       -14.6827
  16   2.0000      -0.516765       -14.0619
  17   2.0000      -0.508782       -13.8447
  18   2.0000      -0.482689       -13.1346
  19   2.0000      -0.432637       -11.7727
  20   0.0000       0.055037         1.4976
  21   0.0000       0.066838         1.8187
  22   0.0000       0.084077         2.2878
  23   0.0000       0.090563         2.4643
  24   0.0000       0.099236         2.7003

MULLIKEN ATOMIC CHARGES
-----------------------
   0 C :   -1.194204
   1 C :   -0.423909
   2 C :    0.523765
   3 H :    0.333409
   4 H :    0.312789
   5 F :   -0.164386
   6 O :   -0.468091
   7 H :    0.374827
   8 H :    0.360900
   9 H :    0.344901
Sum of atomic charges:   -0.0000000

LOEWDIN ATOMIC CHARGES
----------------------
   0 C :   -0.107358
   1 C :   -0.174772
   2 C :   -0.496597
   3 H :    0.117913
   4 H :    0.130828
   5 F :    0.207906
   6 O :    0.079630
   7 H :    0.083518
   8 H :    0.081490
   9 H :    0.077442

  Mayer bond orders larger than 0.100000
B(  0-C ,  1-C ) :   0.6130 B(  0-C ,  7-H ) :   0.8932 B(  0-C ,  8-H ) :   0.9535
B(  0-C ,  9-H ) :   0.9261 B(  1-C ,  2-C ) :   0.9121 B(  1-C ,  3-H ) :   0.9161
B(  1-C ,  4-H ) :   0.9346 B(  2-C ,  5-F ) :   1.0377 B(  2-C ,  6-O ) :   1.7448

FINAL SINGLE POINT ENERGY      -291.697816903083

DIPOLE MOMENT
-------------
                                X             Y             Z
Electronic contribution:      3.97561       7.37819       1.51097
Nuclear contribution   :     -3.69486      -8.49563      -1.04945
                        -----------------------------------------
Total Dipole Moment    :      0.28076      -1.11744       0.46151
                        -----------------------------------------
Magnitude (a.u.)       :      1.24117
Magnitude (Debye)      :      3.15479

Rotational constants in cm-1:     0.293725     0.129218     0.102393
Rotational constants in MHz :  8805.653529  3873.869810  3069.666716

                             ****ORCA TERMINATED NORMALLY****
TOTAL RUN TIME: 0 days 0 hours 0 minutes 31 seconds 30 msec
