                         Program Version 5.0.0 -  RELEASE  -
|  1> !LC-PBE RIJCOSX def2-TZVPD def2/J TightSCF
|  2> *xyz 0 1
|  3> C         -0.69912        3.48945        3.75516
|  4> H         -0.96672        4.34901        3.14049
|  5> C         -1.08067        3.79296        5.15686
|  6> C          0.77696        3.13839        3.61741
|  7> H         -1.33146        2.65651        3.44632
|  8> H         -0.87449        4.76274        5.42734
|  9> H         -0.68079        3.13476        5.83900
| 10> H         -2.05755        3.53169        5.34620
| 11> H          0.99957        2.92898        2.59199
| 12> H          0.99576        2.27685        4.21303
| 13> H          1.37223        3.96279        3.95046
| 14> *
| 15> %MaxCore 64000
| 16>
| 17> %pal nprocs 4
| 18> end
| 19>
| 20> %scf
| 21>   MaxIter 150
| 22> end
| 23>
| 24>
| 25>                          ****END OF INPUT****

CARTESIAN COORDINATES (ANGSTROEM)
---------------------------------
  C     -0.699120    3.489450    3.755160
  H     -0.966720    4.349010    3.140490
  C     -1.080670    3.792960    5.156860
  C      0.776960    3.138390    3.617410
  H     -1.331460    2.656510    3.446320
  H     -0.874490    4.762740    5.427340
  H     -0.680790    3.134760    5.839000
  H     -2.057550    3.531690    5.346200
  H      0.999570    2.928980    2.591990
  H      0.995760    2.276850    4.213030
  H      1.372230    3.962790    3.950460

 Total Charge           Charge          ....    0
 Multiplicity           Mult            ....    1
 Number of Electrons    NEL             ....   26
 Basis Dimension        Dim             ....  183

ORBITAL ENERGIES
----------------

  NO   OCC          E(Eh)            E(eV)
   0   2.0000     -10.100639      -274.8524
   1   2.0000     -10.089007      -274.5359
   2   2.0000     -10.070619      -274.0355
   3   2.0000      -0.970860       -26.4184
   4   2.0000      -0.861325       -23.4379
   5   2.0000      -0.747726       -20.3467
   6   2.0000      -0.619526       -16.8581
   7   2.0000      -0.583461       -15.8768
   8   2.0000      -0.537687       -14.6312
   9   2.0000      -0.531999       -14.4764
  10   2.0000      -0.468828       -12.7574
  11   2.0000      -0.454686       -12.3726
  12   2.0000      -0.452898       -12.3240
  13   0.0000       0.073971         2.0129
  14   0.0000       0.091646         2.4938
  15   0.0000       0.094892         2.5821
  16   0.0000       0.124409         3.3853
  17   0.0000       0.148034         4.0282

MULLIKEN ATOMIC CHARGES
-----------------------
   0 C :   -0.357141
   1 H :    0.318003
   2 C :   -1.298147
   3 C :   -1.177193
   4 H :    0.328458
   5 H :    0.359684
   6 H :    0.388047
   7 H :    0.389059
   8 H :    0.342550
   9 H :    0.360916
  10 H :    0.345765
Sum of atomic charges:   -0.0000000

LOEWDIN ATOMIC CHARGES
----------------------
   0 C :   -0.335773
   1 H :    0.112200
   2 C :   -0.155672
   3 C :   -0.138908
   4 H :    0.111057
   5 H :    0.065989
   6 H :    0.062435
   7 H :    0.059667
   8 H :    0.068663
   9 H :    0.074528
  10 H :    0.075814

  Mayer bond orders larger than 0.100000
B(  0-C ,  1-H ) :   0.9303 B(  0-C ,  2-C ) :   0.5908 B(  0-C ,  3-C ) :   0.6129
B(  0-C ,  4-H ) :   0.9393 B(  2-C ,  5-H ) :   0.9177 B(  2-C ,  6-H ) :   0.9215
B(  2-C ,  7-H ) :   0.9305 B(  3-C ,  8-H ) :   0.9673 B(  3-C ,  9-H ) :   0.9220
B(  3-C , 10-H ) :   0.9406

FINAL SINGLE POINT ENERGY      -118.732689890771

DIPOLE MOMENT
-------------
                                X             Y             Z
Electronic contribution:     -0.14566       0.11667      -0.39283
Nuclear contribution   :      0.10024      -0.14218       0.41628
                        -----------------------------------------
Total Dipole Moment    :     -0.04541      -0.02551       0.02345
                        -----------------------------------------
Magnitude (a.u.)       :      0.05712
Magnitude (Debye)      :      0.14519

Rotational constants in cm-1:     1.024179     0.291605     0.259489
Rotational constants in MHz : 30704.103454  8742.106283  7779.285909

                             ****ORCA TERMINATED NORMALLY****
TOTAL RUN TIME: 0 days 0 hours 0 minutes 17 seconds 42 msec
