                         Program Version 5.0.0 -  RELEASE  -
|  1> !LC-PBE RIJCOSX def2-TZVPD def2/J TightSCF
|  2> *xyz 0 1
|  3> C         -2.79070       -0.78527        5.70281
|  4> C         -2.45380        0.05510        6.94145
|  5> C         -2.07842        1.48042        6.56410
|  6> H         -1.62558       -0.38216        7.49891
|  7> H         -3.32527        0.08775        7.59917
|  8> O         -0.90125        1.85816        6.82810
|  9> F         -2.93658        2.17731        5.96415
| 10> H         -1.94052       -0.82114        5.05412
| 11> H         -3.61590       -0.34261        5.18514
| 12> H         -3.05063       -1.77815        6.00536
| 13> *
| 14> %MaxCore 64000
| 15>
| 16> %pal nprocs 4
| 17> end
| 18>
| 19> %scf
| 20>   MaxIter 150
| 21> end
| 22>
| 23>
| 24>                          ****END OF INPUT****

CARTESIAN COORDINATES (ANGSTROEM)
---------------------------------
  C     -2.790700   -0.785270    5.702810
  C     -2.453800    0.055100    6.941450
  C     -2.078420    1.480420    6.564100
  H     -1.625580   -0.382160    7.498910
  H     -3.325270    0.087750    7.599170
  O     -0.901250    1.858160    6.828100
  F     -2.936580    2.177310    5.964150
  H     -1.940520   -0.821140    5.054120
  H     -3.615900   -0.342610    5.185140
  H     -3.050630   -1.778150    6.005360

 Total Charge           Charge          ....    0
 Multiplicity           Mult            ....    1
 Number of Electrons    NEL             ....   40
 Basis Dimension        Dim             ....  236

ORBITAL ENERGIES
----------------

  NO   OCC          E(Eh)            E(eV)
   0   2.0000     -24.563407      -668.4043
   1   2.0000     -18.984201      -516.5864
   2   2.0000     -10.303026      -280.3596
   3   2.0000     -10.150357      -276.2052
   4   2.0000     -10.124844      -275.5110
   5   2.0000      -1.478667       -40.2366
   6   2.0000      -1.195105       -32.5205
   7   2.0000      -0.986594       -26.8466
   8   2.0000      -0.853387       -23.2218
   9   2.0000      -0.804301       -21.8862
  10   2.0000      -0.708963       -19.2919
  11   2.0000      -0.695355       -18.9216
  12   2.0000      -0.653938       -17.7946
  13   2.0000      -0.612546       -16.6682
  14   2.0000      -0.579172       -15.7601
  15   2.0000      -0.542992       -14.7756
  16   2.0000      -0.521291       -14.1851
  17   2.0000      -0.510823       -13.9002
  18   2.0000      -0.485048       -13.1988
  19   2.0000      -0.426013       -11.5924
  20   0.0000       0.055342         1.5059
  21   0.0000       0.068559         1.8656
  22   0.0000       0.082858         2.2547
  23   0.0000       0.090038         2.4501
  24   0.0000       0.099574         2.7096

MULLIKEN ATOMIC CHARGES
-----------------------
   0 C :   -1.203980
   1 C :   -0.409267
   2 C :    0.534781
   3 H :    0.297074
   4 H :    0.340459
   5 O :   -0.485572
   6 F :   -0.161158
   7 H :    0.380585
   8 H :    0.367699
   9 H :    0.339377
Sum of atomic charges:   -0.0000000

LOEWDIN ATOMIC CHARGES
----------------------
   0 C :   -0.109771
   1 C :   -0.172486
   2 C :   -0.501428
   3 H :    0.126224
   4 H :    0.127050
   5 O :    0.070814
   6 F :    0.218371
   7 H :    0.085209
   8 H :    0.078065
   9 H :    0.077952

  Mayer bond orders larger than 0.100000
B(  0-C ,  1-C ) :   0.5649 B(  0-C ,  7-H ) :   0.9176 B(  0-C ,  8-H ) :   0.9166
B(  0-C ,  9-H ) :   0.9396 B(  1-C ,  2-C ) :   0.9184 B(  1-C ,  3-H ) :   0.9577
B(  1-C ,  4-H ) :   0.9109 B(  2-C ,  5-O ) :   1.7245 B(  2-C ,  6-F ) :   1.0266

FINAL SINGLE POINT ENERGY      -291.695408014892

DIPOLE MOMENT
-------------
                                X             Y             Z
Electronic contribution:      0.54439       7.89245       0.05787
Nuclear contribution   :     -1.47571      -8.84360      -0.10748
                        -----------------------------------------
Total Dipole Moment    :     -0.93132      -0.95115      -0.04961
                        -----------------------------------------
Magnitude (a.u.)       :      1.33211
Magnitude (Debye)      :      3.38595

Rotational constants in cm-1:     0.283081     0.133379     0.103386
Rotational constants in MHz :  8486.545774  3998.599544  3099.448040

                             ****ORCA TERMINATED NORMALLY****
TOTAL RUN TIME: 0 days 0 hours 0 minutes 31 seconds 176 msec
