                         Program Version 5.0.0 -  RELEASE  -
|  1> !LC-PBE RIJCOSX def2-TZVPD def2/J TightSCF xyzfile
|  2>
|  3> *xyzfile 0 1 D1.xyz
|  4>
|  5> %MaxCore 64000
|  6>
|  7> %pal nprocs 4
|  8> end
|  9>
| 10> %scf
| 11>   MaxIter 150
| 12> end
| 13>
| 14>
| 15>                          ****END OF INPUT****

CARTESIAN COORDINATES (ANGSTROEM)
---------------------------------
  C     -0.699123    3.489451    3.755163
  H     -0.966716    4.349013    3.140491
  C     -1.080669    3.792957    5.156857
  C      0.776956    3.138391    3.617408
  H     -1.331455    2.656510    3.446323
  H      1.371398    3.888342    4.149744
  H      1.046926    3.232057    2.561331
  C      1.118917    1.731170    4.115155
  H      2.200573    1.654226    4.254882
  C      0.659466    0.635182    3.153306
  H      0.677024    1.576674    5.103150
  H      1.312288    0.638870    2.274207
  H     -0.339563    0.868049    2.772876
  C      0.639957   -0.771175    3.755619
  C     -0.341821   -0.965537    4.915046
  H      1.648266   -1.028665    4.097015
  H      0.398568   -1.482386    2.958453
  H     -0.279892   -2.005646    5.252547
  C     -1.789164   -0.639231    4.557496
  H     -0.032380   -0.352918    5.765118
  H     -2.107151   -1.270102    3.719619
  H     -1.856352    0.391636    4.197604
  C     -2.790700   -0.785275    5.702812
  H     -2.867308   -1.835651    6.001675
  H     -3.774554   -0.486577    5.334807
  C     -2.453797    0.055101    6.941445
  C     -2.078419    1.480421    6.564098
  H     -1.625584   -0.382163    7.498914
  H     -3.325274    0.087746    7.599175
  H     -0.874488    4.762737    5.427344
  H     -0.680793    3.134762    5.839000
  H     -2.057550    3.531691    5.346197
  F     -0.901252    1.858156    6.828104
  O     -2.936582    2.177309    5.964151

 Total Charge           Charge          ....    0
 Multiplicity           Mult            ....    1
 Number of Electrons    NEL             ....  104
 Basis Dimension        Dim             ....  676

ORBITAL ENERGIES
----------------

  NO   OCC          E(Eh)            E(eV)
   0   2.0000     -24.570332      -668.5927
   1   2.0000     -18.992374      -516.8088
   2   2.0000     -10.313838      -280.6538
   3   2.0000     -10.151965      -276.2490
   4   2.0000     -10.133527      -275.7473
   5   2.0000     -10.118114      -275.3279
   6   2.0000     -10.115095      -275.2457
   7   2.0000     -10.109675      -275.0982
   8   2.0000     -10.102221      -274.8954
   9   2.0000     -10.099336      -274.8169
  10   2.0000     -10.091991      -274.6170
  11   2.0000     -10.082071      -274.3471
  12   2.0000     -10.025659      -272.8121
  13   2.0000      -1.490210       -40.5507
  14   2.0000      -1.213861       -33.0308
  15   2.0000      -1.016057       -27.6483
  16   2.0000      -0.990614       -26.9560
  17   2.0000      -0.957139       -26.0451
  18   2.0000      -0.925301       -25.1787
  19   2.0000      -0.879284       -23.9265
  20   2.0000      -0.851952       -23.1828
  21   2.0000      -0.820453       -22.3257
  22   2.0000      -0.790770       -21.5180
  23   2.0000      -0.770236       -20.9592
  24   2.0000      -0.725409       -19.7394
  25   2.0000      -0.720762       -19.6129
  26   2.0000      -0.711558       -19.3625
  27   2.0000      -0.692226       -18.8364
  28   2.0000      -0.671764       -18.2796
  29   2.0000      -0.629234       -17.1223
  30   2.0000      -0.625253       -17.0140
  31   2.0000      -0.606674       -16.5084
  32   2.0000      -0.604653       -16.4534
  33   2.0000      -0.579943       -15.7811
  34   2.0000      -0.571995       -15.5648
  35   2.0000      -0.554578       -15.0908
  36   2.0000      -0.547124       -14.8880
  37   2.0000      -0.536945       -14.6110
  38   2.0000      -0.526458       -14.3257
  39   2.0000      -0.516044       -14.0423
  40   2.0000      -0.501676       -13.6513
  41   2.0000      -0.494292       -13.4504
  42   2.0000      -0.482882       -13.1399
  43   2.0000      -0.473587       -12.8870
  44   2.0000      -0.469025       -12.7628
  45   2.0000      -0.455696       -12.4001
  46   2.0000      -0.451076       -12.2744
  47   2.0000      -0.437719       -11.9109
  48   2.0000      -0.433776       -11.8037
  49   2.0000      -0.421971       -11.4824
  50   2.0000      -0.420353       -11.4384
  51   2.0000      -0.394045       -10.7225
  52   0.0000       0.048254         1.3131
  53   0.0000       0.062081         1.6893
  54   0.0000       0.070835         1.9275
  55   0.0000       0.073358         1.9962
  56   0.0000       0.080259         2.1840

MULLIKEN ATOMIC CHARGES
-----------------------
   0 C :   -0.179366
   1 H :    0.361913
   2 C :   -2.279454
   3 C :   -0.796791
   4 H :    0.223256
   5 H :    0.351141
   6 H :    0.329634
   7 C :   -0.373905
   8 H :    0.373515
   9 C :   -0.725497
  10 H :    0.202245
  11 H :    0.378567
  12 H :    0.370530
  13 C :   -0.898095
  14 C :   -0.604840
  15 H :    0.365340
  16 H :    0.383402
  17 H :    0.324911
  18 C :   -0.504405
  19 H :    0.354007
  20 H :    0.362801
  21 H :    0.154468
  22 C :   -0.775263
  23 H :    0.369579
  24 H :    0.390317
  25 C :   -0.745100
  26 C :    0.686539
  27 H :    0.396836
  28 H :    0.390755
  29 H :    0.494284
  30 H :    0.635550
  31 H :    0.775797
  32 F :   -0.237165
  33 O :   -0.555507
Sum of atomic charges:    0.0000000

LOEWDIN ATOMIC CHARGES
----------------------
   0 C :   -0.255422
   1 H :    0.118666
   2 C :   -0.141713
   3 C :   -0.226566
   4 H :    0.105681
   5 H :    0.122050
   6 H :    0.116499
   7 C :   -0.218788
   8 H :    0.123572
   9 C :   -0.233168
  10 H :    0.096220
  11 H :    0.123436
  12 H :    0.105867
  13 C :   -0.225103
  14 C :   -0.226868
  15 H :    0.120710
  16 H :    0.119287
  17 H :    0.126368
  18 C :   -0.221724
  19 H :    0.101913
  20 H :    0.133096
  21 H :    0.105488
  22 C :   -0.204527
  23 H :    0.125350
  24 H :    0.125182
  25 C :   -0.112317
  26 C :   -0.454046
  27 H :    0.124722
  28 H :    0.136930
  29 H :    0.078521
  30 H :    0.026765
  31 H :    0.025657
  32 F :    0.176754
  33 O :    0.081510

  Mayer bond orders larger than 0.100000
B(  0-C ,  1-H ) :   0.8896 B(  0-C ,  3-C ) :   0.7274 B(  0-C ,  4-H ) :   1.0524
B(  0-C , 30-H ) :  -0.1077 B(  2-C , 29-H ) :   0.7319 B(  2-C , 30-H ) :   0.7281
B(  2-C , 31-H ) :   0.6435 B(  2-C , 33-O ) :   0.1163 B(  3-C ,  5-H ) :   0.9321
B(  3-C ,  6-H ) :   0.9154 B(  3-C ,  7-C ) :   0.8599 B(  7-C ,  8-H ) :   0.8856
B(  7-C ,  9-C ) :   0.5325 B(  7-C , 10-H ) :   1.0069 B(  9-C , 11-H ) :   0.8990
B(  9-C , 12-H ) :   0.9608 B(  9-C , 13-C ) :   0.8315 B( 13-C , 14-C ) :   0.8083
B( 13-C , 15-H ) :   0.9428 B( 13-C , 16-H ) :   0.9358 B( 14-C , 17-H ) :   0.9569
B( 14-C , 18-C ) :   0.4242 B( 14-C , 19-H ) :   0.9563 B( 14-C , 21-H ) :  -0.1486
B( 18-C , 20-H ) :   0.8556 B( 18-C , 21-H ) :   1.2009 B( 18-C , 22-C ) :   0.7652
B( 18-C , 25-C ) :  -0.1051 B( 20-H , 21-H ) :   0.1327 B( 22-C , 23-H ) :   0.9161
B( 22-C , 24-H ) :   0.8919 B( 22-C , 25-C ) :   0.7401 B( 25-C , 26-C ) :   0.8336
B( 25-C , 27-H ) :   0.9507 B( 25-C , 28-H ) :   0.8830 B( 26-C , 32-F ) :   0.9096
B( 26-C , 33-O ) :   1.5846 B( 29-H , 31-H ) :   0.1177 B( 30-H , 32-F ) :  -0.2383
B( 31-H , 33-O ) :  -0.2379 B( 32-F , 33-O ) :   0.1001

FINAL SINGLE POINT ENERGY      -605.139691053706

DIPOLE MOMENT
-------------
                                X             Y             Z
Electronic contribution:     -5.46146       2.44098      10.85247
Nuclear contribution   :      5.54676      -3.70047     -10.28793
                        -----------------------------------------
Total Dipole Moment    :      0.08529      -1.25949       0.56454
                        -----------------------------------------
Magnitude (a.u.)       :      1.38286
Magnitude (Debye)      :      3.51495

Rotational constants in cm-1:     0.028503     0.023389     0.015214
Rotational constants in MHz :   854.502405   701.197575   456.108322

                             ****ORCA TERMINATED NORMALLY****
TOTAL RUN TIME: 0 days 0 hours 7 minutes 47 seconds 181 msec
