                         Program Version 5.0.0 -  RELEASE  -
|  1> !LC-PBE RIJCOSX def2-TZVPD def2/J TightSCF xyzfile
|  2>
|  3> *xyzfile 0 1 D2.xyz
|  4>
|  5> %MaxCore 64000
|  6>
|  7> %pal nprocs 4
|  8> end
|  9>
| 10> %scf
| 11>   MaxIter 150
| 12> end
| 13>
| 14>
| 15>                          ****END OF INPUT****

CARTESIAN COORDINATES (ANGSTROEM)
---------------------------------
  C     -0.699123    3.489451    3.755163
  H     -0.966716    4.349013    3.140491
  C     -1.080669    3.792957    5.156857
  C      0.776956    3.138391    3.617408
  H     -1.331455    2.656510    3.446323
  H      1.371398    3.888342    4.149744
  H      1.046926    3.232057    2.561331
  C      1.118917    1.731170    4.115155
  H      2.200573    1.654226    4.254882
  C      0.659466    0.635182    3.153306
  H      0.677024    1.576674    5.103150
  H      1.312288    0.638870    2.274207
  H     -0.339563    0.868049    2.772876
  C      0.639957   -0.771175    3.755619
  C     -0.341821   -0.965537    4.915046
  H      1.648266   -1.028665    4.097015
  H      0.398568   -1.482386    2.958453
  H     -0.279892   -2.005646    5.252547
  C     -1.789164   -0.639231    4.557496
  H     -0.032380   -0.352918    5.765118
  H     -2.107151   -1.270102    3.719619
  H     -1.856352    0.391636    4.197604
  C     -2.790700   -0.785275    5.702812
  H     -2.867308   -1.835651    6.001675
  H     -3.774554   -0.486577    5.334807
  C     -2.453797    0.055101    6.941445
  C     -2.078419    1.480421    6.564098
  H     -1.625584   -0.382163    7.498914
  H     -3.325274    0.087746    7.599175
  H     -0.874488    4.762737    5.427344
  H     -0.680793    3.134762    5.839000
  H     -2.057550    3.531691    5.346197
  O     -0.901252    1.858156    6.828104
  F     -2.936582    2.177309    5.964151

 Total Charge           Charge          ....    0
 Multiplicity           Mult            ....    1
 Number of Electrons    NEL             ....  104
 Basis Dimension        Dim             ....  676

ORBITAL ENERGIES
----------------

  NO   OCC          E(Eh)            E(eV)
   0   2.0000     -24.573683      -668.6839
   1   2.0000     -18.992681      -516.8171
   2   2.0000     -10.315850      -280.7085
   3   2.0000     -10.152467      -276.2627
   4   2.0000     -10.137151      -275.8459
   5   2.0000     -10.120483      -275.3924
   6   2.0000     -10.109364      -275.0898
   7   2.0000     -10.105454      -274.9834
   8   2.0000     -10.097920      -274.7784
   9   2.0000     -10.090673      -274.5812
  10   2.0000     -10.088373      -274.5186
  11   2.0000     -10.081888      -274.3421
  12   2.0000     -10.024334      -272.7760
  13   2.0000      -1.493650       -40.6443
  14   2.0000      -1.213865       -33.0310
  15   2.0000      -1.017272       -27.6814
  16   2.0000      -0.987696       -26.8766
  17   2.0000      -0.955337       -25.9961
  18   2.0000      -0.923706       -25.1353
  19   2.0000      -0.876021       -23.8378
  20   2.0000      -0.848369       -23.0853
  21   2.0000      -0.822864       -22.3913
  22   2.0000      -0.786416       -21.3995
  23   2.0000      -0.771892       -21.0042
  24   2.0000      -0.723445       -19.6859
  25   2.0000      -0.721676       -19.6378
  26   2.0000      -0.714586       -19.4449
  27   2.0000      -0.691593       -18.8192
  28   2.0000      -0.667316       -18.1586
  29   2.0000      -0.632169       -17.2022
  30   2.0000      -0.626008       -17.0345
  31   2.0000      -0.605673       -16.4812
  32   2.0000      -0.599053       -16.3011
  33   2.0000      -0.574381       -15.6297
  34   2.0000      -0.565404       -15.3854
  35   2.0000      -0.558905       -15.2086
  36   2.0000      -0.546876       -14.8813
  37   2.0000      -0.540578       -14.7099
  38   2.0000      -0.525045       -14.2872
  39   2.0000      -0.511293       -13.9130
  40   2.0000      -0.507464       -13.8088
  41   2.0000      -0.499992       -13.6055
  42   2.0000      -0.482078       -13.1180
  43   2.0000      -0.473500       -12.8846
  44   2.0000      -0.465049       -12.6546
  45   2.0000      -0.454705       -12.3731
  46   2.0000      -0.447234       -12.1699
  47   2.0000      -0.436789       -11.8856
  48   2.0000      -0.429484       -11.6868
  49   2.0000      -0.418621       -11.3913
  50   2.0000      -0.416817       -11.3422
  51   2.0000      -0.384575       -10.4648
  52   0.0000       0.047888         1.3031
  53   0.0000       0.062219         1.6931
  54   0.0000       0.069894         1.9019
  55   0.0000       0.074384         2.0241
  56   0.0000       0.080379         2.1872

MULLIKEN ATOMIC CHARGES
-----------------------
   0 C :   -0.192288
   1 H :    0.354090
   2 C :   -2.253987
   3 C :   -0.824712
   4 H :    0.231293
   5 H :    0.356662
   6 H :    0.329752
   7 C :   -0.421109
   8 H :    0.364627
   9 C :   -0.711173
  10 H :    0.277072
  11 H :    0.377442
  12 H :    0.358939
  13 C :   -0.887135
  14 C :   -0.657680
  15 H :    0.361081
  16 H :    0.380354
  17 H :    0.328309
  18 C :   -0.394851
  19 H :    0.389761
  20 H :    0.364224
  21 H :    0.104185
  22 C :   -0.839125
  23 H :    0.368401
  24 H :    0.393316
  25 C :   -0.707117
  26 C :    0.669711
  27 H :    0.365901
  28 H :    0.431809
  29 H :    0.476769
  30 H :    0.761618
  31 H :    0.635893
  32 O :   -0.574994
  33 F :   -0.217039
Sum of atomic charges:    0.0000000

LOEWDIN ATOMIC CHARGES
----------------------
   0 C :   -0.258723
   1 H :    0.116314
   2 C :   -0.141960
   3 C :   -0.224178
   4 H :    0.102937
   5 H :    0.122960
   6 H :    0.115679
   7 C :   -0.215814
   8 H :    0.123738
   9 C :   -0.233908
  10 H :    0.096909
  11 H :    0.122494
  12 H :    0.104150
  13 C :   -0.224874
  14 C :   -0.224279
  15 H :    0.121085
  16 H :    0.118058
  17 H :    0.126130
  18 C :   -0.222301
  19 H :    0.104467
  20 H :    0.132441
  21 H :    0.104711
  22 C :   -0.209011
  23 H :    0.125765
  24 H :    0.121733
  25 C :   -0.108053
  26 C :   -0.450901
  27 H :    0.132682
  28 H :    0.133825
  29 H :    0.078897
  30 H :    0.005261
  31 H :    0.041684
  32 O :    0.055019
  33 F :    0.207062

  Mayer bond orders larger than 0.100000
B(  0-C ,  1-H ) :   0.9096 B(  0-C ,  3-C ) :   0.7668 B(  0-C ,  4-H ) :   1.0437
B(  0-C , 30-H ) :  -0.1052 B(  2-C , 29-H ) :   0.7591 B(  2-C , 30-H ) :   0.6788
B(  2-C , 31-H ) :   0.7324 B(  2-C , 32-O ) :   0.1945 B(  3-C ,  5-H ) :   0.9185
B(  3-C ,  6-H ) :   0.9188 B(  3-C ,  7-C ) :   0.8727 B(  7-C ,  8-H ) :   0.9017
B(  7-C ,  9-C ) :   0.4962 B(  7-C , 10-H ) :   0.9913 B(  9-C , 11-H ) :   0.9016
B(  9-C , 12-H ) :   0.9677 B(  9-C , 13-C ) :   0.8281 B( 13-C , 14-C ) :   0.7881
B( 13-C , 15-H ) :   0.9423 B( 13-C , 16-H ) :   0.9409 B( 14-C , 17-H ) :   0.9495
B( 14-C , 18-C ) :   0.4651 B( 14-C , 19-H ) :   0.9330 B( 14-C , 21-H ) :  -0.1221
B( 14-C , 25-C ) :   0.1182 B( 18-C , 20-H ) :   0.8767 B( 18-C , 21-H ) :   1.1644
B( 18-C , 22-C ) :   0.6941 B( 18-C , 25-C ) :  -0.1668 B( 20-H , 21-H ) :   0.1182
B( 22-C , 23-H ) :   0.9084 B( 22-C , 24-H ) :   0.9192 B( 22-C , 25-C ) :   0.6813
B( 25-C , 26-C ) :   0.8499 B( 25-C , 27-H ) :   0.9804 B( 25-C , 28-H ) :   0.8686
B( 26-C , 32-O ) :   1.6817 B( 26-C , 33-F ) :   0.8183 B( 29-H , 31-H ) :   0.1169
B( 30-H , 32-O ) :  -0.3631 B( 32-O , 33-F ) :   0.1098

FINAL SINGLE POINT ENERGY      -605.138071035987

DIPOLE MOMENT
-------------
                                X             Y             Z
Electronic contribution:     -8.97792       2.97486       9.46052
Nuclear contribution   :      8.07181      -4.09641      -9.21610
                        -----------------------------------------
Total Dipole Moment    :     -0.90611      -1.12156       0.24441
                        -----------------------------------------
Magnitude (a.u.)       :      1.46242
Magnitude (Debye)      :      3.71717

Rotational constants in cm-1:     0.028400     0.023377     0.015073
Rotational constants in MHz :   851.414727   700.831775   451.871218

                             ****ORCA TERMINATED NORMALLY****
TOTAL RUN TIME: 0 days 0 hours 7 minutes 15 seconds 114 msec
