                         Program Version 5.0.0 -  RELEASE  -
|  1> !B3LYP D3BJ RIJCOSX def2-SVPD def2/J TightSCF
|  2> *xyz -1 1
|  3> C         -7.33044       -2.67899       -3.20681
|  4> S         -6.01966       -2.92697       -4.41913
|  5> O         -5.64583       -1.58838       -4.91931
|  6> O         -4.88196       -3.50370       -3.66724
|  7> O         -6.54927       -3.80515       -5.42507
|  8> C         -6.28692       -0.73588       -1.89353
|  9> C         -7.46900       -1.24615       -2.71383
| 10> H         -7.60191       -0.60135       -3.58533
| 11> H         -8.38979       -1.17344       -2.12692
| 12> H         -7.11825       -3.37982       -2.39805
| 13> H         -8.24184       -3.00474       -3.70651
| 14> H         -5.39124       -0.81034       -2.47415
| 15> H         -6.18709       -1.32597       -1.00655
| 16> H         -6.45393        0.28631       -1.62495
| 17> *
| 18> %MaxCore 64000
| 19>
| 20> %pal nprocs 8
| 21> end
| 22>
| 23> %scf
| 24>   MaxIter 150
| 25> end
| 26>
| 27>
| 28>                          ****END OF INPUT****

CARTESIAN COORDINATES (ANGSTROEM)
---------------------------------
  C     -7.330440   -2.678990   -3.206810
  S     -6.019660   -2.926970   -4.419130
  O     -5.645830   -1.588380   -4.919310
  O     -4.881960   -3.503700   -3.667240
  O     -6.549270   -3.805150   -5.425070
  C     -6.286920   -0.735880   -1.893530
  C     -7.469000   -1.246150   -2.713830
  H     -7.601910   -0.601350   -3.585330
  H     -8.389790   -1.173440   -2.126920
  H     -7.118250   -3.379820   -2.398050
  H     -8.241840   -3.004740   -3.706510
  H     -5.391240   -0.810340   -2.474150
  H     -6.187090   -1.325970   -1.006550
  H     -6.453930    0.286310   -1.624950

 Total Charge           Charge          ....   -1
 Multiplicity           Mult            ....    1
 Number of Electrons    NEL             ....   66
 Basis Dimension        Dim             ....  212

ORBITAL ENERGIES
----------------

  NO   OCC          E(Eh)            E(eV)
   0   2.0000     -88.882686     -2418.6209
   1   2.0000     -18.924568      -514.9637
   2   2.0000     -18.914691      -514.6949
   3   2.0000     -18.910522      -514.5815
   4   2.0000     -10.053870      -273.5797
   5   2.0000     -10.048966      -273.4463
   6   2.0000     -10.037643      -273.1382
   7   2.0000      -7.936400      -215.9604
   8   2.0000      -5.905338      -160.6924
   9   2.0000      -5.905245      -160.6899
  10   2.0000      -5.904616      -160.6728
  11   2.0000      -0.929016       -25.2798
  12   2.0000      -0.789292       -21.4777
  13   2.0000      -0.766427       -20.8555
  14   2.0000      -0.653851       -17.7922
  15   2.0000      -0.564433       -15.3590
  16   2.0000      -0.469443       -12.7742
  17   2.0000      -0.383444       -10.4340
  18   2.0000      -0.332382        -9.0446
  19   2.0000      -0.323172        -8.7940
  20   2.0000      -0.293971        -7.9993
  21   2.0000      -0.282170        -7.6782
  22   2.0000      -0.263442        -7.1686
  23   2.0000      -0.255044        -6.9401
  24   2.0000      -0.226368        -6.1598
  25   2.0000      -0.218880        -5.9560
  26   2.0000      -0.208366        -5.6699
  27   2.0000      -0.151903        -4.1335
  28   2.0000      -0.149419        -4.0659
  29   2.0000      -0.116809        -3.1785
  30   2.0000      -0.110074        -2.9953
  31   2.0000      -0.101374        -2.7585
  32   2.0000      -0.066184        -1.8009
  33   0.0000       0.134846         3.6693
  34   0.0000       0.159473         4.3395
  35   0.0000       0.166181         4.5220
  36   0.0000       0.177117         4.8196
  37   0.0000       0.194833         5.3017

MULLIKEN ATOMIC CHARGES
-----------------------
   0 C :    0.196115
   1 S :    1.334945
   2 O :   -0.851856
   3 O :   -0.818984
   4 O :   -0.804072
   5 C :    0.992026
   6 C :   -0.008967
   7 H :   -0.055428
   8 H :   -0.313768
   9 H :   -0.105813
  10 H :   -0.134272
  11 H :   -0.170560
  12 H :   -0.097747
  13 H :   -0.161619
Sum of atomic charges:   -1.0000000

LOEWDIN ATOMIC CHARGES
----------------------
   0 C :   -0.077546
   1 S :    0.875164
   2 O :   -0.581907
   3 O :   -0.599249
   4 O :   -0.573340
   5 C :    0.131719
   6 C :   -0.095520
   7 H :    0.011067
   8 H :    0.001970
   9 H :    0.001328
  10 H :   -0.006688
  11 H :   -0.027441
  12 H :   -0.025574
  13 H :   -0.033985

  Mayer bond orders larger than 0.100000
B(  0-C ,  1-S ) :   0.8771 B(  0-C ,  6-C ) :   1.2062 B(  0-C ,  7-H ) :   0.1584
B(  0-C ,  8-H ) :   0.1429 B(  0-C ,  9-H ) :   0.8976 B(  0-C , 10-H ) :   0.9036
B(  1-S ,  2-O ) :   1.2428 B(  1-S ,  3-O ) :   1.2494 B(  1-S ,  4-O ) :   1.3351
B(  5-C ,  6-C ) :   1.2525 B(  5-C , 11-H ) :   0.7718 B(  5-C , 12-H ) :   0.7191
B(  5-C , 13-H ) :   0.6985 B(  6-C ,  7-H ) :   0.8386 B(  6-C ,  8-H ) :   0.8585
B(  6-C ,  9-H ) :   0.1169 B(  6-C , 10-H ) :   0.1313 B(  6-C , 11-H ) :   0.2378
B(  6-C , 12-H ) :   0.2388 B(  6-C , 13-H ) :   0.2460

Dispersion correction           -0.022791750
FINAL SINGLE POINT ENERGY      -741.851255591042

DIPOLE MOMENT
-------------
                                X             Y             Z
Electronic contribution:      3.78665      -5.83469      -7.91118
Nuclear contribution   :     -5.28952       6.71955       9.52938
                        -----------------------------------------
Total Dipole Moment    :     -1.50287       0.88486       1.61819
                        -----------------------------------------
Magnitude (a.u.)       :      2.37910
Magnitude (Debye)      :      6.04720

Rotational constants in cm-1:     0.135789     0.055302     0.052251
Rotational constants in MHz :  4070.851802  1657.908940  1566.458563

                             ****ORCA TERMINATED NORMALLY****
TOTAL RUN TIME: 0 days 0 hours 0 minutes 14 seconds 103 msec
