                         Program Version 5.0.0 -  RELEASE  -
|  1> !B3LYP D3BJ RIJCOSX def2-SVPD def2/J TightSCF
|  2> *xyz 1 1
|  3> C         -2.16038       -1.36949       -3.46710
|  4> N         -3.03011       -1.91086       -4.54107
|  5> C         -2.04772        0.14658       -3.51177
|  6> H         -3.47744       -2.79151       -4.25710
|  7> H         -2.53801       -2.01786       -5.43808
|  8> H         -3.89159       -1.37604       -4.71437
|  9> H         -1.18444       -1.84400       -3.56639
| 10> H         -2.59819       -1.70838       -2.52848
| 11> C         -3.32876        0.87504       -3.10367
| 12> H         -1.74003        0.45234       -4.51713
| 13> H         -1.23261        0.43494       -2.84221
| 14> H         -4.12483        0.59148       -3.76000
| 15> H         -3.17368        1.93185       -3.16688
| 16> H         -3.58415        0.61151       -2.09857
| 17> *
| 18> %MaxCore 64000
| 19>
| 20> %pal nprocs 8
| 21> end
| 22>
| 23> %scf
| 24>   MaxIter 150
| 25> end
| 26>
| 27>
| 28>                          ****END OF INPUT****

CARTESIAN COORDINATES (ANGSTROEM)
---------------------------------
  C     -2.160380   -1.369490   -3.467100
  N     -3.030110   -1.910860   -4.541070
  C     -2.047720    0.146580   -3.511770
  H     -3.477440   -2.791510   -4.257100
  H     -2.538010   -2.017860   -5.438080
  H     -3.891590   -1.376040   -4.714370
  H     -1.184440   -1.844000   -3.566390
  H     -2.598190   -1.708380   -2.528480
  C     -3.328760    0.875040   -3.103670
  H     -1.740030    0.452340   -4.517130
  H     -1.232610    0.434940   -2.842210
  H     -4.124830    0.591480   -3.760000
  H     -3.173680    1.931850   -3.166880
  H     -3.584150    0.611510   -2.098570

 Total Charge           Charge          ....    1
 Multiplicity           Mult            ....    1
 Number of Electrons    NEL             ....   34
 Basis Dimension        Dim             ....  160

ORBITAL ENERGIES
----------------

  NO   OCC          E(Eh)            E(eV)
   0   2.0000     -14.660758      -398.9395
   1   2.0000     -10.430691      -283.8335
   2   2.0000     -10.360901      -281.9344
   3   2.0000     -10.328604      -281.0556
   4   2.0000      -1.204233       -32.7689
   5   2.0000      -0.968308       -26.3490
   6   2.0000      -0.880457       -23.9585
   7   2.0000      -0.808268       -21.9941
   8   2.0000      -0.784506       -21.3475
   9   2.0000      -0.762586       -20.7510
  10   2.0000      -0.693662       -18.8755
  11   2.0000      -0.631569       -17.1859
  12   2.0000      -0.607572       -16.5329
  13   2.0000      -0.585363       -15.9285
  14   2.0000      -0.527208       -14.3461
  15   2.0000      -0.521021       -14.1777
  16   2.0000      -0.514349       -13.9962
  17   0.0000      -0.194049        -5.2804
  18   0.0000      -0.138698        -3.7742
  19   0.0000      -0.136356        -3.7104
  20   0.0000      -0.116203        -3.1620
  21   0.0000      -0.092291        -2.5114

MULLIKEN ATOMIC CHARGES
-----------------------
   0 C :    0.826138
   1 N :   -0.816647
   2 C :   -0.128621
   3 H :    0.351503
   4 H :    0.413489
   5 H :    0.306208
   6 H :   -0.187109
   7 H :   -0.090668
   8 C :    0.976842
   9 H :   -0.112817
  10 H :   -0.101709
  11 H :   -0.289911
  12 H :   -0.102782
  13 H :   -0.043917
Sum of atomic charges:    1.0000000

LOEWDIN ATOMIC CHARGES
----------------------
   0 C :    0.093462
   1 N :    0.332835
   2 C :   -0.038874
   3 H :    0.105508
   4 H :    0.112840
   5 H :    0.087593
   6 H :    0.051132
   7 H :    0.050682
   8 C :    0.158872
   9 H :    0.032461
  10 H :    0.043692
  11 H :   -0.030700
  12 H :    0.003705
  13 H :   -0.003209

  Mayer bond orders larger than 0.100000
B(  0-C ,  1-N ) :   0.6676 B(  0-C ,  2-C ) :   1.1995 B(  0-C ,  6-H ) :   0.8322
B(  0-C ,  7-H ) :   0.8366 B(  0-C , 10-H ) :   0.1282 B(  1-N ,  3-H ) :   0.7392
B(  1-N ,  4-H ) :   0.6897 B(  1-N ,  5-H ) :   0.8081 B(  1-N ,  6-H ) :   0.1441
B(  2-C ,  8-C ) :   1.2867 B(  2-C ,  9-H ) :   0.8999 B(  2-C , 10-H ) :   0.8762
B(  2-C , 11-H ) :   0.2080 B(  2-C , 12-H ) :   0.2273 B(  2-C , 13-H ) :   0.2024
B(  8-C , 11-H ) :   0.7593 B(  8-C , 12-H ) :   0.7476 B(  8-C , 13-H ) :   0.7358
B( 11-H , 13-H ) :   0.1154

Dispersion correction           -0.015173092
FINAL SINGLE POINT ENERGY      -174.622889157303

DIPOLE MOMENT
-------------
                                X             Y             Z
Electronic contribution:      0.32862      -2.12656      -1.08651
Nuclear contribution   :     -0.76147       0.35838       0.01319
                        -----------------------------------------
Total Dipole Moment    :     -0.43285      -1.76817      -1.07331
                        -----------------------------------------
Magnitude (a.u.)       :      2.11324
Magnitude (Debye)      :      5.37143

Rotational constants in cm-1:     0.457188     0.153451     0.133348
Rotational constants in MHz : 13706.154863  4600.337483  3997.673747

                             ****ORCA TERMINATED NORMALLY****
TOTAL RUN TIME: 0 days 0 hours 0 minutes 8 seconds 312 msec
