                         Program Version 5.0.0 -  RELEASE  -
|  1> !B3LYP D3BJ RIJCOSX def2-SVPD def2/J TightSCF
|  2> *xyz 0 1
|  3> C         -7.33044       -2.67899       -3.20681
|  4> S         -6.01966       -2.92697       -4.41913
|  5> F         -5.64583       -1.58838       -4.91931
|  6> O         -4.88196       -3.50370       -3.66724
|  7> O         -6.54927       -3.80515       -5.42507
|  8> C         -6.28692       -0.73588       -1.89353
|  9> C         -7.46900       -1.24615       -2.71383
| 10> H         -7.60191       -0.60135       -3.58533
| 11> H         -8.38979       -1.17344       -2.12692
| 12> H         -7.11825       -3.37982       -2.39805
| 13> H         -8.24184       -3.00474       -3.70651
| 14> H         -5.39124       -0.81034       -2.47415
| 15> H         -6.18709       -1.32597       -1.00655
| 16> H         -6.45393        0.28631       -1.62495
| 17> *
| 18> %MaxCore 64000
| 19>
| 20> %pal nprocs 8
| 21> end
| 22>
| 23> %scf
| 24>   MaxIter 150
| 25> end
| 26>
| 27>
| 28>                          ****END OF INPUT****

CARTESIAN COORDINATES (ANGSTROEM)
---------------------------------
  C     -7.330440   -2.678990   -3.206810
  S     -6.019660   -2.926970   -4.419130
  F     -5.645830   -1.588380   -4.919310
  O     -4.881960   -3.503700   -3.667240
  O     -6.549270   -3.805150   -5.425070
  C     -6.286920   -0.735880   -1.893530
  C     -7.469000   -1.246150   -2.713830
  H     -7.601910   -0.601350   -3.585330
  H     -8.389790   -1.173440   -2.126920
  H     -7.118250   -3.379820   -2.398050
  H     -8.241840   -3.004740   -3.706510
  H     -5.391240   -0.810340   -2.474150
  H     -6.187090   -1.325970   -1.006550
  H     -6.453930    0.286310   -1.624950

 Total Charge           Charge          ....    0
 Multiplicity           Mult            ....    1
 Number of Electrons    NEL             ....   66
 Basis Dimension        Dim             ....  212

ORBITAL ENERGIES
----------------

  NO   OCC          E(Eh)            E(eV)
   0   2.0000     -89.136327     -2425.5228
   1   2.0000     -24.800430      -674.8540
   2   2.0000     -19.155938      -521.2596
   3   2.0000     -19.140707      -520.8451
   4   2.0000     -10.247217      -278.8410
   5   2.0000     -10.220491      -278.1137
   6   2.0000     -10.190693      -277.3029
   7   2.0000      -8.190908      -222.8859
   8   2.0000      -6.163868      -167.7274
   9   2.0000      -6.157635      -167.5578
  10   2.0000      -6.156155      -167.5175
  11   2.0000      -1.349375       -36.7184
  12   2.0000      -1.110926       -30.2298
  13   2.0000      -1.007244       -27.4085
  14   2.0000      -0.836517       -22.7628
  15   2.0000      -0.751755       -20.4563
  16   2.0000      -0.703876       -19.1534
  17   2.0000      -0.638311       -17.3693
  18   2.0000      -0.587674       -15.9914
  19   2.0000      -0.571532       -15.5522
  20   2.0000      -0.543724       -14.7955
  21   2.0000      -0.497132       -13.5277
  22   2.0000      -0.485073       -13.1995
  23   2.0000      -0.467868       -12.7313
  24   2.0000      -0.450998       -12.2723
  25   2.0000      -0.439607       -11.9623
  26   2.0000      -0.396243       -10.7823
  27   2.0000      -0.390108       -10.6154
  28   2.0000      -0.383125       -10.4254
  29   2.0000      -0.372983       -10.1494
  30   2.0000      -0.336278        -9.1506
  31   2.0000      -0.323518        -8.8034
  32   2.0000      -0.311373        -8.4729
  33   0.0000      -0.012641        -0.3440
  34   0.0000       0.023090         0.6283
  35   0.0000       0.030853         0.8396
  36   0.0000       0.032228         0.8770
  37   0.0000       0.037328         1.0157

MULLIKEN ATOMIC CHARGES
-----------------------
   0 C :    0.216030
   1 S :    1.457872
   2 F :   -0.434840
   3 O :   -0.681360
   4 O :   -0.660734
   5 C :    1.020335
   6 C :    0.003489
   7 H :   -0.073723
   8 H :   -0.271718
   9 H :   -0.065978
  10 H :   -0.094146
  11 H :   -0.206387
  12 H :   -0.075956
  13 H :   -0.132885
Sum of atomic charges:    0.0000000

LOEWDIN ATOMIC CHARGES
----------------------
   0 C :   -0.031540
   1 S :    1.128265
   2 F :   -0.273415
   3 O :   -0.485756
   4 O :   -0.459643
   5 C :    0.149900
   6 C :   -0.078830
   7 H :    0.020315
   8 H :    0.028402
   9 H :    0.031258
  10 H :    0.018452
  11 H :   -0.026478
  12 H :   -0.008213
  13 H :   -0.012718

  Mayer bond orders larger than 0.100000
B(  0-C ,  1-S ) :   0.9493 B(  0-C ,  6-C ) :   1.2026 B(  0-C ,  7-H ) :   0.1374
B(  0-C ,  8-H ) :   0.1317 B(  0-C ,  9-H ) :   0.8991 B(  0-C , 10-H ) :   0.9066
B(  1-S ,  2-F ) :   0.6302 B(  1-S ,  3-O ) :   1.4725 B(  1-S ,  4-O ) :   1.5475
B(  5-C ,  6-C ) :   1.2755 B(  5-C , 11-H ) :   0.7629 B(  5-C , 12-H ) :   0.7249
B(  5-C , 13-H ) :   0.7040 B(  6-C ,  7-H ) :   0.8469 B(  6-C ,  8-H ) :   0.8620
B(  6-C ,  9-H ) :   0.1118 B(  6-C , 10-H ) :   0.1269 B(  6-C , 11-H ) :   0.2275
B(  6-C , 12-H ) :   0.2343 B(  6-C , 13-H ) :   0.2376

Dispersion correction           -0.021818904
FINAL SINGLE POINT ENERGY      -766.347126459416

DIPOLE MOMENT
-------------
                                X             Y             Z
Electronic contribution:      4.77618      -4.56303      -9.80014
Nuclear contribution   :     -5.93570       5.78812      10.65621
                        -----------------------------------------
Total Dipole Moment    :     -1.15951       1.22509       0.85606
                        -----------------------------------------
Magnitude (a.u.)       :      1.89160
Magnitude (Debye)      :      4.80807

Rotational constants in cm-1:     0.129417     0.054385     0.051980
Rotational constants in MHz :  3879.823072  1630.427453  1558.324762

                             ****ORCA TERMINATED NORMALLY****
TOTAL RUN TIME: 0 days 0 hours 0 minutes 13 seconds 930 msec
