                         Program Version 5.0.0 -  RELEASE  -
|  1> !B3LYP D3BJ RIJCOSX def2-SVPD def2/J TightSCF
|  2> *xyz 0 1
|  3> C         -2.16038       -1.36949       -3.46710
|  4> C         -3.03011       -1.91086       -4.54107
|  5> C         -2.04772        0.14658       -3.51177
|  6> H         -3.47744       -2.79151       -4.25710
|  7> H         -2.53801       -2.01786       -5.43808
|  8> H         -3.89159       -1.37604       -4.71437
|  9> H         -1.18444       -1.84400       -3.56639
| 10> H         -2.59819       -1.70838       -2.52848
| 11> C         -3.32876        0.87504       -3.10367
| 12> H         -1.74003        0.45234       -4.51713
| 13> H         -1.23261        0.43494       -2.84221
| 14> H         -4.12483        0.59148       -3.76000
| 15> H         -3.17368        1.93185       -3.16688
| 16> H         -3.58415        0.61151       -2.09857
| 17> *
| 18> %MaxCore 64000
| 19>
| 20> %pal nprocs 8
| 21> end
| 22>
| 23> %scf
| 24>   MaxIter 150
| 25> end
| 26>
| 27>
| 28>                          ****END OF INPUT****

CARTESIAN COORDINATES (ANGSTROEM)
---------------------------------
  C     -2.160380   -1.369490   -3.467100
  C     -3.030110   -1.910860   -4.541070
  C     -2.047720    0.146580   -3.511770
  H     -3.477440   -2.791510   -4.257100
  H     -2.538010   -2.017860   -5.438080
  H     -3.891590   -1.376040   -4.714370
  H     -1.184440   -1.844000   -3.566390
  H     -2.598190   -1.708380   -2.528480
  C     -3.328760    0.875040   -3.103670
  H     -1.740030    0.452340   -4.517130
  H     -1.232610    0.434940   -2.842210
  H     -4.124830    0.591480   -3.760000
  H     -3.173680    1.931850   -3.166880
  H     -3.584150    0.611510   -2.098570

 Total Charge           Charge          ....    0
 Multiplicity           Mult            ....    1
 Number of Electrons    NEL             ....   34
 Basis Dimension        Dim             ....  160

ORBITAL ENERGIES
----------------

  NO   OCC          E(Eh)            E(eV)
   0   2.0000     -10.171874      -276.7908
   1   2.0000     -10.168188      -276.6905
   2   2.0000     -10.162953      -276.5480
   3   2.0000     -10.144568      -276.0477
   4   2.0000      -0.794359       -21.6156
   5   2.0000      -0.722623       -19.6636
   6   2.0000      -0.639493       -17.4015
   7   2.0000      -0.564205       -15.3528
   8   2.0000      -0.465599       -12.6696
   9   2.0000      -0.458405       -12.4738
  10   2.0000      -0.427898       -11.6437
  11   2.0000      -0.388592       -10.5741
  12   2.0000      -0.378199       -10.2913
  13   2.0000      -0.364969        -9.9313
  14   2.0000      -0.324091        -8.8190
  15   2.0000      -0.322755        -8.7826
  16   2.0000      -0.319688        -8.6991
  17   0.0000       0.025008         0.6805
  18   0.0000       0.050345         1.3700
  19   0.0000       0.051327         1.3967
  20   0.0000       0.058986         1.6051
  21   0.0000       0.094859         2.5812

MULLIKEN ATOMIC CHARGES
-----------------------
   0 C :   -0.023890
   1 C :    1.310371
   2 C :   -0.091539
   3 H :   -0.244141
   4 H :   -0.177645
   5 H :   -0.596568
   6 H :   -0.237821
   7 H :   -0.096082
   8 C :    0.971882
   9 H :   -0.175551
  10 H :   -0.173151
  11 H :   -0.301583
  12 H :   -0.124528
  13 H :   -0.039753
Sum of atomic charges:    0.0000000

LOEWDIN ATOMIC CHARGES
----------------------
   0 C :   -0.068252
   1 C :    0.127058
   2 C :   -0.074124
   3 H :   -0.036312
   4 H :   -0.027659
   5 H :   -0.048945
   6 H :    0.019001
   7 H :    0.019713
   8 C :    0.133305
   9 H :    0.020195
  10 H :    0.011880
  11 H :   -0.033941
  12 H :   -0.022656
  13 H :   -0.019261

  Mayer bond orders larger than 0.100000
B(  0-C ,  1-C ) :   1.2222 B(  0-C ,  2-C ) :   1.2091 B(  0-C ,  3-H ) :   0.2394
B(  0-C ,  4-H ) :   0.2395 B(  0-C ,  5-H ) :   0.2725 B(  0-C ,  6-H ) :   0.8737
B(  0-C ,  7-H ) :   0.8282 B(  0-C ,  9-H ) :   0.1513 B(  0-C , 10-H ) :   0.1301
B(  1-C ,  3-H ) :   0.4944 B(  1-C ,  4-H ) :   0.6354 B(  1-C ,  5-H ) :   0.4023
B(  1-C ,  6-H ) :   0.1126 B(  1-C ,  7-H ) :   0.1402 B(  2-C ,  6-H ) :   0.1214
B(  2-C ,  8-C ) :   1.2608 B(  2-C ,  9-H ) :   0.8783 B(  2-C , 10-H ) :   0.8719
B(  2-C , 11-H ) :   0.2297 B(  2-C , 12-H ) :   0.2312 B(  2-C , 13-H ) :   0.2395
B(  3-H ,  5-H ) :   0.3126 B(  4-H ,  5-H ) :   0.1239 B(  8-C , 11-H ) :   0.7784
B(  8-C , 12-H ) :   0.7158 B(  8-C , 13-H ) :   0.7198

Dispersion correction           -0.015285582
FINAL SINGLE POINT ENERGY      -158.223213390494

DIPOLE MOMENT
-------------
                                X             Y             Z
Electronic contribution:      0.86654       0.03356       0.25288
Nuclear contribution   :     -0.87438      -0.05339      -0.25605
                        -----------------------------------------
Total Dipole Moment    :     -0.00784      -0.01982      -0.00317
                        -----------------------------------------
Magnitude (a.u.)       :      0.02155
Magnitude (Debye)      :      0.05478

Rotational constants in cm-1:     0.464420     0.160323     0.139078
Rotational constants in MHz : 13922.972952  4806.377145  4169.443621

                             ****ORCA TERMINATED NORMALLY****
TOTAL RUN TIME: 0 days 0 hours 0 minutes 7 seconds 787 msec
