                         Program Version 5.0.0 -  RELEASE  -
|  1> !B3LYP D3BJ RIJCOSX def2-SVPD def2/J TightSCF
|  2> *xyz 0 1
|  3> C         -7.33044       -2.67899       -3.20681
|  4> S         -6.01966       -2.92697       -4.41913
|  5> O         -5.64583       -1.58838       -4.91931
|  6> F         -4.88196       -3.50370       -3.66724
|  7> O         -6.54927       -3.80515       -5.42507
|  8> C         -6.28692       -0.73588       -1.89353
|  9> C         -7.46900       -1.24615       -2.71383
| 10> H         -7.60191       -0.60135       -3.58533
| 11> H         -8.38979       -1.17344       -2.12692
| 12> H         -7.11825       -3.37982       -2.39805
| 13> H         -8.24184       -3.00474       -3.70651
| 14> H         -5.39124       -0.81034       -2.47415
| 15> H         -6.18709       -1.32597       -1.00655
| 16> H         -6.45393        0.28631       -1.62495
| 17> *
| 18> %MaxCore 64000
| 19>
| 20> %pal nprocs 8
| 21> end
| 22>
| 23> %scf
| 24>   MaxIter 150
| 25> end
| 26>
| 27>
| 28>                          ****END OF INPUT****

CARTESIAN COORDINATES (ANGSTROEM)
---------------------------------
  C     -7.330440   -2.678990   -3.206810
  S     -6.019660   -2.926970   -4.419130
  O     -5.645830   -1.588380   -4.919310
  F     -4.881960   -3.503700   -3.667240
  O     -6.549270   -3.805150   -5.425070
  C     -6.286920   -0.735880   -1.893530
  C     -7.469000   -1.246150   -2.713830
  H     -7.601910   -0.601350   -3.585330
  H     -8.389790   -1.173440   -2.126920
  H     -7.118250   -3.379820   -2.398050
  H     -8.241840   -3.004740   -3.706510
  H     -5.391240   -0.810340   -2.474150
  H     -6.187090   -1.325970   -1.006550
  H     -6.453930    0.286310   -1.624950

 Total Charge           Charge          ....    0
 Multiplicity           Mult            ....    1
 Number of Electrons    NEL             ....   66
 Basis Dimension        Dim             ....  212

ORBITAL ENERGIES
----------------

  NO   OCC          E(Eh)            E(eV)
   0   2.0000     -89.136850     -2425.5370
   1   2.0000     -24.797399      -674.7715
   2   2.0000     -19.156321      -521.2700
   3   2.0000     -19.144644      -520.9522
   4   2.0000     -10.247790      -278.8565
   5   2.0000     -10.212229      -277.8889
   6   2.0000     -10.184419      -277.1321
   7   2.0000      -8.191425      -222.9000
   8   2.0000      -6.164295      -167.7390
   9   2.0000      -6.158167      -167.5722
  10   2.0000      -6.156770      -167.5342
  11   2.0000      -1.345467       -36.6120
  12   2.0000      -1.112366       -30.2690
  13   2.0000      -1.011502       -27.5244
  14   2.0000      -0.831483       -22.6258
  15   2.0000      -0.750954       -20.4345
  16   2.0000      -0.700791       -19.0695
  17   2.0000      -0.633336       -17.2339
  18   2.0000      -0.573674       -15.6105
  19   2.0000      -0.567354       -15.4385
  20   2.0000      -0.554195       -15.0804
  21   2.0000      -0.498531       -13.5657
  22   2.0000      -0.488464       -13.2918
  23   2.0000      -0.457361       -12.4454
  24   2.0000      -0.449856       -12.2412
  25   2.0000      -0.439254       -11.9527
  26   2.0000      -0.394472       -10.7341
  27   2.0000      -0.386257       -10.5106
  28   2.0000      -0.373380       -10.1602
  29   2.0000      -0.367695       -10.0055
  30   2.0000      -0.334842        -9.1115
  31   2.0000      -0.331238        -9.0134
  32   2.0000      -0.314926        -8.5696
  33   0.0000      -0.003230        -0.0879
  34   0.0000       0.014943         0.4066
  35   0.0000       0.027548         0.7496
  36   0.0000       0.033759         0.9186
  37   0.0000       0.045036         1.2255

MULLIKEN ATOMIC CHARGES
-----------------------
   0 C :    0.173734
   1 S :    1.478450
   2 O :   -0.718916
   3 F :   -0.410441
   4 O :   -0.661372
   5 C :    1.003418
   6 C :    0.036875
   7 H :   -0.040969
   8 H :   -0.280847
   9 H :   -0.056008
  10 H :   -0.098451
  11 H :   -0.208565
  12 H :   -0.080742
  13 H :   -0.136167
Sum of atomic charges:   -0.0000000

LOEWDIN ATOMIC CHARGES
----------------------
   0 C :   -0.036930
   1 S :    1.133419
   2 O :   -0.474733
   3 F :   -0.277618
   4 O :   -0.459923
   5 C :    0.147818
   6 C :   -0.071352
   7 H :    0.025443
   8 H :    0.028632
   9 H :    0.018698
  10 H :    0.022814
  11 H :   -0.028938
  12 H :   -0.015304
  13 H :   -0.012025

  Mayer bond orders larger than 0.100000
B(  0-C ,  1-S ) :   0.9372 B(  0-C ,  6-C ) :   1.2377 B(  0-C ,  7-H ) :   0.1540
B(  0-C ,  8-H ) :   0.1454 B(  0-C ,  9-H ) :   0.8856 B(  0-C , 10-H ) :   0.9081
B(  1-S ,  2-O ) :   1.4684 B(  1-S ,  3-F ) :   0.6268 B(  1-S ,  4-O ) :   1.5530
B(  5-C ,  6-C ) :   1.2685 B(  5-C , 11-H ) :   0.7691 B(  5-C , 12-H ) :   0.7265
B(  5-C , 13-H ) :   0.7082 B(  6-C ,  7-H ) :   0.8422 B(  6-C ,  8-H ) :   0.8460
B(  6-C ,  9-H ) :   0.1209 B(  6-C , 10-H ) :   0.1173 B(  6-C , 11-H ) :   0.2243
B(  6-C , 12-H ) :   0.2324 B(  6-C , 13-H ) :   0.2367

Dispersion correction           -0.021926178
FINAL SINGLE POINT ENERGY      -766.350731997670

DIPOLE MOMENT
-------------
                                X             Y             Z
Electronic contribution:      6.12303      -7.85313      -7.70905
Nuclear contribution   :     -6.75719       7.84793       9.30968
                        -----------------------------------------
Total Dipole Moment    :     -0.63416      -0.00519       1.60063
                        -----------------------------------------
Magnitude (a.u.)       :      1.72169
Magnitude (Debye)      :      4.37618

Rotational constants in cm-1:     0.129104     0.054499     0.051192
Rotational constants in MHz :  3870.429564  1633.827608  1534.709243

                             ****ORCA TERMINATED NORMALLY****
TOTAL RUN TIME: 0 days 0 hours 0 minutes 13 seconds 647 msec
