                         Program Version 5.0.0 -  RELEASE  -
|  1> !B3LYP D3BJ RIJCOSX def2-SVPD def2/J TightSCF
|  2> *xyz 0 1
|  3> C         -7.33044       -2.67899       -3.20681
|  4> S         -6.01966       -2.92697       -4.41913
|  5> O         -5.64583       -1.58838       -4.91931
|  6> O         -4.88196       -3.50370       -3.66724
|  7> F         -6.54927       -3.80515       -5.42507
|  8> C         -6.28692       -0.73588       -1.89353
|  9> C         -7.46900       -1.24615       -2.71383
| 10> H         -7.60191       -0.60135       -3.58533
| 11> H         -8.38979       -1.17344       -2.12692
| 12> H         -7.11825       -3.37982       -2.39805
| 13> H         -8.24184       -3.00474       -3.70651
| 14> H         -5.39124       -0.81034       -2.47415
| 15> H         -6.18709       -1.32597       -1.00655
| 16> H         -6.45393        0.28631       -1.62495
| 17> *
| 18> %MaxCore 64000
| 19>
| 20> %pal nprocs 8
| 21> end
| 22>
| 23> %scf
| 24>   MaxIter 150
| 25> end
| 26>
| 27>
| 28>                          ****END OF INPUT****

CARTESIAN COORDINATES (ANGSTROEM)
---------------------------------
  C     -7.330440   -2.678990   -3.206810
  S     -6.019660   -2.926970   -4.419130
  O     -5.645830   -1.588380   -4.919310
  O     -4.881960   -3.503700   -3.667240
  F     -6.549270   -3.805150   -5.425070
  C     -6.286920   -0.735880   -1.893530
  C     -7.469000   -1.246150   -2.713830
  H     -7.601910   -0.601350   -3.585330
  H     -8.389790   -1.173440   -2.126920
  H     -7.118250   -3.379820   -2.398050
  H     -8.241840   -3.004740   -3.706510
  H     -5.391240   -0.810340   -2.474150
  H     -6.187090   -1.325970   -1.006550
  H     -6.453930    0.286310   -1.624950

 Total Charge           Charge          ....    0
 Multiplicity           Mult            ....    1
 Number of Electrons    NEL             ....   66
 Basis Dimension        Dim             ....  212

ORBITAL ENERGIES
----------------

  NO   OCC          E(Eh)            E(eV)
   0   2.0000     -89.139017     -2425.5960
   1   2.0000     -24.819069      -675.3612
   2   2.0000     -19.145714      -520.9814
   3   2.0000     -19.142393      -520.8910
   4   2.0000     -10.248446      -278.8744
   5   2.0000     -10.211849      -277.8785
   6   2.0000     -10.176731      -276.9229
   7   2.0000      -8.193696      -222.9618
   8   2.0000      -6.166717      -167.8049
   9   2.0000      -6.160259      -167.6292
  10   2.0000      -6.158845      -167.5907
  11   2.0000      -1.382854       -37.6294
  12   2.0000      -1.097205       -29.8565
  13   2.0000      -0.994304       -27.0564
  14   2.0000      -0.830357       -22.5952
  15   2.0000      -0.757591       -20.6151
  16   2.0000      -0.710126       -19.3235
  17   2.0000      -0.636119       -17.3097
  18   2.0000      -0.594676       -16.1819
  19   2.0000      -0.586837       -15.9686
  20   2.0000      -0.556270       -15.1369
  21   2.0000      -0.493241       -13.4218
  22   2.0000      -0.488495       -13.2926
  23   2.0000      -0.461168       -12.5490
  24   2.0000      -0.445017       -12.1095
  25   2.0000      -0.426413       -11.6033
  26   2.0000      -0.386678       -10.5221
  27   2.0000      -0.378297       -10.2940
  28   2.0000      -0.372684       -10.1412
  29   2.0000      -0.359440        -9.7809
  30   2.0000      -0.329648        -8.9702
  31   2.0000      -0.322798        -8.7838
  32   2.0000      -0.302292        -8.2258
  33   0.0000      -0.005694        -0.1550
  34   0.0000       0.011116         0.3025
  35   0.0000       0.030548         0.8312
  36   0.0000       0.034416         0.9365
  37   0.0000       0.042135         1.1465

MULLIKEN ATOMIC CHARGES
-----------------------
   0 C :    0.177100
   1 S :    1.515214
   2 O :   -0.712737
   3 O :   -0.673831
   4 F :   -0.428052
   5 C :    1.011531
   6 C :   -0.004453
   7 H :   -0.042184
   8 H :   -0.280501
   9 H :   -0.065107
  10 H :   -0.086658
  11 H :   -0.192255
  12 H :   -0.082186
  13 H :   -0.135880
Sum of atomic charges:    0.0000000

LOEWDIN ATOMIC CHARGES
----------------------
   0 C :   -0.042488
   1 S :    1.138909
   2 O :   -0.476327
   3 O :   -0.484332
   4 F :   -0.258684
   5 C :    0.153265
   6 C :   -0.068082
   7 H :    0.022799
   8 H :    0.028721
   9 H :    0.023910
  10 H :    0.010704
  11 H :   -0.023008
  12 H :   -0.012263
  13 H :   -0.013123

  Mayer bond orders larger than 0.100000
B(  0-C ,  1-S ) :   0.9216 B(  0-C ,  6-C ) :   1.2466 B(  0-C ,  7-H ) :   0.1504
B(  0-C ,  8-H ) :   0.1373 B(  0-C ,  9-H ) :   0.9154 B(  0-C , 10-H ) :   0.8550
B(  1-S ,  2-O ) :   1.4455 B(  1-S ,  3-O ) :   1.4632 B(  1-S ,  4-F ) :   0.6782
B(  5-C ,  6-C ) :   1.2721 B(  5-C , 11-H ) :   0.7737 B(  5-C , 12-H ) :   0.7193
B(  5-C , 13-H ) :   0.7028 B(  6-C ,  7-H ) :   0.8398 B(  6-C ,  8-H ) :   0.8541
B(  6-C ,  9-H ) :   0.1131 B(  6-C , 10-H ) :   0.1419 B(  6-C , 11-H ) :   0.2258
B(  6-C , 12-H ) :   0.2346 B(  6-C , 13-H ) :   0.2381

Dispersion correction           -0.022027167
FINAL SINGLE POINT ENERGY      -766.332272084530

DIPOLE MOMENT
-------------
                                X             Y             Z
Electronic contribution:      3.26815      -8.37921     -10.75153
Nuclear contribution   :     -4.96410       8.17213      11.20012
                        -----------------------------------------
Total Dipole Moment    :     -1.69595      -0.20708       0.44859
                        -----------------------------------------
Magnitude (a.u.)       :      1.76646
Magnitude (Debye)      :      4.48998

Rotational constants in cm-1:     0.133784     0.053405     0.050278
Rotational constants in MHz :  4010.731548  1601.045142  1507.298018

                             ****ORCA TERMINATED NORMALLY****
TOTAL RUN TIME: 0 days 0 hours 0 minutes 14 seconds 557 msec
