                         Program Version 5.0.0 -  RELEASE  -
|  1> !B3LYP D3BJ RIJCOSX def2-SVPD def2/J TightSCF xyzfile
|  2>
|  3> *xyzfile 0 1 D2.xyz
|  4>
|  5> %MaxCore 64000
|  6>
|  7> %pal nprocs 4
|  8> end
|  9>
| 10> %scf
| 11>   MaxIter 150
| 12> end
| 13>
| 14>
| 15>                          ****END OF INPUT****

CARTESIAN COORDINATES (ANGSTROEM)
---------------------------------
  C     -2.160376   -1.369486   -3.467104
  C     -3.030108   -1.910857   -4.541074
  C     -2.047717    0.146583   -3.511774
  C     -7.330440   -2.678991   -3.206811
  S     -6.019659   -2.926965   -4.419128
  H     -3.477443   -2.791513   -4.257096
  H     -2.538013   -2.017860   -5.438075
  H     -3.891589   -1.376039   -4.714365
  O     -5.645830   -1.588384   -4.919307
  F     -4.881961   -3.503697   -3.667235
  H     -1.184438   -1.843997   -3.566393
  H     -2.598195   -1.708376   -2.528477
  O     -6.549267   -3.805150   -5.425071
  C     -3.328755    0.875037   -3.103669
  H     -1.740034    0.452343   -4.517126
  H     -1.232611    0.434938   -2.842208
  C     -3.628487    0.771601   -1.609363
  H     -4.175106    0.490791   -3.682203
  H     -3.237812    1.928663   -3.381480
  C     -4.975718    1.361432   -1.190644
  H     -2.830700    1.276234   -1.054766
  H     -3.594312   -0.275838   -1.294603
  C     -6.184720    0.784347   -1.926464
  H     -4.956292    2.445725   -1.342200
  H     -5.097256    1.205252   -0.114136
  C     -6.286921   -0.735882   -1.893531
  H     -6.163994    1.100199   -2.974250
  H     -7.094530    1.223459   -1.504509
  C     -7.468999   -1.246153   -2.713833
  H     -6.360641   -1.090347   -0.859176
  H     -5.369848   -1.171853   -2.295982
  H     -7.601914   -0.601349   -3.585329
  H     -8.389791   -1.173436   -2.126922
  H     -7.118254   -3.379818   -2.398055
  H     -8.241838   -3.004745   -3.706513

 Total Charge           Charge          ....    0
 Multiplicity           Mult            ....    1
 Number of Electrons    NEL             ....  122
 Basis Dimension        Dim             ....  464

ORBITAL ENERGIES
----------------

  NO   OCC          E(Eh)            E(eV)
   0   2.0000     -89.143559     -2425.7196
   1   2.0000     -24.802670      -674.9150
   2   2.0000     -19.161235      -521.4037
   3   2.0000     -19.148779      -521.0648
   4   2.0000     -10.249951      -278.9154
   5   2.0000     -10.210947      -277.8540
   6   2.0000     -10.192956      -277.3644
   7   2.0000     -10.182404      -277.0773
   8   2.0000     -10.177179      -276.9351
   9   2.0000     -10.171247      -276.7737
  10   2.0000     -10.165654      -276.6215
  11   2.0000     -10.162553      -276.5371
  12   2.0000     -10.156607      -276.3753
  13   2.0000     -10.111376      -275.1445
  14   2.0000      -8.196886      -223.0486
  15   2.0000      -6.169801      -167.8888
  16   2.0000      -6.163831      -167.7264
  17   2.0000      -6.162211      -167.6823
  18   2.0000      -1.354854       -36.8675
  19   2.0000      -1.117994       -30.4222
  20   2.0000      -1.018943       -27.7268
  21   2.0000      -0.838744       -22.8234
  22   2.0000      -0.807475       -21.9725
  23   2.0000      -0.780832       -21.2475
  24   2.0000      -0.757186       -20.6041
  25   2.0000      -0.719213       -19.5708
  26   2.0000      -0.702941       -19.1280
  27   2.0000      -0.665161       -18.0999
  28   2.0000      -0.630758       -17.1638
  29   2.0000      -0.616536       -16.7768
  30   2.0000      -0.582197       -15.8424
  31   2.0000      -0.578992       -15.7552
  32   2.0000      -0.570157       -15.5148
  33   2.0000      -0.558703       -15.2031
  34   2.0000      -0.539568       -14.6824
  35   2.0000      -0.504767       -13.7354
  36   2.0000      -0.487892       -13.2762
  37   2.0000      -0.477907       -13.0045
  38   2.0000      -0.470756       -12.8099
  39   2.0000      -0.465304       -12.6616
  40   2.0000      -0.446427       -12.1479
  41   2.0000      -0.435056       -11.8385
  42   2.0000      -0.432306       -11.7636
  43   2.0000      -0.427579       -11.6350
  44   2.0000      -0.406995       -11.0749
  45   2.0000      -0.399300       -10.8655
  46   2.0000      -0.390104       -10.6153
  47   2.0000      -0.383694       -10.4408
  48   2.0000      -0.374961       -10.2032
  49   2.0000      -0.366265        -9.9666
  50   2.0000      -0.359368        -9.7789
  51   2.0000      -0.346728        -9.4349
  52   2.0000      -0.340051        -9.2532
  53   2.0000      -0.336177        -9.1478
  54   2.0000      -0.330708        -8.9990
  55   2.0000      -0.325995        -8.8708
  56   2.0000      -0.320736        -8.7277
  57   2.0000      -0.314955        -8.5704
  58   2.0000      -0.303330        -8.2540
  59   2.0000      -0.301407        -8.2017
  60   2.0000      -0.287601        -7.8260
  61   0.0000      -0.003750        -0.1020
  62   0.0000       0.012385         0.3370
  63   0.0000       0.019764         0.5378
  64   0.0000       0.025993         0.7073
  65   0.0000       0.036009         0.9798

MULLIKEN ATOMIC CHARGES
-----------------------
   0 C :    0.267592
   1 C :    2.329695
   2 C :    0.750083
   3 C :    0.593330
   4 S :    1.462780
   5 H :   -0.723446
   6 H :   -0.368555
   7 H :   -1.044571
   8 O :   -0.745839
   9 F :   -0.530237
  10 H :   -0.382180
  11 H :   -0.118949
  12 O :   -0.714959
  13 C :    0.640898
  14 H :   -0.173770
  15 H :   -0.205795
  16 C :    0.041510
  17 H :   -0.720178
  18 H :   -0.136367
  19 C :    0.876367
  20 H :   -0.444836
  21 H :    0.018766
  22 C :    0.042237
  23 H :   -0.125241
  24 H :   -0.088339
  25 C :    0.574020
  26 H :    0.140311
  27 H :   -0.525044
  28 C :    0.488682
  29 H :   -0.126495
  30 H :   -0.540759
  31 H :    0.047272
  32 H :   -0.311813
  33 H :   -0.115893
  34 H :   -0.130276
Sum of atomic charges:   -0.0000000

LOEWDIN ATOMIC CHARGES
----------------------
   0 C :   -0.036967
   1 C :    0.137115
   2 C :   -0.019519
   3 C :   -0.024180
   4 S :    1.167372
   5 H :   -0.095992
   6 H :   -0.012723
   7 H :   -0.116750
   8 O :   -0.451096
   9 F :   -0.279050
  10 H :    0.018446
  11 H :    0.004236
  12 O :   -0.443793
  13 C :   -0.011936
  14 H :    0.023805
  15 H :    0.013931
  16 C :   -0.029961
  17 H :   -0.003429
  18 H :    0.023961
  19 C :   -0.023395
  20 H :    0.021199
  21 H :   -0.000132
  22 C :   -0.027081
  23 H :    0.020382
  24 H :    0.018137
  25 C :   -0.019437
  26 H :    0.018923
  27 H :    0.023090
  28 C :   -0.030180
  29 H :    0.034339
  30 H :   -0.005923
  31 H :    0.025145
  32 H :    0.034809
  33 H :    0.022186
  34 H :    0.024466

  Mayer bond orders larger than 0.100000
B(  0-C ,  1-C ) :   0.8881 B(  0-C ,  2-C ) :   1.1948 B(  0-C ,  5-H ) :   0.4581
B(  0-C ,  6-H ) :   0.1191 B(  0-C ,  7-H ) :   0.4471 B(  0-C , 10-H ) :   0.7863
B(  0-C , 11-H ) :   0.7001 B(  0-C , 13-C ) :   0.1319 B(  0-C , 14-H ) :   0.1562
B(  0-C , 15-H ) :   0.2107 B(  1-C ,  2-C ) :   0.1007 B(  1-C ,  5-H ) :  -0.6479
B(  1-C ,  6-H ) :   0.4615 B(  1-C ,  7-H ) :  -0.9198 B(  1-C , 11-H ) :   0.2522
B(  2-C ,  7-H ) :  -0.1287 B(  2-C , 11-H ) :   0.1235 B(  2-C , 13-C ) :   1.1622
B(  2-C , 14-H ) :   0.6048 B(  2-C , 15-H ) :   0.6564 B(  2-C , 17-H ) :   0.1714
B(  3-C ,  4-S ) :   0.8720 B(  3-C , 12-O ) :   0.1267 B(  3-C , 25-C ) :   0.1230
B(  3-C , 28-C ) :   1.2105 B(  3-C , 31-H ) :   0.1087 B(  3-C , 33-H ) :   0.8429
B(  3-C , 34-H ) :   0.6980 B(  4-S ,  8-O ) :   1.4481 B(  4-S ,  9-F ) :   0.5673
B(  4-S , 12-O ) :   1.4846 B(  5-H ,  6-H ) :  -0.1743 B(  5-H ,  7-H ) :   1.0389
B(  5-H ,  9-F ) :   0.2254 B(  6-H ,  7-H ) :   0.2026 B(  7-H ,  9-F ) :   0.1322
B(  7-H , 10-H ) :   0.1004 B(  7-H , 17-H ) :   0.1819 B(  8-O , 12-O ) :   0.1232
B( 10-H , 11-H ) :  -0.1263 B( 11-H , 21-H ) :   0.1134 B( 13-C , 14-H ) :   0.2414
B( 13-C , 15-H ) :   0.1696 B( 13-C , 16-C ) :   1.1304 B( 13-C , 17-H ) :   0.5660
B( 13-C , 18-H ) :   0.6554 B( 13-C , 20-H ) :   0.2020 B( 13-C , 21-H ) :   0.1144
B( 14-H , 15-H ) :  -0.1882 B( 16-C , 17-H ) :   0.2505 B( 16-C , 18-H ) :   0.2121
B( 16-C , 19-C ) :   1.1519 B( 16-C , 20-H ) :   0.8800 B( 16-C , 21-H ) :   0.8334
B( 16-C , 22-C ) :   0.1764 B( 16-C , 23-H ) :   0.1682 B( 16-C , 24-H ) :   0.3188
B( 17-H , 26-H ) :   0.1117 B( 19-C , 22-C ) :   1.1177 B( 19-C , 23-H ) :   0.5930
B( 19-C , 24-H ) :   0.5952 B( 22-C , 23-H ) :   0.2767 B( 22-C , 24-H ) :   0.1334
B( 22-C , 25-C ) :   1.2311 B( 22-C , 26-H ) :   0.7676 B( 22-C , 27-H ) :   0.9280
B( 22-C , 28-C ) :   0.1516 B( 22-C , 29-H ) :   0.1153 B( 22-C , 30-H ) :   0.1763
B( 23-H , 24-H ) :  -0.1419 B( 25-C , 26-H ) :   0.1303 B( 25-C , 27-H ) :   0.1776
B( 25-C , 28-C ) :   1.1385 B( 25-C , 29-H ) :   0.6061 B( 25-C , 30-H ) :   0.6384
B( 25-C , 32-H ) :   0.2048 B( 28-C , 29-H ) :   0.1441 B( 28-C , 31-H ) :   0.8047
B( 28-C , 32-H ) :   0.7087 B( 28-C , 33-H ) :   0.1015 B( 28-C , 34-H ) :   0.2321
B( 29-H , 30-H ) :   0.2957

Dispersion correction           -0.067306216
FINAL SINGLE POINT ENERGY     -1041.148689994037

DIPOLE MOMENT
-------------
                                X             Y             Z
Electronic contribution:     -9.55605     -19.48242     -11.06166
Nuclear contribution   :      8.71934      19.48829      12.54264
                        -----------------------------------------
Total Dipole Moment    :     -0.83671       0.00587       1.48098
                        -----------------------------------------
Magnitude (a.u.)       :      1.70101
Magnitude (Debye)      :      4.32362

Rotational constants in cm-1:     0.025810     0.015137     0.010647
Rotational constants in MHz :   773.773140   453.802427   319.195213

                             ****ORCA TERMINATED NORMALLY****
TOTAL RUN TIME: 0 days 0 hours 3 minutes 12 seconds 273 msec
