                         Program Version 5.0.0 -  RELEASE  -
|  1> !wB97X-D3 RIJCOSX def2-SVP def2/J TightSCF
|  2> *xyz -1 1
|  3> C         -0.87096        0.24804       -2.66280
|  4> C         -0.47749        0.60819       -4.10105
|  5> H          0.20677        1.45830       -4.11875
|  6> H         -1.36844        0.92942       -4.64785
|  7> C          0.18467       -0.50664       -4.91676
|  8> O         -0.15869       -1.70109       -4.65798
|  9> O          1.05594       -0.17441       -5.74037
| 10> H         -1.54056       -0.58646       -2.67455
| 11> H         -1.35339        1.08600       -2.20455
| 12> H          0.00660       -0.00662       -2.10609
| 13> *
| 14>
| 15> %MaxCore 64000
| 16>
| 17> %pal nprocs 4
| 18> end
| 19>
| 20> %scf
| 21>   MaxIter 150
| 22> end
| 23>
| 24>
| 25>                          ****END OF INPUT****

CARTESIAN COORDINATES (ANGSTROEM)
---------------------------------
  C     -0.870960    0.248040   -2.662800
  C     -0.477490    0.608190   -4.101050
  H      0.206770    1.458300   -4.118750
  H     -1.368440    0.929420   -4.647850
  C      0.184670   -0.506640   -4.916760
  O     -0.158690   -1.701090   -4.657980
  O      1.055940   -0.174410   -5.740370
  H     -1.540560   -0.586460   -2.674550
  H     -1.353390    1.086000   -2.204550
  H      0.006600   -0.006620   -2.106090

 Total Charge           Charge          ....   -1
 Multiplicity           Mult            ....    1
 Number of Electrons    NEL             ....   40
 Basis Dimension        Dim             ....   95

ORBITAL ENERGIES
----------------

  NO   OCC          E(Eh)            E(eV)
   0   2.0000     -18.940014      -515.3840
   1   2.0000     -18.936960      -515.3009
   2   2.0000     -10.143921      -276.0301
   3   2.0000     -10.117451      -275.3098
   4   2.0000     -10.099749      -274.8281
   5   2.0000      -0.892476       -24.2855
   6   2.0000      -0.794484       -21.6190
   7   2.0000      -0.701074       -19.0772
   8   2.0000      -0.568077       -15.4582
   9   2.0000      -0.401973       -10.9382
  10   2.0000      -0.382917       -10.4197
  11   2.0000      -0.339441        -9.2366
  12   2.0000      -0.308665        -8.3992
  13   2.0000      -0.296601        -8.0709
  14   2.0000      -0.282193        -7.6788
  15   2.0000      -0.249306        -6.7840
  16   2.0000      -0.233489        -6.3536
  17   2.0000      -0.106048        -2.8857
  18   2.0000      -0.104835        -2.8527
  19   2.0000      -0.089471        -2.4346
  20   0.0000       0.300391         8.1741
  21   0.0000       0.350673         9.5423
  22   0.0000       0.356504         9.7010
  23   0.0000       0.368519        10.0279
  24   0.0000       0.376719        10.2510

MULLIKEN ATOMIC CHARGES
-----------------------
   0 C :    0.002384
   1 C :   -0.072864
   2 H :   -0.029731
   3 H :   -0.018946
   4 C :    0.060827
   5 O :   -0.468852
   6 O :   -0.436076
   7 H :    0.007438
   8 H :   -0.042058
   9 H :   -0.002121
Sum of atomic charges:   -1.0000000

LOEWDIN ATOMIC CHARGES
----------------------
   0 C :   -0.067121
   1 C :   -0.100106
   2 H :    0.001184
   3 H :    0.008513
   4 C :   -0.042784
   5 O :   -0.424442
   6 O :   -0.392054
   7 H :    0.012805
   8 H :   -0.007075
   9 H :    0.011081

  Mayer bond orders larger than 0.100000
B(  0-C ,  1-C ) :   1.0680 B(  0-C ,  7-H ) :   0.9651 B(  0-C ,  8-H ) :   0.9647
B(  0-C ,  9-H ) :   0.9785 B(  1-C ,  2-H ) :   0.9505 B(  1-C ,  3-H ) :   0.9444
B(  1-C ,  4-C ) :   0.9088 B(  4-C ,  5-O ) :   1.8301 B(  4-C ,  6-O ) :   1.8774
B(  5-O ,  6-O ) :   0.1097

Dispersion correction           -0.001934019
FINAL SINGLE POINT ENERGY      -267.544233123000

DIPOLE MOMENT
-------------
                                X             Y             Z
Electronic contribution:      2.68521      -3.01296      -4.66349
Nuclear contribution   :     -3.54611       4.15440       5.90446
                        -----------------------------------------
Total Dipole Moment    :     -0.86090       1.14144       1.24098
                        -----------------------------------------
Magnitude (a.u.)       :      1.89316
Magnitude (Debye)      :      4.81204

Rotational constants in cm-1:     0.332789     0.132085     0.101080
Rotational constants in MHz :  9976.755824  3959.803182  3030.288811

                             ****ORCA TERMINATED NORMALLY****
TOTAL RUN TIME: 0 days 0 hours 0 minutes 14 seconds 653 msec
