                         Program Version 5.0.0 -  RELEASE  -
|  1> !wB97X-D3 RIJCOSX def2-SVP def2/J TightSCF
|  2> *xyz 1 1
|  3> C          2.48645       -2.67712       -2.56345
|  4> C          3.03764       -2.36672       -3.92351
|  5> N          2.28036       -2.45441       -4.96769
|  6> N          4.32174       -2.01793       -4.01664
|  7> H          4.87994       -1.91167       -3.17382
|  8> H          4.71015       -1.67088       -4.88356
|  9> H          1.27042       -2.41265       -4.86614
| 10> H          2.58183       -2.05528       -5.84688
| 11> C          2.49799       -1.46946       -1.61030
| 12> H          1.47259       -3.05153       -2.69437
| 13> H          3.08320       -3.49064       -2.14147
| 14> H          1.91240       -0.67831       -2.02991
| 15> H          3.50450       -1.13364       -1.47227
| 16> H          2.08509       -1.75655       -0.66585
| 17> *
| 18>
| 19> %MaxCore 64000
| 20>
| 21> %pal nprocs 4
| 22> end
| 23>
| 24> %scf
| 25>   MaxIter 150
| 26> end
| 27>
| 28>
| 29>                          ****END OF INPUT****

CARTESIAN COORDINATES (ANGSTROEM)
---------------------------------
  C      2.486450   -2.677120   -2.563450
  C      3.037640   -2.366720   -3.923510
  N      2.280360   -2.454410   -4.967690
  N      4.321740   -2.017930   -4.016640
  H      4.879940   -1.911670   -3.173820
  H      4.710150   -1.670880   -4.883560
  H      1.270420   -2.412650   -4.866140
  H      2.581830   -2.055280   -5.846880
  C      2.497990   -1.469460   -1.610300
  H      1.472590   -3.051530   -2.694370
  H      3.083200   -3.490640   -2.141470
  H      1.912400   -0.678310   -2.029910
  H      3.504500   -1.133640   -1.472270
  H      2.085090   -1.756550   -0.665850

 Total Charge           Charge          ....    1
 Multiplicity           Mult            ....    1
 Number of Electrons    NEL             ....   40
 Basis Dimension        Dim             ....  115

ORBITAL ENERGIES
----------------

  NO   OCC          E(Eh)            E(eV)
   0   2.0000     -14.686918      -399.6514
   1   2.0000     -14.681631      -399.5075
   2   2.0000     -10.616859      -288.8994
   3   2.0000     -10.487881      -285.3898
   4   2.0000     -10.447750      -284.2977
   5   2.0000      -1.319496       -35.9053
   6   2.0000      -1.219093       -33.1732
   7   2.0000      -1.080816       -29.4105
   8   2.0000      -0.972429       -26.4611
   9   2.0000      -0.922231       -25.0952
  10   2.0000      -0.880073       -23.9480
  11   2.0000      -0.853547       -23.2262
  12   2.0000      -0.802521       -21.8377
  13   2.0000      -0.756201       -20.5773
  14   2.0000      -0.723677       -19.6923
  15   2.0000      -0.709433       -19.3047
  16   2.0000      -0.645011       -17.5516
  17   2.0000      -0.634194       -17.2573
  18   2.0000      -0.623550       -16.9677
  19   2.0000      -0.590199       -16.0601
  20   0.0000      -0.126645        -3.4462
  21   0.0000      -0.055622        -1.5136
  22   0.0000      -0.012913        -0.3514
  23   0.0000      -0.009661        -0.2629
  24   0.0000       0.019503         0.5307

MULLIKEN ATOMIC CHARGES
-----------------------
   0 C :   -0.061427
   1 C :   -0.033670
   2 N :    0.007189
   3 N :   -0.041306
   4 H :    0.195019
   5 H :    0.185101
   6 H :    0.198392
   7 H :    0.179511
   8 C :   -0.029096
   9 H :    0.073428
  10 H :    0.116568
  11 H :    0.063114
  12 H :    0.049532
  13 H :    0.097642
Sum of atomic charges:    1.0000000

LOEWDIN ATOMIC CHARGES
----------------------
   0 C :   -0.037683
   1 C :    0.160507
   2 N :    0.102428
   3 N :    0.079660
   4 H :    0.121475
   5 H :    0.112555
   6 H :    0.126824
   7 H :    0.114412
   8 C :   -0.025965
   9 H :    0.052317
  10 H :    0.069979
  11 H :    0.038510
  12 H :    0.029568
  13 H :    0.055413

  Mayer bond orders larger than 0.100000
B(  0-C ,  1-C ) :   1.0103 B(  0-C ,  8-C ) :   1.0584 B(  0-C ,  9-H ) :   0.9342
B(  0-C , 10-H ) :   0.9250 B(  1-C ,  2-N ) :   1.5297 B(  1-C ,  3-N ) :   1.4886
B(  2-N ,  6-H ) :   0.9173 B(  2-N ,  7-H ) :   0.9315 B(  3-N ,  4-H ) :   0.9226
B(  3-N ,  5-H ) :   0.9305 B(  8-C , 11-H ) :   0.9729 B(  8-C , 12-H ) :   0.9748
B(  8-C , 13-H ) :   0.9656

Dispersion correction           -0.002999211
FINAL SINGLE POINT ENERGY      -228.803691331654

DIPOLE MOMENT
-------------
                                X             Y             Z
Electronic contribution:      1.06789      -1.05282      -3.95791
Nuclear contribution   :     -0.84604       1.34287       2.92710
                        -----------------------------------------
Total Dipole Moment    :      0.22185       0.29005      -1.03081
                        -----------------------------------------
Magnitude (a.u.)       :      1.09358
Magnitude (Debye)      :      2.77967

Rotational constants in cm-1:     0.265816     0.126189     0.097583
Rotational constants in MHz :  7968.948902  3783.040103  2925.457702

                             ****ORCA TERMINATED NORMALLY****
TOTAL RUN TIME: 0 days 0 hours 0 minutes 19 seconds 98 msec
