                         Program Version 5.0.0 -  RELEASE  -
|  1> !wB97X-D3 RIJCOSX def2-SVP def2/J TightSCF
|  2> *xyz 0 1
|  3> C         -0.87096        0.24804       -2.66280
|  4> C         -0.47749        0.60819       -4.10105
|  5> H          0.20677        1.45830       -4.11875
|  6> H         -1.36844        0.92942       -4.64785
|  7> C          0.18467       -0.50664       -4.91676
|  8> F         -0.15869       -1.70109       -4.65798
|  9> O          1.05594       -0.17441       -5.74037
| 10> H         -1.54056       -0.58646       -2.67455
| 11> H         -1.35339        1.08600       -2.20455
| 12> H          0.00660       -0.00662       -2.10609
| 13> *
| 14>
| 15> %MaxCore 64000
| 16>
| 17> %pal nprocs 4
| 18> end
| 19>
| 20> %scf
| 21>   MaxIter 150
| 22> end
| 23>
| 24>
| 25>                          ****END OF INPUT****

CARTESIAN COORDINATES (ANGSTROEM)
---------------------------------
  C     -0.870960    0.248040   -2.662800
  C     -0.477490    0.608190   -4.101050
  H      0.206770    1.458300   -4.118750
  H     -1.368440    0.929420   -4.647850
  C      0.184670   -0.506640   -4.916760
  F     -0.158690   -1.701090   -4.657980
  O      1.055940   -0.174410   -5.740370
  H     -1.540560   -0.586460   -2.674550
  H     -1.353390    1.086000   -2.204550
  H      0.006600   -0.006620   -2.106090

 Total Charge           Charge          ....    0
 Multiplicity           Mult            ....    1
 Number of Electrons    NEL             ....   40
 Basis Dimension        Dim             ....   95

ORBITAL ENERGIES
----------------

  NO   OCC          E(Eh)            E(eV)
   0   2.0000     -24.854455      -676.3241
   1   2.0000     -19.241673      -523.5925
   2   2.0000     -10.462400      -284.6964
   3   2.0000     -10.318308      -280.7754
   4   2.0000     -10.296809      -280.1904
   5   2.0000      -1.404599       -38.2211
   6   2.0000      -1.138713       -30.9860
   7   2.0000      -0.910755       -24.7829
   8   2.0000      -0.787240       -21.4219
   9   2.0000      -0.741864       -20.1872
  10   2.0000      -0.646877       -17.6024
  11   2.0000      -0.639103       -17.3909
  12   2.0000      -0.591360       -16.0917
  13   2.0000      -0.565061       -15.3761
  14   2.0000      -0.529960       -14.4209
  15   2.0000      -0.497346       -13.5335
  16   2.0000      -0.481622       -13.1056
  17   2.0000      -0.472070       -12.8457
  18   2.0000      -0.440071       -11.9749
  19   2.0000      -0.383102       -10.4247
  20   0.0000       0.067475         1.8361
  21   0.0000       0.139558         3.7976
  22   0.0000       0.190061         5.1718
  23   0.0000       0.200994         5.4693
  24   0.0000       0.214920         5.8483

MULLIKEN ATOMIC CHARGES
-----------------------
   0 C :   -0.041877
   1 C :   -0.153322
   2 H :    0.074235
   3 H :    0.074595
   4 C :    0.272699
   5 F :   -0.101291
   6 O :   -0.255402
   7 H :    0.043466
   8 H :    0.042492
   9 H :    0.044405
Sum of atomic charges:   -0.0000000

LOEWDIN ATOMIC CHARGES
----------------------
   0 C :   -0.054279
   1 C :   -0.078371
   2 H :    0.048593
   3 H :    0.049820
   4 C :    0.116161
   5 F :    0.022164
   6 O :   -0.190210
   7 H :    0.026456
   8 H :    0.031658
   9 H :    0.028007

  Mayer bond orders larger than 0.100000
B(  0-C ,  1-C ) :   1.0565 B(  0-C ,  7-H ) :   0.9746 B(  0-C ,  8-H ) :   0.9698
B(  0-C ,  9-H ) :   0.9812 B(  1-C ,  2-H ) :   0.9545 B(  1-C ,  3-H ) :   0.9359
B(  1-C ,  4-C ) :   0.9909 B(  4-C ,  5-F ) :   1.1702 B(  4-C ,  6-O ) :   2.0981

Dispersion correction           -0.001890936
FINAL SINGLE POINT ENERGY      -292.100014219902

DIPOLE MOMENT
-------------
                                X             Y             Z
Electronic contribution:      2.63804      -5.38634      -5.34833
Nuclear contribution   :     -3.42837       5.66737       6.17046
                        -----------------------------------------
Total Dipole Moment    :     -0.79033       0.28103       0.82212
                        -----------------------------------------
Magnitude (a.u.)       :      1.17451
Magnitude (Debye)      :      2.98537

Rotational constants in cm-1:     0.304660     0.130969     0.097716
Rotational constants in MHz :  9133.464515  3926.366384  2929.457090

                             ****ORCA TERMINATED NORMALLY****
TOTAL RUN TIME: 0 days 0 hours 0 minutes 15 seconds 487 msec
