                         Program Version 5.0.0 -  RELEASE  -
|  1> !wB97X-D3 RIJCOSX def2-SVP def2/J TightSCF
|  2> *xyz 0 1
|  3> C          2.48645       -2.67712       -2.56345
|  4> C          3.03764       -2.36672       -3.92351
|  5> C          2.28036       -2.45441       -4.96769
|  6> N          4.32174       -2.01793       -4.01664
|  7> H          4.87994       -1.91167       -3.17382
|  8> H          4.71015       -1.67088       -4.88356
|  9> H          1.27042       -2.41265       -4.86614
| 10> H          2.58183       -2.05528       -5.84688
| 11> C          2.49799       -1.46946       -1.61030
| 12> H          1.47259       -3.05153       -2.69437
| 13> H          3.08320       -3.49064       -2.14147
| 14> H          1.91240       -0.67831       -2.02991
| 15> H          3.50450       -1.13364       -1.47227
| 16> H          2.08509       -1.75655       -0.66585
| 17> *
| 18>
| 19> %MaxCore 64000
| 20>
| 21> %pal nprocs 4
| 22> end
| 23>
| 24> %scf
| 25>   MaxIter 150
| 26> end
| 27>
| 28>
| 29>                          ****END OF INPUT****

CARTESIAN COORDINATES (ANGSTROEM)
---------------------------------
  C      2.486450   -2.677120   -2.563450
  C      3.037640   -2.366720   -3.923510
  C      2.280360   -2.454410   -4.967690
  N      4.321740   -2.017930   -4.016640
  H      4.879940   -1.911670   -3.173820
  H      4.710150   -1.670880   -4.883560
  H      1.270420   -2.412650   -4.866140
  H      2.581830   -2.055280   -5.846880
  C      2.497990   -1.469460   -1.610300
  H      1.472590   -3.051530   -2.694370
  H      3.083200   -3.490640   -2.141470
  H      1.912400   -0.678310   -2.029910
  H      3.504500   -1.133640   -1.472270
  H      2.085090   -1.756550   -0.665850

 Total Charge           Charge          ....    0
 Multiplicity           Mult            ....    1
 Number of Electrons    NEL             ....   40
 Basis Dimension        Dim             ....  115

ORBITAL ENERGIES
----------------

  NO   OCC          E(Eh)            E(eV)
   0   2.0000     -14.430243      -392.6669
   1   2.0000     -10.304996      -280.4132
   2   2.0000     -10.285781      -279.8903
   3   2.0000     -10.278253      -279.6855
   4   2.0000     -10.214201      -277.9425
   5   2.0000      -1.027658       -27.9640
   6   2.0000      -0.886046       -24.1105
   7   2.0000      -0.828972       -22.5575
   8   2.0000      -0.739074       -20.1112
   9   2.0000      -0.665659       -18.1135
  10   2.0000      -0.621770       -16.9192
  11   2.0000      -0.575655       -15.6644
  12   2.0000      -0.533861       -14.5271
  13   2.0000      -0.528540       -14.3823
  14   2.0000      -0.481547       -13.1036
  15   2.0000      -0.477474       -12.9927
  16   2.0000      -0.447203       -12.1690
  17   2.0000      -0.424887       -11.5618
  18   2.0000      -0.416941       -11.3455
  19   2.0000      -0.278387        -7.5753
  20   0.0000       0.132885         3.6160
  21   0.0000       0.141609         3.8534
  22   0.0000       0.186287         5.0691
  23   0.0000       0.188801         5.1375
  24   0.0000       0.206601         5.6219

MULLIKEN ATOMIC CHARGES
-----------------------
   0 C :   -0.001488
   1 C :   -0.096042
   2 C :   -0.081579
   3 N :   -0.124567
   4 H :    0.117585
   5 H :    0.126688
   6 H :   -0.018204
   7 H :   -0.037445
   8 C :   -0.016955
   9 H :    0.024768
  10 H :    0.031643
  11 H :    0.031630
  12 H :    0.010693
  13 H :    0.033272
Sum of atomic charges:    0.0000000

LOEWDIN ATOMIC CHARGES
----------------------
   0 C :   -0.032683
   1 C :    0.014497
   2 C :   -0.181092
   3 N :   -0.023515
   4 H :    0.070191
   5 H :    0.077463
   6 H :    0.003663
   7 H :   -0.005287
   8 C :   -0.050621
   9 H :    0.034154
  10 H :    0.027489
  11 H :    0.026107
  12 H :    0.014512
  13 H :    0.025120

  Mayer bond orders larger than 0.100000
B(  0-C ,  1-C ) :   1.0145 B(  0-C ,  8-C ) :   1.0747 B(  0-C ,  9-H ) :   0.9438
B(  0-C , 10-H ) :   0.9428 B(  1-C ,  2-C ) :   1.8906 B(  1-C ,  3-N ) :   1.2375
B(  2-C ,  6-H ) :   0.9466 B(  2-C ,  7-H ) :   0.9624 B(  3-N ,  4-H ) :   0.9560
B(  3-N ,  5-H ) :   0.9521 B(  8-C , 11-H ) :   0.9736 B(  8-C , 12-H ) :   0.9747
B(  8-C , 13-H ) :   0.9740

Dispersion correction           -0.003007167
FINAL SINGLE POINT ENERGY      -212.343498489448

DIPOLE MOMENT
-------------
                                X             Y             Z
Electronic contribution:      1.59368      -0.86533      -2.11004
Nuclear contribution   :     -0.99743       1.27863       2.57190
                        -----------------------------------------
Total Dipole Moment    :      0.59624       0.41330       0.46186
                        -----------------------------------------
Magnitude (a.u.)       :      0.86002
Magnitude (Debye)      :      2.18599

Rotational constants in cm-1:     0.274050     0.130114     0.100964
Rotational constants in MHz :  8215.815505  3900.722919  3026.834930

                             ****ORCA TERMINATED NORMALLY****
TOTAL RUN TIME: 0 days 0 hours 0 minutes 19 seconds 270 msec
