                         Program Version 5.0.0 -  RELEASE  -
|  1> !wB97X-D3 RIJCOSX def2-SVP def2/J TightSCF
|  2> *xyz 0 1
|  3> C         -0.87096        0.24804       -2.66280
|  4> C         -0.47749        0.60819       -4.10105
|  5> H          0.20677        1.45830       -4.11875
|  6> H         -1.36844        0.92942       -4.64785
|  7> C          0.18467       -0.50664       -4.91676
|  8> O         -0.15869       -1.70109       -4.65798
|  9> F          1.05594       -0.17441       -5.74037
| 10> H         -1.54056       -0.58646       -2.67455
| 11> H         -1.35339        1.08600       -2.20455
| 12> H          0.00660       -0.00662       -2.10609
| 13> *
| 14>
| 15> %MaxCore 64000
| 16>
| 17> %pal nprocs 4
| 18> end
| 19>
| 20> %scf
| 21>   MaxIter 150
| 22> end
| 23>
| 24>
| 25>                          ****END OF INPUT****

CARTESIAN COORDINATES (ANGSTROEM)
---------------------------------
  C     -0.870960    0.248040   -2.662800
  C     -0.477490    0.608190   -4.101050
  H      0.206770    1.458300   -4.118750
  H     -1.368440    0.929420   -4.647850
  C      0.184670   -0.506640   -4.916760
  O     -0.158690   -1.701090   -4.657980
  F      1.055940   -0.174410   -5.740370
  H     -1.540560   -0.586460   -2.674550
  H     -1.353390    1.086000   -2.204550
  H      0.006600   -0.006620   -2.106090

 Total Charge           Charge          ....    0
 Multiplicity           Mult            ....    1
 Number of Electrons    NEL             ....   40
 Basis Dimension        Dim             ....   95

ORBITAL ENERGIES
----------------

  NO   OCC          E(Eh)            E(eV)
   0   2.0000     -24.863648      -676.5742
   1   2.0000     -19.238589      -523.5086
   2   2.0000     -10.464623      -284.7569
   3   2.0000     -10.319628      -280.8114
   4   2.0000     -10.290839      -280.0280
   5   2.0000      -1.423651       -38.7395
   6   2.0000      -1.123763       -30.5791
   7   2.0000      -0.906590       -24.6696
   8   2.0000      -0.796849       -21.6834
   9   2.0000      -0.741412       -20.1749
  10   2.0000      -0.654757       -17.8168
  11   2.0000      -0.639675       -17.4064
  12   2.0000      -0.603853       -16.4317
  13   2.0000      -0.564701       -15.3663
  14   2.0000      -0.526845       -14.3362
  15   2.0000      -0.489545       -13.3212
  16   2.0000      -0.469002       -12.7622
  17   2.0000      -0.467174       -12.7124
  18   2.0000      -0.434991       -11.8367
  19   2.0000      -0.380780       -10.3616
  20   0.0000       0.064451         1.7538
  21   0.0000       0.144831         3.9410
  22   0.0000       0.191273         5.2048
  23   0.0000       0.200221         5.4483
  24   0.0000       0.215661         5.8684

MULLIKEN ATOMIC CHARGES
-----------------------
   0 C :   -0.015203
   1 C :   -0.156156
   2 H :    0.048207
   3 H :    0.075497
   4 C :    0.269081
   5 O :   -0.285393
   6 F :   -0.068313
   7 H :    0.056794
   8 H :    0.034846
   9 H :    0.040639
Sum of atomic charges:    0.0000000

LOEWDIN ATOMIC CHARGES
----------------------
   0 C :   -0.041253
   1 C :   -0.081527
   2 H :    0.032479
   3 H :    0.051586
   4 C :    0.112464
   5 O :   -0.219244
   6 F :    0.054655
   7 H :    0.033535
   8 H :    0.028501
   9 H :    0.028803

  Mayer bond orders larger than 0.100000
B(  0-C ,  1-C ) :   1.0812 B(  0-C ,  7-H ) :   0.9703 B(  0-C ,  8-H ) :   0.9697
B(  0-C ,  9-H ) :   0.9817 B(  1-C ,  2-H ) :   0.9470 B(  1-C ,  3-H ) :   0.9301
B(  1-C ,  4-C ) :   0.9891 B(  4-C ,  5-O ) :   2.0600 B(  4-C ,  6-F ) :   1.2071

Dispersion correction           -0.001905701
FINAL SINGLE POINT ENERGY      -292.093247399620

DIPOLE MOMENT
-------------
                                X             Y             Z
Electronic contribution:      4.65579      -2.87994      -7.16180
Nuclear contribution   :     -4.75269       4.00281       7.35060
                        -----------------------------------------
Total Dipole Moment    :     -0.09690       1.12287       0.18880
                        -----------------------------------------
Magnitude (a.u.)       :      1.14275
Magnitude (Debye)      :      2.90463

Rotational constants in cm-1:     0.323805     0.124913     0.096140
Rotational constants in MHz :  9707.430323  3744.789513  2882.191141

                             ****ORCA TERMINATED NORMALLY****
TOTAL RUN TIME: 0 days 0 hours 0 minutes 14 seconds 499 msec
