                         Program Version 5.0.0 -  RELEASE  -
|  1> !wB97X-D3 RIJCOSX def2-SVP def2/J TightSCF xyzfile
|  2>
|  3> *xyzfile 0 1 D1.xyz
|  4>
|  5> %MaxCore 64000
|  6>
|  7> %pal nprocs 18
|  8> end
|  9>
| 10> %scf
| 11>   MaxIter 150
| 12> end
| 13>
| 14>
| 15>                          ****END OF INPUT****

CARTESIAN COORDINATES (ANGSTROEM)
---------------------------------
  C      2.486452   -2.677121   -2.563447
  C     -0.870963    0.248043   -2.662804
  C     -0.477492    0.608191   -4.101052
  H      0.206773    1.458299   -4.118748
  H     -1.368442    0.929419   -4.647855
  C      0.184673   -0.506640   -4.916760
  C      3.037640   -2.366715   -3.923509
  C      2.280360   -2.454408   -4.967692
  N      4.321736   -2.017932   -4.016641
  H      4.879940   -1.911668   -3.173823
  H      4.710148   -1.670882   -4.883561
  H      1.270423   -2.412650   -4.866143
  H      2.581829   -2.055282   -5.846878
  F     -0.158685   -1.701088   -4.657981
  O      1.055938   -0.174410   -5.740373
  C      2.497991   -1.469464   -1.610303
  C      1.582841   -0.321986   -2.042619
  H      2.193083   -1.833912   -0.625420
  H      3.523356   -1.103982   -1.490392
  C      0.100160   -0.673551   -1.915815
  H      1.822311   -0.040361   -3.072834
  H      1.813180    0.557019   -1.433266
  H     -0.063284   -1.679120   -2.301112
  H     -0.168820   -0.691680   -0.853831
  H     -1.001048    1.181040   -2.104071
  H     -1.844645   -0.246592   -2.663281
  H      1.472592   -3.051527   -2.694366
  H      3.083201   -3.490638   -2.141472

 Total Charge           Charge          ....    0
 Multiplicity           Mult            ....    1
 Number of Electrons    NEL             ....   94
 Basis Dimension        Dim             ....  248

ORBITAL ENERGIES
----------------

  NO   OCC          E(Eh)            E(eV)
   0   2.0000     -24.859535      -676.4623
   1   2.0000     -19.241687      -523.5929
   2   2.0000     -14.417420      -392.3179
   3   2.0000     -10.463825      -284.7352
   4   2.0000     -10.315949      -280.7112
   5   2.0000     -10.302213      -280.3375
   6   2.0000     -10.290387      -280.0157
   7   2.0000     -10.289815      -280.0001
   8   2.0000     -10.287892      -279.9478
   9   2.0000     -10.286419      -279.9077
  10   2.0000     -10.280087      -279.7354
  11   2.0000     -10.191657      -277.3291
  12   2.0000      -1.415004       -38.5042
  13   2.0000      -1.140107       -31.0239
  14   2.0000      -1.015497       -27.6331
  15   2.0000      -0.937770       -25.5180
  16   2.0000      -0.900987       -24.5171
  17   2.0000      -0.849610       -23.1191
  18   2.0000      -0.825754       -22.4699
  19   2.0000      -0.780332       -21.2339
  20   2.0000      -0.759109       -20.6564
  21   2.0000      -0.721236       -19.6258
  22   2.0000      -0.682663       -18.5762
  23   2.0000      -0.673336       -18.3224
  24   2.0000      -0.650519       -17.7015
  25   2.0000      -0.635887       -17.3034
  26   2.0000      -0.606640       -16.5075
  27   2.0000      -0.590550       -16.0697
  28   2.0000      -0.580967       -15.8089
  29   2.0000      -0.570278       -15.5180
  30   2.0000      -0.555213       -15.1081
  31   2.0000      -0.539343       -14.6763
  32   2.0000      -0.528241       -14.3742
  33   2.0000      -0.506587       -13.7849
  34   2.0000      -0.500042       -13.6068
  35   2.0000      -0.482720       -13.1355
  36   2.0000      -0.469241       -12.7687
  37   2.0000      -0.467273       -12.7151
  38   2.0000      -0.449802       -12.2397
  39   2.0000      -0.443227       -12.0608
  40   2.0000      -0.431381       -11.7385
  41   2.0000      -0.426071       -11.5940
  42   2.0000      -0.409740       -11.1496
  43   2.0000      -0.404066       -10.9952
  44   2.0000      -0.399138       -10.8611
  45   2.0000      -0.378736       -10.3059
  46   2.0000      -0.262340        -7.1386
  47   0.0000       0.064029         1.7423
  48   0.0000       0.130226         3.5436
  49   0.0000       0.141363         3.8467
  50   0.0000       0.152909         4.1609
  51   0.0000       0.164960         4.4888

MULLIKEN ATOMIC CHARGES
-----------------------
   0 C :    0.050150
   1 C :   -0.011658
   2 C :   -0.076086
   3 H :    0.072563
   4 H :    0.071121
   5 C :    0.258768
   6 C :   -0.139271
   7 C :   -0.070292
   8 N :   -0.123729
   9 H :    0.110803
  10 H :    0.124933
  11 H :    0.003708
  12 H :   -0.037505
  13 F :   -0.093393
  14 O :   -0.245473
  15 C :   -0.026941
  16 C :   -0.044528
  17 H :    0.018375
  18 H :    0.009623
  19 C :   -0.087242
  20 H :    0.045121
  21 H :    0.020700
  22 H :    0.029391
  23 H :    0.027996
  24 H :    0.034548
  25 H :    0.034194
  26 H :    0.016233
  27 H :    0.027890
Sum of atomic charges:   -0.0000000

LOEWDIN ATOMIC CHARGES
----------------------
   0 C :   -0.031380
   1 C :   -0.040606
   2 C :   -0.069449
   3 H :    0.048664
   4 H :    0.052624
   5 C :    0.124480
   6 C :   -0.005102
   7 C :   -0.173523
   8 N :   -0.029601
   9 H :    0.065698
  10 H :    0.077008
  11 H :   -0.023178
  12 H :   -0.006385
  13 F :    0.058066
  14 O :   -0.166430
  15 C :   -0.035210
  16 C :   -0.044152
  17 H :    0.021972
  18 H :    0.017008
  19 C :   -0.048051
  20 H :    0.023797
  21 H :    0.024114
  22 H :    0.016382
  23 H :    0.028197
  24 H :    0.030140
  25 H :    0.027796
  26 H :    0.028467
  27 H :    0.028653

  Mayer bond orders larger than 0.100000
B(  0-C ,  6-C ) :   1.0131 B(  0-C , 15-C ) :   1.0603 B(  0-C , 26-H ) :   0.9364
B(  0-C , 27-H ) :   0.9321 B(  1-C ,  2-C ) :   1.0370 B(  1-C , 19-C ) :   1.0832
B(  1-C , 24-H ) :   0.9477 B(  1-C , 25-H ) :   0.9490 B(  2-C ,  3-H ) :   0.9486
B(  2-C ,  4-H ) :   0.9269 B(  2-C ,  5-C ) :   0.9933 B(  5-C , 13-F ) :   1.1019
B(  5-C , 14-O ) :   2.0675 B(  6-C ,  7-C ) :   1.9019 B(  6-C ,  8-N ) :   1.2233
B(  7-C , 11-H ) :   0.9338 B(  7-C , 12-H ) :   0.9416 B(  8-N ,  9-H ) :   0.9563
B(  8-N , 10-H ) :   0.9516 B( 15-C , 16-C ) :   1.0671 B( 15-C , 17-H ) :   0.9496
B( 15-C , 18-H ) :   0.9490 B( 16-C , 19-C ) :   1.0513 B( 16-C , 20-H ) :   0.9433
B( 16-C , 21-H ) :   0.9433 B( 19-C , 22-H ) :   0.9501 B( 19-C , 23-H ) :   0.9446

Dispersion correction           -0.013473738
FINAL SINGLE POINT ENERGY      -581.777702342965

DIPOLE MOMENT
-------------
                                X             Y             Z
Electronic contribution:     -3.63508      -1.63798     -10.28929
Nuclear contribution   :      3.32973       2.37270      11.37738
                        -----------------------------------------
Total Dipole Moment    :     -0.30535       0.73473       1.08809
                        -----------------------------------------
Magnitude (a.u.)       :      1.34796
Magnitude (Debye)      :      3.42625

Rotational constants in cm-1:     0.040902     0.025807     0.019036
Rotational constants in MHz :  1226.202138   773.670450   570.681201

                             ****ORCA TERMINATED NORMALLY****
TOTAL RUN TIME: 0 days 0 hours 0 minutes 33 seconds 334 msec
