                         Program Version 5.0.0 -  RELEASE  -
|  1> !wB97X-D3 RIJCOSX def2-SVP def2/J TightSCF xyzfile
|  2>
|  3> *xyzfile 0 1 D2.xyz
|  4>
|  5> %MaxCore 64000
|  6>
|  7> %pal nprocs 18
|  8> end
|  9>
| 10> %scf
| 11>   MaxIter 150
| 12> end
| 13>
| 14>
| 15>                          ****END OF INPUT****

CARTESIAN COORDINATES (ANGSTROEM)
---------------------------------
  C      2.486452   -2.677121   -2.563447
  C     -0.870963    0.248043   -2.662804
  C     -0.477492    0.608191   -4.101052
  H      0.206773    1.458299   -4.118748
  H     -1.368442    0.929419   -4.647855
  C      0.184673   -0.506640   -4.916760
  C      3.037640   -2.366715   -3.923509
  N      2.280360   -2.454408   -4.967692
  C      4.321736   -2.017932   -4.016641
  H      4.879940   -1.911668   -3.173823
  H      4.710148   -1.670882   -4.883561
  H      1.270423   -2.412650   -4.866143
  H      2.581829   -2.055282   -5.846878
  F     -0.158685   -1.701088   -4.657981
  O      1.055938   -0.174410   -5.740373
  C      2.497991   -1.469464   -1.610303
  C      1.582841   -0.321986   -2.042619
  H      2.193083   -1.833912   -0.625420
  H      3.523356   -1.103982   -1.490392
  C      0.100160   -0.673551   -1.915815
  H      1.822311   -0.040361   -3.072834
  H      1.813180    0.557019   -1.433266
  H     -0.063284   -1.679120   -2.301112
  H     -0.168820   -0.691680   -0.853831
  H     -1.001048    1.181040   -2.104071
  H     -1.844645   -0.246592   -2.663281
  H      1.472592   -3.051527   -2.694366
  H      3.083201   -3.490638   -2.141472

 Total Charge           Charge          ....    0
 Multiplicity           Mult            ....    1
 Number of Electrons    NEL             ....   94
 Basis Dimension        Dim             ....  248

ORBITAL ENERGIES
----------------

  NO   OCC          E(Eh)            E(eV)
   0   2.0000     -24.889603      -677.2805
   1   2.0000     -19.263351      -524.1824
   2   2.0000     -14.407725      -392.0541
   3   2.0000     -10.484206      -285.2898
   4   2.0000     -10.327860      -281.0353
   5   2.0000     -10.309964      -280.5484
   6   2.0000     -10.295930      -280.1665
   7   2.0000     -10.294439      -280.1259
   8   2.0000     -10.288890      -279.9749
   9   2.0000     -10.285222      -279.8751
  10   2.0000     -10.281676      -279.7786
  11   2.0000     -10.203086      -277.6401
  12   2.0000      -1.443619       -39.2829
  13   2.0000      -1.161687       -31.6111
  14   2.0000      -1.027259       -27.9531
  15   2.0000      -0.946052       -25.7434
  16   2.0000      -0.904173       -24.6038
  17   2.0000      -0.861222       -23.4350
  18   2.0000      -0.813387       -22.1334
  19   2.0000      -0.794469       -21.6186
  20   2.0000      -0.771482       -20.9931
  21   2.0000      -0.731394       -19.9022
  22   2.0000      -0.697125       -18.9697
  23   2.0000      -0.687927       -18.7194
  24   2.0000      -0.670703       -18.2508
  25   2.0000      -0.639152       -17.3922
  26   2.0000      -0.610487       -16.6122
  27   2.0000      -0.597033       -16.2461
  28   2.0000      -0.583444       -15.8763
  29   2.0000      -0.576577       -15.6895
  30   2.0000      -0.569016       -15.4837
  31   2.0000      -0.543867       -14.7994
  32   2.0000      -0.526035       -14.3141
  33   2.0000      -0.517510       -14.0822
  34   2.0000      -0.505919       -13.7668
  35   2.0000      -0.488633       -13.2964
  36   2.0000      -0.481985       -13.1155
  37   2.0000      -0.470745       -12.8096
  38   2.0000      -0.460204       -12.5228
  39   2.0000      -0.449996       -12.2450
  40   2.0000      -0.438276       -11.9261
  41   2.0000      -0.431456       -11.7405
  42   2.0000      -0.416449       -11.3322
  43   2.0000      -0.414706       -11.2847
  44   2.0000      -0.405848       -11.0437
  45   2.0000      -0.394240       -10.7278
  46   2.0000      -0.254245        -6.9184
  47   0.0000       0.044853         1.2205
  48   0.0000       0.124488         3.3875
  49   0.0000       0.141135         3.8405
  50   0.0000       0.158270         4.3067
  51   0.0000       0.164510         4.4765

MULLIKEN ATOMIC CHARGES
-----------------------
   0 C :    0.045889
   1 C :   -0.012839
   2 C :   -0.078972
   3 H :    0.081172
   4 H :    0.076836
   5 C :    0.243848
   6 C :   -0.166492
   7 N :   -0.065532
   8 C :   -0.084187
   9 H :   -0.029921
  10 H :   -0.033728
  11 H :    0.108804
  12 H :    0.124902
  13 F :   -0.103717
  14 O :   -0.243592
  15 C :   -0.011066
  16 C :   -0.055093
  17 H :    0.013825
  18 H :    0.033069
  19 C :   -0.088194
  20 H :    0.043472
  21 H :    0.025679
  22 H :    0.022485
  23 H :    0.032236
  24 H :    0.039688
  25 H :    0.035596
  26 H :   -0.002362
  27 H :    0.048194
Sum of atomic charges:   -0.0000000

LOEWDIN ATOMIC CHARGES
----------------------
   0 C :   -0.031818
   1 C :   -0.040641
   2 C :   -0.067406
   3 H :    0.052533
   4 H :    0.054947
   5 C :    0.118053
   6 C :   -0.002785
   7 N :    0.004140
   8 C :   -0.197218
   9 H :   -0.005412
  10 H :   -0.007229
  11 H :    0.026235
  12 H :    0.073806
  13 F :    0.057136
  14 O :   -0.169937
  15 C :   -0.025550
  16 C :   -0.045153
  17 H :    0.019870
  18 H :    0.028372
  19 C :   -0.049685
  20 H :    0.022062
  21 H :    0.026605
  22 H :    0.013003
  23 H :    0.030228
  24 H :    0.032634
  25 H :    0.028023
  26 H :    0.012862
  27 H :    0.042325

  Mayer bond orders larger than 0.100000
B(  0-C ,  6-C ) :   0.9880 B(  0-C , 15-C ) :   1.0793 B(  0-C , 26-H ) :   0.9406
B(  0-C , 27-H ) :   0.9324 B(  1-C ,  2-C ) :   1.0369 B(  1-C , 19-C ) :   1.0814
B(  1-C , 24-H ) :   0.9472 B(  1-C , 25-H ) :   0.9496 B(  2-C ,  3-H ) :   0.9476
B(  2-C ,  4-H ) :   0.9256 B(  2-C ,  5-C ) :   0.9928 B(  5-C , 13-F ) :   1.0841
B(  5-C , 14-O ) :   2.0735 B(  6-C ,  7-N ) :   1.2926 B(  6-C ,  8-C ) :   1.8343
B(  7-N , 11-H ) :   0.9369 B(  7-N , 12-H ) :   0.9431 B(  8-C ,  9-H ) :   0.9574
B(  8-C , 10-H ) :   0.9613 B( 15-C , 16-C ) :   1.0715 B( 15-C , 17-H ) :   0.9485
B( 15-C , 18-H ) :   0.9481 B( 16-C , 19-C ) :   1.0482 B( 16-C , 20-H ) :   0.9391
B( 16-C , 21-H ) :   0.9447 B( 19-C , 22-H ) :   0.9492 B( 19-C , 23-H ) :   0.9441

Dispersion correction           -0.013541331
FINAL SINGLE POINT ENERGY      -581.791748253319

DIPOLE MOMENT
-------------
                                X             Y             Z
Electronic contribution:     -5.35022      -1.83634     -10.95531
Nuclear contribution   :      3.65024       2.44123      11.52670
                        -----------------------------------------
Total Dipole Moment    :     -1.69998       0.60490       0.57139
                        -----------------------------------------
Magnitude (a.u.)       :      1.89270
Magnitude (Debye)      :      4.81086

Rotational constants in cm-1:     0.040600     0.026409     0.019262
Rotational constants in MHz :  1217.142957   791.712481   577.449390

                             ****ORCA TERMINATED NORMALLY****
TOTAL RUN TIME: 0 days 0 hours 0 minutes 33 seconds 331 msec
