                         Program Version 5.0.0 -  RELEASE  -
|  1> !wB97X-D3 RIJCOSX def2-SVP def2/J TightSCF xyzfile
|  2>
|  3> *xyzfile 0 1 D3.xyz
|  4>
|  5> %MaxCore 64000
|  6>
|  7> %pal nprocs 18
|  8> end
|  9>
| 10> %scf
| 11>   MaxIter 150
| 12> end
| 13>
| 14>
| 15>                          ****END OF INPUT****

CARTESIAN COORDINATES (ANGSTROEM)
---------------------------------
  C      2.486452   -2.677121   -2.563447
  C     -0.870963    0.248043   -2.662804
  C     -0.477492    0.608191   -4.101052
  H      0.206773    1.458299   -4.118748
  H     -1.368442    0.929419   -4.647855
  C      0.184673   -0.506640   -4.916760
  C      3.037640   -2.366715   -3.923509
  C      2.280360   -2.454408   -4.967692
  N      4.321736   -2.017932   -4.016641
  H      4.879940   -1.911668   -3.173823
  H      4.710148   -1.670882   -4.883561
  H      1.270423   -2.412650   -4.866143
  H      2.581829   -2.055282   -5.846878
  O     -0.158685   -1.701088   -4.657981
  F      1.055938   -0.174410   -5.740373
  C      2.497991   -1.469464   -1.610303
  C      1.582841   -0.321986   -2.042619
  H      2.193083   -1.833912   -0.625420
  H      3.523356   -1.103982   -1.490392
  C      0.100160   -0.673551   -1.915815
  H      1.822311   -0.040361   -3.072834
  H      1.813180    0.557019   -1.433266
  H     -0.063284   -1.679120   -2.301112
  H     -0.168820   -0.691680   -0.853831
  H     -1.001048    1.181040   -2.104071
  H     -1.844645   -0.246592   -2.663281
  H      1.472592   -3.051527   -2.694366
  H      3.083201   -3.490638   -2.141472

 Total Charge           Charge          ....    0
 Multiplicity           Mult            ....    1
 Number of Electrons    NEL             ....   94
 Basis Dimension        Dim             ....  248

ORBITAL ENERGIES
----------------

  NO   OCC          E(Eh)            E(eV)
   0   2.0000     -24.866301      -676.6464
   1   2.0000     -19.241391      -523.5849
   2   2.0000     -14.416350      -392.2888
   3   2.0000     -10.470345      -284.9126
   4   2.0000     -10.319153      -280.7984
   5   2.0000     -10.299379      -280.2604
   6   2.0000     -10.287071      -279.9254
   7   2.0000     -10.284682      -279.8604
   8   2.0000     -10.284564      -279.8572
   9   2.0000     -10.281340      -279.7695
  10   2.0000     -10.274478      -279.5827
  11   2.0000     -10.183840      -277.1164
  12   2.0000      -1.426350       -38.8130
  13   2.0000      -1.136357       -30.9218
  14   2.0000      -1.013973       -27.5916
  15   2.0000      -0.932360       -25.3708
  16   2.0000      -0.898439       -24.4478
  17   2.0000      -0.847934       -23.0735
  18   2.0000      -0.823224       -22.4011
  19   2.0000      -0.782860       -21.3027
  20   2.0000      -0.756289       -20.5797
  21   2.0000      -0.717100       -19.5133
  22   2.0000      -0.678825       -18.4718
  23   2.0000      -0.664751       -18.0888
  24   2.0000      -0.650895       -17.7117
  25   2.0000      -0.629776       -17.1371
  26   2.0000      -0.617828       -16.8120
  27   2.0000      -0.604387       -16.4462
  28   2.0000      -0.578263       -15.7353
  29   2.0000      -0.569695       -15.5022
  30   2.0000      -0.550366       -14.9762
  31   2.0000      -0.537536       -14.6271
  32   2.0000      -0.530005       -14.4222
  33   2.0000      -0.498600       -13.5676
  34   2.0000      -0.492788       -13.4095
  35   2.0000      -0.488031       -13.2800
  36   2.0000      -0.472170       -12.8484
  37   2.0000      -0.459761       -12.5107
  38   2.0000      -0.450527       -12.2595
  39   2.0000      -0.446263       -12.1434
  40   2.0000      -0.427541       -11.6340
  41   2.0000      -0.419532       -11.4160
  42   2.0000      -0.407461       -11.0876
  43   2.0000      -0.401038       -10.9128
  44   2.0000      -0.399793       -10.8789
  45   2.0000      -0.356073        -9.6892
  46   2.0000      -0.261027        -7.1029
  47   0.0000       0.056391         1.5345
  48   0.0000       0.133674         3.6374
  49   0.0000       0.143724         3.9109
  50   0.0000       0.153661         4.1813
  51   0.0000       0.170069         4.6278

MULLIKEN ATOMIC CHARGES
-----------------------
   0 C :    0.058053
   1 C :    0.013161
   2 C :   -0.090141
   3 H :    0.049870
   4 H :    0.073276
   5 C :    0.276934
   6 C :   -0.144604
   7 C :   -0.089811
   8 N :   -0.121728
   9 H :    0.110127
  10 H :    0.119757
  11 H :    0.027967
  12 H :   -0.062442
  13 O :   -0.274698
  14 F :   -0.061822
  15 C :   -0.030858
  16 C :   -0.032852
  17 H :    0.019394
  18 H :    0.005572
  19 C :   -0.074887
  20 H :    0.018437
  21 H :    0.017308
  22 H :    0.048057
  23 H :    0.022107
  24 H :    0.030586
  25 H :    0.039270
  26 H :    0.028810
  27 H :    0.025156
Sum of atomic charges:   -0.0000000

LOEWDIN ATOMIC CHARGES
----------------------
   0 C :   -0.029743
   1 C :   -0.028122
   2 C :   -0.072105
   3 H :    0.033467
   4 H :    0.055037
   5 C :    0.135508
   6 C :   -0.006357
   7 C :   -0.180471
   8 N :   -0.032411
   9 H :    0.064986
  10 H :    0.073699
  11 H :   -0.022760
  12 H :   -0.016435
  13 O :   -0.177357
  14 F :    0.074263
  15 C :   -0.034918
  16 C :   -0.041534
  17 H :    0.022940
  18 H :    0.014942
  19 C :   -0.044363
  20 H :    0.015400
  21 H :    0.022022
  22 H :    0.024498
  23 H :    0.025744
  24 H :    0.028611
  25 H :    0.033081
  26 H :    0.034832
  27 H :    0.027545

  Mayer bond orders larger than 0.100000
B(  0-C ,  6-C ) :   1.0127 B(  0-C , 15-C ) :   1.0616 B(  0-C , 26-H ) :   0.9350
B(  0-C , 27-H ) :   0.9327 B(  1-C ,  2-C ) :   1.0547 B(  1-C , 19-C ) :   1.0888
B(  1-C , 24-H ) :   0.9502 B(  1-C , 25-H ) :   0.9443 B(  2-C ,  3-H ) :   0.9420
B(  2-C ,  4-H ) :   0.9198 B(  2-C ,  5-C ) :   0.9992 B(  5-C , 13-O ) :   1.9418
B(  5-C , 14-F ) :   1.1942 B(  6-C ,  7-C ) :   1.9074 B(  6-C ,  8-N ) :   1.2151
B(  7-C , 11-H ) :   0.9041 B(  7-C , 12-H ) :   0.9439 B(  8-N ,  9-H ) :   0.9561
B(  8-N , 10-H ) :   0.9525 B( 11-H , 13-O ) :   0.1309 B( 15-C , 16-C ) :   1.0716
B( 15-C , 17-H ) :   0.9496 B( 15-C , 18-H ) :   0.9492 B( 16-C , 19-C ) :   1.0537
B( 16-C , 20-H ) :   0.9420 B( 16-C , 21-H ) :   0.9439 B( 19-C , 22-H ) :   0.9455
B( 19-C , 23-H ) :   0.9443

Dispersion correction           -0.013534807
FINAL SINGLE POINT ENERGY      -581.772412456034

DIPOLE MOMENT
-------------
                                X             Y             Z
Electronic contribution:     -1.70078       0.91938     -12.14390
Nuclear contribution   :      1.88979       0.56282      12.66056
                        -----------------------------------------
Total Dipole Moment    :      0.18901       1.48219       0.51666
                        -----------------------------------------
Magnitude (a.u.)       :      1.58100
Magnitude (Debye)      :      4.01859

Rotational constants in cm-1:     0.040271     0.025954     0.018866
Rotational constants in MHz :  1207.302496   778.083475   565.600538

                             ****ORCA TERMINATED NORMALLY****
TOTAL RUN TIME: 0 days 0 hours 0 minutes 25 seconds 731 msec
