                         Program Version 5.0.0 -  RELEASE  -
|  1> !M062X D3Zero RIJCOSX def2-SVPD def2/J TightSCF
|  2> *xyz -1 1
|  3> C          2.49670       -1.84416       -5.73570
|  4> O          2.45973       -0.50920       -5.50576
|  5> H          2.07863       -2.36209       -4.89793
|  6> H          3.51118       -2.15388       -5.87645
|  7> H          1.92949       -2.07059       -6.61428
|  8> *
|  9>
| 10> %MaxCore 64000
| 11>
| 12> %pal nprocs 4
| 13> end
| 14>
| 15> %scf
| 16>   MaxIter 150
| 17> end
| 18>
| 19>
| 20>                          ****END OF INPUT****

CARTESIAN COORDINATES (ANGSTROEM)
---------------------------------
  C      2.496700   -1.844160   -5.735700
  O      2.459730   -0.509200   -5.505760
  H      2.078630   -2.362090   -4.897930
  H      3.511180   -2.153880   -5.876450
  H      1.929490   -2.070590   -6.614280

 Total Charge           Charge          ....   -1
 Multiplicity           Mult            ....    1
 Number of Electrons    NEL             ....   18
 Basis Dimension        Dim             ....   67

ORBITAL ENERGIES
----------------

  NO   OCC          E(Eh)            E(eV)
   0   2.0000     -19.275777      -524.5206
   1   2.0000     -10.332816      -281.1702
   2   2.0000      -0.761879       -20.7318
   3   2.0000      -0.473516       -12.8850
   4   2.0000      -0.263658        -7.1745
   5   2.0000      -0.263648        -7.1742
   6   2.0000      -0.165537        -4.5045
   7   2.0000      -0.012063        -0.3283
   8   2.0000      -0.012021        -0.3271
   9   0.0000       0.218285         5.9398
  10   0.0000       0.296190         8.0597
  11   0.0000       0.296200         8.0600
  12   0.0000       0.304358         8.2820
  13   0.0000       0.339413         9.2359

MULLIKEN ATOMIC CHARGES
-----------------------
   0 C :    0.763602
   1 O :   -1.031686
   2 H :   -0.244152
   3 H :   -0.243728
   4 H :   -0.244037
Sum of atomic charges:   -1.0000000

LOEWDIN ATOMIC CHARGES
----------------------
   0 C :   -0.116365
   1 O :   -0.655811
   2 H :   -0.076028
   3 H :   -0.075941
   4 H :   -0.075855

  Mayer bond orders larger than 0.100000
B(  0-C ,  1-O ) :   1.1968 B(  0-C ,  2-H ) :   0.9176 B(  0-C ,  3-H ) :   0.9186
B(  0-C ,  4-H ) :   0.9183

Dispersion correction           -0.000000422
FINAL SINGLE POINT ENERGY      -114.953388665126

DIPOLE MOMENT
-------------
                                X             Y             Z
Electronic contribution:     -0.05100       1.84118       0.31625
Nuclear contribution   :      0.07809      -2.81948      -0.48564
                        -----------------------------------------
Total Dipole Moment    :      0.02709      -0.97830      -0.16939
                        -----------------------------------------
Magnitude (a.u.)       :      0.99322
Magnitude (Debye)      :      2.52458

Rotational constants in cm-1:     5.477724     0.956378     0.956377
Rotational constants in MHz : 164218.041992 28671.483536 28671.460928

                             ****ORCA TERMINATED NORMALLY****
TOTAL RUN TIME: 0 days 0 hours 0 minutes 4 seconds 109 msec
