                         Program Version 5.0.0 -  RELEASE  -
|  1> !M062X D3Zero RIJCOSX def2-SVPD def2/J TightSCF
|  2> *xyz 1 1
|  3> C          4.99986       -1.59613       -5.92488
|  4> N          5.28156       -1.97413       -4.53576
|  5> C          4.79250       -1.36132       -3.45730
|  6> N          3.93990       -0.37492       -3.55736
|  7> N          5.25986       -1.75422       -2.23913
|  8> H          5.92282       -2.52145       -2.18672
|  9> H          4.65468       -1.64040       -1.44202
| 10> H          5.70914       -2.87560       -4.38702
| 11> H          3.33010       -0.31764       -4.36125
| 12> H          3.69849        0.11447       -2.70833
| 13> H          5.52133       -2.25562       -6.58673
| 14> H          5.32493       -0.59081       -6.09388
| 15> H          3.94785       -1.66624       -6.10727
| 16> *
| 17>
| 18> %MaxCore 64000
| 19>
| 20> %pal nprocs 4
| 21> end
| 22>
| 23> %scf
| 24>   MaxIter 150
| 25> end
| 26>
| 27>
| 28>                          ****END OF INPUT****

CARTESIAN COORDINATES (ANGSTROEM)
---------------------------------
  C      4.999860   -1.596130   -5.924880
  N      5.281560   -1.974130   -4.535760
  C      4.792500   -1.361320   -3.457300
  N      3.939900   -0.374920   -3.557360
  N      5.259860   -1.754220   -2.239130
  H      5.922820   -2.521450   -2.186720
  H      4.654680   -1.640400   -1.442020
  H      5.709140   -2.875600   -4.387020
  H      3.330100   -0.317640   -4.361250
  H      3.698490    0.114470   -2.708330
  H      5.521330   -2.255620   -6.586730
  H      5.324930   -0.590810   -6.093880
  H      3.947850   -1.666240   -6.107270

 Total Charge           Charge          ....    1
 Multiplicity           Mult            ....    1
 Number of Electrons    NEL             ....   40
 Basis Dimension        Dim             ....  164

ORBITAL ENERGIES
----------------

  NO   OCC          E(Eh)            E(eV)
   0   2.0000     -14.996573      -408.0775
   1   2.0000     -14.994057      -408.0090
   2   2.0000     -14.985052      -407.7640
   3   2.0000     -10.897596      -296.5387
   4   2.0000     -10.758847      -292.7631
   5   2.0000      -1.323591       -36.0167
   6   2.0000      -1.205517       -32.8038
   7   2.0000      -1.188352       -32.3367
   8   2.0000      -0.992566       -27.0091
   9   2.0000      -0.912692       -24.8356
  10   2.0000      -0.871282       -23.7088
  11   2.0000      -0.826272       -22.4840
  12   2.0000      -0.777420       -21.1547
  13   2.0000      -0.767035       -20.8721
  14   2.0000      -0.727564       -19.7980
  15   2.0000      -0.703715       -19.1491
  16   2.0000      -0.663006       -18.0413
  17   2.0000      -0.647064       -17.6075
  18   2.0000      -0.550459       -14.9787
  19   2.0000      -0.521723       -14.1968
  20   0.0000      -0.143383        -3.9016
  21   0.0000      -0.133257        -3.6261
  22   0.0000      -0.098668        -2.6849
  23   0.0000      -0.093150        -2.5347
  24   0.0000      -0.067521        -1.8373

MULLIKEN ATOMIC CHARGES
-----------------------
   0 C :    1.023907
   1 N :   -0.601284
   2 C :    1.278982
   3 N :   -0.053466
   4 N :   -0.126171
   5 H :   -0.012985
   6 H :   -0.016580
   7 H :   -0.205742
   8 H :    0.001186
   9 H :   -0.059874
  10 H :   -0.258530
  11 H :    0.024485
  12 H :    0.006072
Sum of atomic charges:    1.0000000

LOEWDIN ATOMIC CHARGES
----------------------
   0 C :    0.261381
   1 N :    0.009313
   2 C :   -0.029038
   3 N :    0.279446
   4 N :    0.254094
   5 H :    0.035579
   6 H :    0.029907
   7 H :    0.052619
   8 H :    0.038285
   9 H :    0.047076
  10 H :    0.012799
  11 H :    0.010364
  12 H :   -0.001827

  Mayer bond orders larger than 0.100000
B(  0-C ,  1-N ) :   0.9094 B(  0-C ,  7-H ) :  -0.1181 B(  0-C , 10-H ) :   0.8677
B(  0-C , 11-H ) :   0.8175 B(  0-C , 12-H ) :   0.8275 B(  1-N ,  2-C ) :   1.0661
B(  1-N ,  3-N ) :   0.2199 B(  1-N ,  4-N ) :   0.1861 B(  1-N ,  7-H ) :   1.2658
B(  1-N , 10-H ) :   0.1689 B(  1-N , 11-H ) :   0.1457 B(  1-N , 12-H ) :   0.1249
B(  2-C ,  3-N ) :   1.0362 B(  2-C ,  4-N ) :   0.8353 B(  2-C ,  5-H ) :  -0.1040
B(  2-C ,  7-H ) :  -0.1812 B(  2-C ,  8-H ) :  -0.1200 B(  2-C ,  9-H ) :  -0.1018
B(  3-N ,  4-N ) :   0.1309 B(  3-N ,  8-H ) :   1.1178 B(  3-N ,  9-H ) :   1.1632
B(  4-N ,  5-H ) :   1.0805 B(  4-N ,  6-H ) :   1.1524 B(  5-H ,  6-H ) :  -0.1321
B(  8-H ,  9-H ) :  -0.1806

Dispersion correction           -0.000173777
FINAL SINGLE POINT ENERGY      -244.795885417560

DIPOLE MOMENT
-------------
                                X             Y             Z
Electronic contribution:      0.16548       0.11892       2.66098
Nuclear contribution   :     -0.59263      -0.40751      -2.24260
                        -----------------------------------------
Total Dipole Moment    :     -0.42715      -0.28860       0.41838
                        -----------------------------------------
Magnitude (a.u.)       :      0.66392
Magnitude (Debye)      :      1.68754

Rotational constants in cm-1:     0.316984     0.131419     0.095004
Rotational constants in MHz :  9502.926758  3939.829875  2848.138998

                             ****ORCA TERMINATED NORMALLY****
TOTAL RUN TIME: 0 days 0 hours 0 minutes 16 seconds 755 msec
