                         Program Version 5.0.0 -  RELEASE  -
|  1> !M062X D3Zero RIJCOSX def2-SVPD def2/J TightSCF
|  2> *xyz 0 1
|  3> C          2.49670       -1.84416       -5.73570
|  4> F          2.45973       -0.50920       -5.50576
|  5> H          2.07863       -2.36209       -4.89793
|  6> H          3.51118       -2.15388       -5.87645
|  7> H          1.92949       -2.07059       -6.61428
|  8> *
|  9>
| 10> %MaxCore 64000
| 11>
| 12> %pal nprocs 4
| 13> end
| 14>
| 15> %scf
| 16>   MaxIter 150
| 17> end
| 18>
| 19>
| 20>                          ****END OF INPUT****

CARTESIAN COORDINATES (ANGSTROEM)
---------------------------------
  C      2.496700   -1.844160   -5.735700
  F      2.459730   -0.509200   -5.505760
  H      2.078630   -2.362090   -4.897930
  H      3.511180   -2.153880   -5.876450
  H      1.929490   -2.070590   -6.614280

 Total Charge           Charge          ....    0
 Multiplicity           Mult            ....    1
 Number of Electrons    NEL             ....   18
 Basis Dimension        Dim             ....   67

ORBITAL ENERGIES
----------------

  NO   OCC          E(Eh)            E(eV)
   0   2.0000     -25.241232      -686.8489
   1   2.0000     -10.620538      -288.9995
   2   2.0000      -1.324139       -36.0317
   3   2.0000      -0.796129       -21.6638
   4   2.0000      -0.581117       -15.8130
   5   2.0000      -0.581096       -15.8124
   6   2.0000      -0.580951       -15.8085
   7   2.0000      -0.427599       -11.6356
   8   2.0000      -0.427558       -11.6344
   9   0.0000       0.040454         1.1008
  10   0.0000       0.096015         2.6127
  11   0.0000       0.120329         3.2743
  12   0.0000       0.120332         3.2744
  13   0.0000       0.156668         4.2632

MULLIKEN ATOMIC CHARGES
-----------------------
   0 C :    0.806150
   1 F :   -0.508629
   2 H :   -0.098979
   3 H :   -0.099433
   4 H :   -0.099110
Sum of atomic charges:   -0.0000000

LOEWDIN ATOMIC CHARGES
----------------------
   0 C :    0.274996
   1 F :   -0.262799
   2 H :   -0.004099
   3 H :   -0.004084
   4 H :   -0.004014

  Mayer bond orders larger than 0.100000
B(  0-C ,  1-F ) :   0.8017 B(  0-C ,  2-H ) :   0.9528 B(  0-C ,  3-H ) :   0.9542
B(  0-C ,  4-H ) :   0.9538

Dispersion correction           -0.000000595
FINAL SINGLE POINT ENERGY      -139.580328918139

DIPOLE MOMENT
-------------
                                X             Y             Z
Electronic contribution:     -0.07918       2.86810       0.49352
Nuclear contribution   :      0.09898      -3.57380      -0.61557
                        -----------------------------------------
Total Dipole Moment    :      0.01980      -0.70570      -0.12205
                        -----------------------------------------
Magnitude (a.u.)       :      0.71645
Magnitude (Debye)      :      1.82108

Rotational constants in cm-1:     5.477724     0.890368     0.890367
Rotational constants in MHz : 164218.041992 26692.553985 26692.534390

                             ****ORCA TERMINATED NORMALLY****
TOTAL RUN TIME: 0 days 0 hours 0 minutes 3 seconds 457 msec
