                         Program Version 5.0.0 -  RELEASE  -
|  1> !M062X D3Zero RIJCOSX def2-SVPD def2/J TightSCF
|  2> *xyz 0 1
|  3> C          4.99986       -1.59613       -5.92488
|  4> C          5.28156       -1.97413       -4.53576
|  5> C          4.79250       -1.36132       -3.45730
|  6> N          3.93990       -0.37492       -3.55736
|  7> N          5.25986       -1.75422       -2.23913
|  8> H          5.92282       -2.52145       -2.18672
|  9> H          4.65468       -1.64040       -1.44202
| 10> H          5.70914       -2.87560       -4.38702
| 11> H          3.33010       -0.31764       -4.36125
| 12> H          3.69849        0.11447       -2.70833
| 13> H          5.52133       -2.25562       -6.58673
| 14> H          5.32493       -0.59081       -6.09388
| 15> H          3.94785       -1.66624       -6.10727
| 16> *
| 17>
| 18> %MaxCore 64000
| 19>
| 20> %pal nprocs 4
| 21> end
| 22>
| 23> %scf
| 24>   MaxIter 150
| 25> end
| 26>
| 27>
| 28>                          ****END OF INPUT****

CARTESIAN COORDINATES (ANGSTROEM)
---------------------------------
  C      4.999860   -1.596130   -5.924880
  C      5.281560   -1.974130   -4.535760
  C      4.792500   -1.361320   -3.457300
  N      3.939900   -0.374920   -3.557360
  N      5.259860   -1.754220   -2.239130
  H      5.922820   -2.521450   -2.186720
  H      4.654680   -1.640400   -1.442020
  H      5.709140   -2.875600   -4.387020
  H      3.330100   -0.317640   -4.361250
  H      3.698490    0.114470   -2.708330
  H      5.521330   -2.255620   -6.586730
  H      5.324930   -0.590810   -6.093880
  H      3.947850   -1.666240   -6.107270

 Total Charge           Charge          ....    0
 Multiplicity           Mult            ....    1
 Number of Electrons    NEL             ....   40
 Basis Dimension        Dim             ....  164

ORBITAL ENERGIES
----------------

  NO   OCC          E(Eh)            E(eV)
   0   2.0000     -14.766162      -401.8077
   1   2.0000     -14.756012      -401.5315
   2   2.0000     -10.592761      -288.2437
   3   2.0000     -10.515286      -286.1355
   4   2.0000     -10.476092      -285.0690
   5   2.0000      -1.061302       -28.8795
   6   2.0000      -0.961741       -26.1703
   7   2.0000      -0.839184       -22.8354
   8   2.0000      -0.736967       -20.0539
   9   2.0000      -0.660586       -17.9755
  10   2.0000      -0.619114       -16.8470
  11   2.0000      -0.574957       -15.6454
  12   2.0000      -0.546180       -14.8623
  13   2.0000      -0.498221       -13.5573
  14   2.0000      -0.475529       -12.9398
  15   2.0000      -0.441633       -12.0175
  16   2.0000      -0.422212       -11.4890
  17   2.0000      -0.401252       -10.9186
  18   2.0000      -0.330462        -8.9923
  19   2.0000      -0.212495        -5.7823
  20   0.0000       0.037226         1.0130
  21   0.0000       0.063345         1.7237
  22   0.0000       0.072401         1.9701
  23   0.0000       0.101633         2.7656
  24   0.0000       0.106128         2.8879

MULLIKEN ATOMIC CHARGES
-----------------------
   0 C :    0.747801
   1 C :   -0.736706
   2 C :    0.921387
   3 N :    0.001162
   4 N :   -0.085049
   5 H :   -0.023582
   6 H :   -0.098038
   7 H :   -0.434573
   8 H :   -0.042524
   9 H :   -0.202272
  10 H :   -0.052847
  11 H :    0.039713
  12 H :   -0.034472
Sum of atomic charges:   -0.0000000

LOEWDIN ATOMIC CHARGES
----------------------
   0 C :    0.086078
   1 C :   -0.058192
   2 C :   -0.234835
   3 N :    0.190810
   4 N :    0.167956
   5 H :    0.001036
   6 H :   -0.021447
   7 H :   -0.063299
   8 H :    0.004168
   9 H :   -0.001835
  10 H :   -0.019650
  11 H :   -0.019494
  12 H :   -0.031297

  Mayer bond orders larger than 0.100000
B(  0-C ,  1-C ) :   1.2548 B(  0-C ,  7-H ) :   0.1374 B(  0-C , 10-H ) :   0.7537
B(  0-C , 11-H ) :   0.6794 B(  0-C , 12-H ) :   0.7547 B(  1-C ,  2-C ) :   1.4679
B(  1-C ,  3-N ) :   0.2938 B(  1-C ,  4-N ) :   0.2971 B(  1-C ,  7-H ) :   1.0016
B(  1-C , 10-H ) :   0.3030 B(  1-C , 11-H ) :   0.2950 B(  1-C , 12-H ) :   0.1768
B(  2-C ,  3-N ) :   1.0033 B(  2-C ,  4-N ) :   0.8015 B(  2-C ,  9-H ) :  -0.1079
B(  3-N ,  8-H ) :   1.1048 B(  3-N ,  9-H ) :   1.2408 B(  4-N ,  5-H ) :   1.0684
B(  4-N ,  6-H ) :   1.1317 B(  5-H ,  6-H ) :  -0.1182 B(  7-H , 10-H ) :  -0.1251
B(  8-H ,  9-H ) :  -0.1714

Dispersion correction           -0.000172849
FINAL SINGLE POINT ENERGY      -228.335836350808

DIPOLE MOMENT
-------------
                                X             Y             Z
Electronic contribution:     -0.13628       0.59572       3.06757
Nuclear contribution   :     -0.50372      -0.52081      -2.36443
                        -----------------------------------------
Total Dipole Moment    :     -0.64000       0.07491       0.70315
                        -----------------------------------------
Magnitude (a.u.)       :      0.95375
Magnitude (Debye)      :      2.42423

Rotational constants in cm-1:     0.322219     0.132365     0.095965
Rotational constants in MHz :  9659.878542  3968.206057  2876.950547

                             ****ORCA TERMINATED NORMALLY****
TOTAL RUN TIME: 0 days 0 hours 0 minutes 17 seconds 368 msec
