                         Program Version 5.0.0 -  RELEASE  -
|  1> !M062X D3Zero RIJCOSX def2-SVPD def2/J TightSCF
|  2> *xyz 0 1
|  3> C          4.99986       -1.59613       -5.92488
|  4> N          5.28156       -1.97413       -4.53576
|  5> C          4.79250       -1.36132       -3.45730
|  6> C          3.93990       -0.37492       -3.55736
|  7> N          5.25986       -1.75422       -2.23913
|  8> H          5.92282       -2.52145       -2.18672
|  9> H          4.65468       -1.64040       -1.44202
| 10> H          5.70914       -2.87560       -4.38702
| 11> H          3.33010       -0.31764       -4.36125
| 12> H          3.69849        0.11447       -2.70833
| 13> H          5.52133       -2.25562       -6.58673
| 14> H          5.32493       -0.59081       -6.09388
| 15> H          3.94785       -1.66624       -6.10727
| 16> *
| 17>
| 18> %MaxCore 64000
| 19>
| 20> %pal nprocs 4
| 21> end
| 22>
| 23> %scf
| 24>   MaxIter 150
| 25> end
| 26>
| 27>
| 28>                          ****END OF INPUT****

CARTESIAN COORDINATES (ANGSTROEM)
---------------------------------
  C      4.999860   -1.596130   -5.924880
  N      5.281560   -1.974130   -4.535760
  C      4.792500   -1.361320   -3.457300
  C      3.939900   -0.374920   -3.557360
  N      5.259860   -1.754220   -2.239130
  H      5.922820   -2.521450   -2.186720
  H      4.654680   -1.640400   -1.442020
  H      5.709140   -2.875600   -4.387020
  H      3.330100   -0.317640   -4.361250
  H      3.698490    0.114470   -2.708330
  H      5.521330   -2.255620   -6.586730
  H      5.324930   -0.590810   -6.093880
  H      3.947850   -1.666240   -6.107270

 Total Charge           Charge          ....    0
 Multiplicity           Mult            ....    1
 Number of Electrons    NEL             ....   40
 Basis Dimension        Dim             ....  164

ORBITAL ENERGIES
----------------

  NO   OCC          E(Eh)            E(eV)
   0   2.0000     -14.764739      -401.7690
   1   2.0000     -14.758257      -401.5926
   2   2.0000     -10.596753      -288.3523
   3   2.0000     -10.576894      -287.8119
   4   2.0000     -10.466298      -284.8024
   5   2.0000      -1.061502       -28.8849
   6   2.0000      -0.969821       -26.3902
   7   2.0000      -0.812603       -22.1121
   8   2.0000      -0.781194       -21.2574
   9   2.0000      -0.643103       -17.4997
  10   2.0000      -0.617022       -16.7900
  11   2.0000      -0.585035       -15.9196
  12   2.0000      -0.528650       -14.3853
  13   2.0000      -0.503935       -13.7128
  14   2.0000      -0.484150       -13.1744
  15   2.0000      -0.450289       -12.2530
  16   2.0000      -0.448342       -12.2000
  17   2.0000      -0.424122       -11.5409
  18   2.0000      -0.313556        -8.5323
  19   2.0000      -0.227479        -6.1900
  20   0.0000       0.035977         0.9790
  21   0.0000       0.056282         1.5315
  22   0.0000       0.071352         1.9416
  23   0.0000       0.101462         2.7609
  24   0.0000       0.105184         2.8622

MULLIKEN ATOMIC CHARGES
-----------------------
   0 C :    1.014807
   1 N :   -0.580317
   2 C :    0.643616
   3 C :    0.311769
   4 N :   -0.061279
   5 H :   -0.137973
   6 H :   -0.032260
   7 H :   -0.329236
   8 H :   -0.171415
   9 H :   -0.363844
  10 H :   -0.347706
  11 H :    0.001233
  12 H :    0.052606
Sum of atomic charges:    0.0000000

LOEWDIN ATOMIC CHARGES
----------------------
   0 C :    0.212902
   1 N :   -0.063907
   2 C :   -0.240869
   3 C :    0.160196
   4 N :    0.174166
   5 H :   -0.013378
   6 H :   -0.003990
   7 H :    0.010816
   8 H :   -0.099409
   9 H :   -0.094100
  10 H :   -0.015288
  11 H :   -0.008451
  12 H :   -0.018688

  Mayer bond orders larger than 0.100000
B(  0-C ,  1-N ) :   0.9150 B(  0-C ,  7-H ) :  -0.1275 B(  0-C , 10-H ) :   0.8816
B(  0-C , 11-H ) :   0.8191 B(  0-C , 12-H ) :   0.8241 B(  1-N ,  2-C ) :   0.9825
B(  1-N ,  3-C ) :   0.3222 B(  1-N ,  4-N ) :   0.1421 B(  1-N ,  7-H ) :   1.3302
B(  1-N , 10-H ) :   0.1647 B(  1-N , 11-H ) :   0.1459 B(  1-N , 12-H ) :   0.1055
B(  2-C ,  3-C ) :   1.7726 B(  2-C ,  4-N ) :   0.8447 B(  2-C ,  7-H ) :  -0.1927
B(  2-C ,  8-H ) :   0.2122 B(  2-C ,  9-H ) :   0.2716 B(  3-C ,  4-N ) :   0.2216
B(  3-C ,  8-H ) :   0.7455 B(  3-C ,  9-H ) :   0.7586 B(  4-N ,  5-H ) :   1.1024
B(  4-N ,  6-H ) :   1.1158 B(  5-H ,  6-H ) :  -0.1239

Dispersion correction           -0.000171349
FINAL SINGLE POINT ENERGY      -228.327231169127

DIPOLE MOMENT
-------------
                                X             Y             Z
Electronic contribution:      1.09997      -0.85337       2.10566
Nuclear contribution   :     -0.77547      -0.19690      -2.16626
                        -----------------------------------------
Total Dipole Moment    :      0.32451      -1.05027      -0.06059
                        -----------------------------------------
Magnitude (a.u.)       :      1.10093
Magnitude (Debye)      :      2.79833

Rotational constants in cm-1:     0.340409     0.131955     0.097296
Rotational constants in MHz : 10205.195281  3955.909122  2916.861706

                             ****ORCA TERMINATED NORMALLY****
TOTAL RUN TIME: 0 days 0 hours 0 minutes 17 seconds 217 msec
