                         Program Version 5.0.0 -  RELEASE  -
|  1> !M062X D3Zero RIJCOSX def2-SVPD def2/J TightSCF
|  2> *xyz 0 1
|  3> C          4.99986       -1.59613       -5.92488
|  4> N          5.28156       -1.97413       -4.53576
|  5> C          4.79250       -1.36132       -3.45730
|  6> N          3.93990       -0.37492       -3.55736
|  7> C          5.25986       -1.75422       -2.23913
|  8> H          5.92282       -2.52145       -2.18672
|  9> H          4.65468       -1.64040       -1.44202
| 10> H          5.70914       -2.87560       -4.38702
| 11> H          3.33010       -0.31764       -4.36125
| 12> H          3.69849        0.11447       -2.70833
| 13> H          5.52133       -2.25562       -6.58673
| 14> H          5.32493       -0.59081       -6.09388
| 15> H          3.94785       -1.66624       -6.10727
| 16> *
| 17>
| 18> %MaxCore 64000
| 19>
| 20> %pal nprocs 4
| 21> end
| 22>
| 23> %scf
| 24>   MaxIter 150
| 25> end
| 26>
| 27>
| 28>                          ****END OF INPUT****

CARTESIAN COORDINATES (ANGSTROEM)
---------------------------------
  C      4.999860   -1.596130   -5.924880
  N      5.281560   -1.974130   -4.535760
  C      4.792500   -1.361320   -3.457300
  N      3.939900   -0.374920   -3.557360
  C      5.259860   -1.754220   -2.239130
  H      5.922820   -2.521450   -2.186720
  H      4.654680   -1.640400   -1.442020
  H      5.709140   -2.875600   -4.387020
  H      3.330100   -0.317640   -4.361250
  H      3.698490    0.114470   -2.708330
  H      5.521330   -2.255620   -6.586730
  H      5.324930   -0.590810   -6.093880
  H      3.947850   -1.666240   -6.107270

 Total Charge           Charge          ....    0
 Multiplicity           Mult            ....    1
 Number of Electrons    NEL             ....   40
 Basis Dimension        Dim             ....  164

ORBITAL ENERGIES
----------------

  NO   OCC          E(Eh)            E(eV)
   0   2.0000     -14.767080      -401.8327
   1   2.0000     -14.764056      -401.7504
   2   2.0000     -10.601376      -288.4781
   3   2.0000     -10.585264      -288.0397
   4   2.0000     -10.460053      -284.6325
   5   2.0000      -1.072420       -29.1820
   6   2.0000      -0.981654       -26.7122
   7   2.0000      -0.826712       -22.4960
   8   2.0000      -0.746373       -20.3099
   9   2.0000      -0.682263       -18.5653
  10   2.0000      -0.619430       -16.8556
  11   2.0000      -0.567449       -15.4411
  12   2.0000      -0.550750       -14.9867
  13   2.0000      -0.523734       -14.2515
  14   2.0000      -0.471720       -12.8362
  15   2.0000      -0.457574       -12.4512
  16   2.0000      -0.446732       -12.1562
  17   2.0000      -0.419258       -11.4086
  18   2.0000      -0.321189        -8.7400
  19   2.0000      -0.210773        -5.7354
  20   0.0000       0.029582         0.8050
  21   0.0000       0.065151         1.7728
  22   0.0000       0.068476         1.8633
  23   0.0000       0.095304         2.5934
  24   0.0000       0.103952         2.8287

MULLIKEN ATOMIC CHARGES
-----------------------
   0 C :    1.065559
   1 N :   -0.538542
   2 C :    0.517306
   3 N :   -0.003450
   4 C :    0.447976
   5 H :   -0.235194
   6 H :   -0.436282
   7 H :   -0.260736
   8 H :   -0.068243
   9 H :   -0.069314
  10 H :   -0.320825
  11 H :   -0.035246
  12 H :   -0.063009
Sum of atomic charges:   -0.0000000

LOEWDIN ATOMIC CHARGES
----------------------
   0 C :    0.207070
   1 N :   -0.050575
   2 C :   -0.239846
   3 N :    0.189895
   4 C :    0.142833
   5 H :   -0.110952
   6 H :   -0.117585
   7 H :    0.025767
   8 H :   -0.006160
   9 H :    0.014470
  10 H :   -0.013429
  11 H :   -0.014512
  12 H :   -0.026976

  Mayer bond orders larger than 0.100000
B(  0-C ,  1-N ) :   0.9143 B(  0-C ,  7-H ) :  -0.1398 B(  0-C , 10-H ) :   0.8539
B(  0-C , 11-H ) :   0.8304 B(  0-C , 12-H ) :   0.8267 B(  1-N ,  2-C ) :   1.0681
B(  1-N ,  3-N ) :   0.1763 B(  1-N ,  4-C ) :   0.2220 B(  1-N ,  7-H ) :   1.2366
B(  1-N , 10-H ) :   0.1715 B(  1-N , 11-H ) :   0.1348 B(  1-N , 12-H ) :   0.1542
B(  2-C ,  3-N ) :   1.0320 B(  2-C ,  4-C ) :   1.6875 B(  2-C ,  5-H ) :   0.1927
B(  2-C ,  6-H ) :   0.1908 B(  2-C ,  7-H ) :  -0.1504 B(  3-N ,  4-C ) :   0.1919
B(  3-N ,  8-H ) :   1.1121 B(  3-N ,  9-H ) :   1.1476 B(  4-C ,  5-H ) :   0.7558
B(  4-C ,  6-H ) :   0.7864 B(  5-H ,  6-H ) :   0.1005 B(  8-H ,  9-H ) :  -0.1752

Dispersion correction           -0.000170015
FINAL SINGLE POINT ENERGY      -228.320145274069

DIPOLE MOMENT
-------------
                                X             Y             Z
Electronic contribution:     -0.15184       0.48632       0.78417
Nuclear contribution   :     -0.50812      -0.47627      -1.89926
                        -----------------------------------------
Total Dipole Moment    :     -0.65996       0.01005      -1.11508
                        -----------------------------------------
Magnitude (a.u.)       :      1.29578
Magnitude (Debye)      :      3.29362

Rotational constants in cm-1:     0.323645     0.137193     0.098606
Rotational constants in MHz :  9702.637007  4112.943433  2956.125886

                             ****ORCA TERMINATED NORMALLY****
TOTAL RUN TIME: 0 days 0 hours 0 minutes 17 seconds 18 msec
