                         Program Version 5.0.0 -  RELEASE  -
|  1> !TPSS D3BJ RIJCOSX def2-SVP def2/J TightSCF
|  2> *xyz -1 1
|  3> C          4.08422        1.74208       -2.11472
|  4> C          4.26524        2.50052       -0.79589
|  5> H          4.86853        3.39267       -0.98113
|  6> H          3.30764        2.82457       -0.38781
|  7> C          4.98224        1.65026        0.24742
|  8> O          4.36806        1.38927        1.31371
|  9> O          6.12892        1.23351       -0.04562
| 10> H          3.57911        2.36849       -2.81997
| 11> H          3.50424        0.85965       -1.94198
| 12> H          5.04288        1.46841       -2.50327
| 13> *
| 14> %MaxCore 64000
| 15> %pal nprocs 8
| 16> end
| 17> %scf
| 18>   MaxIter 150
| 19> end
| 20>
| 21>
| 22>                          ****END OF INPUT****

CARTESIAN COORDINATES (ANGSTROEM)
---------------------------------
  C      4.084220    1.742080   -2.114720
  C      4.265240    2.500520   -0.795890
  H      4.868530    3.392670   -0.981130
  H      3.307640    2.824570   -0.387810
  C      4.982240    1.650260    0.247420
  O      4.368060    1.389270    1.313710
  O      6.128920    1.233510   -0.045620
  H      3.579110    2.368490   -2.819970
  H      3.504240    0.859650   -1.941980
  H      5.042880    1.468410   -2.503270

 Total Charge           Charge          ....   -1
 Multiplicity           Mult            ....    1
 Number of Electrons    NEL             ....   40
 Basis Dimension        Dim             ....   95

ORBITAL ENERGIES
----------------

  NO   OCC          E(Eh)            E(eV)
   0   2.0000     -18.591900      -505.9113
   1   2.0000     -18.590593      -505.8757
   2   2.0000      -9.838677      -267.7240
   3   2.0000      -9.829264      -267.4679
   4   2.0000      -9.805504      -266.8213
   5   2.0000      -0.700582       -19.0638
   6   2.0000      -0.610084       -16.6012
   7   2.0000      -0.526553       -14.3282
   8   2.0000      -0.400872       -10.9083
   9   2.0000      -0.252792        -6.8788
  10   2.0000      -0.235808        -6.4167
  11   2.0000      -0.190362        -5.1800
  12   2.0000      -0.167745        -4.5646
  13   2.0000      -0.152961        -4.1623
  14   2.0000      -0.132870        -3.6156
  15   2.0000      -0.099491        -2.7073
  16   2.0000      -0.091966        -2.5025
  17   2.0000       0.028072         0.7639
  18   2.0000       0.037530         1.0212
  19   2.0000       0.056676         1.5422
  20   0.0000       0.206212         5.6113
  21   0.0000       0.253220         6.8905
  22   0.0000       0.260593         7.0911
  23   0.0000       0.270144         7.3510
  24   0.0000       0.274461         7.4685

MULLIKEN ATOMIC CHARGES
-----------------------
   0 C :    0.023980
   1 C :    0.017879
   2 H :   -0.047031
   3 H :   -0.062888
   4 C :    0.014786
   5 O :   -0.428746
   6 O :   -0.432589
   7 H :   -0.053498
   8 H :   -0.017498
   9 H :   -0.014396
Sum of atomic charges:   -1.0000000

LOEWDIN ATOMIC CHARGES
----------------------
   0 C :   -0.050957
   1 C :   -0.085631
   2 H :   -0.003474
   3 H :   -0.012112
   4 C :   -0.073006
   5 O :   -0.383889
   6 O :   -0.385915
   7 H :   -0.013391
   8 H :    0.004767
   9 H :    0.003606

  Mayer bond orders larger than 0.100000
B(  0-C ,  1-C ) :   1.0945 B(  0-C ,  7-H ) :   0.9586 B(  0-C ,  8-H ) :   0.9698
B(  0-C ,  9-H ) :   0.9580 B(  1-C ,  2-H ) :   0.9272 B(  1-C ,  3-H ) :   0.9273
B(  1-C ,  4-C ) :   0.9125 B(  4-C ,  5-O ) :   1.8519 B(  4-C ,  6-O ) :   1.8142
B(  5-O ,  6-O ) :   0.1343

Dispersion correction           -0.008070933
FINAL SINGLE POINT ENERGY      -267.660462305113

DIPOLE MOMENT
-------------
                                X             Y             Z
Electronic contribution:      2.57540      -1.63416       5.36190
Nuclear contribution   :     -3.31311       2.28398      -6.76358
                        -----------------------------------------
Total Dipole Moment    :     -0.73771       0.64982      -1.40168
                        -----------------------------------------
Magnitude (a.u.)       :      1.71207
Magnitude (Debye)      :      4.35174

Rotational constants in cm-1:     0.309287     0.135287     0.107346
Rotational constants in MHz :  9272.201029  4055.789113  3218.155789

                             ****ORCA TERMINATED NORMALLY****
TOTAL RUN TIME: 0 days 0 hours 0 minutes 6 seconds 695 msec
