                         Program Version 5.0.0 -  RELEASE  -
|  1> !TPSS D3BJ RIJCOSX def2-SVP def2/J TightSCF
|  2> *xyz 1 1
|  3> C          3.91385       -1.65829        3.01513
|  4> N          5.03927       -0.90115        2.49282
|  5> C          6.21038       -1.41726        2.17824
|  6> N          6.53591       -2.67712        2.55608
|  7> N          7.07675       -0.70082        1.47891
|  8> H          7.95464       -1.12155        1.20755
|  9> H          6.75616        0.10664        0.96028
| 10> H          4.84217        0.01761        2.11519
| 11> H          5.99388       -3.12692        3.28278
| 12> C          3.13916       -2.37657        1.91061
| 13> H          3.26723       -0.93940        3.52069
| 14> H          4.24720       -2.35509        3.79006
| 15> H          7.49844       -2.97548        2.46878
| 16> H          2.82969       -1.66654        1.17238
| 17> H          2.27790       -2.85264        2.33072
| 18> H          3.76754       -3.11338        1.45548
| 19> *
| 20> %MaxCore 64000
| 21> %pal nprocs 8
| 22> end
| 23> %scf
| 24>   MaxIter 150
| 25> end
| 26>
| 27>
| 28>                          ****END OF INPUT****

CARTESIAN COORDINATES (ANGSTROEM)
---------------------------------
  C      3.913850   -1.658290    3.015130
  N      5.039270   -0.901150    2.492820
  C      6.210380   -1.417260    2.178240
  N      6.535910   -2.677120    2.556080
  N      7.076750   -0.700820    1.478910
  H      7.954640   -1.121550    1.207550
  H      6.756160    0.106640    0.960280
  H      4.842170    0.017610    2.115190
  H      5.993880   -3.126920    3.282780
  C      3.139160   -2.376570    1.910610
  H      3.267230   -0.939400    3.520690
  H      4.247200   -2.355090    3.790060
  H      7.498440   -2.975480    2.468780
  H      2.829690   -1.666540    1.172380
  H      2.277900   -2.852640    2.330720
  H      3.767540   -3.113380    1.455480

 Total Charge           Charge          ....    1
 Multiplicity           Mult            ....    1
 Number of Electrons    NEL             ....   48
 Basis Dimension        Dim             ....  134

ORBITAL ENERGIES
----------------

  NO   OCC          E(Eh)            E(eV)
   0   2.0000     -14.338596      -390.1730
   1   2.0000     -14.336859      -390.1258
   2   2.0000     -14.335604      -390.0916
   3   2.0000     -10.320931      -280.8468
   4   2.0000     -10.208199      -277.7792
   5   2.0000     -10.138256      -275.8760
   6   2.0000      -1.138265       -30.9738
   7   2.0000      -1.035454       -28.1761
   8   2.0000      -1.019610       -27.7450
   9   2.0000      -0.868235       -23.6259
  10   2.0000      -0.785344       -21.3703
  11   2.0000      -0.748552       -20.3691
  12   2.0000      -0.736051       -20.0290
  13   2.0000      -0.695093       -18.9145
  14   2.0000      -0.647022       -17.6064
  15   2.0000      -0.642437       -17.4816
  16   2.0000      -0.609567       -16.5872
  17   2.0000      -0.583862       -15.8877
  18   2.0000      -0.560594       -15.2545
  19   2.0000      -0.519867       -14.1463
  20   2.0000      -0.493476       -13.4282
  21   2.0000      -0.476219       -12.9586
  22   2.0000      -0.434926       -11.8349
  23   2.0000      -0.411428       -11.1955
  24   0.0000      -0.185852        -5.0573
  25   0.0000      -0.151034        -4.1098
  26   0.0000      -0.120314        -3.2739
  27   0.0000      -0.109831        -2.9887
  28   0.0000      -0.092275        -2.5109

MULLIKEN ATOMIC CHARGES
-----------------------
   0 C :    0.009915
   1 N :   -0.116617
   2 C :    0.061970
   3 N :   -0.059752
   4 N :   -0.019992
   5 H :    0.170059
   6 H :    0.171586
   7 H :    0.162733
   8 H :    0.165705
   9 C :    0.016197
  10 H :    0.072123
  11 H :    0.055404
  12 H :    0.167711
  13 H :    0.041903
  14 H :    0.066800
  15 H :    0.034255
Sum of atomic charges:    1.0000000

LOEWDIN ATOMIC CHARGES
----------------------
   0 C :    0.046045
   1 N :    0.044227
   2 C :    0.125609
   3 N :    0.042858
   4 N :    0.060325
   5 H :    0.109578
   6 H :    0.110024
   7 H :    0.106008
   8 H :    0.103013
   9 C :   -0.035137
  10 H :    0.047439
  11 H :    0.030634
  12 H :    0.107893
  13 H :    0.030759
  14 H :    0.045495
  15 H :    0.025230

  Mayer bond orders larger than 0.100000
B(  0-C ,  1-N ) :   0.9448 B(  0-C ,  9-C ) :   1.0902 B(  0-C , 10-H ) :   0.9435
B(  0-C , 11-H ) :   0.9477 B(  1-N ,  2-C ) :   1.3810 B(  1-N ,  7-H ) :   0.9098
B(  2-C ,  3-N ) :   1.3600 B(  2-C ,  4-N ) :   1.3907 B(  3-N ,  8-H ) :   0.9244
B(  3-N , 12-H ) :   0.9275 B(  4-N ,  5-H ) :   0.9277 B(  4-N ,  6-H ) :   0.9266
B(  9-C , 13-H ) :   0.9679 B(  9-C , 14-H ) :   0.9618 B(  9-C , 15-H ) :   0.9665

Dispersion correction           -0.015272354
FINAL SINGLE POINT ENERGY      -284.247249423600

DIPOLE MOMENT
-------------
                                X             Y             Z
Electronic contribution:      4.77735       1.92042       0.05942
Nuclear contribution   :     -3.67981      -1.62355      -0.28562
                        -----------------------------------------
Total Dipole Moment    :      1.09754       0.29688      -0.22620
                        -----------------------------------------
Magnitude (a.u.)       :      1.15926
Magnitude (Debye)      :      2.94661

Rotational constants in cm-1:     0.222027     0.074735     0.065694
Rotational constants in MHz :  6656.200457  2240.503315  1969.451902

                             ****ORCA TERMINATED NORMALLY****
TOTAL RUN TIME: 0 days 0 hours 0 minutes 8 seconds 992 msec
