                         Program Version 5.0.0 -  RELEASE  -
|  1> !TPSS D3BJ RIJCOSX def2-SVP def2/J TightSCF
|  2> *xyz 0 1
|  3> C          4.08422        1.74208       -2.11472
|  4> C          4.26524        2.50052       -0.79589
|  5> H          4.86853        3.39267       -0.98113
|  6> H          3.30764        2.82457       -0.38781
|  7> C          4.98224        1.65026        0.24742
|  8> F          4.36806        1.38927        1.31371
|  9> O          6.12892        1.23351       -0.04562
| 10> H          3.57911        2.36849       -2.81997
| 11> H          3.50424        0.85965       -1.94198
| 12> H          5.04288        1.46841       -2.50327
| 13> *
| 14> %MaxCore 64000
| 15> %pal nprocs 8
| 16> end
| 17> %scf
| 18>   MaxIter 150
| 19> end
| 20>
| 21>
| 22>                          ****END OF INPUT****

CARTESIAN COORDINATES (ANGSTROEM)
---------------------------------
  C      4.084220    1.742080   -2.114720
  C      4.265240    2.500520   -0.795890
  H      4.868530    3.392670   -0.981130
  H      3.307640    2.824570   -0.387810
  C      4.982240    1.650260    0.247420
  F      4.368060    1.389270    1.313710
  O      6.128920    1.233510   -0.045620
  H      3.579110    2.368490   -2.819970
  H      3.504240    0.859650   -1.941980
  H      5.042880    1.468410   -2.503270

 Total Charge           Charge          ....    0
 Multiplicity           Mult            ....    1
 Number of Electrons    NEL             ....   40
 Basis Dimension        Dim             ....   95

ORBITAL ENERGIES
----------------

  NO   OCC          E(Eh)            E(eV)
   0   2.0000     -24.477215      -666.0589
   1   2.0000     -18.889025      -513.9965
   2   2.0000     -10.155964      -276.3578
   3   2.0000     -10.026552      -272.8363
   4   2.0000     -10.006567      -272.2925
   5   2.0000      -1.210495       -32.9392
   6   2.0000      -0.942771       -25.6541
   7   2.0000      -0.732605       -19.9352
   8   2.0000      -0.622520       -16.9396
   9   2.0000      -0.571731       -15.5576
  10   2.0000      -0.485441       -13.2095
  11   2.0000      -0.470830       -12.8119
  12   2.0000      -0.446043       -12.1374
  13   2.0000      -0.416979       -11.3466
  14   2.0000      -0.382620       -10.4116
  15   2.0000      -0.354346        -9.6422
  16   2.0000      -0.335893        -9.1401
  17   2.0000      -0.327680        -8.9166
  18   2.0000      -0.300202        -8.1689
  19   2.0000      -0.237187        -6.4542
  20   0.0000      -0.051702        -1.4069
  21   0.0000       0.051541         1.4025
  22   0.0000       0.092141         2.5073
  23   0.0000       0.095766         2.6059
  24   0.0000       0.113031         3.0757

MULLIKEN ATOMIC CHARGES
-----------------------
   0 C :    0.006924
   1 C :   -0.068629
   2 H :    0.057429
   3 H :    0.020884
   4 C :    0.220716
   5 F :   -0.065893
   6 O :   -0.259027
   7 H :    0.023879
   8 H :    0.022028
   9 H :    0.041690
Sum of atomic charges:   -0.0000000

LOEWDIN ATOMIC CHARGES
----------------------
   0 C :   -0.025048
   1 C :   -0.064001
   2 H :    0.046551
   3 H :    0.021996
   4 C :    0.083148
   5 F :    0.051368
   6 O :   -0.187064
   7 H :    0.023835
   8 H :    0.021699
   9 H :    0.027515

  Mayer bond orders larger than 0.100000
B(  0-C ,  1-C ) :   1.0911 B(  0-C ,  7-H ) :   0.9668 B(  0-C ,  8-H ) :   0.9753
B(  0-C ,  9-H ) :   0.9689 B(  1-C ,  2-H ) :   0.9296 B(  1-C ,  3-H ) :   0.9349
B(  1-C ,  4-C ) :   0.9973 B(  4-C ,  5-F ) :   1.2030 B(  4-C ,  6-O ) :   2.0460

Dispersion correction           -0.007654442
FINAL SINGLE POINT ENERGY      -292.218969592249

DIPOLE MOMENT
-------------
                                X             Y             Z
Electronic contribution:      2.00946      -2.11118       8.20595
Nuclear contribution   :     -2.87511       2.61564      -8.50037
                        -----------------------------------------
Total Dipole Moment    :     -0.86565       0.50446      -0.29441
                        -----------------------------------------
Magnitude (a.u.)       :      1.04427
Magnitude (Debye)      :      2.65432

Rotational constants in cm-1:     0.297822     0.128965     0.102219
Rotational constants in MHz :  8928.481997  3866.271686  3064.463504

                             ****ORCA TERMINATED NORMALLY****
TOTAL RUN TIME: 0 days 0 hours 0 minutes 6 seconds 487 msec
