                         Program Version 5.0.0 -  RELEASE  -
|  1> !TPSS D3BJ RIJCOSX def2-SVP def2/J TightSCF
|  2> *xyz 0 1
|  3> C          3.91385       -1.65829        3.01513
|  4> C          5.03927       -0.90115        2.49282
|  5> C          6.21038       -1.41726        2.17824
|  6> N          6.53591       -2.67712        2.55608
|  7> N          7.07675       -0.70082        1.47891
|  8> H          7.95464       -1.12155        1.20755
|  9> H          6.75616        0.10664        0.96028
| 10> H          4.84217        0.01761        2.11519
| 11> H          5.99388       -3.12692        3.28278
| 12> C          3.13916       -2.37657        1.91061
| 13> H          3.26723       -0.93940        3.52069
| 14> H          4.24720       -2.35509        3.79006
| 15> H          7.49844       -2.97548        2.46878
| 16> H          2.82969       -1.66654        1.17238
| 17> H          2.27790       -2.85264        2.33072
| 18> H          3.76754       -3.11338        1.45548
| 19> *
| 20> %MaxCore 64000
| 21> %pal nprocs 8
| 22> end
| 23> %scf
| 24>   MaxIter 150
| 25> end
| 26>
| 27>
| 28>                          ****END OF INPUT****

CARTESIAN COORDINATES (ANGSTROEM)
---------------------------------
  C      3.913850   -1.658290    3.015130
  C      5.039270   -0.901150    2.492820
  C      6.210380   -1.417260    2.178240
  N      6.535910   -2.677120    2.556080
  N      7.076750   -0.700820    1.478910
  H      7.954640   -1.121550    1.207550
  H      6.756160    0.106640    0.960280
  H      4.842170    0.017610    2.115190
  H      5.993880   -3.126920    3.282780
  C      3.139160   -2.376570    1.910610
  H      3.267230   -0.939400    3.520690
  H      4.247200   -2.355090    3.790060
  H      7.498440   -2.975480    2.468780
  H      2.829690   -1.666540    1.172380
  H      2.277900   -2.852640    2.330720
  H      3.767540   -3.113380    1.455480

 Total Charge           Charge          ....    0
 Multiplicity           Mult            ....    1
 Number of Electrons    NEL             ....   48
 Basis Dimension        Dim             ....  134

ORBITAL ENERGIES
----------------

  NO   OCC          E(Eh)            E(eV)
   0   2.0000     -14.108823      -383.9206
   1   2.0000     -14.107673      -383.8893
   2   2.0000     -10.026290      -272.8292
   3   2.0000      -9.969578      -271.2860
   4   2.0000      -9.961868      -271.0762
   5   2.0000      -9.909701      -269.6567
   6   2.0000      -0.876442       -23.8492
   7   2.0000      -0.792480       -21.5645
   8   2.0000      -0.700572       -19.0635
   9   2.0000      -0.624898       -17.0044
  10   2.0000      -0.554791       -15.0966
  11   2.0000      -0.518622       -14.1124
  12   2.0000      -0.485358       -13.2073
  13   2.0000      -0.456266       -12.4156
  14   2.0000      -0.423072       -11.5124
  15   2.0000      -0.389042       -10.5864
  16   2.0000      -0.368304       -10.0221
  17   2.0000      -0.338158        -9.2017
  18   2.0000      -0.331984        -9.0337
  19   2.0000      -0.306922        -8.3518
  20   2.0000      -0.283074        -7.7028
  21   2.0000      -0.277686        -7.5562
  22   2.0000      -0.214114        -5.8263
  23   2.0000      -0.117804        -3.2056
  24   0.0000       0.031692         0.8624
  25   0.0000       0.063132         1.7179
  26   0.0000       0.067858         1.8465
  27   0.0000       0.089147         2.4258
  28   0.0000       0.094251         2.5647

MULLIKEN ATOMIC CHARGES
-----------------------
   0 C :    0.041011
   1 C :   -0.178851
   2 C :   -0.041612
   3 N :   -0.096841
   4 N :   -0.061213
   5 H :    0.096406
   6 H :    0.121021
   7 H :   -0.099195
   8 H :    0.115875
   9 C :    0.062767
  10 H :   -0.012268
  11 H :   -0.027277
  12 H :    0.098430
  13 H :   -0.006014
  14 H :   -0.010508
  15 H :   -0.001731
Sum of atomic charges:   -0.0000000

LOEWDIN ATOMIC CHARGES
----------------------
   0 C :   -0.033489
   1 C :   -0.211855
   2 C :    0.011872
   3 N :   -0.027802
   4 N :   -0.011904
   5 H :    0.061438
   6 H :    0.080814
   7 H :   -0.012460
   8 H :    0.074355
   9 C :   -0.043498
  10 H :    0.018595
  11 H :    0.002705
  12 H :    0.061229
  13 H :    0.013075
  14 H :    0.005728
  15 H :    0.011196

  Mayer bond orders larger than 0.100000
B(  0-C ,  1-C ) :   1.0905 B(  0-C ,  9-C ) :   1.0819 B(  0-C , 10-H ) :   0.9159
B(  0-C , 11-H ) :   0.9291 B(  1-C ,  2-C ) :   1.6799 B(  1-C ,  7-H ) :   0.9409
B(  2-C ,  3-N ) :   1.2330 B(  2-C ,  4-N ) :   1.2327 B(  3-N ,  8-H ) :   0.9393
B(  3-N , 12-H ) :   0.9478 B(  4-N ,  5-H ) :   0.9497 B(  4-N ,  6-H ) :   0.9401
B(  9-C , 13-H ) :   0.9650 B(  9-C , 14-H ) :   0.9588 B(  9-C , 15-H ) :   0.9704

Dispersion correction           -0.015890231
FINAL SINGLE POINT ENERGY      -267.767227478657

DIPOLE MOMENT
-------------
                                X             Y             Z
Electronic contribution:      4.80936       1.19757      -0.07705
Nuclear contribution   :     -3.74303      -1.46908      -0.23637
                        -----------------------------------------
Total Dipole Moment    :      1.06633      -0.27151      -0.31343
                        -----------------------------------------
Magnitude (a.u.)       :      1.14412
Magnitude (Debye)      :      2.90813

Rotational constants in cm-1:     0.225937     0.074877     0.065953
Rotational constants in MHz :  6773.424301  2244.750632  1977.214101

                             ****ORCA TERMINATED NORMALLY****
TOTAL RUN TIME: 0 days 0 hours 0 minutes 9 seconds 81 msec
