                         Program Version 5.0.0 -  RELEASE  -
|  1> !TPSS D3BJ RIJCOSX def2-SVP def2/J TightSCF
|  2> *xyz 0 1
|  3> C          4.08422        1.74208       -2.11472
|  4> C          4.26524        2.50052       -0.79589
|  5> H          4.86853        3.39267       -0.98113
|  6> H          3.30764        2.82457       -0.38781
|  7> C          4.98224        1.65026        0.24742
|  8> O          4.36806        1.38927        1.31371
|  9> F          6.12892        1.23351       -0.04562
| 10> H          3.57911        2.36849       -2.81997
| 11> H          3.50424        0.85965       -1.94198
| 12> H          5.04288        1.46841       -2.50327
| 13> *
| 14> %MaxCore 64000
| 15> %pal nprocs 8
| 16> end
| 17> %scf
| 18>   MaxIter 150
| 19> end
| 20>
| 21>
| 22>                          ****END OF INPUT****

CARTESIAN COORDINATES (ANGSTROEM)
---------------------------------
  C      4.084220    1.742080   -2.114720
  C      4.265240    2.500520   -0.795890
  H      4.868530    3.392670   -0.981130
  H      3.307640    2.824570   -0.387810
  C      4.982240    1.650260    0.247420
  O      4.368060    1.389270    1.313710
  F      6.128920    1.233510   -0.045620
  H      3.579110    2.368490   -2.819970
  H      3.504240    0.859650   -1.941980
  H      5.042880    1.468410   -2.503270

 Total Charge           Charge          ....    0
 Multiplicity           Mult            ....    1
 Number of Electrons    NEL             ....   40
 Basis Dimension        Dim             ....   95

ORBITAL ENERGIES
----------------

  NO   OCC          E(Eh)            E(eV)
   0   2.0000     -24.478958      -666.1063
   1   2.0000     -18.887746      -513.9617
   2   2.0000     -10.155300      -276.3398
   3   2.0000     -10.025934      -272.8195
   4   2.0000     -10.010769      -272.4069
   5   2.0000      -1.213453       -33.0197
   6   2.0000      -0.939225       -25.5576
   7   2.0000      -0.736382       -20.0380
   8   2.0000      -0.620491       -16.8844
   9   2.0000      -0.576771       -15.6947
  10   2.0000      -0.488549       -13.2941
  11   2.0000      -0.475217       -12.9313
  12   2.0000      -0.441970       -12.0266
  13   2.0000      -0.415454       -11.3051
  14   2.0000      -0.385946       -10.5021
  15   2.0000      -0.356385        -9.6977
  16   2.0000      -0.338951        -9.2233
  17   2.0000      -0.330631        -8.9969
  18   2.0000      -0.302629        -8.2350
  19   2.0000      -0.232152        -6.3172
  20   0.0000      -0.048605        -1.3226
  21   0.0000       0.047259         1.2860
  22   0.0000       0.090366         2.4590
  23   0.0000       0.097045         2.6407
  24   0.0000       0.117606         3.2002

MULLIKEN ATOMIC CHARGES
-----------------------
   0 C :   -0.013087
   1 C :   -0.060248
   2 H :    0.040500
   3 H :    0.047590
   4 C :    0.218620
   5 O :   -0.254951
   6 F :   -0.067643
   7 H :    0.029104
   8 H :    0.032955
   9 H :    0.027161
Sum of atomic charges:   -0.0000000

LOEWDIN ATOMIC CHARGES
----------------------
   0 C :   -0.033404
   1 C :   -0.060360
   2 H :    0.035561
   3 H :    0.039208
   4 C :    0.081668
   5 O :   -0.186361
   6 F :    0.052808
   7 H :    0.026020
   8 H :    0.024153
   9 H :    0.020706

  Mayer bond orders larger than 0.100000
B(  0-C ,  1-C ) :   1.0757 B(  0-C ,  7-H ) :   0.9666 B(  0-C ,  8-H ) :   0.9752
B(  0-C ,  9-H ) :   0.9716 B(  1-C ,  2-H ) :   0.9253 B(  1-C ,  3-H ) :   0.9476
B(  1-C ,  4-C ) :   1.0061 B(  4-C ,  5-O ) :   2.0636 B(  4-C ,  6-F ) :   1.1915

Dispersion correction           -0.007609457
FINAL SINGLE POINT ENERGY      -292.218031381807

DIPOLE MOMENT
-------------
                                X             Y             Z
Electronic contribution:      4.87622      -2.36312       5.97190
Nuclear contribution   :     -4.79499       2.78546      -7.01827
                        -----------------------------------------
Total Dipole Moment    :      0.08122       0.42234      -1.04637
                        -----------------------------------------
Magnitude (a.u.)       :      1.13131
Magnitude (Debye)      :      2.87556

Rotational constants in cm-1:     0.286098     0.133492     0.103343
Rotational constants in MHz :  8577.003657  4001.981591  3098.148068

                             ****ORCA TERMINATED NORMALLY****
TOTAL RUN TIME: 0 days 0 hours 0 minutes 6 seconds 187 msec
