                         Program Version 5.0.0 -  RELEASE  -
|  1> !TPSS D3BJ RIJCOSX def2-SVP def2/J TightSCF
|  2> *xyz 0 1
|  3> C          3.91385       -1.65829        3.01513
|  4> N          5.03927       -0.90115        2.49282
|  5> C          6.21038       -1.41726        2.17824
|  6> C          6.53591       -2.67712        2.55608
|  7> N          7.07675       -0.70082        1.47891
|  8> H          7.95464       -1.12155        1.20755
|  9> H          6.75616        0.10664        0.96028
| 10> H          4.84217        0.01761        2.11519
| 11> H          5.99388       -3.12692        3.28278
| 12> C          3.13916       -2.37657        1.91061
| 13> H          3.26723       -0.93940        3.52069
| 14> H          4.24720       -2.35509        3.79006
| 15> H          7.49844       -2.97548        2.46878
| 16> H          2.82969       -1.66654        1.17238
| 17> H          2.27790       -2.85264        2.33072
| 18> H          3.76754       -3.11338        1.45548
| 19> *
| 20> %MaxCore 64000
| 21> %pal nprocs 8
| 22> end
| 23> %scf
| 24>   MaxIter 150
| 25> end
| 26>
| 27>
| 28>                          ****END OF INPUT****

CARTESIAN COORDINATES (ANGSTROEM)
---------------------------------
  C      3.913850   -1.658290    3.015130
  N      5.039270   -0.901150    2.492820
  C      6.210380   -1.417260    2.178240
  C      6.535910   -2.677120    2.556080
  N      7.076750   -0.700820    1.478910
  H      7.954640   -1.121550    1.207550
  H      6.756160    0.106640    0.960280
  H      4.842170    0.017610    2.115190
  H      5.993880   -3.126920    3.282780
  C      3.139160   -2.376570    1.910610
  H      3.267230   -0.939400    3.520690
  H      4.247200   -2.355090    3.790060
  H      7.498440   -2.975480    2.468780
  H      2.829690   -1.666540    1.172380
  H      2.277900   -2.852640    2.330720
  H      3.767540   -3.113380    1.455480

 Total Charge           Charge          ....    0
 Multiplicity           Mult            ....    1
 Number of Electrons    NEL             ....   48
 Basis Dimension        Dim             ....  134

ORBITAL ENERGIES
----------------

  NO   OCC          E(Eh)            E(eV)
   0   2.0000     -14.111144      -383.9838
   1   2.0000     -14.110765      -383.9734
   2   2.0000     -10.031397      -272.9682
   3   2.0000     -10.029637      -272.9203
   4   2.0000      -9.981656      -271.6147
   5   2.0000      -9.904322      -269.5103
   6   2.0000      -0.890212       -24.2239
   7   2.0000      -0.811950       -22.0943
   8   2.0000      -0.686866       -18.6906
   9   2.0000      -0.635244       -17.2859
  10   2.0000      -0.581467       -15.8225
  11   2.0000      -0.508225       -13.8295
  12   2.0000      -0.496153       -13.5010
  13   2.0000      -0.468443       -12.7470
  14   2.0000      -0.418270       -11.3817
  15   2.0000      -0.393899       -10.7185
  16   2.0000      -0.368539       -10.0285
  17   2.0000      -0.350103        -9.5268
  18   2.0000      -0.334453        -9.1009
  19   2.0000      -0.321353        -8.7445
  20   2.0000      -0.314350        -8.5539
  21   2.0000      -0.305057        -8.3010
  22   2.0000      -0.203645        -5.5415
  23   2.0000      -0.121008        -3.2928
  24   0.0000       0.030828         0.8389
  25   0.0000       0.062418         1.6985
  26   0.0000       0.070017         1.9053
  27   0.0000       0.082017         2.2318
  28   0.0000       0.100332         2.7302

MULLIKEN ATOMIC CHARGES
-----------------------
   0 C :    0.073180
   1 N :   -0.156068
   2 C :   -0.041426
   3 C :   -0.106324
   4 N :   -0.071739
   5 H :    0.122970
   6 H :    0.096374
   7 H :    0.095420
   8 H :   -0.049279
   9 C :    0.027699
  10 H :    0.004377
  11 H :    0.034252
  12 H :   -0.062271
  13 H :   -0.002902
  14 H :    0.006789
  15 H :    0.028945
Sum of atomic charges:    0.0000000

LOEWDIN ATOMIC CHARGES
----------------------
   0 C :    0.047957
   1 N :   -0.015998
   2 C :    0.019237
   3 C :   -0.266074
   4 N :   -0.008796
   5 H :    0.082791
   6 H :    0.060033
   7 H :    0.062493
   8 H :   -0.012951
   9 C :   -0.050330
  10 H :    0.016056
  11 H :    0.025626
  12 H :   -0.014047
  13 H :    0.011788
  14 H :    0.017834
  15 H :    0.024381

  Mayer bond orders larger than 0.100000
B(  0-C ,  1-N ) :   1.0120 B(  0-C ,  9-C ) :   1.1005 B(  0-C , 10-H ) :   0.9514
B(  0-C , 11-H ) :   0.9408 B(  1-N ,  2-C ) :   1.1980 B(  1-N ,  7-H ) :   0.9338
B(  2-C ,  3-C ) :   1.6963 B(  2-C ,  4-N ) :   1.2441 B(  3-C ,  8-H ) :   0.9381
B(  3-C , 12-H ) :   0.9384 B(  4-N ,  5-H ) :   0.9430 B(  4-N ,  6-H ) :   0.9484
B(  9-C , 13-H ) :   0.9663 B(  9-C , 14-H ) :   0.9609 B(  9-C , 15-H ) :   0.9641

Dispersion correction           -0.015843126
FINAL SINGLE POINT ENERGY      -267.761552818577

DIPOLE MOMENT
-------------
                                X             Y             Z
Electronic contribution:      3.12587       2.90242      -0.25597
Nuclear contribution   :     -3.42552      -1.84584      -0.22295
                        -----------------------------------------
Total Dipole Moment    :     -0.29965       1.05658      -0.47892
                        -----------------------------------------
Magnitude (a.u.)       :      1.19813
Magnitude (Debye)      :      3.04541

Rotational constants in cm-1:     0.233526     0.075277     0.067092
Rotational constants in MHz :  7000.931279  2256.752901  2011.361214

                             ****ORCA TERMINATED NORMALLY****
TOTAL RUN TIME: 0 days 0 hours 0 minutes 8 seconds 849 msec
