                         Program Version 5.0.0 -  RELEASE  -
|  1> !TPSS D3BJ RIJCOSX def2-SVP def2/J TightSCF
|  2> *xyz 0 1
|  3> C          3.91385       -1.65829        3.01513
|  4> N          5.03927       -0.90115        2.49282
|  5> C          6.21038       -1.41726        2.17824
|  6> N          6.53591       -2.67712        2.55608
|  7> C          7.07675       -0.70082        1.47891
|  8> H          7.95464       -1.12155        1.20755
|  9> H          6.75616        0.10664        0.96028
| 10> H          4.84217        0.01761        2.11519
| 11> H          5.99388       -3.12692        3.28278
| 12> C          3.13916       -2.37657        1.91061
| 13> H          3.26723       -0.93940        3.52069
| 14> H          4.24720       -2.35509        3.79006
| 15> H          7.49844       -2.97548        2.46878
| 16> H          2.82969       -1.66654        1.17238
| 17> H          2.27790       -2.85264        2.33072
| 18> H          3.76754       -3.11338        1.45548
| 19> *
| 20> %MaxCore 64000
| 21> %pal nprocs 8
| 22> end
| 23> %scf
| 24>   MaxIter 150
| 25> end
| 26>
| 27>
| 28>                          ****END OF INPUT****

CARTESIAN COORDINATES (ANGSTROEM)
---------------------------------
  C      3.913850   -1.658290    3.015130
  N      5.039270   -0.901150    2.492820
  C      6.210380   -1.417260    2.178240
  N      6.535910   -2.677120    2.556080
  C      7.076750   -0.700820    1.478910
  H      7.954640   -1.121550    1.207550
  H      6.756160    0.106640    0.960280
  H      4.842170    0.017610    2.115190
  H      5.993880   -3.126920    3.282780
  C      3.139160   -2.376570    1.910610
  H      3.267230   -0.939400    3.520690
  H      4.247200   -2.355090    3.790060
  H      7.498440   -2.975480    2.468780
  H      2.829690   -1.666540    1.172380
  H      2.277900   -2.852640    2.330720
  H      3.767540   -3.113380    1.455480

 Total Charge           Charge          ....    0
 Multiplicity           Mult            ....    1
 Number of Electrons    NEL             ....   48
 Basis Dimension        Dim             ....  134

ORBITAL ENERGIES
----------------

  NO   OCC          E(Eh)            E(eV)
   0   2.0000     -14.108433      -383.9100
   1   2.0000     -14.108228      -383.9044
   2   2.0000     -10.038736      -273.1679
   3   2.0000     -10.028799      -272.8975
   4   2.0000      -9.989905      -271.8391
   5   2.0000      -9.904450      -269.5138
   6   2.0000      -0.886013       -24.1096
   7   2.0000      -0.805257       -21.9122
   8   2.0000      -0.703256       -19.1366
   9   2.0000      -0.634125       -17.2554
  10   2.0000      -0.570128       -15.5140
  11   2.0000      -0.542661       -14.7666
  12   2.0000      -0.481444       -13.1008
  13   2.0000      -0.447303       -12.1717
  14   2.0000      -0.429821       -11.6960
  15   2.0000      -0.395705       -10.7677
  16   2.0000      -0.382438       -10.4067
  17   2.0000      -0.357848        -9.7375
  18   2.0000      -0.335416        -9.1271
  19   2.0000      -0.327388        -8.9087
  20   2.0000      -0.319163        -8.6849
  21   2.0000      -0.310087        -8.4379
  22   2.0000      -0.205915        -5.6032
  23   2.0000      -0.121835        -3.3153
  24   0.0000       0.031966         0.8698
  25   0.0000       0.055628         1.5137
  26   0.0000       0.068308         1.8588
  27   0.0000       0.081983         2.2309
  28   0.0000       0.095247         2.5918

MULLIKEN ATOMIC CHARGES
-----------------------
   0 C :    0.044624
   1 N :   -0.139058
   2 C :   -0.030424
   3 N :   -0.105178
   4 C :   -0.083269
   5 H :   -0.060080
   6 H :   -0.055628
   7 H :    0.118187
   8 H :    0.097012
   9 C :    0.034975
  10 H :    0.011725
  11 H :    0.010485
  12 H :    0.121098
  13 H :    0.010800
  14 H :    0.005438
  15 H :    0.019294
Sum of atomic charges:    0.0000000

LOEWDIN ATOMIC CHARGES
----------------------
   0 C :    0.034037
   1 N :   -0.015822
   2 C :    0.022919
   3 N :   -0.025472
   4 C :   -0.246049
   5 H :   -0.012492
   6 H :   -0.012118
   7 H :    0.082929
   8 H :    0.057493
   9 C :   -0.052867
  10 H :    0.019786
  11 H :    0.012354
  12 H :    0.081183
  13 H :    0.017934
  14 H :    0.016485
  15 H :    0.019699

  Mayer bond orders larger than 0.100000
B(  0-C ,  1-N ) :   1.0307 B(  0-C ,  9-C ) :   1.0792 B(  0-C , 10-H ) :   0.9493
B(  0-C , 11-H ) :   0.9469 B(  1-N ,  2-C ) :   1.2139 B(  1-N ,  7-H ) :   0.9247
B(  2-C ,  3-N ) :   1.2095 B(  2-C ,  4-C ) :   1.7319 B(  3-N ,  8-H ) :   0.9475
B(  3-N , 12-H ) :   0.9430 B(  4-C ,  5-H ) :   0.9357 B(  4-C ,  6-H ) :   0.9393
B(  9-C , 13-H ) :   0.9674 B(  9-C , 14-H ) :   0.9582 B(  9-C , 15-H ) :   0.9656

Dispersion correction           -0.015749999
FINAL SINGLE POINT ENERGY      -267.762242408830

DIPOLE MOMENT
-------------
                                X             Y             Z
Electronic contribution:      2.57950       0.90180       1.00080
Nuclear contribution   :     -3.31079      -1.42658      -0.45147
                        -----------------------------------------
Total Dipole Moment    :     -0.73129      -0.52478       0.54934
                        -----------------------------------------
Magnitude (a.u.)       :      1.05449
Magnitude (Debye)      :      2.68030

Rotational constants in cm-1:     0.225507     0.077571     0.068070
Rotational constants in MHz :  6760.542142  2325.533779  2040.680522

                             ****ORCA TERMINATED NORMALLY****
TOTAL RUN TIME: 0 days 0 hours 0 minutes 8 seconds 843 msec
