                         Program Version 5.0.0 -  RELEASE  -
|  1> !TPSS D3BJ RIJCOSX def2-TZVP def2/J TightSCF xyzfile
|  2>
|  3> *xyzfile 0 1 D4.xyz
|  4>
|  5> %MaxCore 64000
|  6>
|  7> %pal nprocs 18
|  8> end
|  9>
| 10> %scf
| 11>   MaxIter 150
| 12> end
| 13>
| 14>
| 15>                          ****END OF INPUT****

CARTESIAN COORDINATES (ANGSTROEM)
---------------------------------
  C      3.913853   -1.658291    3.015134
  C      5.039266   -0.901154    2.492821
  C      4.084215    1.742081   -2.114724
  C      4.265245    2.500518   -0.795890
  H      4.868534    3.392674   -0.981134
  H      3.307640    2.824571   -0.387809
  C      4.982240    1.650257    0.247422
  C      6.210384   -1.417261    2.178244
  N      6.535913   -2.677122    2.556078
  N      7.076754   -0.700820    1.478906
  H      7.954643   -1.121554    1.207554
  H      6.756161    0.106637    0.960278
  H      4.842168    0.017609    2.115191
  H      5.993876   -3.126918    3.282784
  H      7.498441   -2.975482    2.468776
  O      4.368065    1.389270    1.313706
  F      6.128919    1.233512   -0.045620
  C      3.139159   -2.376572    1.910609
  H      3.267235   -0.939401    3.520693
  H      4.247195   -2.355095    3.790065
  C      1.997274    0.430918   -1.399218
  C      3.412746    0.376886   -1.965497
  H      4.047407   -0.246590   -1.326706
  H      3.390774   -0.118719   -2.942839
  H      5.068475    1.598504   -2.565728
  H      3.503356    2.363939   -2.804565
  C      2.399946   -1.389579    1.009490
  H      2.440750   -3.087118    2.362976
  H      3.844475   -2.970462    1.318677
  C      2.070177   -1.936705   -0.372401
  H      1.481611   -1.061542    1.509912
  H      3.008628   -0.490001    0.897451
  C      1.322238   -0.935775   -1.256413
  H      1.472747   -2.850902   -0.283997
  H      3.003539   -2.234041   -0.862535
  H      1.376444    1.058920   -2.047420
  H      2.015341    0.929780   -0.426535
  H      0.316648   -0.787213   -0.848278
  H      1.185611   -1.379252   -2.248613

 Total Charge           Charge          ....    0
 Multiplicity           Mult            ....    1
 Number of Electrons    NEL             ....  126
 Basis Dimension        Dim             ....  634

ORBITAL ENERGIES
----------------

  NO   OCC          E(Eh)            E(eV)
   0   2.0000     -24.501395      -666.7169
   1   2.0000     -18.896316      -514.1949
   2   2.0000     -14.084208      -383.2508
   3   2.0000     -14.075400      -383.0111
   4   2.0000     -10.161656      -276.5127
   5   2.0000     -10.019064      -272.6326
   6   2.0000     -10.003980      -272.2221
   7   2.0000      -9.998182      -272.0644
   8   2.0000      -9.987720      -271.7797
   9   2.0000      -9.977735      -271.5080
  10   2.0000      -9.971890      -271.3489
  11   2.0000      -9.963293      -271.1150
  12   2.0000      -9.952377      -270.8179
  13   2.0000      -9.947536      -270.6862
  14   2.0000      -9.941781      -270.5296
  15   2.0000      -9.870162      -268.5808
  16   2.0000      -1.265993       -34.4494
  17   2.0000      -0.977304       -26.5938
  18   2.0000      -0.875895       -23.8343
  19   2.0000      -0.793753       -21.5991
  20   2.0000      -0.772113       -21.0103
  21   2.0000      -0.739629       -20.1263
  22   2.0000      -0.711813       -19.3694
  23   2.0000      -0.684341       -18.6219
  24   2.0000      -0.652363       -17.7517
  25   2.0000      -0.627951       -17.0874
  26   2.0000      -0.613309       -16.6890
  27   2.0000      -0.580423       -15.7941
  28   2.0000      -0.554026       -15.0758
  29   2.0000      -0.536801       -14.6071
  30   2.0000      -0.517501       -14.0819
  31   2.0000      -0.515173       -14.0186
  32   2.0000      -0.502941       -13.6857
  33   2.0000      -0.490737       -13.3536
  34   2.0000      -0.481969       -13.1150
  35   2.0000      -0.464259       -12.6331
  36   2.0000      -0.440276       -11.9805
  37   2.0000      -0.435631       -11.8541
  38   2.0000      -0.433611       -11.7992
  39   2.0000      -0.413196       -11.2436
  40   2.0000      -0.405345       -11.0300
  41   2.0000      -0.393701       -10.7131
  42   2.0000      -0.382800       -10.4165
  43   2.0000      -0.367483        -9.9997
  44   2.0000      -0.366566        -9.9748
  45   2.0000      -0.359035        -9.7698
  46   2.0000      -0.350342        -9.5333
  47   2.0000      -0.342392        -9.3170
  48   2.0000      -0.336289        -9.1509
  49   2.0000      -0.330095        -8.9823
  50   2.0000      -0.321454        -8.7472
  51   2.0000      -0.319869        -8.7041
  52   2.0000      -0.302532        -8.2323
  53   2.0000      -0.297005        -8.0819
  54   2.0000      -0.293884        -7.9970
  55   2.0000      -0.286766        -7.8033
  56   2.0000      -0.273168        -7.4333
  57   2.0000      -0.265094        -7.2136
  58   2.0000      -0.261020        -7.1027
  59   2.0000      -0.256688        -6.9848
  60   2.0000      -0.222808        -6.0629
  61   2.0000      -0.208116        -5.6631
  62   2.0000      -0.109701        -2.9851
  63   0.0000      -0.072118        -1.9624
  64   0.0000       0.013043         0.3549
  65   0.0000       0.024177         0.6579
  66   0.0000       0.038638         1.0514
  67   0.0000       0.041564         1.1310

MULLIKEN ATOMIC CHARGES
-----------------------
   0 C :   -0.150856
   1 C :   -0.450087
   2 C :   -0.141528
   3 C :   -0.169159
   4 H :    0.117676
   5 H :    0.139982
   6 C :    0.327398
   7 C :    0.329674
   8 N :   -0.492905
   9 N :   -0.478747
  10 H :    0.205810
  11 H :    0.231923
  12 H :    0.182798
  13 H :    0.237194
  14 H :    0.206652
  15 O :   -0.308707
  16 F :   -0.113263
  17 C :   -0.032688
  18 H :    0.061904
  19 H :    0.051183
  20 C :   -0.242533
  21 C :   -0.232750
  22 H :    0.124689
  23 H :    0.084824
  24 H :    0.100951
  25 H :    0.094494
  26 C :   -0.263339
  27 H :    0.055201
  28 H :    0.069540
  29 C :   -0.176420
  30 H :    0.063243
  31 H :    0.121730
  32 C :   -0.082966
  33 H :    0.079110
  34 H :    0.089981
  35 H :    0.079183
  36 H :    0.127837
  37 H :    0.077202
  38 H :    0.075768
Sum of atomic charges:   -0.0000000

LOEWDIN ATOMIC CHARGES
----------------------
   0 C :   -0.281620
   1 C :   -0.273455
   2 C :   -0.257708
   3 C :   -0.224248
   4 H :    0.148861
   5 H :    0.152646
   6 C :   -0.508047
   7 C :   -0.469787
   8 N :   -0.027176
   9 N :   -0.016436
  10 H :    0.154409
  11 H :    0.150770
  12 H :    0.112298
  13 H :    0.168753
  14 H :    0.153454
  15 O :    0.114902
  16 F :    0.349538
  17 C :   -0.254679
  18 H :    0.139589
  19 H :    0.120153
  20 C :   -0.265613
  21 C :   -0.261956
  22 H :    0.138916
  23 H :    0.136747
  24 H :    0.136447
  25 H :    0.138735
  26 C :   -0.262643
  27 H :    0.120664
  28 H :    0.133370
  29 C :   -0.268611
  30 H :    0.130536
  31 H :    0.137924
  32 C :   -0.262152
  33 H :    0.131631
  34 H :    0.130554
  35 H :    0.132044
  36 H :    0.137089
  37 H :    0.133617
  38 H :    0.130483

  Mayer bond orders larger than 0.100000
B(  0-C ,  1-C ) :   1.0827 B(  0-C , 17-C ) :   0.9749 B(  0-C , 18-H ) :   0.9440
B(  0-C , 19-H ) :   0.9518 B(  1-C ,  7-C ) :   1.6571 B(  1-C , 12-H ) :   0.9801
B(  2-C ,  3-C ) :   0.9857 B(  2-C , 21-C ) :   1.0077 B(  2-C , 24-H ) :   0.9508
B(  2-C , 25-H ) :   0.9384 B(  3-C ,  4-H ) :   0.9189 B(  3-C ,  5-H ) :   0.9605
B(  3-C ,  6-C ) :   1.0235 B(  6-C , 15-O ) :   1.9654 B(  6-C , 16-F ) :   1.0633
B(  7-C ,  8-N ) :   1.1199 B(  7-C ,  9-N ) :   1.1688 B(  8-N , 13-H ) :   0.9098
B(  8-N , 14-H ) :   0.9218 B(  9-N , 10-H ) :   0.9249 B(  9-N , 11-H ) :   0.8906
B( 17-C , 26-C ) :   1.0546 B( 17-C , 27-H ) :   0.9287 B( 17-C , 28-H ) :   0.9432
B( 20-C , 21-C ) :   1.0231 B( 20-C , 32-C ) :   1.0162 B( 20-C , 35-H ) :   0.9360
B( 20-C , 36-H ) :   0.9557 B( 21-C , 22-H ) :   0.9540 B( 21-C , 23-H ) :   0.9415
B( 26-C , 29-C ) :   1.0217 B( 26-C , 30-H ) :   0.9380 B( 26-C , 31-H ) :   0.9693
B( 29-C , 32-C ) :   1.0191 B( 29-C , 33-H ) :   0.9436 B( 29-C , 34-H ) :   0.9576
B( 32-C , 37-H ) :   0.9451 B( 32-C , 38-H ) :   0.9468

Dispersion correction           -0.055727955
FINAL SINGLE POINT ENERGY      -756.079765050185

DIPOLE MOMENT
-------------
                                X             Y             Z
Electronic contribution:     14.41414       8.69405       3.74320
Nuclear contribution   :    -13.61164      -8.17416      -5.14068
                        -----------------------------------------
Total Dipole Moment    :      0.80250       0.51989      -1.39748
                        -----------------------------------------
Magnitude (a.u.)       :      1.69329
Magnitude (Debye)      :      4.30401

Rotational constants in cm-1:     0.019858     0.013613     0.009401
Rotational constants in MHz :   595.331791   408.100423   281.843625

                             ****ORCA TERMINATED NORMALLY****
TOTAL RUN TIME: 0 days 0 hours 0 minutes 38 seconds 950 msec
