                         Program Version 5.0.0 -  RELEASE  -
|  1> !TPSS D3BJ RIJCOSX def2-TZVP def2/J TightSCF xyzfile
|  2>
|  3> *xyzfile 0 1 D5.xyz
|  4>
|  5> %MaxCore 64000
|  6>
|  7> %pal nprocs 18
|  8> end
|  9>
| 10> %scf
| 11>   MaxIter 150
| 12> end
| 13>
| 14>
| 15>                          ****END OF INPUT****

CARTESIAN COORDINATES (ANGSTROEM)
---------------------------------
  C      3.913853   -1.658291    3.015134
  N      5.039266   -0.901154    2.492821
  C      4.084215    1.742081   -2.114724
  C      4.265245    2.500518   -0.795890
  H      4.868534    3.392674   -0.981134
  H      3.307640    2.824571   -0.387809
  C      4.982240    1.650257    0.247422
  C      6.210384   -1.417261    2.178244
  C      6.535913   -2.677122    2.556078
  N      7.076754   -0.700820    1.478906
  H      7.954643   -1.121554    1.207554
  H      6.756161    0.106637    0.960278
  H      4.842168    0.017609    2.115191
  H      5.993876   -3.126918    3.282784
  H      7.498441   -2.975482    2.468776
  O      4.368065    1.389270    1.313706
  F      6.128919    1.233512   -0.045620
  C      3.139159   -2.376572    1.910609
  H      3.267235   -0.939401    3.520693
  H      4.247195   -2.355095    3.790065
  C      1.997274    0.430918   -1.399218
  C      3.412746    0.376886   -1.965497
  H      4.047407   -0.246590   -1.326706
  H      3.390774   -0.118719   -2.942839
  H      5.068475    1.598504   -2.565728
  H      3.503356    2.363939   -2.804565
  C      2.399946   -1.389579    1.009490
  H      2.440750   -3.087118    2.362976
  H      3.844475   -2.970462    1.318677
  C      2.070177   -1.936705   -0.372401
  H      1.481611   -1.061542    1.509912
  H      3.008628   -0.490001    0.897451
  C      1.322238   -0.935775   -1.256413
  H      1.472747   -2.850902   -0.283997
  H      3.003539   -2.234041   -0.862535
  H      1.376444    1.058920   -2.047420
  H      2.015341    0.929780   -0.426535
  H      0.316648   -0.787213   -0.848278
  H      1.185611   -1.379252   -2.248613

 Total Charge           Charge          ....    0
 Multiplicity           Mult            ....    1
 Number of Electrons    NEL             ....  126
 Basis Dimension        Dim             ....  634

ORBITAL ENERGIES
----------------

  NO   OCC          E(Eh)            E(eV)
   0   2.0000     -24.515838      -667.1099
   1   2.0000     -18.920056      -514.8409
   2   2.0000     -14.078238      -383.0883
   3   2.0000     -14.068874      -382.8335
   4   2.0000     -10.179366      -276.9946
   5   2.0000     -10.031324      -272.9662
   6   2.0000     -10.013956      -272.4936
   7   2.0000     -10.003884      -272.2195
   8   2.0000      -9.997450      -272.0445
   9   2.0000      -9.997284      -272.0399
  10   2.0000      -9.987325      -271.7689
  11   2.0000      -9.981131      -271.6004
  12   2.0000      -9.974031      -271.4072
  13   2.0000      -9.967556      -271.2310
  14   2.0000      -9.963127      -271.1105
  15   2.0000      -9.879641      -268.8387
  16   2.0000      -1.280203       -34.8361
  17   2.0000      -0.999903       -27.2087
  18   2.0000      -0.883878       -24.0516
  19   2.0000      -0.807662       -21.9776
  20   2.0000      -0.783192       -21.3117
  21   2.0000      -0.749287       -20.3891
  22   2.0000      -0.715263       -19.4633
  23   2.0000      -0.685742       -18.6600
  24   2.0000      -0.650584       -17.7033
  25   2.0000      -0.639974       -17.4146
  26   2.0000      -0.625254       -17.0140
  27   2.0000      -0.599081       -16.3018
  28   2.0000      -0.568364       -15.4660
  29   2.0000      -0.544729       -14.8228
  30   2.0000      -0.532226       -14.4826
  31   2.0000      -0.528293       -14.3756
  32   2.0000      -0.510001       -13.8778
  33   2.0000      -0.502511       -13.6740
  34   2.0000      -0.488335       -13.2883
  35   2.0000      -0.459773       -12.5111
  36   2.0000      -0.457178       -12.4404
  37   2.0000      -0.445660       -12.1270
  38   2.0000      -0.441908       -12.0249
  39   2.0000      -0.424341       -11.5469
  40   2.0000      -0.405021       -11.0212
  41   2.0000      -0.402716       -10.9585
  42   2.0000      -0.386992       -10.5306
  43   2.0000      -0.379085       -10.3154
  44   2.0000      -0.373681       -10.1684
  45   2.0000      -0.371007       -10.0956
  46   2.0000      -0.359466        -9.7816
  47   2.0000      -0.352346        -9.5878
  48   2.0000      -0.346147        -9.4191
  49   2.0000      -0.336304        -9.1513
  50   2.0000      -0.329075        -8.9546
  51   2.0000      -0.323818        -8.8115
  52   2.0000      -0.317437        -8.6379
  53   2.0000      -0.311911        -8.4875
  54   2.0000      -0.305758        -8.3201
  55   2.0000      -0.300010        -8.1637
  56   2.0000      -0.290492        -7.9047
  57   2.0000      -0.279349        -7.6015
  58   2.0000      -0.278475        -7.5777
  59   2.0000      -0.272097        -7.4041
  60   2.0000      -0.263166        -7.1611
  61   2.0000      -0.190438        -5.1821
  62   2.0000      -0.116504        -3.1702
  63   0.0000      -0.089694        -2.4407
  64   0.0000       0.005231         0.1423
  65   0.0000       0.030566         0.8318
  66   0.0000       0.032094         0.8733
  67   0.0000       0.037799         1.0286

MULLIKEN ATOMIC CHARGES
-----------------------
   0 C :   -0.083458
   1 N :   -0.306789
   2 C :   -0.143560
   3 C :   -0.170599
   4 H :    0.124536
   5 H :    0.142852
   6 C :    0.339833
   7 C :    0.310008
   8 C :   -0.536655
   9 N :   -0.477659
  10 H :    0.237144
  11 H :    0.210025
  12 H :    0.217247
  13 H :    0.088854
  14 H :    0.074025
  15 O :   -0.349379
  16 F :   -0.100803
  17 C :   -0.051813
  18 H :    0.086726
  19 H :    0.106785
  20 C :   -0.241111
  21 C :   -0.238461
  22 H :    0.121931
  23 H :    0.090930
  24 H :    0.107023
  25 H :    0.098911
  26 C :   -0.299606
  27 H :    0.074006
  28 H :    0.101828
  29 C :   -0.178135
  30 H :    0.066191
  31 H :    0.108753
  32 C :   -0.085260
  33 H :    0.086580
  34 H :    0.098517
  35 H :    0.083818
  36 H :    0.125129
  37 H :    0.080545
  38 H :    0.081094
Sum of atomic charges:   -0.0000000

LOEWDIN ATOMIC CHARGES
----------------------
   0 C :   -0.271492
   1 N :    0.132156
   2 C :   -0.255416
   3 C :   -0.222067
   4 H :    0.151190
   5 H :    0.153399
   6 C :   -0.507434
   7 C :   -0.474781
   8 C :   -0.361537
   9 N :   -0.010574
  10 H :    0.172749
  11 H :    0.138921
  12 H :    0.153692
  13 H :    0.092682
  14 H :    0.088413
  15 O :    0.093556
  16 F :    0.355136
  17 C :   -0.259682
  18 H :    0.130495
  19 H :    0.131604
  20 C :   -0.265646
  21 C :   -0.261393
  22 H :    0.137971
  23 H :    0.138647
  24 H :    0.138156
  25 H :    0.140475
  26 C :   -0.269252
  27 H :    0.129537
  28 H :    0.142195
  29 C :   -0.266646
  30 H :    0.131321
  31 H :    0.131842
  32 C :   -0.261013
  33 H :    0.133808
  34 H :    0.133016
  35 H :    0.133396
  36 H :    0.135895
  37 H :    0.134391
  38 H :    0.132290

  Mayer bond orders larger than 0.100000
B(  0-C ,  1-N ) :   1.0142 B(  0-C , 17-C ) :   0.9988 B(  0-C , 18-H ) :   0.9560
B(  0-C , 19-H ) :   0.9484 B(  1-N ,  7-C ) :   1.2376 B(  1-N , 12-H ) :   0.8583
B(  2-C ,  3-C ) :   0.9843 B(  2-C , 21-C ) :   1.0053 B(  2-C , 24-H ) :   0.9512
B(  2-C , 25-H ) :   0.9381 B(  3-C ,  4-H ) :   0.9199 B(  3-C ,  5-H ) :   0.9589
B(  3-C ,  6-C ) :   1.0242 B(  6-C , 15-O ) :   1.8989 B(  6-C , 16-F ) :   1.0868
B(  7-C ,  8-C ) :   1.6182 B(  7-C ,  9-N ) :   1.1707 B(  8-C , 13-H ) :   0.9897
B(  8-C , 14-H ) :   0.9816 B(  9-N , 10-H ) :   0.9185 B(  9-N , 11-H ) :   0.8936
B( 12-H , 15-O ) :   0.1116 B( 17-C , 26-C ) :   1.0259 B( 17-C , 27-H ) :   0.9371
B( 17-C , 28-H ) :   0.9386 B( 20-C , 21-C ) :   1.0193 B( 20-C , 32-C ) :   1.0135
B( 20-C , 35-H ) :   0.9361 B( 20-C , 36-H ) :   0.9569 B( 21-C , 22-H ) :   0.9550
B( 21-C , 23-H ) :   0.9418 B( 26-C , 29-C ) :   1.0225 B( 26-C , 30-H ) :   0.9338
B( 26-C , 31-H ) :   0.9754 B( 29-C , 32-C ) :   1.0165 B( 29-C , 33-H ) :   0.9455
B( 29-C , 34-H ) :   0.9577 B( 32-C , 37-H ) :   0.9460 B( 32-C , 38-H ) :   0.9474

Dispersion correction           -0.055433909
FINAL SINGLE POINT ENERGY      -756.091517978033

DIPOLE MOMENT
-------------
                                X             Y             Z
Electronic contribution:     12.86830      10.24090       3.36071
Nuclear contribution   :    -13.35170      -8.48261      -5.12969
                        -----------------------------------------
Total Dipole Moment    :     -0.48340       1.75828      -1.76898
                        -----------------------------------------
Magnitude (a.u.)       :      2.54057
Magnitude (Debye)      :      6.45763

Rotational constants in cm-1:     0.019886     0.013843     0.009504
Rotational constants in MHz :   596.157485   415.004628   284.931121

                             ****ORCA TERMINATED NORMALLY****
TOTAL RUN TIME: 0 days 0 hours 0 minutes 39 seconds 176 msec
