                         Program Version 5.0.0 -  RELEASE  -
|  1> !TPSS D3BJ RIJCOSX def2-TZVP def2/J TightSCF xyzfile
|  2>
|  3> *xyzfile 0 1 D6.xyz
|  4>
|  5> %MaxCore 64000
|  6>
|  7> %pal nprocs 18
|  8> end
|  9>
| 10> %scf
| 11>   MaxIter 150
| 12> end
| 13>
| 14>
| 15>                          ****END OF INPUT****

CARTESIAN COORDINATES (ANGSTROEM)
---------------------------------
  C      3.913853   -1.658291    3.015134
  N      5.039266   -0.901154    2.492821
  C      4.084215    1.742081   -2.114724
  C      4.265245    2.500518   -0.795890
  H      4.868534    3.392674   -0.981134
  H      3.307640    2.824571   -0.387809
  C      4.982240    1.650257    0.247422
  C      6.210384   -1.417261    2.178244
  N      6.535913   -2.677122    2.556078
  C      7.076754   -0.700820    1.478906
  H      7.954643   -1.121554    1.207554
  H      6.756161    0.106637    0.960278
  H      4.842168    0.017609    2.115191
  H      5.993876   -3.126918    3.282784
  H      7.498441   -2.975482    2.468776
  O      4.368065    1.389270    1.313706
  F      6.128919    1.233512   -0.045620
  C      3.139159   -2.376572    1.910609
  H      3.267235   -0.939401    3.520693
  H      4.247195   -2.355095    3.790065
  C      1.997274    0.430918   -1.399218
  C      3.412746    0.376886   -1.965497
  H      4.047407   -0.246590   -1.326706
  H      3.390774   -0.118719   -2.942839
  H      5.068475    1.598504   -2.565728
  H      3.503356    2.363939   -2.804565
  C      2.399946   -1.389579    1.009490
  H      2.440750   -3.087118    2.362976
  H      3.844475   -2.970462    1.318677
  C      2.070177   -1.936705   -0.372401
  H      1.481611   -1.061542    1.509912
  H      3.008628   -0.490001    0.897451
  C      1.322238   -0.935775   -1.256413
  H      1.472747   -2.850902   -0.283997
  H      3.003539   -2.234041   -0.862535
  H      1.376444    1.058920   -2.047420
  H      2.015341    0.929780   -0.426535
  H      0.316648   -0.787213   -0.848278
  H      1.185611   -1.379252   -2.248613

 Total Charge           Charge          ....    0
 Multiplicity           Mult            ....    1
 Number of Electrons    NEL             ....  126
 Basis Dimension        Dim             ....  634

ORBITAL ENERGIES
----------------

  NO   OCC          E(Eh)            E(eV)
   0   2.0000     -24.488514      -666.3664
   1   2.0000     -18.907501      -514.4993
   2   2.0000     -14.081705      -383.1827
   3   2.0000     -14.063979      -382.7003
   4   2.0000     -10.169343      -276.7219
   5   2.0000     -10.022059      -272.7141
   6   2.0000     -10.006790      -272.2986
   7   2.0000     -10.003799      -272.2172
   8   2.0000      -9.999939      -272.1122
   9   2.0000      -9.991315      -271.8775
  10   2.0000      -9.983697      -271.6702
  11   2.0000      -9.979729      -271.5622
  12   2.0000      -9.974389      -271.4169
  13   2.0000      -9.969538      -271.2849
  14   2.0000      -9.968690      -271.2618
  15   2.0000      -9.868377      -268.5322
  16   2.0000      -1.254576       -34.1387
  17   2.0000      -0.987638       -26.8750
  18   2.0000      -0.877971       -23.8908
  19   2.0000      -0.800833       -21.7918
  20   2.0000      -0.776236       -21.1225
  21   2.0000      -0.746673       -20.3180
  22   2.0000      -0.717200       -19.5160
  23   2.0000      -0.682710       -18.5775
  24   2.0000      -0.657228       -17.8841
  25   2.0000      -0.623235       -16.9591
  26   2.0000      -0.616662       -16.7802
  27   2.0000      -0.587419       -15.9845
  28   2.0000      -0.560846       -15.2614
  29   2.0000      -0.544191       -14.8082
  30   2.0000      -0.524747       -14.2791
  31   2.0000      -0.515350       -14.0234
  32   2.0000      -0.506289       -13.7768
  33   2.0000      -0.500337       -13.6149
  34   2.0000      -0.475112       -12.9285
  35   2.0000      -0.461372       -12.5546
  36   2.0000      -0.442495       -12.0409
  37   2.0000      -0.439442       -11.9578
  38   2.0000      -0.430409       -11.7120
  39   2.0000      -0.418889       -11.3985
  40   2.0000      -0.412392       -11.2218
  41   2.0000      -0.393410       -10.7052
  42   2.0000      -0.388296       -10.5661
  43   2.0000      -0.380730       -10.3602
  44   2.0000      -0.373327       -10.1587
  45   2.0000      -0.368614       -10.0305
  46   2.0000      -0.354295        -9.6409
  47   2.0000      -0.346876        -9.4390
  48   2.0000      -0.340228        -9.2581
  49   2.0000      -0.335228        -9.1220
  50   2.0000      -0.327444        -8.9102
  51   2.0000      -0.315963        -8.5978
  52   2.0000      -0.313851        -8.5403
  53   2.0000      -0.305564        -8.3148
  54   2.0000      -0.303044        -8.2462
  55   2.0000      -0.295044        -8.0286
  56   2.0000      -0.290192        -7.8965
  57   2.0000      -0.279262        -7.5991
  58   2.0000      -0.278169        -7.5694
  59   2.0000      -0.272274        -7.4090
  60   2.0000      -0.256703        -6.9852
  61   2.0000      -0.193731        -5.2717
  62   2.0000      -0.112163        -3.0521
  63   0.0000      -0.077485        -2.1085
  64   0.0000       0.014500         0.3946
  65   0.0000       0.028227         0.7681
  66   0.0000       0.033487         0.9112
  67   0.0000       0.037666         1.0249

MULLIKEN ATOMIC CHARGES
-----------------------
   0 C :   -0.125813
   1 N :   -0.295387
   2 C :   -0.140908
   3 C :   -0.172755
   4 H :    0.123198
   5 H :    0.137309
   6 C :    0.347418
   7 C :    0.327469
   8 N :   -0.497336
   9 C :   -0.544500
  10 H :    0.070219
  11 H :    0.096770
  12 H :    0.238009
  13 H :    0.215179
  14 H :    0.233932
  15 O :   -0.361547
  16 F :   -0.064049
  17 C :   -0.039293
  18 H :    0.092097
  19 H :    0.086883
  20 C :   -0.242593
  21 C :   -0.242317
  22 H :    0.132001
  23 H :    0.087790
  24 H :    0.108230
  25 H :    0.095819
  26 C :   -0.291659
  27 H :    0.069069
  28 H :    0.085786
  29 C :   -0.179778
  30 H :    0.069237
  31 H :    0.114500
  32 C :   -0.084936
  33 H :    0.083901
  34 H :    0.100552
  35 H :    0.082581
  36 H :    0.124811
  37 H :    0.079481
  38 H :    0.080631
Sum of atomic charges:   -0.0000000

LOEWDIN ATOMIC CHARGES
----------------------
   0 C :   -0.290739
   1 N :    0.132358
   2 C :   -0.254782
   3 C :   -0.221360
   4 H :    0.151125
   5 H :    0.151261
   6 C :   -0.492298
   7 C :   -0.470230
   8 N :   -0.023672
   9 C :   -0.362324
  10 H :    0.089792
  11 H :    0.083366
  12 H :    0.164849
  13 H :    0.153890
  14 H :    0.170539
  15 O :    0.089391
  16 F :    0.370947
  17 C :   -0.263855
  18 H :    0.132665
  19 H :    0.119899
  20 C :   -0.265781
  21 C :   -0.261246
  22 H :    0.140179
  23 H :    0.137778
  24 H :    0.139407
  25 H :    0.139357
  26 C :   -0.266449
  27 H :    0.127191
  28 H :    0.137882
  29 C :   -0.266801
  30 H :    0.132133
  31 H :    0.134975
  32 C :   -0.261077
  33 H :    0.132789
  34 H :    0.133649
  35 H :    0.133079
  36 H :    0.135906
  37 H :    0.133903
  38 H :    0.132302

  Mayer bond orders larger than 0.100000
B(  0-C ,  1-N ) :   1.0278 B(  0-C , 17-C ) :   0.9672 B(  0-C , 18-H ) :   0.9574
B(  0-C , 19-H ) :   0.9642 B(  1-N ,  7-C ) :   1.2465 B(  1-N , 12-H ) :   0.8533
B(  2-C ,  3-C ) :   0.9875 B(  2-C , 21-C ) :   1.0098 B(  2-C , 24-H ) :   0.9488
B(  2-C , 25-H ) :   0.9391 B(  3-C ,  4-H ) :   0.9201 B(  3-C ,  5-H ) :   0.9589
B(  3-C ,  6-C ) :   1.0232 B(  6-C , 15-O ) :   1.8900 B(  6-C , 16-F ) :   1.1506
B(  7-C ,  8-N ) :   1.1227 B(  7-C ,  9-C ) :   1.6431 B(  8-N , 13-H ) :   0.9131
B(  8-N , 14-H ) :   0.9180 B(  9-C , 10-H ) :   0.9870 B(  9-C , 11-H ) :   1.0072
B( 12-H , 15-O ) :   0.1191 B( 17-C , 26-C ) :   1.0261 B( 17-C , 27-H ) :   0.9300
B( 17-C , 28-H ) :   0.9421 B( 20-C , 21-C ) :   1.0187 B( 20-C , 32-C ) :   1.0132
B( 20-C , 35-H ) :   0.9362 B( 20-C , 36-H ) :   0.9573 B( 21-C , 22-H ) :   0.9536
B( 21-C , 23-H ) :   0.9418 B( 26-C , 29-C ) :   1.0235 B( 26-C , 30-H ) :   0.9370
B( 26-C , 31-H ) :   0.9752 B( 29-C , 32-C ) :   1.0193 B( 29-C , 33-H ) :   0.9450
B( 29-C , 34-H ) :   0.9566 B( 32-C , 37-H ) :   0.9464 B( 32-C , 38-H ) :   0.9469

Dispersion correction           -0.055495596
FINAL SINGLE POINT ENERGY      -756.084689004069

DIPOLE MOMENT
-------------
                                X             Y             Z
Electronic contribution:     12.43608       8.50316       4.43294
Nuclear contribution   :    -13.25777      -8.13937      -5.31678
                        -----------------------------------------
Total Dipole Moment    :     -0.82169       0.36379      -0.88384
                        -----------------------------------------
Magnitude (a.u.)       :      1.26043
Magnitude (Debye)      :      3.20375

Rotational constants in cm-1:     0.020021     0.013636     0.009443
Rotational constants in MHz :   600.208195   408.782966   283.102361

                             ****ORCA TERMINATED NORMALLY****
TOTAL RUN TIME: 0 days 0 hours 0 minutes 36 seconds 365 msec
