                         Program Version 5.0.0 -  RELEASE  -
|  1> !PBE D3BJ RIJCOSX def2-SVP def2/J TightSCF
|  2> *xyz -1 1
|  3> C         -0.90349       -0.87394       -1.98739
|  4> C         -0.96015       -0.52236       -0.48987
|  5> H         -1.69039       -1.20813       -0.02168
|  6> H         -1.41449        0.48633       -0.40668
|  7> O          0.26170       -0.58031        0.13861
|  8> H         -1.88568       -0.80774       -2.40670
|  9> H         -0.53143       -1.87013       -2.10605
| 10> H         -0.25399       -0.18836       -2.49039
| 11> *
| 12>
| 13> %MaxCore 64000
| 14>
| 15> %pal nprocs 4
| 16> end
| 17>
| 18> %scf
| 19>   MaxIter 150
| 20> end
| 21>
| 22>
| 23>                          ****END OF INPUT****

CARTESIAN COORDINATES (ANGSTROEM)
---------------------------------
  C     -0.903490   -0.873940   -1.987390
  C     -0.960150   -0.522360   -0.489870
  H     -1.690390   -1.208130   -0.021680
  H     -1.414490    0.486330   -0.406680
  O      0.261700   -0.580310    0.138610
  H     -1.885680   -0.807740   -2.406700
  H     -0.531430   -1.870130   -2.106050
  H     -0.253990   -0.188360   -2.490390

 Total Charge           Charge          ....   -1
 Multiplicity           Mult            ....    1
 Number of Electrons    NEL             ....   26
 Basis Dimension        Dim             ....   67

ORBITAL ENERGIES
----------------

  NO   OCC          E(Eh)            E(eV)
   0   2.0000     -18.380218      -500.1512
   1   2.0000      -9.681032      -263.4343
   2   2.0000      -9.670243      -263.1407
   3   2.0000      -0.545826       -14.8527
   4   2.0000      -0.428241       -11.6530
   5   2.0000      -0.283949        -7.7266
   6   2.0000      -0.182098        -4.9552
   7   2.0000      -0.161014        -4.3814
   8   2.0000      -0.107532        -2.9261
   9   2.0000      -0.090693        -2.4679
  10   2.0000      -0.024930        -0.6784
  11   2.0000       0.116868         3.1801
  12   2.0000       0.122955         3.3458
  13   0.0000       0.233361         6.3501
  14   0.0000       0.275406         7.4942
  15   0.0000       0.286608         7.7990
  16   0.0000       0.295011         8.0276
  17   0.0000       0.335458         9.1283

MULLIKEN ATOMIC CHARGES
-----------------------
   0 C :    0.077869
   1 C :    0.199353
   2 H :   -0.170330
   3 H :   -0.171441
   4 O :   -0.647655
   5 H :   -0.138354
   6 H :   -0.074696
   7 H :   -0.074746
Sum of atomic charges:   -1.0000000

LOEWDIN ATOMIC CHARGES
----------------------
   0 C :   -0.119905
   1 C :   -0.006034
   2 H :   -0.083937
   3 H :   -0.084692
   4 O :   -0.621643
   5 H :   -0.044231
   6 H :   -0.019758
   7 H :   -0.019800

  Mayer bond orders larger than 0.100000
B(  0-C ,  1-C ) :   0.9944 B(  0-C ,  4-O ) :  -0.1125 B(  0-C ,  5-H ) :   0.8873
B(  0-C ,  6-H ) :   0.9437 B(  0-C ,  7-H ) :   0.9437 B(  1-C ,  2-H ) :   0.8499
B(  1-C ,  3-H ) :   0.8479 B(  1-C ,  4-O ) :   1.5436 B(  4-O ,  5-H ) :   0.1121

Dispersion correction           -0.003757639
FINAL SINGLE POINT ENERGY      -154.084892145813

DIPOLE MOMENT
-------------
                                X             Y             Z
Electronic contribution:      2.37281       0.16720       2.46773
Nuclear contribution   :     -2.90669      -0.27617      -3.31210
                        -----------------------------------------
Total Dipole Moment    :     -0.53388      -0.10896      -0.84437
                        -----------------------------------------
Magnitude (a.u.)       :      1.00492
Magnitude (Debye)      :      2.55431

Rotational constants in cm-1:     1.291883     0.321656     0.284469
Rotational constants in MHz : 38729.676116  9643.011620  8528.167295

                             ****ORCA TERMINATED NORMALLY****
TOTAL RUN TIME: 0 days 0 hours 0 minutes 5 seconds 695 msec
