                         Program Version 5.0.0 -  RELEASE  -
|  1> !PBE D3BJ RIJCOSX def2-SVP def2/J TightSCF
|  2> *xyz 1 1
|  3> C          4.36645       -0.13321       -1.41606
|  4> C          4.50829       -0.93187       -2.72425
|  5> C          3.05650       -0.32080       -0.70738
|  6> N          2.38983        0.71129       -0.24391
|  7> N          2.51600       -1.50772       -0.55023
|  8> H          2.96768       -2.32291       -0.95631
|  9> H          1.54987       -1.49063       -0.24988
| 10> H          2.74307        1.64947       -0.41280
| 11> H          1.44036        0.50278        0.03703
| 12> H          4.48784        0.93300       -1.61157
| 13> H          5.16967       -0.41443       -0.72982
| 14> H          5.46700       -0.73824       -3.15818
| 15> H          3.74074       -0.63528       -3.40821
| 16> H          4.41574       -1.97727       -2.51573
| 17> *
| 18>
| 19> %MaxCore 64000
| 20>
| 21> %pal nprocs 4
| 22> end
| 23>
| 24> %scf
| 25>   MaxIter 150
| 26> end
| 27>
| 28>
| 29>                          ****END OF INPUT****

CARTESIAN COORDINATES (ANGSTROEM)
---------------------------------
  C      4.366450   -0.133210   -1.416060
  C      4.508290   -0.931870   -2.724250
  C      3.056500   -0.320800   -0.707380
  N      2.389830    0.711290   -0.243910
  N      2.516000   -1.507720   -0.550230
  H      2.967680   -2.322910   -0.956310
  H      1.549870   -1.490630   -0.249880
  H      2.743070    1.649470   -0.412800
  H      1.440360    0.502780    0.037030
  H      4.487840    0.933000   -1.611570
  H      5.169670   -0.414430   -0.729820
  H      5.467000   -0.738240   -3.158180
  H      3.740740   -0.635280   -3.408210
  H      4.415740   -1.977270   -2.515730

 Total Charge           Charge          ....    1
 Multiplicity           Mult            ....    1
 Number of Electrons    NEL             ....   40
 Basis Dimension        Dim             ....  115

ORBITAL ENERGIES
----------------

  NO   OCC          E(Eh)            E(eV)
   0   2.0000     -14.244109      -387.6019
   1   2.0000     -14.243057      -387.5733
   2   2.0000     -10.205117      -277.6953
   3   2.0000     -10.095408      -274.7100
   4   2.0000     -10.054923      -273.6084
   5   2.0000      -1.120908       -30.5015
   6   2.0000      -1.020746       -27.7759
   7   2.0000      -0.892634       -24.2898
   8   2.0000      -0.792164       -21.5559
   9   2.0000      -0.758824       -20.6487
  10   2.0000      -0.715193       -19.4614
  11   2.0000      -0.698909       -19.0183
  12   2.0000      -0.655440       -17.8354
  13   2.0000      -0.610905       -16.6236
  14   2.0000      -0.580105       -15.7854
  15   2.0000      -0.554594       -15.0913
  16   2.0000      -0.511593       -13.9211
  17   2.0000      -0.496234       -13.5032
  18   2.0000      -0.482345       -13.1253
  19   2.0000      -0.452906       -12.3242
  20   0.0000      -0.240996        -6.5578
  21   0.0000      -0.174678        -4.7532
  22   0.0000      -0.130568        -3.5529
  23   0.0000      -0.125896        -3.4258
  24   0.0000      -0.089499        -2.4354

MULLIKEN ATOMIC CHARGES
-----------------------
   0 C :    0.012803
   1 C :   -0.024243
   2 C :   -0.147398
   3 N :    0.060487
   4 N :    0.058572
   5 H :    0.176518
   6 H :    0.163659
   7 H :    0.183773
   8 H :    0.160814
   9 H :    0.054110
  10 H :    0.109207
  11 H :    0.081895
  12 H :    0.063365
  13 H :    0.046437
Sum of atomic charges:    1.0000000

LOEWDIN ATOMIC CHARGES
----------------------
   0 C :   -0.038556
   1 C :   -0.031655
   2 C :    0.117170
   3 N :    0.118192
   4 N :    0.115194
   5 H :    0.118500
   6 H :    0.108159
   7 H :    0.122723
   8 H :    0.107287
   9 H :    0.055210
  10 H :    0.076789
  11 H :    0.057983
  12 H :    0.042162
  13 H :    0.030843

  Mayer bond orders larger than 0.100000
B(  0-C ,  1-C ) :   1.0965 B(  0-C ,  2-C ) :   1.0341 B(  0-C ,  9-H ) :   0.9077
B(  0-C , 10-H ) :   0.8986 B(  1-C , 11-H ) :   0.9496 B(  1-C , 12-H ) :   0.9716
B(  1-C , 13-H ) :   0.9627 B(  2-C ,  3-N ) :   1.5233 B(  2-C ,  4-N ) :   1.5134
B(  3-N ,  7-H ) :   0.9110 B(  3-N ,  8-H ) :   0.9231 B(  4-N ,  5-H ) :   0.9171
B(  4-N ,  6-H ) :   0.9223

Dispersion correction           -0.010132754
FINAL SINGLE POINT ENERGY      -228.569925558357

DIPOLE MOMENT
-------------
                                X             Y             Z
Electronic contribution:     -2.72556       0.61878       3.15673
Nuclear contribution   :      1.78847      -0.48174      -2.67127
                        -----------------------------------------
Total Dipole Moment    :     -0.93709       0.13704       0.48546
                        -----------------------------------------
Magnitude (a.u.)       :      1.06423
Magnitude (Debye)      :      2.70506

Rotational constants in cm-1:     0.286883     0.123210     0.094446
Rotational constants in MHz :  8600.540572  3693.747366  2831.415242

                             ****ORCA TERMINATED NORMALLY****
TOTAL RUN TIME: 0 days 0 hours 0 minutes 7 seconds 676 msec
