                         Program Version 5.0.0 -  RELEASE  -
|  1> !PBE D3BJ RIJCOSX def2-SVP def2/J TightSCF
|  2> *xyz 0 1
|  3> C         -0.90349       -0.87394       -1.98739
|  4> C         -0.96015       -0.52236       -0.48987
|  5> H         -1.69039       -1.20813       -0.02168
|  6> H         -1.41449        0.48633       -0.40668
|  7> F          0.26170       -0.58031        0.13861
|  8> H         -1.88568       -0.80774       -2.40670
|  9> H         -0.53143       -1.87013       -2.10605
| 10> H         -0.25399       -0.18836       -2.49039
| 11> *
| 12>
| 13> %MaxCore 64000
| 14>
| 15> %pal nprocs 4
| 16> end
| 17>
| 18> %scf
| 19>   MaxIter 150
| 20> end
| 21>
| 22>
| 23>                          ****END OF INPUT****

CARTESIAN COORDINATES (ANGSTROEM)
---------------------------------
  C     -0.903490   -0.873940   -1.987390
  C     -0.960150   -0.522360   -0.489870
  H     -1.690390   -1.208130   -0.021680
  H     -1.414490    0.486330   -0.406680
  F      0.261700   -0.580310    0.138610
  H     -1.885680   -0.807740   -2.406700
  H     -0.531430   -1.870130   -2.106050
  H     -0.253990   -0.188360   -2.490390

 Total Charge           Charge          ....    0
 Multiplicity           Mult            ....    1
 Number of Electrons    NEL             ....   26
 Basis Dimension        Dim             ....   67

ORBITAL ENERGIES
----------------

  NO   OCC          E(Eh)            E(eV)
   0   2.0000     -24.237678      -659.5407
   1   2.0000      -9.964309      -271.1426
   2   2.0000      -9.889018      -269.0939
   3   2.0000      -1.064028       -28.9537
   4   2.0000      -0.682215       -18.5640
   5   2.0000      -0.556165       -15.1340
   6   2.0000      -0.442206       -12.0330
   7   2.0000      -0.431345       -11.7375
   8   2.0000      -0.392062       -10.6685
   9   2.0000      -0.350083        -9.5262
  10   2.0000      -0.345114        -9.3910
  11   2.0000      -0.275718        -7.5027
  12   2.0000      -0.271001        -7.3743
  13   0.0000       0.044056         1.1988
  14   0.0000       0.086737         2.3602
  15   0.0000       0.092930         2.5287
  16   0.0000       0.099523         2.7082
  17   0.0000       0.118894         3.2353

MULLIKEN ATOMIC CHARGES
-----------------------
   0 C :   -0.061353
   1 C :    0.181006
   2 H :    0.012614
   3 H :    0.013080
   4 F :   -0.233352
   5 H :    0.022191
   6 H :    0.032891
   7 H :    0.032924
Sum of atomic charges:    0.0000000

LOEWDIN ATOMIC CHARGES
----------------------
   0 C :   -0.081347
   1 C :    0.093366
   2 H :    0.009825
   3 H :    0.010327
   4 F :   -0.118874
   5 H :    0.032717
   6 H :    0.026997
   7 H :    0.026989

  Mayer bond orders larger than 0.100000
B(  0-C ,  1-C ) :   1.1055 B(  0-C ,  5-H ) :   0.9536 B(  0-C ,  6-H ) :   0.9671
B(  0-C ,  7-H ) :   0.9671 B(  1-C ,  2-H ) :   0.9500 B(  1-C ,  3-H ) :   0.9496
B(  1-C ,  4-F ) :   1.0374

Dispersion correction           -0.003477295
FINAL SINGLE POINT ENERGY      -178.708973463161

DIPOLE MOMENT
-------------
                                X             Y             Z
Electronic contribution:      3.31509       0.37496       4.04411
Nuclear contribution   :     -3.84149      -0.36812      -4.38946
                        -----------------------------------------
Total Dipole Moment    :     -0.52640       0.00685      -0.34535
                        -----------------------------------------
Magnitude (a.u.)       :      0.62961
Magnitude (Debye)      :      1.60035

Rotational constants in cm-1:     1.270659     0.299196     0.265842
Rotational constants in MHz : 38093.410361  8969.665806  7969.741481

                             ****ORCA TERMINATED NORMALLY****
TOTAL RUN TIME: 0 days 0 hours 0 minutes 5 seconds 738 msec
