                         Program Version 5.0.0 -  RELEASE  -
|  1> !PBE D3BJ RIJCOSX def2-SVP def2/J TightSCF
|  2> *xyz 0 1
|  3> C          4.36645       -0.13321       -1.41606
|  4> C          4.50829       -0.93187       -2.72425
|  5> C          3.05650       -0.32080       -0.70738
|  6> C          2.38983        0.71129       -0.24391
|  7> N          2.51600       -1.50772       -0.55023
|  8> H          2.96768       -2.32291       -0.95631
|  9> H          1.54987       -1.49063       -0.24988
| 10> H          2.74307        1.64947       -0.41280
| 11> H          1.44036        0.50278        0.03703
| 12> H          4.48784        0.93300       -1.61157
| 13> H          5.16967       -0.41443       -0.72982
| 14> H          5.46700       -0.73824       -3.15818
| 15> H          3.74074       -0.63528       -3.40821
| 16> H          4.41574       -1.97727       -2.51573
| 17> *
| 18>
| 19> %MaxCore 64000
| 20>
| 21> %pal nprocs 4
| 22> end
| 23>
| 24> %scf
| 25>   MaxIter 150
| 26> end
| 27>
| 28>
| 29>                          ****END OF INPUT****

CARTESIAN COORDINATES (ANGSTROEM)
---------------------------------
  C      4.366450   -0.133210   -1.416060
  C      4.508290   -0.931870   -2.724250
  C      3.056500   -0.320800   -0.707380
  C      2.389830    0.711290   -0.243910
  N      2.516000   -1.507720   -0.550230
  H      2.967680   -2.322910   -0.956310
  H      1.549870   -1.490630   -0.249880
  H      2.743070    1.649470   -0.412800
  H      1.440360    0.502780    0.037030
  H      4.487840    0.933000   -1.611570
  H      5.169670   -0.414430   -0.729820
  H      5.467000   -0.738240   -3.158180
  H      3.740740   -0.635280   -3.408210
  H      4.415740   -1.977270   -2.515730

 Total Charge           Charge          ....    0
 Multiplicity           Mult            ....    1
 Number of Electrons    NEL             ....   40
 Basis Dimension        Dim             ....  115

ORBITAL ENERGIES
----------------

  NO   OCC          E(Eh)            E(eV)
   0   2.0000     -13.991168      -380.7190
   1   2.0000      -9.900844      -269.4157
   2   2.0000      -9.892600      -269.1913
   3   2.0000      -9.886681      -269.0303
   4   2.0000      -9.820813      -267.2379
   5   2.0000      -0.837303       -22.7842
   6   2.0000      -0.695278       -18.9195
   7   2.0000      -0.639898       -17.4125
   8   2.0000      -0.563692       -15.3389
   9   2.0000      -0.498692       -13.5701
  10   2.0000      -0.475291       -12.9333
  11   2.0000      -0.413784       -11.2596
  12   2.0000      -0.388239       -10.5645
  13   2.0000      -0.377614       -10.2754
  14   2.0000      -0.338793        -9.2190
  15   2.0000      -0.331359        -9.0167
  16   2.0000      -0.310764        -8.4563
  17   2.0000      -0.296288        -8.0624
  18   2.0000      -0.276050        -7.5117
  19   2.0000      -0.147489        -4.0134
  20   0.0000       0.023282         0.6335
  21   0.0000       0.029868         0.8128
  22   0.0000       0.070437         1.9167
  23   0.0000       0.074603         2.0301
  24   0.0000       0.098318         2.6754

MULLIKEN ATOMIC CHARGES
-----------------------
   0 C :    0.053789
   1 C :   -0.017501
   2 C :   -0.192545
   3 C :   -0.013640
   4 N :   -0.019497
   5 H :    0.097186
   6 H :    0.109777
   7 H :   -0.044471
   8 H :   -0.060290
   9 H :    0.006951
  10 H :    0.024167
  11 H :    0.020148
  12 H :    0.027428
  13 H :    0.008498
Sum of atomic charges:    0.0000000

LOEWDIN ATOMIC CHARGES
----------------------
   0 C :   -0.035804
   1 C :   -0.057104
   2 C :   -0.014424
   3 C :   -0.174092
   4 N :    0.008859
   5 H :    0.066909
   6 H :    0.077333
   7 H :   -0.000573
   8 H :   -0.008596
   9 H :    0.035614
  10 H :    0.031865
  11 H :    0.027766
  12 H :    0.026937
  13 H :    0.015310

  Mayer bond orders larger than 0.100000
B(  0-C ,  1-C ) :   1.1006 B(  0-C ,  2-C ) :   1.0434 B(  0-C ,  9-H ) :   0.9162
B(  0-C , 10-H ) :   0.9188 B(  1-C , 11-H ) :   0.9586 B(  1-C , 12-H ) :   0.9702
B(  1-C , 13-H ) :   0.9652 B(  2-C ,  3-C ) :   1.8386 B(  2-C ,  4-N ) :   1.3009
B(  3-C ,  7-H ) :   0.9304 B(  3-C ,  8-H ) :   0.9280 B(  4-N ,  5-H ) :   0.9446
B(  4-N ,  6-H ) :   0.9340

Dispersion correction           -0.010487349
FINAL SINGLE POINT ENERGY      -212.112185299316

DIPOLE MOMENT
-------------
                                X             Y             Z
Electronic contribution:     -1.51682      -0.53076       2.09753
Nuclear contribution   :      1.56827      -0.21459      -2.46657
                        -----------------------------------------
Total Dipole Moment    :      0.05144      -0.74535      -0.36904
                        -----------------------------------------
Magnitude (a.u.)       :      0.83329
Magnitude (Debye)      :      2.11807

Rotational constants in cm-1:     0.294070     0.127722     0.097792
Rotational constants in MHz :  8815.983970  3829.010547  2931.715816

                             ****ORCA TERMINATED NORMALLY****
TOTAL RUN TIME: 0 days 0 hours 0 minutes 7 seconds 501 msec
