                         Program Version 5.0.0 -  RELEASE  -
|  1> !PBE D3BJ RIJCOSX def2-SVP def2/J TightSCF
|  2> *xyz 0 1
|  3> C          4.36645       -0.13321       -1.41606
|  4> C          4.50829       -0.93187       -2.72425
|  5> C          3.05650       -0.32080       -0.70738
|  6> N          2.38983        0.71129       -0.24391
|  7> C          2.51600       -1.50772       -0.55023
|  8> H          2.96768       -2.32291       -0.95631
|  9> H          1.54987       -1.49063       -0.24988
| 10> H          2.74307        1.64947       -0.41280
| 11> H          1.44036        0.50278        0.03703
| 12> H          4.48784        0.93300       -1.61157
| 13> H          5.16967       -0.41443       -0.72982
| 14> H          5.46700       -0.73824       -3.15818
| 15> H          3.74074       -0.63528       -3.40821
| 16> H          4.41574       -1.97727       -2.51573
| 17> *
| 18>
| 19> %MaxCore 64000
| 20>
| 21> %pal nprocs 4
| 22> end
| 23>
| 24> %scf
| 25>   MaxIter 150
| 26> end
| 27>
| 28>
| 29>                          ****END OF INPUT****

CARTESIAN COORDINATES (ANGSTROEM)
---------------------------------
  C      4.366450   -0.133210   -1.416060
  C      4.508290   -0.931870   -2.724250
  C      3.056500   -0.320800   -0.707380
  N      2.389830    0.711290   -0.243910
  C      2.516000   -1.507720   -0.550230
  H      2.967680   -2.322910   -0.956310
  H      1.549870   -1.490630   -0.249880
  H      2.743070    1.649470   -0.412800
  H      1.440360    0.502780    0.037030
  H      4.487840    0.933000   -1.611570
  H      5.169670   -0.414430   -0.729820
  H      5.467000   -0.738240   -3.158180
  H      3.740740   -0.635280   -3.408210
  H      4.415740   -1.977270   -2.515730

 Total Charge           Charge          ....    0
 Multiplicity           Mult            ....    1
 Number of Electrons    NEL             ....   40
 Basis Dimension        Dim             ....  115

ORBITAL ENERGIES
----------------

  NO   OCC          E(Eh)            E(eV)
   0   2.0000     -13.991343      -380.7238
   1   2.0000      -9.901032      -269.4208
   2   2.0000      -9.894146      -269.2334
   3   2.0000      -9.879436      -268.8331
   4   2.0000      -9.819020      -267.1891
   5   2.0000      -0.837250       -22.7827
   6   2.0000      -0.696014       -18.9395
   7   2.0000      -0.629114       -17.1191
   8   2.0000      -0.572757       -15.5855
   9   2.0000      -0.489240       -13.3129
  10   2.0000      -0.472952       -12.8697
  11   2.0000      -0.420555       -11.4439
  12   2.0000      -0.396935       -10.8012
  13   2.0000      -0.353689        -9.6244
  14   2.0000      -0.339052        -9.2261
  15   2.0000      -0.330270        -8.9871
  16   2.0000      -0.310215        -8.4414
  17   2.0000      -0.294245        -8.0068
  18   2.0000      -0.277225        -7.5437
  19   2.0000      -0.145593        -3.9618
  20   0.0000       0.025899         0.7047
  21   0.0000       0.031895         0.8679
  22   0.0000       0.069787         1.8990
  23   0.0000       0.073047         1.9877
  24   0.0000       0.101396         2.7591

MULLIKEN ATOMIC CHARGES
-----------------------
   0 C :    0.049641
   1 C :   -0.004542
   2 C :   -0.192339
   3 N :   -0.023600
   4 C :   -0.016976
   5 H :   -0.045419
   6 H :   -0.057304
   7 H :    0.100737
   8 H :    0.106741
   9 H :   -0.016731
  10 H :    0.034708
  11 H :    0.010834
  12 H :    0.022250
  13 H :    0.032000
Sum of atomic charges:    0.0000000

LOEWDIN ATOMIC CHARGES
----------------------
   0 C :   -0.036935
   1 C :   -0.047735
   2 C :   -0.014597
   3 N :    0.011377
   4 C :   -0.178393
   5 H :   -0.002070
   6 H :   -0.007749
   7 H :    0.068139
   8 H :    0.076402
   9 H :    0.018133
  10 H :    0.039392
  11 H :    0.022368
  12 H :    0.025554
  13 H :    0.026114

  Mayer bond orders larger than 0.100000
B(  0-C ,  1-C ) :   1.1207 B(  0-C ,  2-C ) :   1.0167 B(  0-C ,  9-H ) :   0.9167
B(  0-C , 10-H ) :   0.9203 B(  1-C , 11-H ) :   0.9560 B(  1-C , 12-H ) :   0.9710
B(  1-C , 13-H ) :   0.9678 B(  2-C ,  3-N ) :   1.3014 B(  2-C ,  4-C ) :   1.8397
B(  3-N ,  7-H ) :   0.9387 B(  3-N ,  8-H ) :   0.9352 B(  4-C ,  5-H ) :   0.9408
B(  4-C ,  6-H ) :   0.9274

Dispersion correction           -0.010519409
FINAL SINGLE POINT ENERGY      -212.110851311092

DIPOLE MOMENT
-------------
                                X             Y             Z
Electronic contribution:     -1.63543       1.53413       2.40427
Nuclear contribution   :      1.59749      -0.72853      -2.53752
                        -----------------------------------------
Total Dipole Moment    :     -0.03794       0.80560      -0.13325
                        -----------------------------------------
Magnitude (a.u.)       :      0.81743
Magnitude (Debye)      :      2.07773

Rotational constants in cm-1:     0.304597     0.124127     0.096828
Rotational constants in MHz :  9131.600925  3721.227051  2902.830760

                             ****ORCA TERMINATED NORMALLY****
TOTAL RUN TIME: 0 days 0 hours 0 minutes 7 seconds 389 msec
