                         Program Version 5.0.0 -  RELEASE  -
|  1> !PBE D3BJ RIJCOSX def2-TZVP def2/J TightSCF xyzfile
|  2>
|  3> *xyzfile 0 1 D1.xyz
|  4>
|  5> %MaxCore 64000
|  6>
|  7> %pal nprocs 18
|  8> end
|  9>
| 10> %scf
| 11>   MaxIter 150
| 12> end
| 13>
| 14>
| 15>                          ****END OF INPUT****

CARTESIAN COORDINATES (ANGSTROEM)
---------------------------------
  C      4.366454   -0.133215   -1.416062
  C      4.508292   -0.931872   -2.724249
  H      4.753716   -1.972051   -2.488408
  C      3.294164   -0.918214   -3.656570
  H      5.385637   -0.536236   -3.242640
  H      2.483463   -1.477378   -3.185764
  H      3.553092   -1.478495   -4.560331
  C      2.772335    0.460100   -4.051448
  H      2.608762    1.065107   -3.155194
  C      1.465354    0.410537   -4.853644
  H      3.532940    0.988848   -4.635671
  C      0.326171   -0.375613   -4.192580
  H      1.666704   -0.022269   -5.839323
  H      1.138198    1.439246   -5.035449
  C     -0.017405    0.080588   -2.778406
  H      0.585573   -1.439385   -4.168057
  H     -0.560005   -0.311425   -4.831461
  H      0.902090    0.201296   -2.206729
  C     -0.903495   -0.873945   -1.987388
  H     -0.479549    1.074657   -2.811915
  H     -0.502554   -1.892096   -2.081204
  H     -1.917039   -0.895427   -2.406277
  C     -0.960148   -0.522365   -0.489867
  H     -1.690392   -1.208130   -0.021677
  H     -1.414490    0.486329   -0.406677
  F      0.261703   -0.580307    0.138611
  C      3.056503   -0.320797   -0.707384
  C      2.389825    0.711285   -0.243909
  N      2.515999   -1.507721   -0.550229
  H      2.967683   -2.322915   -0.956305
  H      1.549872   -1.490634   -0.249876
  H      2.743071    1.649471   -0.412802
  H      1.440364    0.502778    0.037031
  H      4.487835    0.932997   -1.611569
  H      5.169672   -0.414432   -0.729817

 Total Charge           Charge          ....    0
 Multiplicity           Mult            ....    1
 Number of Electrons    NEL             ....  104
 Basis Dimension        Dim             ....  535

ORBITAL ENERGIES
----------------

  NO   OCC          E(Eh)            E(eV)
   0   2.0000     -24.276733      -660.6035
   1   2.0000     -13.960472      -379.8838
   2   2.0000      -9.968132      -271.2467
   3   2.0000      -9.892825      -269.1975
   4   2.0000      -9.878516      -268.8081
   5   2.0000      -9.874316      -268.6938
   6   2.0000      -9.873826      -268.6805
   7   2.0000      -9.871551      -268.6186
   8   2.0000      -9.871272      -268.6110
   9   2.0000      -9.869155      -268.5534
  10   2.0000      -9.867243      -268.5013
  11   2.0000      -9.865188      -268.4454
  12   2.0000      -9.787090      -266.3203
  13   2.0000      -1.137026       -30.9401
  14   2.0000      -0.836995       -22.7758
  15   2.0000      -0.743924       -20.2432
  16   2.0000      -0.723346       -19.6833
  17   2.0000      -0.698795       -19.0152
  18   2.0000      -0.663160       -18.0455
  19   2.0000      -0.637508       -17.3475
  20   2.0000      -0.618815       -16.8388
  21   2.0000      -0.574676       -15.6377
  22   2.0000      -0.554950       -15.1010
  23   2.0000      -0.526239       -14.3197
  24   2.0000      -0.500960       -13.6318
  25   2.0000      -0.486254       -13.2316
  26   2.0000      -0.479932       -13.0596
  27   2.0000      -0.471929       -12.8418
  28   2.0000      -0.456487       -12.4216
  29   2.0000      -0.435029       -11.8378
  30   2.0000      -0.419571       -11.4171
  31   2.0000      -0.409840       -11.1523
  32   2.0000      -0.394852       -10.7445
  33   2.0000      -0.390060       -10.6141
  34   2.0000      -0.380452       -10.3526
  35   2.0000      -0.375388       -10.2148
  36   2.0000      -0.349794        -9.5184
  37   2.0000      -0.343174        -9.3382
  38   2.0000      -0.334900        -9.1131
  39   2.0000      -0.328030        -8.9261
  40   2.0000      -0.321662        -8.7529
  41   2.0000      -0.311259        -8.4698
  42   2.0000      -0.305222        -8.3055
  43   2.0000      -0.299898        -8.1606
  44   2.0000      -0.295475        -8.0403
  45   2.0000      -0.289102        -7.8669
  46   2.0000      -0.273119        -7.4319
  47   2.0000      -0.270211        -7.3528
  48   2.0000      -0.265256        -7.2180
  49   2.0000      -0.262644        -7.1469
  50   2.0000      -0.257476        -7.0063
  51   2.0000      -0.142461        -3.8766
  52   0.0000       0.005691         0.1549
  53   0.0000       0.015419         0.4196
  54   0.0000       0.024236         0.6595
  55   0.0000       0.026580         0.7233
  56   0.0000       0.033308         0.9064

MULLIKEN ATOMIC CHARGES
-----------------------
   0 C :   -0.149012
   1 C :   -0.242590
   2 H :    0.102798
   3 C :   -0.136356
   4 H :    0.092234
   5 H :    0.072327
   6 H :    0.080538
   7 C :   -0.229115
   8 H :    0.120484
   9 C :   -0.113995
  10 H :    0.083431
  11 C :   -0.182864
  12 H :    0.085565
  13 H :    0.084101
  14 C :   -0.224335
  15 H :    0.096028
  16 H :    0.087004
  17 H :    0.132555
  18 C :   -0.192147
  19 H :    0.072919
  20 H :    0.093748
  21 H :    0.100487
  22 C :    0.014577
  23 H :    0.113197
  24 H :    0.101215
  25 F :   -0.191771
  26 C :    0.068449
  27 C :   -0.435463
  28 N :   -0.365268
  29 H :    0.208854
  30 H :    0.224818
  31 H :    0.078690
  32 H :    0.139256
  33 H :    0.106074
  34 H :    0.103567
Sum of atomic charges:   -0.0000000

LOEWDIN ATOMIC CHARGES
----------------------
   0 C :   -0.223144
   1 C :   -0.270787
   2 H :    0.133398
   3 C :   -0.274055
   4 H :    0.139017
   5 H :    0.133707
   6 H :    0.136323
   7 C :   -0.271316
   8 H :    0.142639
   9 C :   -0.268147
  10 H :    0.135091
  11 C :   -0.274797
  12 H :    0.136350
  13 H :    0.137086
  14 C :   -0.275008
  15 H :    0.135184
  16 H :    0.134790
  17 H :    0.152219
  18 C :   -0.281180
  19 H :    0.137043
  20 H :    0.138004
  21 H :    0.144066
  22 C :   -0.350070
  23 H :    0.125923
  24 H :    0.129241
  25 F :    0.164037
  26 C :   -0.392847
  27 C :   -0.293072
  28 N :    0.014606
  29 H :    0.162787
  30 H :    0.153723
  31 H :    0.100797
  32 H :    0.093341
  33 H :    0.149679
  34 H :    0.145372

  Mayer bond orders larger than 0.100000
B(  0-C ,  1-C ) :   0.9807 B(  0-C , 26-C ) :   1.0134 B(  0-C , 33-H ) :   0.9512
B(  0-C , 34-H ) :   0.9478 B(  1-C ,  2-H ) :   0.9649 B(  1-C ,  3-C ) :   0.9892
B(  1-C ,  4-H ) :   0.9453 B(  3-C ,  5-H ) :   0.9498 B(  3-C ,  6-H ) :   0.9440
B(  3-C ,  7-C ) :   0.9836 B(  7-C ,  8-H ) :   0.9609 B(  7-C ,  9-C ) :   1.0006
B(  7-C , 10-H ) :   0.9430 B(  9-C , 11-C ) :   1.0107 B(  9-C , 12-H ) :   0.9483
B(  9-C , 13-H ) :   0.9491 B( 11-C , 14-C ) :   1.0058 B( 11-C , 15-H ) :   0.9555
B( 11-C , 16-H ) :   0.9485 B( 14-C , 17-H ) :   0.9760 B( 14-C , 18-C ) :   0.9956
B( 14-C , 19-H ) :   0.9460 B( 18-C , 20-H ) :   0.9484 B( 18-C , 21-H ) :   0.9320
B( 18-C , 22-C ) :   1.0035 B( 22-C , 23-H ) :   0.9568 B( 22-C , 24-H ) :   0.9627
B( 22-C , 25-F ) :   0.9534 B( 26-C , 27-C ) :   1.7241 B( 26-C , 28-N ) :   1.2181
B( 27-C , 31-H ) :   0.9831 B( 27-C , 32-H ) :   0.9471 B( 28-N , 29-H ) :   0.9196
B( 28-N , 30-H ) :   0.8704

Dispersion correction           -0.039649771
FINAL SINGLE POINT ENERGY      -586.429868808960

DIPOLE MOMENT
-------------
                                X             Y             Z
Electronic contribution:     -2.65604      -1.63447      10.51598
Nuclear contribution   :      1.82572       1.04089     -11.09065
                        -----------------------------------------
Total Dipole Moment    :     -0.83032      -0.59358      -0.57467
                        -----------------------------------------
Magnitude (a.u.)       :      1.17133
Magnitude (Debye)      :      2.97728

Rotational constants in cm-1:     0.028436     0.022359     0.014416
Rotational constants in MHz :   852.496561   670.291843   432.183951

                             ****ORCA TERMINATED NORMALLY****
TOTAL RUN TIME: 0 days 0 hours 0 minutes 24 seconds 22 msec
