                         Program Version 5.0.0 -  RELEASE  -
|  1> !BLYP D3BJ RIJCOSX def2-SVPD def2/J TightSCF
|  2> *xyz -1 1
|  3> C          0.70466        1.44313       -4.50363
|  4> C          1.72854        1.42432       -5.63944
|  5> H          2.64672        1.95379       -5.38105
|  6> H          1.29992        1.93061       -6.50361
|  7> S          2.25263       -0.18811       -6.27184
|  8> O          3.56261       -0.44446       -5.63155
|  9> O          2.34494       -0.03374       -7.69650
| 10> C          1.05255        0.69566       -3.21491
| 11> H         -0.23248        1.03293       -4.88445
| 12> H          0.51170        2.49579       -4.26797
| 13> O          1.26606       -1.15918       -5.80536
| 14> H          1.24200       -0.33323       -3.43942
| 15> H          0.23391        0.76629       -2.52954
| 16> H          1.92506        1.13113       -2.77446
| 17> *
| 18>
| 19> %MaxCore 64000
| 20>
| 21> %pal nprocs 8
| 22> end
| 23>
| 24> %scf
| 25>   MaxIter 150
| 26> end
| 27>
| 28>
| 29>                          ****END OF INPUT****

CARTESIAN COORDINATES (ANGSTROEM)
---------------------------------
  C      0.704660    1.443130   -4.503630
  C      1.728540    1.424320   -5.639440
  H      2.646720    1.953790   -5.381050
  H      1.299920    1.930610   -6.503610
  S      2.252630   -0.188110   -6.271840
  O      3.562610   -0.444460   -5.631550
  O      2.344940   -0.033740   -7.696500
  C      1.052550    0.695660   -3.214910
  H     -0.232480    1.032930   -4.884450
  H      0.511700    2.495790   -4.267970
  O      1.266060   -1.159180   -5.805360
  H      1.242000   -0.333230   -3.439420
  H      0.233910    0.766290   -2.529540
  H      1.925060    1.131130   -2.774460

 Total Charge           Charge          ....   -1
 Multiplicity           Mult            ....    1
 Number of Electrons    NEL             ....   66
 Basis Dimension        Dim             ....  212

ORBITAL ENERGIES
----------------

  NO   OCC          E(Eh)            E(eV)
   0   2.0000     -88.130068     -2398.1411
   1   2.0000     -18.574917      -505.4492
   2   2.0000     -18.569217      -505.2941
   3   2.0000     -18.560228      -505.0495
   4   2.0000      -9.794380      -266.5186
   5   2.0000      -9.783514      -266.2229
   6   2.0000      -9.777166      -266.0502
   7   2.0000      -7.666627      -208.6195
   8   2.0000      -5.701731      -155.1520
   9   2.0000      -5.701624      -155.1491
  10   2.0000      -5.700929      -155.1302
  11   2.0000      -0.835468       -22.7342
  12   2.0000      -0.701253       -19.0821
  13   2.0000      -0.678426       -18.4609
  14   2.0000      -0.571557       -15.5529
  15   2.0000      -0.490524       -13.3478
  16   2.0000      -0.402970       -10.9654
  17   2.0000      -0.318603        -8.6696
  18   2.0000      -0.276657        -7.5282
  19   2.0000      -0.265846        -7.2340
  20   2.0000      -0.240610        -6.5473
  21   2.0000      -0.228669        -6.2224
  22   2.0000      -0.208068        -5.6618
  23   2.0000      -0.199866        -5.4386
  24   2.0000      -0.177627        -4.8335
  25   2.0000      -0.174123        -4.7381
  26   2.0000      -0.160841        -4.3767
  27   2.0000      -0.101435        -2.7602
  28   2.0000      -0.099182        -2.6989
  29   2.0000      -0.069561        -1.8928
  30   2.0000      -0.064411        -1.7527
  31   2.0000      -0.052376        -1.4252
  32   2.0000      -0.018132        -0.4934
  33   0.0000       0.118025         3.2116
  34   0.0000       0.144753         3.9389
  35   0.0000       0.153158         4.1676
  36   0.0000       0.161528         4.3954
  37   0.0000       0.181233         4.9316

MULLIKEN ATOMIC CHARGES
-----------------------
   0 C :    0.000615
   1 C :    0.324665
   2 H :   -0.161617
   3 H :   -0.158859
   4 S :    1.128269
   5 O :   -0.753480
   6 O :   -0.733737
   7 C :    1.194757
   8 H :   -0.145312
   9 H :   -0.307170
  10 O :   -0.774360
  11 H :   -0.270591
  12 H :   -0.186645
  13 H :   -0.156537
Sum of atomic charges:   -1.0000000

LOEWDIN ATOMIC CHARGES
----------------------
   0 C :   -0.088690
   1 C :   -0.076531
   2 H :   -0.004066
   3 H :   -0.012298
   4 S :    0.824220
   5 O :   -0.579483
   6 O :   -0.552767
   7 C :    0.135917
   8 H :    0.010623
   9 H :   -0.000474
  10 O :   -0.555491
  11 H :   -0.035464
  12 H :   -0.037989
  13 H :   -0.027508

  Mayer bond orders larger than 0.100000
B(  0-C ,  1-C ) :   1.2673 B(  0-C ,  2-H ) :   0.1656 B(  0-C ,  3-H ) :   0.1900
B(  0-C ,  7-C ) :   1.2690 B(  0-C ,  8-H ) :   0.7963 B(  0-C ,  9-H ) :   0.7372
B(  0-C , 11-H ) :   0.2783 B(  0-C , 12-H ) :   0.2985 B(  0-C , 13-H ) :   0.2826
B(  1-C ,  2-H ) :   0.8401 B(  1-C ,  3-H ) :   0.8058 B(  1-C ,  4-S ) :   0.8448
B(  1-C ,  6-O ) :   0.1076 B(  1-C ,  8-H ) :   0.1828 B(  1-C ,  9-H ) :   0.2172
B(  1-C , 10-O ) :   0.1051 B(  4-S ,  5-O ) :   1.2905 B(  4-S ,  6-O ) :   1.3974
B(  4-S , 10-O ) :   1.2964 B(  7-C ,  8-H ) :   0.1158 B(  7-C , 11-H ) :   0.7003
B(  7-C , 12-H ) :   0.6025 B(  7-C , 13-H ) :   0.6563

Dispersion correction           -0.027566523
FINAL SINGLE POINT ENERGY      -741.974868751541

DIPOLE MOMENT
-------------
                                X             Y             Z
Electronic contribution:      4.42090      -5.69649      -8.05884
Nuclear contribution   :     -5.44810       7.35485       9.25157
                        -----------------------------------------
Total Dipole Moment    :     -1.02721       1.65836       1.19272
                        -----------------------------------------
Magnitude (a.u.)       :      2.28646
Magnitude (Debye)      :      5.81172

Rotational constants in cm-1:     0.135801     0.054229     0.051056
Rotational constants in MHz :  4071.225075  1625.746654  1530.611411

                             ****ORCA TERMINATED NORMALLY****
TOTAL RUN TIME: 0 days 0 hours 0 minutes 5 seconds 999 msec
