                         Program Version 5.0.0 -  RELEASE  -
|  1> !BLYP D3BJ RIJCOSX def2-SVPD def2/J TightSCF
|  2> *xyz 1 1
|  3> C          2.91632       -1.24259       -1.54313
|  4> C          3.46659       -1.59097       -2.88908
|  5> N          4.65227       -1.14316       -3.25969
|  6> N          2.75226       -2.29204       -3.72803
|  7> H          1.77836       -2.48960       -3.51274
|  8> H          2.94861       -2.20854       -4.71681
|  9> H          5.14672       -0.51251       -2.63385
| 10> H          4.78303       -1.00720       -4.25350
| 11> C          2.80408        0.29070       -1.35924
| 12> C          2.38838        1.09367       -2.59711
| 13> H          3.76342        0.67472       -0.99989
| 14> H          2.09479        0.46122       -0.54576
| 15> H          1.94047       -1.71653       -1.44116
| 16> H          3.55857       -1.66343       -0.76637
| 17> H          3.08894        0.91965       -3.38694
| 18> H          2.37301        2.13633       -2.35728
| 19> H          1.41303        0.78551       -2.91115
| 20> *
| 21>
| 22> %MaxCore 64000
| 23>
| 24> %pal nprocs 8
| 25> end
| 26>
| 27> %scf
| 28>   MaxIter 150
| 29> end
| 30>
| 31>
| 32>                          ****END OF INPUT****

CARTESIAN COORDINATES (ANGSTROEM)
---------------------------------
  C      2.916320   -1.242590   -1.543130
  C      3.466590   -1.590970   -2.889080
  N      4.652270   -1.143160   -3.259690
  N      2.752260   -2.292040   -3.728030
  H      1.778360   -2.489600   -3.512740
  H      2.948610   -2.208540   -4.716810
  H      5.146720   -0.512510   -2.633850
  H      4.783030   -1.007200   -4.253500
  C      2.804080    0.290700   -1.359240
  C      2.388380    1.093670   -2.597110
  H      3.763420    0.674720   -0.999890
  H      2.094790    0.461220   -0.545760
  H      1.940470   -1.716530   -1.441160
  H      3.558570   -1.663430   -0.766370
  H      3.088940    0.919650   -3.386940
  H      2.373010    2.136330   -2.357280
  H      1.413030    0.785510   -2.911150

 Total Charge           Charge          ....    1
 Multiplicity           Mult            ....    1
 Number of Electrons    NEL             ....   48
 Basis Dimension        Dim             ....  208

ORBITAL ENERGIES
----------------

  NO   OCC          E(Eh)            E(eV)
   0   2.0000     -14.270714      -388.3259
   1   2.0000     -14.265293      -388.1784
   2   2.0000     -10.235113      -278.5116
   3   2.0000     -10.118414      -275.3360
   4   2.0000     -10.089449      -274.5479
   5   2.0000     -10.059611      -273.7359
   6   2.0000      -1.110319       -30.2133
   7   2.0000      -1.018252       -27.7080
   8   2.0000      -0.890694       -24.2370
   9   2.0000      -0.814028       -22.1508
  10   2.0000      -0.769209       -20.9313
  11   2.0000      -0.720998       -19.6194
  12   2.0000      -0.711200       -19.3527
  13   2.0000      -0.671667       -18.2770
  14   2.0000      -0.645701       -17.5704
  15   2.0000      -0.609872       -16.5955
  16   2.0000      -0.578733       -15.7481
  17   2.0000      -0.545197       -14.8356
  18   2.0000      -0.528468       -14.3803
  19   2.0000      -0.517550       -14.0833
  20   2.0000      -0.469485       -12.7753
  21   2.0000      -0.464517       -12.6401
  22   2.0000      -0.456383       -12.4188
  23   2.0000      -0.448788       -12.2121
  24   0.0000      -0.250577        -6.8186
  25   0.0000      -0.182493        -4.9659
  26   0.0000      -0.144347        -3.9279
  27   0.0000      -0.141610        -3.8534
  28   0.0000      -0.109103        -2.9689

MULLIKEN ATOMIC CHARGES
-----------------------
   0 C :    0.628414
   1 C :    0.082705
   2 N :    0.378598
   3 N :    0.357395
   4 H :   -0.016775
   5 H :   -0.166637
   6 H :   -0.010665
   7 H :   -0.103044
   8 C :   -0.107981
   9 C :    1.212060
  10 H :   -0.121425
  11 H :   -0.341088
  12 H :   -0.061230
  13 H :   -0.142516
  14 H :   -0.207483
  15 H :   -0.244799
  16 H :   -0.135530
Sum of atomic charges:    1.0000000

LOEWDIN ATOMIC CHARGES
----------------------
   0 C :    0.065361
   1 C :   -0.084748
   2 N :    0.307309
   3 N :    0.309593
   4 H :    0.051767
   5 H :    0.044495
   6 H :    0.049635
   7 H :    0.042475
   8 C :   -0.024943
   9 C :    0.157523
  10 H :    0.021589
  11 H :    0.034914
  12 H :    0.030845
  13 H :    0.048759
  14 H :   -0.042175
  15 H :   -0.001417
  16 H :   -0.010982

  Mayer bond orders larger than 0.100000
B(  0-C ,  1-C ) :   1.2177 B(  0-C ,  8-C ) :   1.1896 B(  0-C , 10-H ) :   0.1236
B(  0-C , 11-H ) :   0.1594 B(  0-C , 12-H ) :   0.6717 B(  0-C , 13-H ) :   0.6247
B(  1-C ,  2-N ) :   1.2443 B(  1-C ,  3-N ) :   1.1759 B(  1-C , 12-H ) :   0.2218
B(  1-C , 13-H ) :   0.2398 B(  2-N ,  3-N ) :   0.2001 B(  2-N ,  6-H ) :   0.9944
B(  2-N ,  7-H ) :   1.0993 B(  3-N ,  4-H ) :   1.0405 B(  3-N ,  5-H ) :   1.1541
B(  4-H ,  5-H ) :  -0.1450 B(  6-H ,  7-H ) :  -0.1266 B(  8-C ,  9-C ) :   1.3268
B(  8-C , 10-H ) :   0.8092 B(  8-C , 11-H ) :   0.8495 B(  8-C , 12-H ) :   0.1906
B(  8-C , 13-H ) :   0.1299 B(  8-C , 14-H ) :   0.2972 B(  8-C , 15-H ) :   0.2957
B(  8-C , 16-H ) :   0.2496 B(  9-C , 14-H ) :   0.7008 B(  9-C , 15-H ) :   0.6051
B(  9-C , 16-H ) :   0.6679 B( 14-H , 16-H ) :   0.1056

Dispersion correction           -0.028466502
FINAL SINGLE POINT ENERGY      -268.046879687960

DIPOLE MOMENT
-------------
                                X             Y             Z
Electronic contribution:      2.04372      -4.55725      -1.88034
Nuclear contribution   :     -1.81078       3.96608       0.97433
                        -----------------------------------------
Total Dipole Moment    :      0.23294      -0.59117      -0.90601
                        -----------------------------------------
Magnitude (a.u.)       :      1.10661
Magnitude (Debye)      :      2.81279

Rotational constants in cm-1:     0.170042     0.080945     0.078209
Rotational constants in MHz :  5097.737821  2426.678005  2344.636232

                             ****ORCA TERMINATED NORMALLY****
TOTAL RUN TIME: 0 days 0 hours 0 minutes 5 seconds 715 msec
