                         Program Version 5.0.0 -  RELEASE  -
|  1> !BLYP D3BJ RIJCOSX def2-SVPD def2/J TightSCF
|  2> *xyz 0 1
|  3> C          0.70466        1.44313       -4.50363
|  4> C          1.72854        1.42432       -5.63944
|  5> H          2.64672        1.95379       -5.38105
|  6> H          1.29992        1.93061       -6.50361
|  7> S          2.25263       -0.18811       -6.27184
|  8> F          3.56261       -0.44446       -5.63155
|  9> O          2.34494       -0.03374       -7.69650
| 10> C          1.05255        0.69566       -3.21491
| 11> H         -0.23248        1.03293       -4.88445
| 12> H          0.51170        2.49579       -4.26797
| 13> O          1.26606       -1.15918       -5.80536
| 14> H          1.24200       -0.33323       -3.43942
| 15> H          0.23391        0.76629       -2.52954
| 16> H          1.92506        1.13113       -2.77446
| 17> *
| 18>
| 19> %MaxCore 64000
| 20>
| 21> %pal nprocs 8
| 22> end
| 23>
| 24> %scf
| 25>   MaxIter 150
| 26> end
| 27>
| 28>
| 29>                          ****END OF INPUT****

CARTESIAN COORDINATES (ANGSTROEM)
---------------------------------
  C      0.704660    1.443130   -4.503630
  C      1.728540    1.424320   -5.639440
  H      2.646720    1.953790   -5.381050
  H      1.299920    1.930610   -6.503610
  S      2.252630   -0.188110   -6.271840
  F      3.562610   -0.444460   -5.631550
  O      2.344940   -0.033740   -7.696500
  C      1.052550    0.695660   -3.214910
  H     -0.232480    1.032930   -4.884450
  H      0.511700    2.495790   -4.267970
  O      1.266060   -1.159180   -5.805360
  H      1.242000   -0.333230   -3.439420
  H      0.233910    0.766290   -2.529540
  H      1.925060    1.131130   -2.774460

 Total Charge           Charge          ....    0
 Multiplicity           Mult            ....    1
 Number of Electrons    NEL             ....   66
 Basis Dimension        Dim             ....  212

ORBITAL ENERGIES
----------------

  NO   OCC          E(Eh)            E(eV)
   0   2.0000     -88.380349     -2404.9515
   1   2.0000     -24.398504      -663.9171
   2   2.0000     -18.804467      -511.6956
   3   2.0000     -18.797408      -511.5035
   4   2.0000      -9.980670      -271.5878
   5   2.0000      -9.950798      -270.7750
   6   2.0000      -9.921901      -269.9886
   7   2.0000      -7.917940      -215.4581
   8   2.0000      -5.957143      -162.1021
   9   2.0000      -5.950948      -161.9335
  10   2.0000      -5.949338      -161.8897
  11   2.0000      -1.232610       -33.5410
  12   2.0000      -1.018359       -27.7110
  13   2.0000      -0.925739       -25.1906
  14   2.0000      -0.745861       -20.2959
  15   2.0000      -0.674115       -18.3436
  16   2.0000      -0.627928       -17.0868
  17   2.0000      -0.566388       -15.4122
  18   2.0000      -0.505092       -13.7442
  19   2.0000      -0.495574       -13.4853
  20   2.0000      -0.488024       -13.2798
  21   2.0000      -0.441694       -12.0191
  22   2.0000      -0.427475       -11.6322
  23   2.0000      -0.401945       -10.9375
  24   2.0000      -0.395181       -10.7534
  25   2.0000      -0.387335       -10.5399
  26   2.0000      -0.343250        -9.3403
  27   2.0000      -0.337624        -9.1872
  28   2.0000      -0.327316        -8.9067
  29   2.0000      -0.317134        -8.6297
  30   2.0000      -0.287184        -7.8147
  31   2.0000      -0.283361        -7.7106
  32   2.0000      -0.267696        -7.2844
  33   0.0000      -0.023782        -0.6471
  34   0.0000      -0.008296        -0.2257
  35   0.0000       0.011363         0.3092
  36   0.0000       0.017911         0.4874
  37   0.0000       0.026670         0.7257

MULLIKEN ATOMIC CHARGES
-----------------------
   0 C :    0.052191
   1 C :    0.297483
   2 H :   -0.115471
   3 H :   -0.122772
   4 S :    1.293237
   5 F :   -0.361903
   6 O :   -0.592710
   7 C :    1.207097
   8 H :   -0.127794
   9 H :   -0.280141
  10 O :   -0.643673
  11 H :   -0.297211
  12 H :   -0.164345
  13 H :   -0.143987
Sum of atomic charges:    0.0000000

LOEWDIN ATOMIC CHARGES
----------------------
   0 C :   -0.064802
   1 C :   -0.037577
   2 H :    0.013879
   3 H :    0.017974
   4 S :    1.084280
   5 F :   -0.263307
   6 O :   -0.438659
   7 C :    0.152738
   8 H :    0.025824
   9 H :    0.026116
  10 O :   -0.447207
  11 H :   -0.035481
  12 H :   -0.015294
  13 H :   -0.018482

  Mayer bond orders larger than 0.100000
B(  0-C ,  1-C ) :   1.3066 B(  0-C ,  2-H ) :   0.1641 B(  0-C ,  3-H ) :   0.1742
B(  0-C ,  7-C ) :   1.2934 B(  0-C ,  8-H ) :   0.7971 B(  0-C ,  9-H ) :   0.7202
B(  0-C , 11-H ) :   0.2650 B(  0-C , 12-H ) :   0.2870 B(  0-C , 13-H ) :   0.2736
B(  1-C ,  2-H ) :   0.8307 B(  1-C ,  3-H ) :   0.8130 B(  1-C ,  4-S ) :   0.9047
B(  1-C ,  8-H ) :   0.1840 B(  1-C ,  9-H ) :   0.2161 B(  4-S ,  5-F ) :   0.6695
B(  4-S ,  6-O ) :   1.6055 B(  4-S , 10-O ) :   1.5135 B(  6-O , 10-O ) :   0.1110
B(  7-C ,  8-H ) :   0.1134 B(  7-C , 11-H ) :   0.6969 B(  7-C , 12-H ) :   0.6115
B(  7-C , 13-H ) :   0.6611

Dispersion correction           -0.026534614
FINAL SINGLE POINT ENERGY      -766.483574509095

DIPOLE MOMENT
-------------
                                X             Y             Z
Electronic contribution:      7.34490      -6.73747      -8.24323
Nuclear contribution   :     -7.21372       8.00417       9.21533
                        -----------------------------------------
Total Dipole Moment    :      0.13118       1.26669       0.97211
                        -----------------------------------------
Magnitude (a.u.)       :      1.60210
Magnitude (Debye)      :      4.07220

Rotational constants in cm-1:     0.129205     0.053290     0.050128
Rotational constants in MHz :  3873.458819  1597.595736  1502.810344

                             ****ORCA TERMINATED NORMALLY****
TOTAL RUN TIME: 0 days 0 hours 0 minutes 5 seconds 410 msec
