                         Program Version 5.0.0 -  RELEASE  -
|  1> !BLYP D3BJ RIJCOSX def2-SVPD def2/J TightSCF
|  2> *xyz 0 1
|  3> C          2.91632       -1.24259       -1.54313
|  4> C          3.46659       -1.59097       -2.88908
|  5> C          4.65227       -1.14316       -3.25969
|  6> N          2.75226       -2.29204       -3.72803
|  7> H          1.77836       -2.48960       -3.51274
|  8> H          2.94861       -2.20854       -4.71681
|  9> H          5.14672       -0.51251       -2.63385
| 10> H          4.78303       -1.00720       -4.25350
| 11> C          2.80408        0.29070       -1.35924
| 12> C          2.38838        1.09367       -2.59711
| 13> H          3.76342        0.67472       -0.99989
| 14> H          2.09479        0.46122       -0.54576
| 15> H          1.94047       -1.71653       -1.44116
| 16> H          3.55857       -1.66343       -0.76637
| 17> H          3.08894        0.91965       -3.38694
| 18> H          2.37301        2.13633       -2.35728
| 19> H          1.41303        0.78551       -2.91115
| 20> *
| 21>
| 22> %MaxCore 64000
| 23>
| 24> %pal nprocs 8
| 25> end
| 26>
| 27> %scf
| 28>   MaxIter 150
| 29> end
| 30>
| 31>
| 32>                          ****END OF INPUT****

CARTESIAN COORDINATES (ANGSTROEM)
---------------------------------
  C      2.916320   -1.242590   -1.543130
  C      3.466590   -1.590970   -2.889080
  C      4.652270   -1.143160   -3.259690
  N      2.752260   -2.292040   -3.728030
  H      1.778360   -2.489600   -3.512740
  H      2.948610   -2.208540   -4.716810
  H      5.146720   -0.512510   -2.633850
  H      4.783030   -1.007200   -4.253500
  C      2.804080    0.290700   -1.359240
  C      2.388380    1.093670   -2.597110
  H      3.763420    0.674720   -0.999890
  H      2.094790    0.461220   -0.545760
  H      1.940470   -1.716530   -1.441160
  H      3.558570   -1.663430   -0.766370
  H      3.088940    0.919650   -3.386940
  H      2.373010    2.136330   -2.357280
  H      1.413030    0.785510   -2.911150

 Total Charge           Charge          ....    0
 Multiplicity           Mult            ....    1
 Number of Electrons    NEL             ....   48
 Basis Dimension        Dim             ....  208

ORBITAL ENERGIES
----------------

  NO   OCC          E(Eh)            E(eV)
   0   2.0000     -14.030731      -381.7956
   1   2.0000      -9.938778      -270.4479
   2   2.0000      -9.923083      -270.0208
   3   2.0000      -9.919830      -269.9323
   4   2.0000      -9.901870      -269.4436
   5   2.0000      -9.853587      -268.1297
   6   2.0000      -0.843712       -22.9586
   7   2.0000      -0.708935       -19.2911
   8   2.0000      -0.647152       -17.6099
   9   2.0000      -0.611003       -16.6262
  10   2.0000      -0.539195       -14.6722
  11   2.0000      -0.499100       -13.5812
  12   2.0000      -0.464192       -12.6313
  13   2.0000      -0.427230       -11.6255
  14   2.0000      -0.402550       -10.9539
  15   2.0000      -0.383651       -10.4397
  16   2.0000      -0.353735        -9.6256
  17   2.0000      -0.340752        -9.2723
  18   2.0000      -0.320345        -8.7170
  19   2.0000      -0.317000        -8.6260
  20   2.0000      -0.293527        -7.9873
  21   2.0000      -0.283408        -7.7119
  22   2.0000      -0.279417        -7.6033
  23   2.0000      -0.156074        -4.2470
  24   0.0000      -0.005297        -0.1441
  25   0.0000       0.000493         0.0134
  26   0.0000       0.024734         0.6731
  27   0.0000       0.033866         0.9215
  28   0.0000       0.041783         1.1370

MULLIKEN ATOMIC CHARGES
-----------------------
   0 C :    0.831431
   1 C :   -0.498747
   2 C :    0.768201
   3 N :    0.410662
   4 H :   -0.144071
   5 H :   -0.176503
   6 H :   -0.247568
   7 H :   -0.515415
   8 C :   -0.148740
   9 C :    1.236138
  10 H :   -0.129033
  11 H :   -0.372708
  12 H :   -0.162250
  13 H :   -0.191081
  14 H :   -0.213280
  15 H :   -0.299929
  16 H :   -0.147108
Sum of atomic charges:   -0.0000000

LOEWDIN ATOMIC CHARGES
----------------------
   0 C :    0.026010
   1 C :   -0.275270
   2 C :    0.173974
   3 N :    0.198599
   4 H :   -0.005178
   5 H :    0.002774
   6 H :   -0.081389
   7 H :   -0.089295
   8 C :   -0.047702
   9 C :    0.141000
  10 H :    0.011202
  11 H :    0.007904
  12 H :    0.003502
  13 H :    0.022845
  14 H :   -0.039545
  15 H :   -0.025097
  16 H :   -0.024333

  Mayer bond orders larger than 0.100000
B(  0-C ,  1-C ) :   1.2149 B(  0-C ,  8-C ) :   1.1794 B(  0-C , 10-H ) :   0.1181
B(  0-C , 11-H ) :   0.2350 B(  0-C , 12-H ) :   0.4670 B(  0-C , 13-H ) :   0.6309
B(  1-C ,  2-C ) :   1.9837 B(  1-C ,  3-N ) :   1.1434 B(  1-C ,  6-H ) :   0.2321
B(  1-C ,  7-H ) :   0.3347 B(  1-C ,  8-C ) :   0.1128 B(  1-C , 12-H ) :   0.3606
B(  1-C , 13-H ) :   0.2152 B(  2-C ,  3-N ) :   0.2875 B(  2-C ,  6-H ) :   0.5516
B(  2-C ,  7-H ) :   0.5465 B(  3-N ,  4-H ) :   1.0232 B(  3-N ,  5-H ) :   1.0315
B(  4-H ,  5-H ) :  -0.1313 B(  8-C ,  9-C ) :   1.2792 B(  8-C , 10-H ) :   0.8068
B(  8-C , 11-H ) :   0.8010 B(  8-C , 12-H ) :   0.2068 B(  8-C , 13-H ) :   0.1529
B(  8-C , 14-H ) :   0.3377 B(  8-C , 15-H ) :   0.3122 B(  8-C , 16-H ) :   0.2706
B(  9-C , 10-H ) :   0.1173 B(  9-C , 11-H ) :   0.1054 B(  9-C , 14-H ) :   0.6919
B(  9-C , 15-H ) :   0.5838 B(  9-C , 16-H ) :   0.6519 B( 14-H , 16-H ) :   0.1124

Dispersion correction           -0.029548370
FINAL SINGLE POINT ENERGY      -251.575308981478

DIPOLE MOMENT
-------------
                                X             Y             Z
Electronic contribution:      0.60872      -3.84141      -0.95113
Nuclear contribution   :     -1.45921       3.88617       0.81775
                        -----------------------------------------
Total Dipole Moment    :     -0.85049       0.04475      -0.13338
                        -----------------------------------------
Magnitude (a.u.)       :      0.86205
Magnitude (Debye)      :      2.19115

Rotational constants in cm-1:     0.176264     0.082132     0.079980
Rotational constants in MHz :  5284.261828  2462.256672  2397.741351

                             ****ORCA TERMINATED NORMALLY****
TOTAL RUN TIME: 0 days 0 hours 0 minutes 5 seconds 842 msec
