                         Program Version 5.0.0 -  RELEASE  -
|  1> !BLYP D3BJ RIJCOSX def2-SVPD def2/J TightSCF
|  2> *xyz 0 1
|  3> C          0.70466        1.44313       -4.50363
|  4> C          1.72854        1.42432       -5.63944
|  5> H          2.64672        1.95379       -5.38105
|  6> H          1.29992        1.93061       -6.50361
|  7> S          2.25263       -0.18811       -6.27184
|  8> O          3.56261       -0.44446       -5.63155
|  9> F          2.34494       -0.03374       -7.69650
| 10> C          1.05255        0.69566       -3.21491
| 11> H         -0.23248        1.03293       -4.88445
| 12> H          0.51170        2.49579       -4.26797
| 13> O          1.26606       -1.15918       -5.80536
| 14> H          1.24200       -0.33323       -3.43942
| 15> H          0.23391        0.76629       -2.52954
| 16> H          1.92506        1.13113       -2.77446
| 17> *
| 18>
| 19> %MaxCore 64000
| 20>
| 21> %pal nprocs 8
| 22> end
| 23>
| 24> %scf
| 25>   MaxIter 150
| 26> end
| 27>
| 28>
| 29>                          ****END OF INPUT****

CARTESIAN COORDINATES (ANGSTROEM)
---------------------------------
  C      0.704660    1.443130   -4.503630
  C      1.728540    1.424320   -5.639440
  H      2.646720    1.953790   -5.381050
  H      1.299920    1.930610   -6.503610
  S      2.252630   -0.188110   -6.271840
  O      3.562610   -0.444460   -5.631550
  F      2.344940   -0.033740   -7.696500
  C      1.052550    0.695660   -3.214910
  H     -0.232480    1.032930   -4.884450
  H      0.511700    2.495790   -4.267970
  O      1.266060   -1.159180   -5.805360
  H      1.242000   -0.333230   -3.439420
  H      0.233910    0.766290   -2.529540
  H      1.925060    1.131130   -2.774460

 Total Charge           Charge          ....    0
 Multiplicity           Mult            ....    1
 Number of Electrons    NEL             ....   66
 Basis Dimension        Dim             ....  212

ORBITAL ENERGIES
----------------

  NO   OCC          E(Eh)            E(eV)
   0   2.0000     -88.382540     -2405.0112
   1   2.0000     -24.420446      -664.5141
   2   2.0000     -18.798128      -511.5231
   3   2.0000     -18.789919      -511.2997
   4   2.0000      -9.981598      -271.6131
   5   2.0000      -9.951253      -270.7874
   6   2.0000      -9.915842      -269.8238
   7   2.0000      -7.920164      -215.5186
   8   2.0000      -5.959527      -162.1670
   9   2.0000      -5.953003      -161.9894
  10   2.0000      -5.951368      -161.9450
  11   2.0000      -1.269551       -34.5462
  12   2.0000      -1.005633       -27.3647
  13   2.0000      -0.906239       -24.6600
  14   2.0000      -0.745533       -20.2870
  15   2.0000      -0.680610       -18.5203
  16   2.0000      -0.637462       -17.3462
  17   2.0000      -0.569581       -15.4991
  18   2.0000      -0.522650       -14.2220
  19   2.0000      -0.516055       -14.0426
  20   2.0000      -0.490873       -13.3573
  21   2.0000      -0.437575       -11.9070
  22   2.0000      -0.429658       -11.6916
  23   2.0000      -0.405842       -11.0435
  24   2.0000      -0.392165       -10.6713
  25   2.0000      -0.374586       -10.1930
  26   2.0000      -0.338877        -9.2213
  27   2.0000      -0.330786        -9.0011
  28   2.0000      -0.324488        -8.8298
  29   2.0000      -0.312317        -8.4986
  30   2.0000      -0.281716        -7.6659
  31   2.0000      -0.272715        -7.4210
  32   2.0000      -0.253433        -6.8963
  33   0.0000      -0.026464        -0.7201
  34   0.0000      -0.011048        -0.3006
  35   0.0000       0.014174         0.3857
  36   0.0000       0.019561         0.5323
  37   0.0000       0.021380         0.5818

MULLIKEN ATOMIC CHARGES
-----------------------
   0 C :    0.016186
   1 C :    0.305310
   2 H :   -0.120193
   3 H :   -0.116603
   4 S :    1.330260
   5 O :   -0.608562
   6 F :   -0.379146
   7 C :    1.216583
   8 H :   -0.126776
   9 H :   -0.280515
  10 O :   -0.637785
  11 H :   -0.290493
  12 H :   -0.166446
  13 H :   -0.141820
Sum of atomic charges:    0.0000000

LOEWDIN ATOMIC CHARGES
----------------------
   0 C :   -0.060744
   1 C :   -0.043186
   2 H :    0.018833
   3 H :    0.005522
   4 S :    1.088308
   5 O :   -0.462954
   6 F :   -0.244394
   7 C :    0.158146
   8 H :    0.023498
   9 H :    0.027179
  10 O :   -0.449677
  11 H :   -0.029837
  12 H :   -0.016112
  13 H :   -0.014581

  Mayer bond orders larger than 0.100000
B(  0-C ,  1-C ) :   1.3137 B(  0-C ,  2-H ) :   0.1551 B(  0-C ,  3-H ) :   0.1966
B(  0-C ,  7-C ) :   1.2946 B(  0-C ,  8-H ) :   0.7964 B(  0-C ,  9-H ) :   0.7270
B(  0-C , 11-H ) :   0.2669 B(  0-C , 12-H ) :   0.2900 B(  0-C , 13-H ) :   0.2768
B(  1-C ,  2-H ) :   0.8567 B(  1-C ,  3-H ) :   0.7704 B(  1-C ,  4-S ) :   0.8942
B(  1-C ,  8-H ) :   0.1781 B(  1-C ,  9-H ) :   0.2121 B(  4-S ,  5-O ) :   1.4956
B(  4-S ,  6-F ) :   0.7450 B(  4-S , 10-O ) :   1.4854 B(  7-C ,  8-H ) :   0.1134
B(  7-C , 11-H ) :   0.7019 B(  7-C , 12-H ) :   0.6030 B(  7-C , 13-H ) :   0.6569

Dispersion correction           -0.026640432
FINAL SINGLE POINT ENERGY      -766.464587910318

DIPOLE MOMENT
-------------
                                X             Y             Z
Electronic contribution:      5.27267      -6.04781     -11.75946
Nuclear contribution   :     -5.90419       7.56246      11.43606
                        -----------------------------------------
Total Dipole Moment    :     -0.63152       1.51465      -0.32340
                        -----------------------------------------
Magnitude (a.u.)       :      1.67259
Magnitude (Debye)      :      4.25138

Rotational constants in cm-1:     0.133686     0.052402     0.049175
Rotational constants in MHz :  4007.807944  1570.986792  1474.216272

                             ****ORCA TERMINATED NORMALLY****
TOTAL RUN TIME: 0 days 0 hours 0 minutes 5 seconds 825 msec
