                         Program Version 5.0.0 -  RELEASE  -
|  1> !BLYP D3BJ RIJCOSX def2-SVPD def2/J TightSCF
|  2> *xyz 0 1
|  3> C          2.91632       -1.24259       -1.54313
|  4> C          3.46659       -1.59097       -2.88908
|  5> N          4.65227       -1.14316       -3.25969
|  6> C          2.75226       -2.29204       -3.72803
|  7> H          1.77836       -2.48960       -3.51274
|  8> H          2.94861       -2.20854       -4.71681
|  9> H          5.14672       -0.51251       -2.63385
| 10> H          4.78303       -1.00720       -4.25350
| 11> C          2.80408        0.29070       -1.35924
| 12> C          2.38838        1.09367       -2.59711
| 13> H          3.76342        0.67472       -0.99989
| 14> H          2.09479        0.46122       -0.54576
| 15> H          1.94047       -1.71653       -1.44116
| 16> H          3.55857       -1.66343       -0.76637
| 17> H          3.08894        0.91965       -3.38694
| 18> H          2.37301        2.13633       -2.35728
| 19> H          1.41303        0.78551       -2.91115
| 20> *
| 21>
| 22> %MaxCore 64000
| 23>
| 24> %pal nprocs 8
| 25> end
| 26>
| 27> %scf
| 28>   MaxIter 150
| 29> end
| 30>
| 31>
| 32>                          ****END OF INPUT****

CARTESIAN COORDINATES (ANGSTROEM)
---------------------------------
  C      2.916320   -1.242590   -1.543130
  C      3.466590   -1.590970   -2.889080
  N      4.652270   -1.143160   -3.259690
  C      2.752260   -2.292040   -3.728030
  H      1.778360   -2.489600   -3.512740
  H      2.948610   -2.208540   -4.716810
  H      5.146720   -0.512510   -2.633850
  H      4.783030   -1.007200   -4.253500
  C      2.804080    0.290700   -1.359240
  C      2.388380    1.093670   -2.597110
  H      3.763420    0.674720   -0.999890
  H      2.094790    0.461220   -0.545760
  H      1.940470   -1.716530   -1.441160
  H      3.558570   -1.663430   -0.766370
  H      3.088940    0.919650   -3.386940
  H      2.373010    2.136330   -2.357280
  H      1.413030    0.785510   -2.911150

 Total Charge           Charge          ....    0
 Multiplicity           Mult            ....    1
 Number of Electrons    NEL             ....   48
 Basis Dimension        Dim             ....  208

ORBITAL ENERGIES
----------------

  NO   OCC          E(Eh)            E(eV)
   0   2.0000     -14.026914      -381.6917
   1   2.0000      -9.937585      -270.4154
   2   2.0000      -9.923921      -270.0436
   3   2.0000      -9.920854      -269.9602
   4   2.0000      -9.906412      -269.5672
   5   2.0000      -9.857328      -268.2315
   6   2.0000      -0.839322       -22.8391
   7   2.0000      -0.707110       -19.2414
   8   2.0000      -0.656184       -17.8557
   9   2.0000      -0.609273       -16.5792
  10   2.0000      -0.533250       -14.5105
  11   2.0000      -0.501042       -13.6340
  12   2.0000      -0.470342       -12.7987
  13   2.0000      -0.413821       -11.2606
  14   2.0000      -0.406034       -11.0487
  15   2.0000      -0.399111       -10.8604
  16   2.0000      -0.347064        -9.4441
  17   2.0000      -0.343729        -9.3533
  18   2.0000      -0.328608        -8.9419
  19   2.0000      -0.317639        -8.6434
  20   2.0000      -0.291469        -7.9313
  21   2.0000      -0.287032        -7.8105
  22   2.0000      -0.273706        -7.4479
  23   2.0000      -0.163078        -4.4376
  24   0.0000      -0.008820        -0.2400
  25   0.0000       0.002486         0.0677
  26   0.0000       0.031022         0.8441
  27   0.0000       0.033629         0.9151
  28   0.0000       0.039561         1.0765

MULLIKEN ATOMIC CHARGES
-----------------------
   0 C :    0.658127
   1 C :   -0.502275
   2 N :    0.472623
   3 C :    0.551030
   4 H :   -0.160542
   5 H :   -0.574432
   6 H :   -0.108604
   7 H :   -0.121402
   8 C :   -0.116199
   9 C :    1.232519
  10 H :   -0.135584
  11 H :   -0.360514
  12 H :    0.028381
  13 H :   -0.209038
  14 H :   -0.248101
  15 H :   -0.210969
  16 H :   -0.195019
Sum of atomic charges:   -0.0000000

LOEWDIN ATOMIC CHARGES
----------------------
   0 C :    0.023937
   1 C :   -0.283705
   2 N :    0.198738
   3 C :    0.185673
   4 H :   -0.083928
   5 H :   -0.088208
   6 H :   -0.002316
   7 H :    0.002481
   8 C :   -0.051353
   9 C :    0.139619
  10 H :    0.003563
  11 H :    0.009839
  12 H :    0.015771
  13 H :    0.016221
  14 H :   -0.042363
  15 H :   -0.024744
  16 H :   -0.019224

  Mayer bond orders larger than 0.100000
B(  0-C ,  1-C ) :   1.3648 B(  0-C ,  3-C ) :   0.1091 B(  0-C ,  8-C ) :   1.1467
B(  0-C , 10-H ) :   0.1634 B(  0-C , 11-H ) :   0.2176 B(  0-C , 12-H ) :   0.7108
B(  0-C , 13-H ) :   0.5647 B(  1-C ,  2-N ) :   1.1413 B(  1-C ,  3-C ) :   1.8995
B(  1-C ,  4-H ) :   0.1211 B(  1-C ,  5-H ) :   0.4092 B(  1-C ,  6-H ) :   0.1072
B(  1-C ,  8-C ) :   0.1864 B(  1-C , 12-H ) :   0.1564 B(  1-C , 13-H ) :   0.3171
B(  2-N ,  3-C ) :   0.3856 B(  2-N ,  6-H ) :   0.9478 B(  2-N ,  7-H ) :   0.9331
B(  3-C ,  4-H ) :   0.7865 B(  3-C ,  5-H ) :   0.4745 B(  6-H ,  7-H ) :  -0.1204
B(  8-C ,  9-C ) :   1.2971 B(  8-C , 10-H ) :   0.7889 B(  8-C , 11-H ) :   0.8261
B(  8-C , 12-H ) :   0.2076 B(  8-C , 13-H ) :   0.1266 B(  8-C , 14-H ) :   0.3092
B(  8-C , 15-H ) :   0.2972 B(  8-C , 16-H ) :   0.2536 B(  9-C , 10-H ) :   0.1157
B(  9-C , 11-H ) :   0.1035 B(  9-C , 14-H ) :   0.6995 B(  9-C , 15-H ) :   0.5734
B(  9-C , 16-H ) :   0.6621 B( 14-H , 16-H ) :   0.1345

Dispersion correction           -0.029459820
FINAL SINGLE POINT ENERGY      -251.578572620500

DIPOLE MOMENT
-------------
                                X             Y             Z
Electronic contribution:      2.21007      -2.85111      -0.55558
Nuclear contribution   :     -1.90863       3.61442       0.70697
                        -----------------------------------------
Total Dipole Moment    :      0.30144       0.76331       0.15139
                        -----------------------------------------
Magnitude (a.u.)       :      0.83452
Magnitude (Debye)      :      2.12119

Rotational constants in cm-1:     0.173428     0.083686     0.080523
Rotational constants in MHz :  5199.232598  2508.829970  2414.016775

                             ****ORCA TERMINATED NORMALLY****
TOTAL RUN TIME: 0 days 0 hours 0 minutes 5 seconds 762 msec
