                         Program Version 5.0.0 -  RELEASE  -
|  1> !BLYP D3BJ RIJCOSX def2-SVPD def2/J TightSCF
|  2> *xyz 0 1
|  3> C          0.70466        1.44313       -4.50363
|  4> C          1.72854        1.42432       -5.63944
|  5> H          2.64672        1.95379       -5.38105
|  6> H          1.29992        1.93061       -6.50361
|  7> S          2.25263       -0.18811       -6.27184
|  8> O          3.56261       -0.44446       -5.63155
|  9> O          2.34494       -0.03374       -7.69650
| 10> C          1.05255        0.69566       -3.21491
| 11> H         -0.23248        1.03293       -4.88445
| 12> H          0.51170        2.49579       -4.26797
| 13> F          1.26606       -1.15918       -5.80536
| 14> H          1.24200       -0.33323       -3.43942
| 15> H          0.23391        0.76629       -2.52954
| 16> H          1.92506        1.13113       -2.77446
| 17> *
| 18>
| 19> %MaxCore 64000
| 20>
| 21> %pal nprocs 8
| 22> end
| 23>
| 24> %scf
| 25>   MaxIter 150
| 26> end
| 27>
| 28>
| 29>                          ****END OF INPUT****

CARTESIAN COORDINATES (ANGSTROEM)
---------------------------------
  C      0.704660    1.443130   -4.503630
  C      1.728540    1.424320   -5.639440
  H      2.646720    1.953790   -5.381050
  H      1.299920    1.930610   -6.503610
  S      2.252630   -0.188110   -6.271840
  O      3.562610   -0.444460   -5.631550
  O      2.344940   -0.033740   -7.696500
  C      1.052550    0.695660   -3.214910
  H     -0.232480    1.032930   -4.884450
  H      0.511700    2.495790   -4.267970
  F      1.266060   -1.159180   -5.805360
  H      1.242000   -0.333230   -3.439420
  H      0.233910    0.766290   -2.529540
  H      1.925060    1.131130   -2.774460

 Total Charge           Charge          ....    0
 Multiplicity           Mult            ....    1
 Number of Electrons    NEL             ....   66
 Basis Dimension        Dim             ....  212

ORBITAL ENERGIES
----------------

  NO   OCC          E(Eh)            E(eV)
   0   2.0000     -88.380592     -2404.9582
   1   2.0000     -24.408999      -664.2026
   2   2.0000     -18.804097      -511.6855
   3   2.0000     -18.788612      -511.2641
   4   2.0000      -9.980353      -271.5792
   5   2.0000      -9.957592      -270.9598
   6   2.0000      -9.929620      -270.1987
   7   2.0000      -7.918203      -215.4653
   8   2.0000      -5.957594      -162.1144
   9   2.0000      -5.951106      -161.9378
  10   2.0000      -5.949440      -161.8925
  11   2.0000      -1.249130       -33.9905
  12   2.0000      -1.014062       -27.5940
  13   2.0000      -0.913313       -24.8525
  14   2.0000      -0.750366       -20.4185
  15   2.0000      -0.677028       -18.4229
  16   2.0000      -0.635951       -17.3051
  17   2.0000      -0.573082       -15.5944
  18   2.0000      -0.521092       -14.1796
  19   2.0000      -0.508239       -13.8299
  20   2.0000      -0.480282       -13.0691
  21   2.0000      -0.441036       -12.0012
  22   2.0000      -0.426200       -11.5975
  23   2.0000      -0.412978       -11.2377
  24   2.0000      -0.395876       -10.7723
  25   2.0000      -0.384723       -10.4689
  26   2.0000      -0.346790        -9.4366
  27   2.0000      -0.339297        -9.2328
  28   2.0000      -0.333964        -9.0876
  29   2.0000      -0.322165        -8.7666
  30   2.0000      -0.286228        -7.7887
  31   2.0000      -0.272458        -7.4140
  32   2.0000      -0.258696        -7.0395
  33   0.0000      -0.033332        -0.9070
  34   0.0000       0.000731         0.0199
  35   0.0000       0.013009         0.3540
  36   0.0000       0.018266         0.4970
  37   0.0000       0.019879         0.5409

MULLIKEN ATOMIC CHARGES
-----------------------
   0 C :    0.026825
   1 C :    0.336595
   2 H :   -0.125373
   3 H :   -0.118191
   4 S :    1.265969
   5 O :   -0.611965
   6 O :   -0.587252
   7 C :    1.226045
   8 H :   -0.154409
   9 H :   -0.268394
  10 F :   -0.383846
  11 H :   -0.305930
  12 H :   -0.160304
  13 H :   -0.139772
Sum of atomic charges:   -0.0000000

LOEWDIN ATOMIC CHARGES
----------------------
   0 C :   -0.072617
   1 C :   -0.032305
   2 H :    0.026988
   3 H :    0.012904
   4 S :    1.080330
   5 O :   -0.464375
   6 O :   -0.438458
   7 C :    0.154011
   8 H :    0.019891
   9 H :    0.026474
  10 F :   -0.253622
  11 H :   -0.032858
  12 H :   -0.015248
  13 H :   -0.011116

  Mayer bond orders larger than 0.100000
B(  0-C ,  1-C ) :   1.2743 B(  0-C ,  2-H ) :   0.1592 B(  0-C ,  3-H ) :   0.1838
B(  0-C ,  7-C ) :   1.2964 B(  0-C ,  8-H ) :   0.8012 B(  0-C ,  9-H ) :   0.7286
B(  0-C , 11-H ) :   0.2677 B(  0-C , 12-H ) :   0.2888 B(  0-C , 13-H ) :   0.2791
B(  1-C ,  2-H ) :   0.8400 B(  1-C ,  3-H ) :   0.8119 B(  1-C ,  4-S ) :   0.9152
B(  1-C ,  8-H ) :   0.1712 B(  1-C ,  9-H ) :   0.2106 B(  4-S ,  5-O ) :   1.5066
B(  4-S ,  6-O ) :   1.5980 B(  4-S , 10-F ) :   0.6967 B(  5-O ,  6-O ) :   0.1052
B(  7-C ,  8-H ) :   0.1053 B(  7-C , 11-H ) :   0.6906 B(  7-C , 12-H ) :   0.6030
B(  7-C , 13-H ) :   0.6597 B( 11-H , 13-H ) :   0.1055

Dispersion correction           -0.026388788
FINAL SINGLE POINT ENERGY      -766.473528513316

DIPOLE MOMENT
-------------
                                X             Y             Z
Electronic contribution:      3.44166      -7.88801      -8.50591
Nuclear contribution   :     -4.74391       8.77281       9.40225
                        -----------------------------------------
Total Dipole Moment    :     -1.30225       0.88479       0.89635
                        -----------------------------------------
Magnitude (a.u.)       :      1.81167
Magnitude (Debye)      :      4.60490

Rotational constants in cm-1:     0.129476     0.053470     0.050698
Rotational constants in MHz :  3881.594668  1602.990831  1519.898630

                             ****ORCA TERMINATED NORMALLY****
TOTAL RUN TIME: 0 days 0 hours 0 minutes 5 seconds 560 msec
