                         Program Version 5.0.0 -  RELEASE  -
|  1> !BLYP D3BJ RIJCOSX def2-SVPD def2/J TightSCF xyzfile
|  2>
|  3> *xyzfile 0 1 D3.xyz
|  4>
|  5> %MaxCore 64000
|  6>
|  7> %pal nprocs 4
|  8> end
|  9>
| 10> %scf
| 11>   MaxIter 150
| 12> end
| 13>
| 14>
| 15>                          ****END OF INPUT****

CARTESIAN COORDINATES (ANGSTROEM)
---------------------------------
  C      2.916324   -1.242589   -1.543125
  C      0.704661    1.443129   -4.503630
  C      1.728539    1.424320   -5.639443
  H      2.646718    1.953794   -5.381054
  H      1.299916    1.930613   -6.503614
  S      2.252625   -0.188115   -6.271840
  C      3.466585   -1.590971   -2.889082
  C      4.652275   -1.143164   -3.259692
  N      2.752264   -2.292043   -3.728029
  H      1.778364   -2.489604   -3.512738
  H      2.948612   -2.208544   -4.716813
  H      5.146723   -0.512508   -2.633852
  H      4.783030   -1.007203   -4.253498
  O      3.562607   -0.444464   -5.631552
  F      2.344944   -0.033742   -7.696501
  C      2.804084    0.290698   -1.359243
  C      1.052550    0.695659   -3.214915
  H     -0.232483    1.032925   -4.884449
  H      0.511700    2.495794   -4.267966
  C      2.388380    1.093669   -2.597108
  H      3.763425    0.674718   -0.999889
  H      2.094788    0.461222   -0.545756
  O      1.266058   -1.159177   -5.805365
  H      3.167316    1.013242   -3.359430
  H      2.357690    2.149375   -2.310997
  H      1.039284   -0.368429   -3.449329
  H      0.250787    0.865605   -2.488283
  H      1.940472   -1.716529   -1.441161
  H      3.558569   -1.663433   -0.766371

 Total Charge           Charge          ....    0
 Multiplicity           Mult            ....    1
 Number of Electrons    NEL             ....  112
 Basis Dimension        Dim             ....  404

ORBITAL ENERGIES
----------------

  NO   OCC          E(Eh)            E(eV)
   0   2.0000     -88.395571     -2405.3658
   1   2.0000     -24.430285      -664.7819
   2   2.0000     -18.811872      -511.8971
   3   2.0000     -18.802816      -511.6506
   4   2.0000     -13.999016      -380.9326
   5   2.0000      -9.987811      -271.7821
   6   2.0000      -9.953220      -270.8409
   7   2.0000      -9.923707      -270.0378
   8   2.0000      -9.915216      -269.8067
   9   2.0000      -9.914634      -269.7909
  10   2.0000      -9.913564      -269.7618
  11   2.0000      -9.910192      -269.6700
  12   2.0000      -9.826352      -267.3886
  13   2.0000      -7.932234      -215.8471
  14   2.0000      -5.971633      -162.4964
  15   2.0000      -5.965286      -162.3237
  16   2.0000      -5.963347      -162.2709
  17   2.0000      -1.278890       -34.8004
  18   2.0000      -1.021120       -27.7861
  19   2.0000      -0.921916       -25.0866
  20   2.0000      -0.817807       -22.2537
  21   2.0000      -0.755987       -20.5714
  22   2.0000      -0.712510       -19.3884
  23   2.0000      -0.684595       -18.6288
  24   2.0000      -0.652601       -17.7582
  25   2.0000      -0.622700       -16.9445
  26   2.0000      -0.598493       -16.2858
  27   2.0000      -0.565983       -15.4012
  28   2.0000      -0.534701       -14.5500
  29   2.0000      -0.529875       -14.4186
  30   2.0000      -0.507724       -13.8159
  31   2.0000      -0.501318       -13.6415
  32   2.0000      -0.476298       -12.9607
  33   2.0000      -0.449392       -12.2286
  34   2.0000      -0.443125       -12.0581
  35   2.0000      -0.440062       -11.9747
  36   2.0000      -0.423382       -11.5208
  37   2.0000      -0.415846       -11.3157
  38   2.0000      -0.397135       -10.8066
  39   2.0000      -0.387647       -10.5484
  40   2.0000      -0.377815       -10.2809
  41   2.0000      -0.364676        -9.9233
  42   2.0000      -0.350753        -9.5445
  43   2.0000      -0.339371        -9.2348
  44   2.0000      -0.332558        -9.0494
  45   2.0000      -0.318867        -8.6768
  46   2.0000      -0.312756        -8.5105
  47   2.0000      -0.305564        -8.3148
  48   2.0000      -0.294492        -8.0135
  49   2.0000      -0.291630        -7.9357
  50   2.0000      -0.283711        -7.7202
  51   2.0000      -0.274961        -7.4821
  52   2.0000      -0.271795        -7.3959
  53   2.0000      -0.264718        -7.2033
  54   2.0000      -0.256269        -6.9734
  55   2.0000      -0.131158        -3.5690
  56   0.0000      -0.033927        -0.9232
  57   0.0000      -0.017380        -0.4729
  58   0.0000       0.004434         0.1207
  59   0.0000       0.008675         0.2361
  60   0.0000       0.010689         0.2909

MULLIKEN ATOMIC CHARGES
-----------------------
   0 C :    0.946309
   1 C :    0.808546
   2 C :    0.448262
   3 H :   -0.020474
   4 H :   -0.381465
   5 S :    1.419506
   6 C :   -0.669514
   7 C :    0.920747
   8 N :    0.661390
   9 H :   -0.068824
  10 H :   -0.274008
  11 H :   -0.128173
  12 H :   -0.786024
  13 O :   -0.727237
  14 F :   -0.410344
  15 C :    0.663980
  16 C :    0.585875
  17 H :   -0.117190
  18 H :   -0.202805
  19 C :    0.261134
  20 H :   -0.145114
  21 H :   -0.301463
  22 O :   -0.722373
  23 H :   -0.191130
  24 H :   -0.320798
  25 H :   -0.543794
  26 H :   -0.245382
  27 H :   -0.054234
  28 H :   -0.405403
Sum of atomic charges:   -0.0000000

LOEWDIN ATOMIC CHARGES
----------------------
   0 C :    0.033444
   1 C :   -0.011633
   2 C :   -0.029716
   3 H :    0.016912
   4 H :    0.006216
   5 S :    1.136785
   6 C :   -0.253259
   7 C :    0.183246
   8 N :    0.212203
   9 H :   -0.003707
  10 H :   -0.051496
  11 H :   -0.081225
  12 H :   -0.138035
  13 O :   -0.452496
  14 F :   -0.234660
  15 C :   -0.000600
  16 C :   -0.005135
  17 H :    0.025508
  18 H :    0.032261
  19 C :   -0.013272
  20 H :    0.014490
  21 H :    0.009872
  22 O :   -0.444881
  23 H :   -0.006213
  24 H :    0.019821
  25 H :   -0.016835
  26 H :    0.028541
  27 H :    0.003829
  28 H :    0.020035

  Mayer bond orders larger than 0.100000
B(  0-C ,  6-C ) :   1.2876 B(  0-C ,  8-N ) :   0.1249 B(  0-C , 15-C ) :   1.0761
B(  0-C , 19-C ) :   0.1682 B(  0-C , 20-H ) :   0.1337 B(  0-C , 21-H ) :   0.2601
B(  0-C , 27-H ) :   0.4177 B(  0-C , 28-H ) :   0.4848 B(  1-C ,  2-C ) :   1.1959
B(  1-C ,  3-H ) :   0.1222 B(  1-C ,  4-H ) :   0.2877 B(  1-C , 16-C ) :   1.1951
B(  1-C , 17-H ) :   0.5082 B(  1-C , 18-H ) :   0.5530 B(  1-C , 26-H ) :   0.1217
B(  2-C ,  3-H ) :   0.8303 B(  2-C ,  4-H ) :   0.6675 B(  2-C ,  5-S ) :   0.9422
B(  2-C , 16-C ) :   0.1099 B(  2-C , 17-H ) :   0.1397 B(  2-C , 18-H ) :   0.2375
B(  5-S , 13-O ) :   1.4159 B(  5-S , 14-F ) :   0.6605 B(  5-S , 22-O ) :   1.4469
B(  6-C ,  7-C ) :   2.0397 B(  6-C ,  8-N ) :   1.0568 B(  6-C , 11-H ) :   0.1319
B(  6-C , 12-H ) :   0.4615 B(  6-C , 15-C ) :   0.1350 B(  6-C , 27-H ) :   0.4068
B(  6-C , 28-H ) :   0.3177 B(  7-C ,  8-N ) :   0.4173 B(  7-C , 11-H ) :   0.4355
B(  7-C , 12-H ) :   0.1355 B(  8-N ,  9-H ) :   0.8653 B(  8-N , 10-H ) :   0.8642
B(  8-N , 11-H ) :   0.2089 B(  8-N , 12-H ) :  -0.1141 B(  9-H , 10-H ) :  -0.1497
B( 10-H , 12-H ) :   0.1345 B( 10-H , 13-O ) :   0.1186 B( 11-H , 23-H ) :   0.1047
B( 12-H , 13-O ) :   0.2706 B( 13-O , 22-O ) :   0.1674 B( 15-C , 19-C ) :   1.1413
B( 15-C , 20-H ) :   0.5300 B( 15-C , 21-H ) :   0.6557 B( 15-C , 23-H ) :   0.2538
B( 15-C , 24-H ) :   0.1264 B( 15-C , 27-H ) :   0.1905 B( 15-C , 28-H ) :   0.1163
B( 16-C , 17-H ) :   0.3746 B( 16-C , 18-H ) :   0.1093 B( 16-C , 19-C ) :   1.2080
B( 16-C , 23-H ) :   0.2043 B( 16-C , 24-H ) :   0.2176 B( 16-C , 25-H ) :   0.6564
B( 16-C , 26-H ) :   0.5113 B( 17-H , 18-H ) :  -0.1642 B( 19-C , 20-H ) :   0.3707
B( 19-C , 21-H ) :   0.2315 B( 19-C , 23-H ) :   0.7275 B( 19-C , 24-H ) :   0.6458
B( 19-C , 25-H ) :   0.2190 B( 19-C , 26-H ) :   0.2618 B( 20-H , 21-H ) :  -0.2047

Dispersion correction           -0.074612403
FINAL SINGLE POINT ENERGY     -1016.855112277551

DIPOLE MOMENT
-------------
                                X             Y             Z
Electronic contribution:      0.06802      -4.19783     -22.48856
Nuclear contribution   :     -1.50273       5.82595      21.72909
                        -----------------------------------------
Total Dipole Moment    :     -1.43471       1.62812      -0.75947
                        -----------------------------------------
Magnitude (a.u.)       :      2.29912
Magnitude (Debye)      :      5.84390

Rotational constants in cm-1:     0.036883     0.018294     0.014745
Rotational constants in MHz :  1105.724679   548.429785   442.050481

                             ****ORCA TERMINATED NORMALLY****
TOTAL RUN TIME: 0 days 0 hours 0 minutes 40 seconds 92 msec
