                         Program Version 5.0.0 -  RELEASE  -
|  1> !BLYP D3BJ RIJCOSX def2-SVPD def2/J TightSCF xyzfile
|  2>
|  3> *xyzfile 0 1 D4.xyz
|  4>
|  5> %MaxCore 64000
|  6>
|  7> %pal nprocs 4
|  8> end
|  9>
| 10> %scf
| 11>   MaxIter 150
| 12> end
| 13>
| 14>
| 15>                          ****END OF INPUT****

CARTESIAN COORDINATES (ANGSTROEM)
---------------------------------
  C      2.916324   -1.242589   -1.543125
  C      0.704661    1.443129   -4.503630
  C      1.728539    1.424320   -5.639443
  H      2.646718    1.953794   -5.381054
  H      1.299916    1.930613   -6.503614
  S      2.252625   -0.188115   -6.271840
  C      3.466585   -1.590971   -2.889082
  N      4.652275   -1.143164   -3.259692
  C      2.752264   -2.292043   -3.728029
  H      1.778364   -2.489604   -3.512738
  H      2.948612   -2.208544   -4.716813
  H      5.146723   -0.512508   -2.633852
  H      4.783030   -1.007203   -4.253498
  O      3.562607   -0.444464   -5.631552
  F      2.344944   -0.033742   -7.696501
  C      2.804084    0.290698   -1.359243
  C      1.052550    0.695659   -3.214915
  H     -0.232483    1.032925   -4.884449
  H      0.511700    2.495794   -4.267966
  C      2.388380    1.093669   -2.597108
  H      3.763425    0.674718   -0.999889
  H      2.094788    0.461222   -0.545756
  O      1.266058   -1.159177   -5.805365
  H      3.167316    1.013242   -3.359430
  H      2.357690    2.149375   -2.310997
  H      1.039284   -0.368429   -3.449329
  H      0.250787    0.865605   -2.488283
  H      1.940472   -1.716529   -1.441161
  H      3.558569   -1.663433   -0.766371

 Total Charge           Charge          ....    0
 Multiplicity           Mult            ....    1
 Number of Electrons    NEL             ....  112
 Basis Dimension        Dim             ....  404

ORBITAL ENERGIES
----------------

  NO   OCC          E(Eh)            E(eV)
   0   2.0000     -88.391763     -2405.2621
   1   2.0000     -24.426662      -664.6833
   2   2.0000     -18.802990      -511.6554
   3   2.0000     -18.799510      -511.5607
   4   2.0000     -13.998415      -380.9162
   5   2.0000      -9.984565      -271.6938
   6   2.0000      -9.949464      -270.7387
   7   2.0000      -9.917979      -269.8819
   8   2.0000      -9.917915      -269.8802
   9   2.0000      -9.916699      -269.8471
  10   2.0000      -9.913303      -269.7547
  11   2.0000      -9.908032      -269.6113
  12   2.0000      -9.829864      -267.4842
  13   2.0000      -7.928027      -215.7326
  14   2.0000      -5.967445      -162.3824
  15   2.0000      -5.961085      -162.2094
  16   2.0000      -5.959200      -162.1581
  17   2.0000      -1.275059       -34.6961
  18   2.0000      -1.014420       -27.6038
  19   2.0000      -0.916326       -24.9345
  20   2.0000      -0.814647       -22.1677
  21   2.0000      -0.752410       -20.4741
  22   2.0000      -0.711259       -19.3543
  23   2.0000      -0.680218       -18.5097
  24   2.0000      -0.651046       -17.7159
  25   2.0000      -0.629108       -17.1189
  26   2.0000      -0.597677       -16.2636
  27   2.0000      -0.558778       -15.2051
  28   2.0000      -0.531738       -14.4693
  29   2.0000      -0.525585       -14.3019
  30   2.0000      -0.504435       -13.7264
  31   2.0000      -0.500580       -13.6215
  32   2.0000      -0.474656       -12.9160
  33   2.0000      -0.452324       -12.3084
  34   2.0000      -0.441519       -12.0143
  35   2.0000      -0.440183       -11.9780
  36   2.0000      -0.416586       -11.3359
  37   2.0000      -0.402551       -10.9540
  38   2.0000      -0.397725       -10.8226
  39   2.0000      -0.391390       -10.6502
  40   2.0000      -0.377383       -10.2691
  41   2.0000      -0.360515        -9.8101
  42   2.0000      -0.351156        -9.5554
  43   2.0000      -0.335814        -9.1380
  44   2.0000      -0.330911        -9.0045
  45   2.0000      -0.322624        -8.7791
  46   2.0000      -0.313222        -8.5232
  47   2.0000      -0.305942        -8.3251
  48   2.0000      -0.291592        -7.9346
  49   2.0000      -0.284448        -7.7402
  50   2.0000      -0.279555        -7.6071
  51   2.0000      -0.275856        -7.5064
  52   2.0000      -0.267228        -7.2716
  53   2.0000      -0.259329        -7.0567
  54   2.0000      -0.252585        -6.8732
  55   2.0000      -0.138172        -3.7598
  56   0.0000      -0.030296        -0.8244
  57   0.0000      -0.014909        -0.4057
  58   0.0000       0.002502         0.0681
  59   0.0000       0.011046         0.3006
  60   0.0000       0.011254         0.3062

MULLIKEN ATOMIC CHARGES
-----------------------
   0 C :    0.808632
   1 C :    0.780206
   2 C :    0.438456
   3 H :    0.005135
   4 H :   -0.387903
   5 S :    1.377641
   6 C :   -0.799696
   7 N :    0.689603
   8 C :    1.011146
   9 H :   -0.190586
  10 H :   -0.681255
  11 H :   -0.088468
  12 H :   -0.340470
  13 O :   -0.686706
  14 F :   -0.418532
  15 C :    0.809872
  16 C :    0.610289
  17 H :   -0.126422
  18 H :   -0.207561
  19 C :    0.182811
  20 H :   -0.155559
  21 H :   -0.293815
  22 O :   -0.697519
  23 H :   -0.119776
  24 H :   -0.392101
  25 H :   -0.636583
  26 H :   -0.198253
  27 H :    0.158959
  28 H :   -0.451546
Sum of atomic charges:   -0.0000000

LOEWDIN ATOMIC CHARGES
----------------------
   0 C :    0.032510
   1 C :   -0.011572
   2 C :   -0.032295
   3 H :    0.013818
   4 H :    0.005664
   5 S :    1.138607
   6 C :   -0.260632
   7 N :    0.214676
   8 C :    0.176710
   9 H :   -0.073594
  10 H :   -0.126044
  11 H :   -0.003971
  12 H :   -0.059376
  13 O :   -0.461232
  14 F :   -0.235130
  15 C :   -0.004579
  16 C :   -0.001231
  17 H :    0.026295
  18 H :    0.030669
  19 C :   -0.015449
  20 H :    0.007041
  21 H :    0.011638
  22 O :   -0.427069
  23 H :   -0.008981
  24 H :    0.019024
  25 H :   -0.013318
  26 H :    0.028688
  27 H :    0.015609
  28 H :    0.013526

  Mayer bond orders larger than 0.100000
B(  0-C ,  6-C ) :   1.3310 B(  0-C ,  8-C ) :   0.1538 B(  0-C , 15-C ) :   1.0496
B(  0-C , 20-H ) :   0.1640 B(  0-C , 21-H ) :   0.2762 B(  0-C , 27-H ) :   0.7279
B(  0-C , 28-H ) :   0.3023 B(  1-C ,  2-C ) :   1.1965 B(  1-C ,  3-H ) :   0.1233
B(  1-C ,  4-H ) :   0.2885 B(  1-C , 16-C ) :   1.1998 B(  1-C , 17-H ) :   0.5137
B(  1-C , 18-H ) :   0.5646 B(  1-C , 25-H ) :   0.1234 B(  1-C , 26-H ) :   0.1220
B(  2-C ,  3-H ) :   0.8210 B(  2-C ,  4-H ) :   0.6577 B(  2-C ,  5-S ) :   0.9339
B(  2-C , 16-C ) :   0.1123 B(  2-C , 17-H ) :   0.1413 B(  2-C , 18-H ) :   0.2361
B(  5-S , 13-O ) :   1.4087 B(  5-S , 14-F ) :   0.6514 B(  5-S , 22-O ) :   1.4987
B(  6-C ,  7-N ) :   1.0221 B(  6-C ,  8-C ) :   1.8866 B(  6-C ,  9-H ) :   0.1480
B(  6-C , 10-H ) :   0.6564 B(  6-C , 11-H ) :   0.1138 B(  6-C , 15-C ) :   0.2917
B(  6-C , 21-H ) :  -0.1299 B(  6-C , 27-H ) :   0.1219 B(  6-C , 28-H ) :   0.4997
B(  7-N ,  8-C ) :   0.5097 B(  7-N ,  9-H ) :   0.2003 B(  7-N , 10-H ) :  -0.1563
B(  7-N , 11-H ) :   0.9338 B(  7-N , 12-H ) :   0.8249 B(  8-C ,  9-H ) :   0.4394
B(  8-C , 10-H ) :  -0.2225 B(  8-C , 27-H ) :  -0.1273 B(  9-H , 10-H ) :   0.1199
B(  9-H , 25-H ) :   0.1346 B( 10-H , 12-H ) :   0.1964 B( 10-H , 13-O ) :   0.1009
B( 10-H , 21-H ) :  -0.1099 B( 11-H , 12-H ) :  -0.1602 B( 13-O , 22-O ) :   0.1739
B( 15-C , 19-C ) :   1.1475 B( 15-C , 20-H ) :   0.5018 B( 15-C , 21-H ) :   0.6201
B( 15-C , 23-H ) :   0.1610 B( 15-C , 24-H ) :   0.1089 B( 15-C , 27-H ) :   0.1616
B( 15-C , 28-H ) :   0.1167 B( 16-C , 17-H ) :   0.3660 B( 16-C , 18-H ) :   0.1052
B( 16-C , 19-C ) :   1.2275 B( 16-C , 23-H ) :   0.1880 B( 16-C , 24-H ) :   0.1929
B( 16-C , 25-H ) :   0.6816 B( 16-C , 26-H ) :   0.4834 B( 17-H , 18-H ) :  -0.1651
B( 19-C , 20-H ) :   0.3825 B( 19-C , 21-H ) :   0.2099 B( 19-C , 23-H ) :   0.7814
B( 19-C , 24-H ) :   0.6595 B( 19-C , 25-H ) :   0.2299 B( 19-C , 26-H ) :   0.2386
B( 20-H , 21-H ) :  -0.2081 B( 27-H , 28-H ) :  -0.1097

Dispersion correction           -0.074763614
FINAL SINGLE POINT ENERGY     -1016.857448710053

DIPOLE MOMENT
-------------
                                X             Y             Z
Electronic contribution:      1.35233      -3.49578     -22.16587
Nuclear contribution   :     -1.74760       5.67788      21.66873
                        -----------------------------------------
Total Dipole Moment    :     -0.39528       2.18210      -0.49715
                        -----------------------------------------
Magnitude (a.u.)       :      2.27265
Magnitude (Debye)      :      5.77662

Rotational constants in cm-1:     0.036818     0.018222     0.014682
Rotational constants in MHz :  1103.783048   546.296792   440.157914

                             ****ORCA TERMINATED NORMALLY****
TOTAL RUN TIME: 0 days 0 hours 0 minutes 37 seconds 67 msec
