                         Program Version 5.0.0 -  RELEASE  -
|  1> !BLYP D3BJ RIJCOSX def2-SVPD def2/J TightSCF xyzfile
|  2>
|  3> *xyzfile 0 1 D5.xyz
|  4>
|  5> %MaxCore 64000
|  6>
|  7> %pal nprocs 4
|  8> end
|  9>
| 10> %scf
| 11>   MaxIter 150
| 12> end
| 13>
| 14>
| 15>                          ****END OF INPUT****

CARTESIAN COORDINATES (ANGSTROEM)
---------------------------------
  C      2.916324   -1.242589   -1.543125
  C      0.704661    1.443129   -4.503630
  C      1.728539    1.424320   -5.639443
  H      2.646718    1.953794   -5.381054
  H      1.299916    1.930613   -6.503614
  S      2.252625   -0.188115   -6.271840
  C      3.466585   -1.590971   -2.889082
  C      4.652275   -1.143164   -3.259692
  N      2.752264   -2.292043   -3.728029
  H      1.778364   -2.489604   -3.512738
  H      2.948612   -2.208544   -4.716813
  H      5.146723   -0.512508   -2.633852
  H      4.783030   -1.007203   -4.253498
  O      3.562607   -0.444464   -5.631552
  O      2.344944   -0.033742   -7.696501
  C      2.804084    0.290698   -1.359243
  C      1.052550    0.695659   -3.214915
  H     -0.232483    1.032925   -4.884449
  H      0.511700    2.495794   -4.267966
  C      2.388380    1.093669   -2.597108
  H      3.763425    0.674718   -0.999889
  H      2.094788    0.461222   -0.545756
  F      1.266058   -1.159177   -5.805365
  H      3.167316    1.013242   -3.359430
  H      2.357690    2.149375   -2.310997
  H      1.039284   -0.368429   -3.449329
  H      0.250787    0.865605   -2.488283
  H      1.940472   -1.716529   -1.441161
  H      3.558569   -1.663433   -0.766371

 Total Charge           Charge          ....    0
 Multiplicity           Mult            ....    1
 Number of Electrons    NEL             ....  112
 Basis Dimension        Dim             ....  404

ORBITAL ENERGIES
----------------

  NO   OCC          E(Eh)            E(eV)
   0   2.0000     -88.391860     -2405.2648
   1   2.0000     -24.421474      -664.5421
   2   2.0000     -18.813314      -511.9363
   3   2.0000     -18.799353      -511.5564
   4   2.0000     -14.015917      -381.3925
   5   2.0000      -9.985428      -271.7173
   6   2.0000      -9.957889      -270.9679
   7   2.0000      -9.935412      -270.3563
   8   2.0000      -9.924885      -270.0699
   9   2.0000      -9.921946      -269.9899
  10   2.0000      -9.921243      -269.9707
  11   2.0000      -9.918949      -269.9083
  12   2.0000      -9.835453      -267.6363
  13   2.0000      -7.928523      -215.7461
  14   2.0000      -5.968012      -162.3979
  15   2.0000      -5.961573      -162.2227
  16   2.0000      -5.959595      -162.1688
  17   2.0000      -1.262140       -34.3446
  18   2.0000      -1.024630       -27.8816
  19   2.0000      -0.926845       -25.2207
  20   2.0000      -0.832674       -22.6582
  21   2.0000      -0.760205       -20.6862
  22   2.0000      -0.717506       -19.5243
  23   2.0000      -0.684515       -18.6266
  24   2.0000      -0.653250       -17.7758
  25   2.0000      -0.630216       -17.1491
  26   2.0000      -0.605054       -16.4643
  27   2.0000      -0.571801       -15.5595
  28   2.0000      -0.537385       -14.6230
  29   2.0000      -0.526042       -14.3143
  30   2.0000      -0.513101       -13.9622
  31   2.0000      -0.495888       -13.4938
  32   2.0000      -0.485271       -13.2049
  33   2.0000      -0.457244       -12.4422
  34   2.0000      -0.445853       -12.1323
  35   2.0000      -0.441069       -12.0021
  36   2.0000      -0.424693       -11.5565
  37   2.0000      -0.417287       -11.3549
  38   2.0000      -0.404333       -11.0024
  39   2.0000      -0.398201       -10.8356
  40   2.0000      -0.383957       -10.4480
  41   2.0000      -0.371290       -10.1033
  42   2.0000      -0.352354        -9.5880
  43   2.0000      -0.343664        -9.3516
  44   2.0000      -0.341011        -9.2794
  45   2.0000      -0.331417        -9.0183
  46   2.0000      -0.323820        -8.8116
  47   2.0000      -0.308231        -8.3874
  48   2.0000      -0.304979        -8.2989
  49   2.0000      -0.294324        -8.0090
  50   2.0000      -0.288994        -7.8639
  51   2.0000      -0.283928        -7.7261
  52   2.0000      -0.280102        -7.6220
  53   2.0000      -0.267521        -7.2796
  54   2.0000      -0.260199        -7.0804
  55   2.0000      -0.142596        -3.8802
  56   0.0000      -0.039918        -1.0862
  57   0.0000      -0.007546        -0.2053
  58   0.0000      -0.003817        -0.1039
  59   0.0000       0.006935         0.1887
  60   0.0000       0.009980         0.2716

MULLIKEN ATOMIC CHARGES
-----------------------
   0 C :    0.947359
   1 C :    0.825306
   2 C :    0.481928
   3 H :   -0.024206
   4 H :   -0.398890
   5 S :    1.236220
   6 C :   -0.647444
   7 C :    0.935720
   8 N :    0.648010
   9 H :   -0.074704
  10 H :   -0.303999
  11 H :   -0.136702
  12 H :   -0.781156
  13 O :   -0.678525
  14 O :   -0.542142
  15 C :    0.663116
  16 C :    0.612771
  17 H :   -0.143216
  18 H :   -0.190371
  19 C :    0.255127
  20 H :   -0.141752
  21 H :   -0.301511
  22 F :   -0.468963
  23 H :   -0.186412
  24 H :   -0.318187
  25 H :   -0.573844
  26 H :   -0.231117
  27 H :   -0.057407
  28 H :   -0.405009
Sum of atomic charges:   -0.0000000

LOEWDIN ATOMIC CHARGES
----------------------
   0 C :    0.033804
   1 C :   -0.024356
   2 C :   -0.018913
   3 H :    0.024322
   4 H :    0.013247
   5 S :    1.117432
   6 C :   -0.255371
   7 C :    0.190502
   8 N :    0.202027
   9 H :   -0.007127
  10 H :   -0.049989
  11 H :   -0.077363
  12 H :   -0.134768
  13 O :   -0.446818
  14 O :   -0.422479
  15 C :    0.000258
  16 C :   -0.011250
  17 H :    0.022001
  18 H :    0.031032
  19 C :   -0.011158
  20 H :    0.015841
  21 H :    0.010663
  22 F :   -0.251966
  23 H :   -0.004969
  24 H :    0.022353
  25 H :   -0.020535
  26 H :    0.029081
  27 H :    0.003145
  28 H :    0.021355

  Mayer bond orders larger than 0.100000
B(  0-C ,  6-C ) :   1.2805 B(  0-C ,  8-N ) :   0.1209 B(  0-C , 15-C ) :   1.0777
B(  0-C , 19-C ) :   0.1697 B(  0-C , 20-H ) :   0.1346 B(  0-C , 21-H ) :   0.2597
B(  0-C , 27-H ) :   0.4188 B(  0-C , 28-H ) :   0.4856 B(  1-C ,  2-C ) :   1.1634
B(  1-C ,  3-H ) :   0.1216 B(  1-C ,  4-H ) :   0.2658 B(  1-C , 16-C ) :   1.1929
B(  1-C , 17-H ) :   0.4978 B(  1-C , 18-H ) :   0.5544 B(  1-C , 26-H ) :   0.1184
B(  2-C ,  3-H ) :   0.8315 B(  2-C ,  4-H ) :   0.7231 B(  2-C ,  5-S ) :   0.9321
B(  2-C , 16-C ) :   0.1078 B(  2-C , 17-H ) :   0.1393 B(  2-C , 18-H ) :   0.2351
B(  5-S , 13-O ) :   1.4629 B(  5-S , 14-O ) :   1.6262 B(  5-S , 22-F ) :   0.6673
B(  6-C ,  7-C ) :   2.0486 B(  6-C ,  8-N ) :   1.0472 B(  6-C , 11-H ) :   0.1276
B(  6-C , 12-H ) :   0.4546 B(  6-C , 15-C ) :   0.1356 B(  6-C , 27-H ) :   0.4048
B(  6-C , 28-H ) :   0.3138 B(  7-C ,  8-N ) :   0.4116 B(  7-C , 11-H ) :   0.4346
B(  7-C , 12-H ) :   0.1428 B(  8-N ,  9-H ) :   0.8718 B(  8-N , 10-H ) :   0.8658
B(  8-N , 11-H ) :   0.2034 B(  8-N , 12-H ) :  -0.1076 B(  9-H , 10-H ) :  -0.1538
B( 10-H , 12-H ) :   0.1215 B( 10-H , 13-O ) :   0.1246 B( 11-H , 23-H ) :   0.1037
B( 12-H , 13-O ) :   0.2906 B( 13-O , 14-O ) :   0.1059 B( 15-C , 19-C ) :   1.1481
B( 15-C , 20-H ) :   0.5286 B( 15-C , 21-H ) :   0.6562 B( 15-C , 23-H ) :   0.2532
B( 15-C , 24-H ) :   0.1325 B( 15-C , 27-H ) :   0.1902 B( 15-C , 28-H ) :   0.1150
B( 16-C , 17-H ) :   0.3605 B( 16-C , 18-H ) :   0.1210 B( 16-C , 19-C ) :   1.2099
B( 16-C , 23-H ) :   0.2095 B( 16-C , 24-H ) :   0.2111 B( 16-C , 25-H ) :   0.6230
B( 16-C , 26-H ) :   0.5169 B( 17-H , 18-H ) :  -0.1772 B( 19-C , 20-H ) :   0.3708
B( 19-C , 21-H ) :   0.2333 B( 19-C , 23-H ) :   0.7230 B( 19-C , 24-H ) :   0.6503
B( 19-C , 25-H ) :   0.2288 B( 19-C , 26-H ) :   0.2651 B( 20-H , 21-H ) :  -0.2033

Dispersion correction           -0.073981714
FINAL SINGLE POINT ENERGY     -1016.859720395740

DIPOLE MOMENT
-------------
                                X             Y             Z
Electronic contribution:     -1.67445      -6.08066     -19.03368
Nuclear contribution   :     -0.26930       7.11259      19.56706
                        -----------------------------------------
Total Dipole Moment    :     -1.94375       1.03193       0.53338
                        -----------------------------------------
Magnitude (a.u.)       :      2.26441
Magnitude (Debye)      :      5.75566

Rotational constants in cm-1:     0.036519     0.018683     0.015073
Rotational constants in MHz :  1094.801738   560.111127   451.890222

                             ****ORCA TERMINATED NORMALLY****
TOTAL RUN TIME: 0 days 0 hours 0 minutes 38 seconds 974 msec
