                         Program Version 5.0.0 -  RELEASE  -
|  1> !B3LYP D3BJ RIJCOSX def2-SVPD def2/J TightSCF
|  2> *xyz -1 1
|  3> C         -5.57236       -5.80780       -0.81644
|  4> S         -6.90318       -4.61903       -0.52846
|  5> O         -8.11485       -5.25093       -0.95701
|  6> O         -6.53271       -3.42684       -1.31485
|  7> O         -6.86563       -4.29496        0.91412
|  8> H         -5.55376       -6.07856       -1.85145
|  9> H         -5.73990       -6.68165       -0.22212
| 10> H         -4.63562       -5.36690       -0.54622
| 11> *
| 12> %MaxCore 64000
| 13>
| 14> %pal nprocs 4
| 15> end
| 16>
| 17> %scf
| 18>   MaxIter 150
| 19> end
| 20>
| 21>                          ****END OF INPUT****

CARTESIAN COORDINATES (ANGSTROEM)
---------------------------------
  C     -5.572360   -5.807800   -0.816440
  S     -6.903180   -4.619030   -0.528460
  O     -8.114850   -5.250930   -0.957010
  O     -6.532710   -3.426840   -1.314850
  O     -6.865630   -4.294960    0.914120
  H     -5.553760   -6.078560   -1.851450
  H     -5.739900   -6.681650   -0.222120
  H     -4.635620   -5.366900   -0.546220

 Total Charge           Charge          ....   -1
 Multiplicity           Mult            ....    1
 Number of Electrons    NEL             ....   50
 Basis Dimension        Dim             ....  140

ORBITAL ENERGIES
----------------

  NO   OCC          E(Eh)            E(eV)
   0   2.0000     -88.882403     -2418.6131
   1   2.0000     -18.922701      -514.9129
   2   2.0000     -18.910300      -514.5754
   3   2.0000     -18.909289      -514.5479
   4   2.0000     -10.040110      -273.2053
   5   2.0000      -7.935806      -215.9443
   6   2.0000      -5.904724      -160.6757
   7   2.0000      -5.904549      -160.6710
   8   2.0000      -5.904281      -160.6637
   9   2.0000      -0.927503       -25.2386
  10   2.0000      -0.787793       -21.4369
  11   2.0000      -0.764006       -20.7897
  12   2.0000      -0.580347       -15.7920
  13   2.0000      -0.388349       -10.5675
  14   2.0000      -0.300887        -8.1875
  15   2.0000      -0.291271        -7.9259
  16   2.0000      -0.290134        -7.8949
  17   2.0000      -0.248850        -6.7715
  18   2.0000      -0.247042        -6.7223
  19   2.0000      -0.150306        -4.0900
  20   2.0000      -0.149491        -4.0679
  21   2.0000      -0.116771        -3.1775
  22   2.0000      -0.108533        -2.9533
  23   2.0000      -0.100832        -2.7438
  24   2.0000      -0.063223        -1.7204
  25   0.0000       0.149297         4.0626
  26   0.0000       0.185936         5.0596
  27   0.0000       0.186187         5.0664
  28   0.0000       0.190066         5.1719
  29   0.0000       0.212064         5.7706

MULLIKEN ATOMIC CHARGES
-----------------------
   0 C :    0.717699
   1 S :    1.101157
   2 O :   -0.746850
   3 O :   -0.795014
   4 O :   -0.796414
   5 H :   -0.157679
   6 H :   -0.164388
   7 H :   -0.158511
Sum of atomic charges:   -1.0000000

LOEWDIN ATOMIC CHARGES
----------------------
   0 C :    0.067578
   1 S :    0.839981
   2 O :   -0.578050
   3 O :   -0.600891
   4 O :   -0.600070
   5 H :   -0.043067
   6 H :   -0.043820
   7 H :   -0.041661

  Mayer bond orders larger than 0.100000
B(  0-C ,  1-S ) :   0.9195 B(  0-C ,  5-H ) :   0.8813 B(  0-C ,  6-H ) :   0.8827
B(  0-C ,  7-H ) :   0.8861 B(  1-S ,  2-O ) :   1.3429 B(  1-S ,  3-O ) :   1.3030
B(  1-S ,  4-O ) :   1.2976 B(  1-S ,  5-H ) :   0.1244 B(  1-S ,  6-H ) :   0.1242
B(  1-S ,  7-H ) :   0.1333

Dispersion correction           -0.011049309
FINAL SINGLE POINT ENERGY      -663.324812187363

DIPOLE MOMENT
-------------
                                X             Y             Z
Electronic contribution:     -3.23267       2.71937       0.63223
Nuclear contribution   :      4.23639      -3.86101      -0.94151
                        -----------------------------------------
Total Dipole Moment    :      1.00372      -1.14164      -0.30928
                        -----------------------------------------
Magnitude (a.u.)       :      1.55127
Magnitude (Debye)      :      3.94302

Rotational constants in cm-1:     0.172406     0.155169     0.153146
Rotational constants in MHz :  5168.590738  4651.861875  4591.214998

                             ****ORCA TERMINATED NORMALLY****
TOTAL RUN TIME: 0 days 0 hours 0 minutes 11 seconds 168 msec
