                         Program Version 5.0.0 -  RELEASE  -
|  1> !B3LYP D3BJ RIJCOSX def2-SVPD def2/J TightSCF
|  2> *xyz 1 1
|  3> C         -4.38262       -1.67089        1.21620
|  4> N         -5.76354       -1.91517        0.70501
|  5> H         -5.84081       -2.11520       -0.30065
|  6> H         -6.40882       -1.14866        0.93612
|  7> H         -6.17478       -2.79061        1.05143
|  8> H         -4.01369       -0.74796        0.81997
|  9> H         -3.74223       -2.47168        0.91037
| 10> H         -4.40201       -1.61791        2.28471
| 11> *
| 12> %MaxCore 64000
| 13>
| 14> %pal nprocs 4
| 15> end
| 16>
| 17> %scf
| 18>   MaxIter 150
| 19> end
| 20>
| 21>                          ****END OF INPUT****

CARTESIAN COORDINATES (ANGSTROEM)
---------------------------------
  C     -4.382620   -1.670890    1.216200
  N     -5.763540   -1.915170    0.705010
  H     -5.840810   -2.115200   -0.300650
  H     -6.408820   -1.148660    0.936120
  H     -6.174780   -2.790610    1.051430
  H     -4.013690   -0.747960    0.819970
  H     -3.742230   -2.471680    0.910370
  H     -4.402010   -1.617910    2.284710

 Total Charge           Charge          ....    1
 Multiplicity           Mult            ....    1
 Number of Electrons    NEL             ....   18
 Basis Dimension        Dim             ....   88

ORBITAL ENERGIES
----------------

  NO   OCC          E(Eh)            E(eV)
   0   2.0000     -14.679980      -399.4626
   1   2.0000     -10.444622      -284.2126
   2   2.0000      -1.217337       -33.1254
   3   2.0000      -0.939201       -25.5570
   4   2.0000      -0.816270       -22.2118
   5   2.0000      -0.792026       -21.5521
   6   2.0000      -0.721352       -19.6290
   7   2.0000      -0.629886       -17.1401
   8   2.0000      -0.626785       -17.0557
   9   0.0000      -0.207919        -5.6578
  10   0.0000      -0.140210        -3.8153
  11   0.0000      -0.138172        -3.7598
  12   0.0000      -0.134205        -3.6519
  13   0.0000      -0.085671        -2.3312

MULLIKEN ATOMIC CHARGES
-----------------------
   0 C :    1.189496
   1 N :   -0.780688
   2 H :    0.316233
   3 H :    0.347568
   4 H :    0.324134
   5 H :   -0.135633
   6 H :   -0.137424
   7 H :   -0.123687
Sum of atomic charges:    1.0000000

LOEWDIN ATOMIC CHARGES
----------------------
   0 C :    0.299137
   1 N :    0.312109
   2 H :    0.107249
   3 H :    0.109651
   4 H :    0.104672
   5 H :    0.022077
   6 H :    0.022095
   7 H :    0.023010

  Mayer bond orders larger than 0.100000
B(  0-C ,  1-N ) :   0.7369 B(  0-C ,  5-H ) :   0.8584 B(  0-C ,  6-H ) :   0.8588
B(  0-C ,  7-H ) :   0.8496 B(  1-N ,  2-H ) :   0.8372 B(  1-N ,  3-H ) :   0.7868
B(  1-N ,  4-H ) :   0.8332 B(  1-N ,  5-H ) :   0.1084 B(  1-N ,  6-H ) :   0.1095
B(  1-N ,  7-H ) :   0.1129

Dispersion correction           -0.005431447
FINAL SINGLE POINT ENERGY       -96.088845963611

DIPOLE MOMENT
-------------
                                X             Y             Z
Electronic contribution:     -0.95623      -0.13288      -0.35208
Nuclear contribution   :      0.12888      -0.05969       0.04130
                        -----------------------------------------
Total Dipole Moment    :     -0.82736      -0.19257      -0.31078
                        -----------------------------------------
Magnitude (a.u.)       :      0.90454
Magnitude (Debye)      :      2.29915

Rotational constants in cm-1:     2.932748     0.676653     0.669753
Rotational constants in MHz : 87921.559023 20285.538082 20078.692306

                             ****ORCA TERMINATED NORMALLY****
TOTAL RUN TIME: 0 days 0 hours 0 minutes 4 seconds 582 msec
