                         Program Version 5.0.0 -  RELEASE  -
|  1> !B3LYP D3BJ RIJCOSX def2-SVPD def2/J TightSCF xyzfile
|  2>
|  3> *xyzfile 0 1 B.xyz
|  4>
|  5> %MaxCore 64000
|  6>
|  7> %pal nprocs 4
|  8> end
|  9>
| 10> %scf
| 11>   MaxIter 150
| 12> end
| 13>
| 14>
| 15>                          ****END OF INPUT****

CARTESIAN COORDINATES (ANGSTROEM)
---------------------------------
  C     -4.382623   -1.670889    1.216201
  N     -5.763539   -1.915170    0.705012
  C     -3.281728   -2.191272    0.294361
  C     -5.572364   -5.807798   -0.816445
  S     -6.903179   -4.619033   -0.528458
  H     -5.840812   -2.115205   -0.300646
  H     -6.408823   -1.148656    0.936124
  H     -6.174781   -2.790606    1.051433
  O     -8.114853   -5.250932   -0.957007
  O     -6.532715   -3.426838   -1.314848
  H     -4.328618   -2.139223    2.198103
  H     -4.261583   -0.597399    1.357248
  O     -6.865632   -4.294957    0.914118
  C     -3.474641   -3.605898   -0.259608
  H     -2.354548   -2.127602    0.871433
  H     -3.166611   -1.499693   -0.545037
  C     -3.827078   -4.661097    0.786174
  H     -2.560559   -3.889391   -0.788050
  H     -4.255932   -3.570040   -1.019300
  C     -4.457800   -5.941875    0.229195
  H     -5.177347   -5.542575   -1.797714
  H     -6.074202   -6.768894   -0.921272
  H     -4.530506   -4.253640    1.511979
  H     -2.933400   -4.932302    1.356825
  H     -3.681064   -6.562236   -0.229885
  H     -4.843942   -6.512728    1.075805

 Total Charge           Charge          ....    0
 Multiplicity           Mult            ....    1
 Number of Electrons    NEL             ....   98
 Basis Dimension        Dim             ....  356

ORBITAL ENERGIES
----------------

  NO   OCC          E(Eh)            E(eV)
   0   2.0000     -89.052125     -2423.2315
   1   2.0000     -19.095486      -519.6146
   2   2.0000     -19.091586      -519.5085
   3   2.0000     -19.079906      -519.1906
   4   2.0000     -14.435590      -392.8124
   5   2.0000     -10.271515      -279.5021
   6   2.0000     -10.218369      -278.0560
   7   2.0000     -10.192758      -277.3590
   8   2.0000     -10.190828      -277.3065
   9   2.0000     -10.189023      -277.2574
  10   2.0000     -10.187036      -277.2033
  11   2.0000      -8.105086      -220.5506
  12   2.0000      -6.074829      -165.3045
  13   2.0000      -6.073907      -165.2794
  14   2.0000      -6.072590      -165.2436
  15   2.0000      -1.103249       -30.0209
  16   2.0000      -0.999182       -27.1891
  17   2.0000      -0.957171       -26.0459
  18   2.0000      -0.952681       -25.9238
  19   2.0000      -0.825966       -22.4757
  20   2.0000      -0.786878       -21.4121
  21   2.0000      -0.738221       -20.0880
  22   2.0000      -0.687723       -18.7139
  23   2.0000      -0.635644       -17.2968
  24   2.0000      -0.601919       -16.3791
  25   2.0000      -0.585524       -15.9329
  26   2.0000      -0.576424       -15.6853
  27   2.0000      -0.538426       -14.6513
  28   2.0000      -0.512909       -13.9570
  29   2.0000      -0.491538       -13.3754
  30   2.0000      -0.485644       -13.2150
  31   2.0000      -0.472320       -12.8525
  32   2.0000      -0.451568       -12.2878
  33   2.0000      -0.443679       -12.0731
  34   2.0000      -0.434640       -11.8271
  35   2.0000      -0.423356       -11.5201
  36   2.0000      -0.420504       -11.4425
  37   2.0000      -0.391029       -10.6404
  38   2.0000      -0.379853       -10.3363
  39   2.0000      -0.375746       -10.2246
  40   2.0000      -0.349140        -9.5006
  41   2.0000      -0.341819        -9.3014
  42   2.0000      -0.335192        -9.1210
  43   2.0000      -0.324725        -8.8362
  44   2.0000      -0.318277        -8.6607
  45   2.0000      -0.282927        -7.6988
  46   2.0000      -0.277503        -7.5512
  47   2.0000      -0.269777        -7.3410
  48   2.0000      -0.246770        -6.7150
  49   0.0000      -0.022350        -0.6082
  50   0.0000       0.012867         0.3501
  51   0.0000       0.020331         0.5532
  52   0.0000       0.023238         0.6323
  53   0.0000       0.039125         1.0647

MULLIKEN ATOMIC CHARGES
-----------------------
   0 C :    0.946976
   1 N :   -0.375309
   2 C :    0.435341
   3 C :    0.360715
   4 S :    1.404425
   5 H :    0.266601
   6 H :    0.260032
   7 H :    0.092541
   8 O :   -0.784820
   9 O :   -0.801763
  10 H :    0.084510
  11 H :   -0.503556
  12 O :   -0.859076
  13 C :    0.395845
  14 H :   -0.124928
  15 H :   -0.105110
  16 C :    0.160913
  17 H :   -0.376996
  18 H :   -0.154923
  19 C :    0.664825
  20 H :    0.043883
  21 H :   -0.405734
  22 H :   -0.045932
  23 H :   -0.355148
  24 H :   -0.122664
  25 H :   -0.100650
Sum of atomic charges:    0.0000000

LOEWDIN ATOMIC CHARGES
----------------------
   0 C :    0.099003
   1 N :    0.344068
   2 C :   -0.000135
   3 C :   -0.043259
   4 S :    0.975096
   5 H :   -0.012802
   6 H :    0.098175
   7 H :   -0.064416
   8 O :   -0.497960
   9 O :   -0.542340
  10 H :    0.031864
  11 H :    0.026246
  12 O :   -0.521409
  13 C :   -0.001257
  14 H :    0.027579
  15 H :    0.026152
  16 C :   -0.013588
  17 H :    0.028199
  18 H :   -0.018307
  19 C :   -0.016802
  20 H :    0.010553
  21 H :    0.008377
  22 H :   -0.017135
  23 H :    0.024205
  24 H :    0.022971
  25 H :    0.026921

  Mayer bond orders larger than 0.100000
B(  0-C ,  1-N ) :   0.7000 B(  0-C ,  2-C ) :   1.1712 B(  0-C , 10-H ) :   0.6855
B(  0-C , 11-H ) :   0.8625 B(  0-C , 14-H ) :   0.1577 B(  0-C , 15-H ) :   0.1536
B(  1-N ,  5-H ) :   0.7467 B(  1-N ,  6-H ) :   0.8585 B(  1-N ,  7-H ) :   1.1846
B(  1-N , 10-H ) :   0.1058 B(  1-N , 18-H ) :   0.1121 B(  1-N , 22-H ) :   0.1005
B(  2-C , 10-H ) :   0.1221 B(  2-C , 11-H ) :   0.1741 B(  2-C , 13-C ) :   1.2330
B(  2-C , 14-H ) :   0.7648 B(  2-C , 15-H ) :   0.6483 B(  2-C , 17-H ) :   0.1078
B(  2-C , 18-H ) :   0.1170 B(  3-C ,  4-S ) :   0.8984 B(  3-C ,  8-O ) :   0.1359
B(  3-C , 19-C ) :   1.1728 B(  3-C , 20-H ) :   0.8346 B(  3-C , 21-H ) :   0.8305
B(  3-C , 24-H ) :   0.1659 B(  3-C , 25-H ) :   0.1464 B(  4-S ,  8-O ) :   1.4649
B(  4-S ,  9-O ) :   1.1106 B(  4-S , 12-O ) :   1.0803 B(  5-H ,  9-O ) :   0.1896
B(  7-H , 12-O ) :   0.1686 B(  9-O , 12-O ) :   0.1552 B( 10-H , 11-H ) :  -0.1750
B( 10-H , 22-H ) :   0.1026 B( 13-C , 14-H ) :   0.1446 B( 13-C , 15-H ) :   0.2475
B( 13-C , 16-C ) :   1.1607 B( 13-C , 17-H ) :   0.6893 B( 13-C , 18-H ) :   0.7980
B( 13-C , 22-H ) :   0.1024 B( 13-C , 23-H ) :   0.1670 B( 16-C , 17-H ) :   0.1803
B( 16-C , 18-H ) :   0.1866 B( 16-C , 19-C ) :   1.2648 B( 16-C , 22-H ) :   0.8423
B( 16-C , 23-H ) :   0.7524 B( 16-C , 24-H ) :   0.1506 B( 16-C , 25-H ) :   0.2954
B( 19-C , 20-H ) :   0.1076 B( 19-C , 21-H ) :   0.2050 B( 19-C , 24-H ) :   0.6888
B( 19-C , 25-H ) :   0.5903 B( 24-H , 25-H ) :  -0.1080

Dispersion correction           -0.051495159
FINAL SINGLE POINT ENERGY      -915.468338834533

DIPOLE MOMENT
-------------
                                X             Y             Z
Electronic contribution:    -13.48599      -2.95472      -3.67637
Nuclear contribution   :     16.18863       5.15617       4.97370
                        -----------------------------------------
Total Dipole Moment    :      2.70264       2.20145       1.29733
                        -----------------------------------------
Magnitude (a.u.)       :      3.71937
Magnitude (Debye)      :      9.45388

Rotational constants in cm-1:     0.048546     0.025588     0.020102
Rotational constants in MHz :  1455.374030   767.095631   602.645620

                             ****ORCA TERMINATED NORMALLY****
TOTAL RUN TIME: 0 days 0 hours 1 minutes 41 seconds 218 msec
