                         Program Version 5.0.0 -  RELEASE  -
|  1> !B3LYP D3BJ RIJCOSX def2-SVPD def2/J TightSCF
|  2> *xyz 0 1
|  3> C         -5.57236       -5.80780       -0.81644
|  4> S         -6.90318       -4.61903       -0.52846
|  5> F         -8.11485       -5.25093       -0.95701
|  6> O         -6.53271       -3.42684       -1.31485
|  7> O         -6.86563       -4.29496        0.91412
|  8> H         -5.55376       -6.07856       -1.85145
|  9> H         -5.73990       -6.68165       -0.22212
| 10> H         -4.63562       -5.36690       -0.54622
| 11> *
| 12> %MaxCore 64000
| 13>
| 14> %pal nprocs 4
| 15> end
| 16>
| 17> %scf
| 18>   MaxIter 150
| 19> end
| 20>
| 21>                          ****END OF INPUT****

CARTESIAN COORDINATES (ANGSTROEM)
---------------------------------
  C     -5.572360   -5.807800   -0.816440
  S     -6.903180   -4.619030   -0.528460
  F     -8.114850   -5.250930   -0.957010
  O     -6.532710   -3.426840   -1.314850
  O     -6.865630   -4.294960    0.914120
  H     -5.553760   -6.078560   -1.851450
  H     -5.739900   -6.681650   -0.222120
  H     -4.635620   -5.366900   -0.546220

 Total Charge           Charge          ....    0
 Multiplicity           Mult            ....    1
 Number of Electrons    NEL             ....   50
 Basis Dimension        Dim             ....  140

ORBITAL ENERGIES
----------------

  NO   OCC          E(Eh)            E(eV)
   0   2.0000     -89.148194     -2425.8457
   1   2.0000     -24.826151      -675.5539
   2   2.0000     -19.149121      -521.0741
   3   2.0000     -19.148072      -521.0455
   4   2.0000     -10.250394      -278.9274
   5   2.0000      -8.202263      -223.1949
   6   2.0000      -6.175386      -168.0408
   7   2.0000      -6.168657      -167.8577
   8   2.0000      -6.167721      -167.8322
   9   2.0000      -1.391898       -37.8755
  10   2.0000      -1.101824       -29.9822
  11   2.0000      -0.999315       -27.1927
  12   2.0000      -0.804708       -21.8972
  13   2.0000      -0.728939       -19.8354
  14   2.0000      -0.616226       -16.7684
  15   2.0000      -0.601735       -16.3741
  16   2.0000      -0.562579       -15.3086
  17   2.0000      -0.484049       -13.1716
  18   2.0000      -0.479065       -13.0360
  19   2.0000      -0.473129       -12.8745
  20   2.0000      -0.440601       -11.9894
  21   2.0000      -0.385694       -10.4953
  22   2.0000      -0.337663        -9.1883
  23   2.0000      -0.331698        -9.0260
  24   2.0000      -0.306533        -8.3412
  25   0.0000      -0.013409        -0.3649
  26   0.0000       0.026384         0.7179
  27   0.0000       0.030188         0.8215
  28   0.0000       0.043243         1.1767
  29   0.0000       0.045534         1.2391

MULLIKEN ATOMIC CHARGES
-----------------------
   0 C :    0.683166
   1 S :    1.255095
   2 F :   -0.367323
   3 O :   -0.644555
   4 O :   -0.645202
   5 H :   -0.088605
   6 H :   -0.093838
   7 H :   -0.098737
Sum of atomic charges:   -0.0000000

LOEWDIN ATOMIC CHARGES
----------------------
   0 C :    0.136340
   1 S :    1.112364
   2 F :   -0.254662
   3 O :   -0.480933
   4 O :   -0.479519
   5 H :   -0.016025
   6 H :   -0.016342
   7 H :   -0.001222

  Mayer bond orders larger than 0.100000
B(  0-C ,  1-S ) :   0.9760 B(  0-C ,  5-H ) :   0.8813 B(  0-C ,  6-H ) :   0.8841
B(  0-C ,  7-H ) :   0.8868 B(  1-S ,  2-F ) :   0.7219 B(  1-S ,  3-O ) :   1.5145
B(  1-S ,  4-O ) :   1.5088 B(  1-S ,  7-H ) :   0.1327

Dispersion correction           -0.010347378
FINAL SINGLE POINT ENERGY      -687.803024807338

DIPOLE MOMENT
-------------
                                X             Y             Z
Electronic contribution:     -5.20914       1.60997      -0.09252
Nuclear contribution   :      5.53040      -3.27628      -0.52239
                        -----------------------------------------
Total Dipole Moment    :      0.32126      -1.66631      -0.61492
                        -----------------------------------------
Magnitude (a.u.)       :      1.80497
Magnitude (Debye)      :      4.58788

Rotational constants in cm-1:     0.163239     0.153903     0.144751
Rotational constants in MHz :  4893.777363  4613.882823  4339.513182

                             ****ORCA TERMINATED NORMALLY****
TOTAL RUN TIME: 0 days 0 hours 0 minutes 11 seconds 355 msec
