                         Program Version 5.0.0 -  RELEASE  -
|  1> !B3LYP D3BJ RIJCOSX def2-SVPD def2/J TightSCF
|  2> *xyz 0 1
|  3> C         -4.38262       -1.67089        1.21620
|  4> C         -5.76354       -1.91517        0.70501
|  5> H         -5.84081       -2.11520       -0.30065
|  6> H         -6.40882       -1.14866        0.93612
|  7> H         -6.17478       -2.79061        1.05143
|  8> H         -4.01369       -0.74796        0.81997
|  9> H         -3.74223       -2.47168        0.91037
| 10> H         -4.40201       -1.61791        2.28471
| 11> *
| 12> %MaxCore 64000
| 13>
| 14> %pal nprocs 4
| 15> end
| 16>
| 17> %scf
| 18>   MaxIter 150
| 19> end
| 20>
| 21>                          ****END OF INPUT****

CARTESIAN COORDINATES (ANGSTROEM)
---------------------------------
  C     -4.382620   -1.670890    1.216200
  C     -5.763540   -1.915170    0.705010
  H     -5.840810   -2.115200   -0.300650
  H     -6.408820   -1.148660    0.936120
  H     -6.174780   -2.790610    1.051430
  H     -4.013690   -0.747960    0.819970
  H     -3.742230   -2.471680    0.910370
  H     -4.402010   -1.617910    2.284710

 Total Charge           Charge          ....    0
 Multiplicity           Mult            ....    1
 Number of Electrons    NEL             ....   18
 Basis Dimension        Dim             ....   88

ORBITAL ENERGIES
----------------

  NO   OCC          E(Eh)            E(eV)
   0   2.0000     -10.163308      -276.5577
   1   2.0000     -10.148640      -276.1585
   2   2.0000      -0.759784       -20.6748
   3   2.0000      -0.621740       -16.9184
   4   2.0000      -0.450496       -12.2586
   5   2.0000      -0.437254       -11.8983
   6   2.0000      -0.375984       -10.2311
   7   2.0000      -0.351202        -9.5567
   8   2.0000      -0.337960        -9.1964
   9   0.0000       0.026892         0.7318
  10   0.0000       0.056892         1.5481
  11   0.0000       0.099724         2.7136
  12   0.0000       0.102830         2.7981
  13   0.0000       0.122893         3.3441

MULLIKEN ATOMIC CHARGES
-----------------------
   0 C :    0.515110
   1 C :    0.737694
   2 H :   -0.303119
   3 H :   -0.265059
   4 H :   -0.290037
   5 H :   -0.140003
   6 H :   -0.125263
   7 H :   -0.129322
Sum of atomic charges:    0.0000000

LOEWDIN ATOMIC CHARGES
----------------------
   0 C :    0.095993
   1 C :    0.085874
   2 H :   -0.041057
   3 H :   -0.036312
   4 H :   -0.042568
   5 H :   -0.021346
   6 H :   -0.020641
   7 H :   -0.019943

  Mayer bond orders larger than 0.100000
B(  0-C ,  1-C ) :   1.4159 B(  0-C ,  2-H ) :   0.1477 B(  0-C ,  3-H ) :   0.1760
B(  0-C ,  4-H ) :   0.1631 B(  0-C ,  5-H ) :   0.8171 B(  0-C ,  6-H ) :   0.8290
B(  0-C ,  7-H ) :   0.8021 B(  1-C ,  2-H ) :   0.6777 B(  1-C ,  3-H ) :   0.7201
B(  1-C ,  4-H ) :   0.6712 B(  1-C ,  5-H ) :   0.1728 B(  1-C ,  6-H ) :   0.1746
B(  1-C ,  7-H ) :   0.1784 B(  2-H ,  4-H ) :   0.2564

Dispersion correction           -0.005476563
FINAL SINGLE POINT ENERGY       -79.700670197819

DIPOLE MOMENT
-------------
                                X             Y             Z
Electronic contribution:      0.07861       0.07569       0.03244
Nuclear contribution   :     -0.10782      -0.10031      -0.04623
                        -----------------------------------------
Total Dipole Moment    :     -0.02921      -0.02462      -0.01378
                        -----------------------------------------
Magnitude (a.u.)       :      0.04061
Magnitude (Debye)      :      0.10323

Rotational constants in cm-1:     2.932831     0.705715     0.698218
Rotational constants in MHz : 87924.050302 21156.813368 20932.044240

                             ****ORCA TERMINATED NORMALLY****
TOTAL RUN TIME: 0 days 0 hours 0 minutes 5 seconds 43 msec
