                         Program Version 5.0.0 -  RELEASE  -
|  1> !B3LYP D3BJ RIJCOSX def2-SVPD def2/J TightSCF
|  2> *xyz 0 1
|  3> C         -5.57236       -5.80780       -0.81644
|  4> S         -6.90318       -4.61903       -0.52846
|  5> O         -8.11485       -5.25093       -0.95701
|  6> F         -6.53271       -3.42684       -1.31485
|  7> O         -6.86563       -4.29496        0.91412
|  8> H         -5.55376       -6.07856       -1.85145
|  9> H         -5.73990       -6.68165       -0.22212
| 10> H         -4.63562       -5.36690       -0.54622
| 11> *
| 12> %MaxCore 64000
| 13>
| 14> %pal nprocs 4
| 15> end
| 16>
| 17> %scf
| 18>   MaxIter 150
| 19> end
| 20>
| 21>                          ****END OF INPUT****

CARTESIAN COORDINATES (ANGSTROEM)
---------------------------------
  C     -5.572360   -5.807800   -0.816440
  S     -6.903180   -4.619030   -0.528460
  O     -8.114850   -5.250930   -0.957010
  F     -6.532710   -3.426840   -1.314850
  O     -6.865630   -4.294960    0.914120
  H     -5.553760   -6.078560   -1.851450
  H     -5.739900   -6.681650   -0.222120
  H     -4.635620   -5.366900   -0.546220

 Total Charge           Charge          ....    0
 Multiplicity           Mult            ....    1
 Number of Electrons    NEL             ....   50
 Basis Dimension        Dim             ....  140

ORBITAL ENERGIES
----------------

  NO   OCC          E(Eh)            E(eV)
   0   2.0000     -89.145959     -2425.7849
   1   2.0000     -24.805023      -674.9790
   2   2.0000     -19.161505      -521.4111
   3   2.0000     -19.148541      -521.0583
   4   2.0000     -10.249580      -278.9053
   5   2.0000      -8.199991      -223.1331
   6   2.0000      -6.172847      -167.9717
   7   2.0000      -6.166667      -167.8035
   8   2.0000      -6.165651      -167.7759
   9   2.0000      -1.354940       -36.8698
  10   2.0000      -1.118333       -30.4314
  11   2.0000      -1.015086       -27.6219
  12   2.0000      -0.802114       -21.8266
  13   2.0000      -0.710997       -19.3472
  14   2.0000      -0.598568       -16.2879
  15   2.0000      -0.576102       -15.6765
  16   2.0000      -0.558344       -15.1933
  17   2.0000      -0.484476       -13.1833
  18   2.0000      -0.482668       -13.1341
  19   2.0000      -0.472016       -12.8442
  20   2.0000      -0.447375       -12.1737
  21   2.0000      -0.394956       -10.7473
  22   2.0000      -0.349807        -9.5187
  23   2.0000      -0.336095        -9.1456
  24   2.0000      -0.318722        -8.6729
  25   0.0000      -0.011619        -0.3162
  26   0.0000       0.025290         0.6882
  27   0.0000       0.031191         0.8487
  28   0.0000       0.045058         1.2261
  29   0.0000       0.045491         1.2379

MULLIKEN ATOMIC CHARGES
-----------------------
   0 C :    0.681504
   1 S :    1.261752
   2 O :   -0.612201
   3 F :   -0.390967
   4 O :   -0.656790
   5 H :   -0.088260
   6 H :   -0.102331
   7 H :   -0.092706
Sum of atomic charges:   -0.0000000

LOEWDIN ATOMIC CHARGES
----------------------
   0 C :    0.136947
   1 S :    1.110187
   2 O :   -0.460340
   3 F :   -0.273080
   4 O :   -0.480174
   5 H :   -0.015711
   6 H :   -0.002653
   7 H :   -0.015178

  Mayer bond orders larger than 0.100000
B(  0-C ,  1-S ) :   0.9756 B(  0-C ,  5-H ) :   0.8833 B(  0-C ,  6-H ) :   0.8824
B(  0-C ,  7-H ) :   0.8874 B(  1-S ,  2-O ) :   1.5504 B(  1-S ,  3-F ) :   0.6721
B(  1-S ,  4-O ) :   1.5060 B(  1-S ,  6-H ) :   0.1258 B(  1-S ,  7-H ) :   0.1062

Dispersion correction           -0.010347428
FINAL SINGLE POINT ENERGY      -687.821172616794

DIPOLE MOMENT
-------------
                                X             Y             Z
Electronic contribution:     -2.58242       4.64300      -0.70112
Nuclear contribution   :      3.94974      -5.09866      -0.16489
                        -----------------------------------------
Total Dipole Moment    :      1.36732      -0.45566      -0.86601
                        -----------------------------------------
Magnitude (a.u.)       :      1.68141
Magnitude (Debye)      :      4.27381

Rotational constants in cm-1:     0.163657     0.151977     0.145976
Rotational constants in MHz :  4906.325390  4556.144033  4376.262759

                             ****ORCA TERMINATED NORMALLY****
TOTAL RUN TIME: 0 days 0 hours 0 minutes 11 seconds 178 msec
