                         Program Version 5.0.0 -  RELEASE  -
|  1> !B3LYP D3BJ RIJCOSX def2-SVPD def2/J TightSCF
|  2> *xyz 0 1
|  3> C         -5.57236       -5.80780       -0.81644
|  4> S         -6.90318       -4.61903       -0.52846
|  5> O         -8.11485       -5.25093       -0.95701
|  6> O         -6.53271       -3.42684       -1.31485
|  7> F         -6.86563       -4.29496        0.91412
|  8> H         -5.55376       -6.07856       -1.85145
|  9> H         -5.73990       -6.68165       -0.22212
| 10> H         -4.63562       -5.36690       -0.54622
| 11> *
| 12> %MaxCore 64000
| 13>
| 14> %pal nprocs 4
| 15> end
| 16>
| 17> %scf
| 18>   MaxIter 150
| 19> end
| 20>
| 21>                          ****END OF INPUT****

CARTESIAN COORDINATES (ANGSTROEM)
---------------------------------
  C     -5.572360   -5.807800   -0.816440
  S     -6.903180   -4.619030   -0.528460
  O     -8.114850   -5.250930   -0.957010
  O     -6.532710   -3.426840   -1.314850
  F     -6.865630   -4.294960    0.914120
  H     -5.553760   -6.078560   -1.851450
  H     -5.739900   -6.681650   -0.222120
  H     -4.635620   -5.366900   -0.546220

 Total Charge           Charge          ....    0
 Multiplicity           Mult            ....    1
 Number of Electrons    NEL             ....   50
 Basis Dimension        Dim             ....  140

ORBITAL ENERGIES
----------------

  NO   OCC          E(Eh)            E(eV)
   0   2.0000     -89.145682     -2425.7773
   1   2.0000     -24.804926      -674.9764
   2   2.0000     -19.161600      -521.4136
   3   2.0000     -19.147624      -521.0333
   4   2.0000     -10.249578      -278.9052
   5   2.0000      -8.199747      -223.1265
   6   2.0000      -6.172566      -167.9641
   7   2.0000      -6.166423      -167.7969
   8   2.0000      -6.165433      -167.7700
   9   2.0000      -1.352985       -36.8166
  10   2.0000      -1.119100       -30.4522
  11   2.0000      -1.015918       -27.6445
  12   2.0000      -0.801351       -21.8059
  13   2.0000      -0.710684       -19.3387
  14   2.0000      -0.597884       -16.2692
  15   2.0000      -0.574892       -15.6436
  16   2.0000      -0.557814       -15.1789
  17   2.0000      -0.484059       -13.1719
  18   2.0000      -0.482587       -13.1319
  19   2.0000      -0.472888       -12.8679
  20   2.0000      -0.447448       -12.1757
  21   2.0000      -0.395119       -10.7517
  22   2.0000      -0.349788        -9.5182
  23   2.0000      -0.335558        -9.1310
  24   2.0000      -0.318786        -8.6746
  25   0.0000      -0.013134        -0.3574
  26   0.0000       0.022864         0.6222
  27   0.0000       0.031335         0.8527
  28   0.0000       0.045038         1.2255
  29   0.0000       0.045480         1.2376

MULLIKEN ATOMIC CHARGES
-----------------------
   0 C :    0.682544
   1 S :    1.261593
   2 O :   -0.612075
   3 O :   -0.656056
   4 F :   -0.392930
   5 H :   -0.096530
   6 H :   -0.095584
   7 H :   -0.090963
Sum of atomic charges:    0.0000000

LOEWDIN ATOMIC CHARGES
----------------------
   0 C :    0.137131
   1 S :    1.110513
   2 O :   -0.460130
   3 O :   -0.481155
   4 F :   -0.272703
   5 H :   -0.002152
   6 H :   -0.016764
   7 H :   -0.014739

  Mayer bond orders larger than 0.100000
B(  0-C ,  1-S ) :   0.9758 B(  0-C ,  5-H ) :   0.8810 B(  0-C ,  6-H ) :   0.8838
B(  0-C ,  7-H ) :   0.8883 B(  1-S ,  2-O ) :   1.5496 B(  1-S ,  3-O ) :   1.5101
B(  1-S ,  4-F ) :   0.6668 B(  1-S ,  5-H ) :   0.1254 B(  1-S ,  7-H ) :   0.1065

Dispersion correction           -0.010350340
FINAL SINGLE POINT ENERGY      -687.820789454764

DIPOLE MOMENT
-------------
                                X             Y             Z
Electronic contribution:     -3.13811       3.18873       3.02265
Nuclear contribution   :      4.28235      -4.23136      -2.39177
                        -----------------------------------------
Total Dipole Moment    :      1.14424      -1.04262       0.63088
                        -----------------------------------------
Magnitude (a.u.)       :      1.67163
Magnitude (Debye)      :      4.24895

Rotational constants in cm-1:     0.164456     0.151338     0.145749
Rotational constants in MHz :  4930.268698  4537.002642  4369.437533

                             ****ORCA TERMINATED NORMALLY****
TOTAL RUN TIME: 0 days 0 hours 0 minutes 11 seconds 365 msec
