                         Program Version 5.0.0 -  RELEASE  -
|  1> !B3LYP D3BJ RIJCOSX def2-SVPD def2/J TightSCF xyzfile
|  2>
|  3> *xyzfile 0 1 D1.xyz
|  4>
|  5> %MaxCore 64000
|  6>
|  7> %pal nprocs 4
|  8> end
|  9>
| 10> %scf
| 11>   MaxIter 150
| 12> end
| 13>
| 14>
| 15>                          ****END OF INPUT****

CARTESIAN COORDINATES (ANGSTROEM)
---------------------------------
  C     -4.382623   -1.670889    1.216201
  C     -5.763539   -1.915170    0.705012
  C     -3.281728   -2.191272    0.294361
  C     -5.572364   -5.807798   -0.816445
  S     -6.903179   -4.619033   -0.528458
  H     -5.840812   -2.115205   -0.300646
  H     -6.408823   -1.148656    0.936124
  H     -6.174781   -2.790606    1.051433
  F     -8.114853   -5.250932   -0.957007
  O     -6.532715   -3.426838   -1.314848
  H     -4.328618   -2.139223    2.198103
  H     -4.261583   -0.597399    1.357248
  O     -6.865632   -4.294957    0.914118
  C     -3.474641   -3.605898   -0.259608
  H     -2.354548   -2.127602    0.871433
  H     -3.166611   -1.499693   -0.545037
  C     -3.827078   -4.661097    0.786174
  H     -2.560559   -3.889391   -0.788050
  H     -4.255932   -3.570040   -1.019300
  C     -4.457800   -5.941875    0.229195
  H     -5.177347   -5.542575   -1.797714
  H     -6.074202   -6.768894   -0.921272
  H     -4.530506   -4.253640    1.511979
  H     -2.933400   -4.932302    1.356825
  H     -3.681064   -6.562236   -0.229885
  H     -4.843942   -6.512728    1.075805

 Total Charge           Charge          ....    0
 Multiplicity           Mult            ....    1
 Number of Electrons    NEL             ....   98
 Basis Dimension        Dim             ....  356

ORBITAL ENERGIES
----------------

  NO   OCC          E(Eh)            E(eV)
   0   2.0000     -89.148947     -2425.8662
   1   2.0000     -24.826805      -675.5717
   2   2.0000     -19.152249      -521.1592
   3   2.0000     -19.151033      -521.1261
   4   2.0000     -10.250891      -278.9409
   5   2.0000     -10.212993      -277.9097
   6   2.0000     -10.179527      -276.9990
   7   2.0000     -10.168622      -276.7023
   8   2.0000     -10.160002      -276.4677
   9   2.0000     -10.145847      -276.0825
  10   2.0000     -10.089949      -274.5615
  11   2.0000      -8.202293      -223.1958
  12   2.0000      -6.175342      -168.0396
  13   2.0000      -6.168931      -167.8651
  14   2.0000      -6.167665      -167.8307
  15   2.0000      -1.391690       -37.8698
  16   2.0000      -1.110176       -30.2094
  17   2.0000      -1.007946       -27.4276
  18   2.0000      -0.832397       -22.6507
  19   2.0000      -0.790610       -21.5136
  20   2.0000      -0.752673       -20.4813
  21   2.0000      -0.725923       -19.7534
  22   2.0000      -0.689535       -18.7632
  23   2.0000      -0.643243       -17.5035
  24   2.0000      -0.611420       -16.6376
  25   2.0000      -0.604185       -16.4407
  26   2.0000      -0.586892       -15.9701
  27   2.0000      -0.555848       -15.1254
  28   2.0000      -0.536529       -14.5997
  29   2.0000      -0.497875       -13.5479
  30   2.0000      -0.496407       -13.5079
  31   2.0000      -0.472154       -12.8480
  32   2.0000      -0.470242       -12.7959
  33   2.0000      -0.442184       -12.0324
  34   2.0000      -0.435209       -11.8426
  35   2.0000      -0.416469       -11.3327
  36   2.0000      -0.412669       -11.2293
  37   2.0000      -0.388918       -10.5830
  38   2.0000      -0.380010       -10.3406
  39   2.0000      -0.376767       -10.2523
  40   2.0000      -0.347667        -9.4605
  41   2.0000      -0.342590        -9.3223
  42   2.0000      -0.337872        -9.1940
  43   2.0000      -0.334488        -9.1019
  44   2.0000      -0.325804        -8.8656
  45   2.0000      -0.312917        -8.5149
  46   2.0000      -0.295726        -8.0471
  47   2.0000      -0.289533        -7.8786
  48   2.0000      -0.267478        -7.2784
  49   0.0000      -0.008229        -0.2239
  50   0.0000       0.005136         0.1397
  51   0.0000       0.027722         0.7544
  52   0.0000       0.030680         0.8348
  53   0.0000       0.036097         0.9822

MULLIKEN ATOMIC CHARGES
-----------------------
   0 C :    0.137694
   1 C :    2.121407
   2 C :    0.635117
   3 C :    0.352343
   4 S :    1.669096
   5 H :   -0.470559
   6 H :   -0.494779
   7 H :   -0.953983
   8 F :   -0.541027
   9 O :   -0.692393
  10 H :    0.060046
  11 H :   -0.520292
  12 O :   -0.768581
  13 C :    0.294985
  14 H :   -0.149640
  15 H :   -0.030643
  16 C :    0.190434
  17 H :   -0.435721
  18 H :   -0.135988
  19 C :    0.654728
  20 H :    0.067932
  21 H :   -0.367970
  22 H :   -0.057381
  23 H :   -0.356800
  24 H :   -0.115698
  25 H :   -0.092327
Sum of atomic charges:    0.0000000

LOEWDIN ATOMIC CHARGES
----------------------
   0 C :   -0.039198
   1 C :    0.145319
   2 C :   -0.017555
   3 C :   -0.029842
   4 S :    1.203736
   5 H :   -0.096994
   6 H :   -0.022382
   7 H :   -0.136232
   8 F :   -0.247202
   9 O :   -0.463095
  10 H :    0.011504
  11 H :    0.011236
  12 O :   -0.452062
  13 C :   -0.004136
  14 H :    0.011860
  15 H :    0.022132
  16 C :   -0.002331
  17 H :    0.019870
  18 H :   -0.018528
  19 C :   -0.006999
  20 H :    0.020001
  21 H :    0.007890
  22 H :   -0.004929
  23 H :    0.028034
  24 H :    0.031944
  25 H :    0.027959

  Mayer bond orders larger than 0.100000
B(  0-C ,  1-C ) :   1.0436 B(  0-C ,  2-C ) :   1.1199 B(  0-C ,  5-H ) :   0.3522
B(  0-C ,  6-H ) :   0.1165 B(  0-C ,  7-H ) :   0.4226 B(  0-C , 10-H ) :   0.6497
B(  0-C , 11-H ) :   0.9328 B(  0-C , 14-H ) :   0.1950 B(  0-C , 15-H ) :   0.1864
B(  1-C ,  2-C ) :   0.1943 B(  1-C ,  5-H ) :  -0.1831 B(  1-C ,  6-H ) :   0.3374
B(  1-C ,  7-H ) :  -0.6550 B(  1-C , 10-H ) :   0.2237 B(  1-C , 17-H ) :   0.1338
B(  2-C , 10-H ) :   0.1450 B(  2-C , 13-C ) :   1.2438 B(  2-C , 14-H ) :   0.6965
B(  2-C , 15-H ) :   0.5865 B(  2-C , 17-H ) :   0.1081 B(  2-C , 18-H ) :   0.1299
B(  3-C ,  4-S ) :   0.9420 B(  3-C ,  8-F ) :   0.1167 B(  3-C , 16-C ) :   0.1034
B(  3-C , 19-C ) :   1.2053 B(  3-C , 20-H ) :   0.8446 B(  3-C , 21-H ) :   0.7748
B(  3-C , 24-H ) :   0.1617 B(  3-C , 25-H ) :   0.1376 B(  4-S ,  8-F ) :   0.5818
B(  4-S ,  9-O ) :   1.3569 B(  4-S , 12-O ) :   1.3469 B(  5-H ,  6-H ) :  -0.1142
B(  5-H ,  7-H ) :   1.0366 B(  5-H ,  9-O ) :   0.1991 B(  5-H , 11-H ) :   0.1757
B(  5-H , 17-H ) :  -0.1155 B(  5-H , 18-H ) :   0.1666 B(  6-H ,  7-H ) :   0.1593
B(  6-H , 11-H ) :  -0.1564 B(  6-H , 17-H ) :   0.1282 B(  6-H , 18-H ) :  -0.1569
B(  7-H , 10-H ) :  -0.1347 B(  7-H , 11-H ) :   0.1220 B(  7-H , 12-O ) :   0.1318
B(  7-H , 17-H ) :  -0.1412 B(  9-O , 12-O ) :   0.1838 B( 10-H , 11-H ) :  -0.2671
B( 10-H , 22-H ) :   0.1585 B( 11-H , 14-H ) :   0.1190 B( 13-C , 14-H ) :   0.1992
B( 13-C , 15-H ) :   0.2884 B( 13-C , 16-C ) :   1.1765 B( 13-C , 17-H ) :   0.7276
B( 13-C , 18-H ) :   0.7512 B( 13-C , 22-H ) :   0.1288 B( 13-C , 23-H ) :   0.1816
B( 14-H , 15-H ) :  -0.1322 B( 16-C , 17-H ) :   0.2123 B( 16-C , 18-H ) :   0.1962
B( 16-C , 19-C ) :   1.2426 B( 16-C , 22-H ) :   0.8370 B( 16-C , 23-H ) :   0.7444
B( 16-C , 24-H ) :   0.1479 B( 16-C , 25-H ) :   0.2910 B( 19-C , 21-H ) :   0.2386
B( 19-C , 24-H ) :   0.6875 B( 19-C , 25-H ) :   0.6006 B( 24-H , 25-H ) :  -0.1077

Dispersion correction           -0.050893907
FINAL SINGLE POINT ENERGY      -923.330405908137

DIPOLE MOMENT
-------------
                                X             Y             Z
Electronic contribution:    -18.91545      -8.68540      -6.72683
Nuclear contribution   :     19.08524       6.89775       6.14221
                        -----------------------------------------
Total Dipole Moment    :      0.16979      -1.78765      -0.58462
                        -----------------------------------------
Magnitude (a.u.)       :      1.88847
Magnitude (Debye)      :      4.80010

Rotational constants in cm-1:     0.049343     0.024787     0.019726
Rotational constants in MHz :  1479.262779   743.087234   591.370705

                             ****ORCA TERMINATED NORMALLY****
TOTAL RUN TIME: 0 days 0 hours 1 minutes 43 seconds 86 msec
