                         Program Version 5.0.0 -  RELEASE  -
|  1> !BLYP D3BJ RIJCOSX def2-SVPD def2/J TightSCF
|  2> *xyz -1 1
|  3> C          0.70466        1.44313       -4.50363
|  4> C          1.72854        1.42432       -5.63944
|  5> H          2.64672        1.95379       -5.38105
|  6> H          1.29992        1.93061       -6.50361
|  7> S          2.25263       -0.18811       -6.27184
|  8> O          3.56261       -0.44446       -5.63155
|  9> O          2.34494       -0.03374       -7.69650
| 10> O          1.26606       -1.15918       -5.80536
| 11> H         -0.17385        0.91270       -4.80656
| 12> H          0.44778        2.45562       -4.27173
| 13> H          1.12367        0.97423       -3.63791
| 14> *
| 15>
| 16> %MaxCore 64000
| 17>
| 18> %pal nprocs 4
| 19> end
| 20>
| 21> %scf
| 22>   MaxIter 150
| 23> end
| 24>
| 25>
| 26>                          ****END OF INPUT****

CARTESIAN COORDINATES (ANGSTROEM)
---------------------------------
  C      0.704660    1.443130   -4.503630
  C      1.728540    1.424320   -5.639440
  H      2.646720    1.953790   -5.381050
  H      1.299920    1.930610   -6.503610
  S      2.252630   -0.188110   -6.271840
  O      3.562610   -0.444460   -5.631550
  O      2.344940   -0.033740   -7.696500
  O      1.266060   -1.159180   -5.805360
  H     -0.173850    0.912700   -4.806560
  H      0.447780    2.455620   -4.271730
  H      1.123670    0.974230   -3.637910

 Total Charge           Charge          ....   -1
 Multiplicity           Mult            ....    1
 Number of Electrons    NEL             ....   58
 Basis Dimension        Dim             ....  176

ORBITAL ENERGIES
----------------

  NO   OCC          E(Eh)            E(eV)
   0   2.0000     -88.127580     -2398.0734
   1   2.0000     -18.572846      -505.3928
   2   2.0000     -18.566348      -505.2160
   3   2.0000     -18.557961      -504.9878
   4   2.0000      -9.783004      -266.2091
   5   2.0000      -9.782932      -266.2071
   6   2.0000      -7.664315      -208.5566
   7   2.0000      -5.699408      -155.0888
   8   2.0000      -5.699305      -155.0860
   9   2.0000      -5.698618      -155.0673
  10   2.0000      -0.833076       -22.6692
  11   2.0000      -0.698727       -19.0133
  12   2.0000      -0.675967       -18.3940
  13   2.0000      -0.550013       -14.9666
  14   2.0000      -0.436303       -11.8724
  15   2.0000      -0.318530        -8.6676
  16   2.0000      -0.266787        -7.2596
  17   2.0000      -0.257775        -7.0144
  18   2.0000      -0.225075        -6.1246
  19   2.0000      -0.206941        -5.6312
  20   2.0000      -0.203860        -5.5473
  21   2.0000      -0.181253        -4.9321
  22   2.0000      -0.173376        -4.7178
  23   2.0000      -0.099233        -2.7003
  24   2.0000      -0.097339        -2.6487
  25   2.0000      -0.067758        -1.8438
  26   2.0000      -0.062606        -1.7036
  27   2.0000      -0.050352        -1.3702
  28   2.0000      -0.015552        -0.4232
  29   0.0000       0.123591         3.3631
  30   0.0000       0.155622         4.2347
  31   0.0000       0.166161         4.5215
  32   0.0000       0.170564         4.6413
  33   0.0000       0.193481         5.2649

MULLIKEN ATOMIC CHARGES
-----------------------
   0 C :    1.179847
   1 C :   -0.091324
   2 H :   -0.193205
   3 H :   -0.138823
   4 S :    1.134621
   5 O :   -0.774506
   6 O :   -0.714350
   7 O :   -0.762141
   8 H :   -0.169907
   9 H :   -0.278031
  10 H :   -0.192181
Sum of atomic charges:   -1.0000000

LOEWDIN ATOMIC CHARGES
----------------------
   0 C :    0.111968
   1 C :   -0.117305
   2 H :   -0.007287
   3 H :   -0.015293
   4 S :    0.823072
   5 O :   -0.583521
   6 O :   -0.557101
   7 O :   -0.562186
   8 H :   -0.028743
   9 H :   -0.041626
  10 H :   -0.021978

  Mayer bond orders larger than 0.100000
B(  0-C ,  1-C ) :   1.2843 B(  0-C ,  3-H ) :   0.1203 B(  0-C ,  8-H ) :   0.7051
B(  0-C ,  9-H ) :   0.6264 B(  0-C , 10-H ) :   0.7129 B(  1-C ,  2-H ) :   0.9113
B(  1-C ,  3-H ) :   0.9100 B(  1-C ,  4-S ) :   0.8526 B(  1-C ,  8-H ) :   0.2691
B(  1-C ,  9-H ) :   0.2955 B(  1-C , 10-H ) :   0.2441 B(  4-S ,  5-O ) :   1.3164
B(  4-S ,  6-O ) :   1.3846 B(  4-S ,  7-O ) :   1.3271

Dispersion correction           -0.020270714
FINAL SINGLE POINT ENERGY      -702.708344615577

DIPOLE MOMENT
-------------
                                X             Y             Z
Electronic contribution:      3.65071      -5.63040      -4.30240
Nuclear contribution   :     -4.50297       7.24642       5.01775
                        -----------------------------------------
Total Dipole Moment    :     -0.85226       1.61601       0.71535
                        -----------------------------------------
Magnitude (a.u.)       :      1.96203
Magnitude (Debye)      :      4.98709

Rotational constants in cm-1:     0.162459     0.081286     0.079601
Rotational constants in MHz :  4870.394399  2436.893583  2386.374948

                             ****ORCA TERMINATED NORMALLY****
TOTAL RUN TIME: 0 days 0 hours 0 minutes 10 seconds 667 msec
