                         Program Version 5.0.0 -  RELEASE  -
|  1> !BLYP D3BJ RIJCOSX def2-SVPD def2/J TightSCF
|  2> *xyz 1 1
|  3> C          2.91632       -1.24259       -1.54313
|  4> C          3.46659       -1.59097       -2.88908
|  5> N          4.65227       -1.14316       -3.25969
|  6> N          2.75226       -2.29204       -3.72803
|  7> H          1.77836       -2.48960       -3.51274
|  8> H          2.94861       -2.20854       -4.71681
|  9> H          5.14672       -0.51251       -2.63385
| 10> H          4.78303       -1.00720       -4.25350
| 11> C          2.80408        0.29070       -1.35924
| 12> H          1.94047       -1.71653       -1.44116
| 13> H          3.55857       -1.66343       -0.76637
| 14> H          2.17393        0.69633       -2.12297
| 15> H          3.77707        0.73043       -1.42880
| 16> H          2.38369        0.50492       -0.39889
| 17> *
| 18>
| 19> %MaxCore 64000
| 20>
| 21> %pal nprocs 4
| 22> end
| 23>
| 24> %scf
| 25>   MaxIter 150
| 26> end
| 27>
| 28>
| 29>                          ****END OF INPUT****

CARTESIAN COORDINATES (ANGSTROEM)
---------------------------------
  C      2.916320   -1.242590   -1.543130
  C      3.466590   -1.590970   -2.889080
  N      4.652270   -1.143160   -3.259690
  N      2.752260   -2.292040   -3.728030
  H      1.778360   -2.489600   -3.512740
  H      2.948610   -2.208540   -4.716810
  H      5.146720   -0.512510   -2.633850
  H      4.783030   -1.007200   -4.253500
  C      2.804080    0.290700   -1.359240
  H      1.940470   -1.716530   -1.441160
  H      3.558570   -1.663430   -0.766370
  H      2.173930    0.696330   -2.122970
  H      3.777070    0.730430   -1.428800
  H      2.383690    0.504920   -0.398890

 Total Charge           Charge          ....    1
 Multiplicity           Mult            ....    1
 Number of Electrons    NEL             ....   40
 Basis Dimension        Dim             ....  172

ORBITAL ENERGIES
----------------

  NO   OCC          E(Eh)            E(eV)
   0   2.0000     -14.273819      -388.4104
   1   2.0000     -14.268769      -388.2729
   2   2.0000     -10.239052      -278.6188
   3   2.0000     -10.124451      -275.5003
   4   2.0000     -10.086813      -274.4761
   5   2.0000      -1.113700       -30.3053
   6   2.0000      -1.021528       -27.7972
   7   2.0000      -0.888277       -24.1712
   8   2.0000      -0.793505       -21.5924
   9   2.0000      -0.753013       -20.4905
  10   2.0000      -0.714885       -19.4530
  11   2.0000      -0.693695       -18.8764
  12   2.0000      -0.649424       -17.6717
  13   2.0000      -0.612406       -16.6644
  14   2.0000      -0.575655       -15.6644
  15   2.0000      -0.552496       -15.0342
  16   2.0000      -0.508757       -13.8440
  17   2.0000      -0.498584       -13.5672
  18   2.0000      -0.486612       -13.2414
  19   2.0000      -0.457703       -12.4547
  20   0.0000      -0.253822        -6.9068
  21   0.0000      -0.185783        -5.0554
  22   0.0000      -0.144045        -3.9197
  23   0.0000      -0.142810        -3.8861
  24   0.0000      -0.108737        -2.9589

MULLIKEN ATOMIC CHARGES
-----------------------
   0 C :    0.091753
   1 C :    0.188612
   2 N :    0.378012
   3 N :    0.345285
   4 H :   -0.021226
   5 H :   -0.159276
   6 H :   -0.026447
   7 H :   -0.133327
   8 C :    1.096970
   9 H :   -0.118155
  10 H :   -0.086083
  11 H :   -0.193279
  12 H :   -0.221775
  13 H :   -0.141064
Sum of atomic charges:    1.0000000

LOEWDIN ATOMIC CHARGES
----------------------
   0 C :    0.030261
   1 C :   -0.072647
   2 N :    0.307425
   3 N :    0.304668
   4 H :    0.051947
   5 H :    0.044286
   6 H :    0.042327
   7 H :    0.042341
   8 C :    0.190838
   9 H :    0.030420
  10 H :    0.049623
  11 H :   -0.004377
  12 H :   -0.021981
  13 H :    0.004869

  Mayer bond orders larger than 0.100000
B(  0-C ,  1-C ) :   1.2488 B(  0-C ,  8-C ) :   1.2700 B(  0-C ,  9-H ) :   0.8133
B(  0-C , 10-H ) :   0.7290 B(  0-C , 11-H ) :   0.2031 B(  0-C , 12-H ) :   0.2356
B(  0-C , 13-H ) :   0.2067 B(  1-C ,  2-N ) :   1.2173 B(  1-C ,  3-N ) :   1.1956
B(  1-C ,  5-H ) :  -0.1063 B(  1-C ,  9-H ) :   0.2178 B(  1-C , 10-H ) :   0.1950
B(  2-N ,  3-N ) :   0.1924 B(  2-N ,  6-H ) :   1.0027 B(  2-N ,  7-H ) :   1.1702
B(  3-N ,  4-H ) :   1.0475 B(  3-N ,  5-H ) :   1.1806 B(  4-H ,  5-H ) :  -0.1411
B(  6-H ,  7-H ) :  -0.1353 B(  8-C ,  9-H ) :   0.1232 B(  8-C , 11-H ) :   0.7137
B(  8-C , 12-H ) :   0.7013 B(  8-C , 13-H ) :   0.7694

Dispersion correction           -0.020755680
FINAL SINGLE POINT ENERGY      -228.781159171074

DIPOLE MOMENT
-------------
                                X             Y             Z
Electronic contribution:      1.32459      -2.86119      -2.77542
Nuclear contribution   :     -1.30215       2.77761       1.84194
                        -----------------------------------------
Total Dipole Moment    :      0.02244      -0.08359      -0.93349
                        -----------------------------------------
Magnitude (a.u.)       :      0.93749
Magnitude (Debye)      :      2.38292

Rotational constants in cm-1:     0.267442     0.127541     0.099068
Rotational constants in MHz :  8017.703171  3823.592522  2969.992494

                             ****ORCA TERMINATED NORMALLY****
TOTAL RUN TIME: 0 days 0 hours 0 minutes 10 seconds 128 msec
