                         Program Version 5.0.0 -  RELEASE  -
|  1> !BLYP D3BJ RIJCOSX def2-SVPD def2/J TightSCF xyzfile
|  2>
|  3> *xyzfile 0 1 B.xyz
|  4>
|  5> %MaxCore 64000
|  6>
|  7> %pal nprocs 4
|  8> end
|  9>
| 10> %scf
| 11>   MaxIter 150
| 12> end
| 13>
| 14>
| 15>                          ****END OF INPUT****

CARTESIAN COORDINATES (ANGSTROEM)
---------------------------------
  C      2.916324   -1.242589   -1.543125
  C      0.704661    1.443129   -4.503630
  C      1.728539    1.424320   -5.639443
  H      2.646718    1.953794   -5.381054
  H      1.299916    1.930613   -6.503614
  S      2.252625   -0.188115   -6.271840
  C      3.466585   -1.590971   -2.889082
  N      4.652275   -1.143164   -3.259692
  N      2.752264   -2.292043   -3.728029
  H      1.778364   -2.489604   -3.512738
  H      2.948612   -2.208544   -4.716813
  H      5.146723   -0.512508   -2.633852
  H      4.783030   -1.007203   -4.253498
  O      3.562607   -0.444464   -5.631552
  O      2.344944   -0.033742   -7.696501
  C      2.804084    0.290698   -1.359243
  C      1.052550    0.695659   -3.214915
  H     -0.232483    1.032925   -4.884449
  H      0.511700    2.495794   -4.267966
  C      2.388380    1.093669   -2.597108
  H      3.763425    0.674718   -0.999889
  H      2.094788    0.461222   -0.545756
  O      1.266058   -1.159177   -5.805365
  H      3.167316    1.013242   -3.359430
  H      2.357690    2.149375   -2.310997
  H      1.039284   -0.368429   -3.449329
  H      0.250787    0.865605   -2.488283
  H      1.940472   -1.716529   -1.441161
  H      3.558569   -1.663433   -0.766371

 Total Charge           Charge          ....    0
 Multiplicity           Mult            ....    1
 Number of Electrons    NEL             ....  112
 Basis Dimension        Dim             ....  404

ORBITAL ENERGIES
----------------

  NO   OCC          E(Eh)            E(eV)
   0   2.0000     -88.284499     -2402.3433
   1   2.0000     -18.730550      -509.6842
   2   2.0000     -18.724293      -509.5139
   3   2.0000     -18.715583      -509.2769
   4   2.0000     -14.096868      -383.5953
   5   2.0000     -14.095823      -383.5668
   6   2.0000     -10.072325      -274.0819
   7   2.0000      -9.984738      -271.6985
   8   2.0000      -9.964456      -271.1466
   9   2.0000      -9.937100      -270.4022
  10   2.0000      -9.924851      -270.0689
  11   2.0000      -9.921194      -269.9694
  12   2.0000      -9.918155      -269.8867
  13   2.0000      -7.820030      -212.7938
  14   2.0000      -5.855946      -159.3484
  15   2.0000      -5.854910      -159.3202
  16   2.0000      -5.853729      -159.2881
  17   2.0000      -0.990671       -26.9575
  18   2.0000      -0.943013       -25.6607
  19   2.0000      -0.852814       -23.2062
  20   2.0000      -0.848726       -23.0950
  21   2.0000      -0.844522       -22.9806
  22   2.0000      -0.760485       -20.6939
  23   2.0000      -0.716766       -19.5042
  24   2.0000      -0.674304       -18.3487
  25   2.0000      -0.626767       -17.0552
  26   2.0000      -0.605372       -16.4730
  27   2.0000      -0.571977       -15.5643
  28   2.0000      -0.545191       -14.8354
  29   2.0000      -0.530371       -14.4321
  30   2.0000      -0.518381       -14.1059
  31   2.0000      -0.483189       -13.1482
  32   2.0000      -0.471139       -12.8204
  33   2.0000      -0.455786       -12.4026
  34   2.0000      -0.444039       -12.0829
  35   2.0000      -0.420913       -11.4536
  36   2.0000      -0.412065       -11.2129
  37   2.0000      -0.395853       -10.7717
  38   2.0000      -0.385701       -10.4955
  39   2.0000      -0.381918       -10.3925
  40   2.0000      -0.376535       -10.2460
  41   2.0000      -0.365566        -9.9475
  42   2.0000      -0.352908        -9.6031
  43   2.0000      -0.341197        -9.2844
  44   2.0000      -0.333090        -9.0638
  45   2.0000      -0.328968        -8.9517
  46   2.0000      -0.303527        -8.2594
  47   2.0000      -0.298216        -8.1149
  48   2.0000      -0.286072        -7.7844
  49   2.0000      -0.283741        -7.7210
  50   2.0000      -0.257542        -7.0081
  51   2.0000      -0.252475        -6.8702
  52   2.0000      -0.220639        -6.0039
  53   2.0000      -0.216377        -5.8879
  54   2.0000      -0.208924        -5.6851
  55   2.0000      -0.178326        -4.8525
  56   0.0000      -0.089367        -2.4318
  57   0.0000      -0.039105        -1.0641
  58   0.0000      -0.013893        -0.3781
  59   0.0000       0.002470         0.0672
  60   0.0000       0.007567         0.2059

MULLIKEN ATOMIC CHARGES
-----------------------
   0 C :    0.757056
   1 C :    0.836572
   2 C :    0.497655
   3 H :   -0.050914
   4 H :   -0.419953
   5 S :    1.123717
   6 C :   -0.006790
   7 N :    0.545465
   8 N :    0.575442
   9 H :   -0.002765
  10 H :   -0.275910
  11 H :   -0.023684
  12 H :   -0.322496
  13 O :   -0.802767
  14 O :   -0.659419
  15 C :    0.710358
  16 C :    0.556717
  17 H :   -0.134042
  18 H :   -0.226182
  19 C :    0.223172
  20 H :   -0.161669
  21 H :   -0.278529
  22 O :   -0.836005
  23 H :   -0.131683
  24 H :   -0.338682
  25 H :   -0.550583
  26 H :   -0.209659
  27 H :   -0.006562
  28 H :   -0.387859
Sum of atomic charges:    0.0000000

LOEWDIN ATOMIC CHARGES
----------------------
   0 C :    0.058776
   1 C :   -0.022084
   2 C :   -0.049815
   3 H :    0.000389
   4 H :    0.004942
   5 S :    0.900920
   6 C :   -0.084885
   7 N :    0.305447
   8 N :    0.316448
   9 H :    0.035098
  10 H :   -0.030598
  11 H :    0.033616
  12 H :   -0.041089
  13 O :   -0.547880
  14 O :   -0.489920
  15 C :    0.003467
  16 C :   -0.012048
  17 H :    0.025064
  18 H :    0.020730
  19 C :   -0.012791
  20 H :    0.012921
  21 H :    0.022475
  22 O :   -0.524245
  23 H :   -0.006490
  24 H :    0.027950
  25 H :   -0.023891
  26 H :    0.024951
  27 H :    0.022099
  28 H :    0.030444

  Mayer bond orders larger than 0.100000
B(  0-C ,  6-C ) :   1.1252 B(  0-C ,  8-N ) :   0.1237 B(  0-C , 15-C ) :   1.1134
B(  0-C , 19-C ) :   0.1538 B(  0-C , 20-H ) :   0.1226 B(  0-C , 21-H ) :   0.1667
B(  0-C , 27-H ) :   0.6375 B(  0-C , 28-H ) :   0.4807 B(  1-C ,  2-C ) :   1.1532
B(  1-C ,  3-H ) :   0.1191 B(  1-C ,  4-H ) :   0.2583 B(  1-C , 16-C ) :   1.2070
B(  1-C , 17-H ) :   0.4924 B(  1-C , 18-H ) :   0.5608 B(  1-C , 25-H ) :   0.1124
B(  1-C , 26-H ) :   0.1155 B(  2-C ,  3-H ) :   0.8114 B(  2-C ,  4-H ) :   0.6974
B(  2-C ,  5-S ) :   0.8702 B(  2-C , 14-O ) :   0.1084 B(  2-C , 16-C ) :   0.1080
B(  2-C , 17-H ) :   0.1535 B(  2-C , 18-H ) :   0.2364 B(  5-S , 13-O ) :   1.1871
B(  5-S , 14-O ) :   1.4812 B(  5-S , 22-O ) :   1.2567 B(  6-C ,  7-N ) :   1.1177
B(  6-C ,  8-N ) :   1.2156 B(  6-C , 15-C ) :   0.1303 B(  6-C , 27-H ) :   0.2699
B(  6-C , 28-H ) :   0.3232 B(  7-N ,  8-N ) :   0.2231 B(  7-N , 11-H ) :   0.9933
B(  7-N , 12-H ) :   1.0542 B(  8-N ,  9-H ) :   0.9513 B(  8-N , 10-H ) :   1.0406
B(  9-H , 10-H ) :  -0.1392 B( 10-H , 13-O ) :   0.1346 B( 11-H , 12-H ) :  -0.1610
B( 12-H , 13-O ) :   0.1433 B( 13-O , 22-O ) :   0.1134 B( 15-C , 19-C ) :   1.1702
B( 15-C , 20-H ) :   0.5355 B( 15-C , 21-H ) :   0.6808 B( 15-C , 23-H ) :   0.1978
B( 15-C , 24-H ) :   0.1296 B( 15-C , 27-H ) :   0.1623 B( 15-C , 28-H ) :   0.1177
B( 16-C , 17-H ) :   0.3728 B( 16-C , 18-H ) :   0.1179 B( 16-C , 19-C ) :   1.2303
B( 16-C , 23-H ) :   0.2049 B( 16-C , 24-H ) :   0.2042 B( 16-C , 25-H ) :   0.6467
B( 16-C , 26-H ) :   0.5150 B( 17-H , 18-H ) :  -0.1686 B( 19-C , 20-H ) :   0.3420
B( 19-C , 21-H ) :   0.1980 B( 19-C , 23-H ) :   0.7637 B( 19-C , 24-H ) :   0.6481
B( 19-C , 25-H ) :   0.1933 B( 19-C , 26-H ) :   0.2617 B( 20-H , 21-H ) :  -0.1990

Dispersion correction           -0.074169826
FINAL SINGLE POINT ENERGY     -1009.008214550560

DIPOLE MOMENT
-------------
                                X             Y             Z
Electronic contribution:      2.74723      -6.28322     -13.41114
Nuclear contribution   :     -1.90023       6.18953      17.82209
                        -----------------------------------------
Total Dipole Moment    :      0.84700      -0.09370       4.41095
                        -----------------------------------------
Magnitude (a.u.)       :      4.49251
Magnitude (Debye)      :     11.41905

Rotational constants in cm-1:     0.036337     0.018755     0.015005
Rotational constants in MHz :  1089.341704   562.266628   449.834770

                             ****ORCA TERMINATED NORMALLY****
TOTAL RUN TIME: 0 days 0 hours 0 minutes 40 seconds 910 msec
