                         Program Version 5.0.0 -  RELEASE  -
|  1> !BLYP D3BJ RIJCOSX def2-SVPD def2/J TightSCF
|  2> *xyz 0 1
|  3> C          0.70466        1.44313       -4.50363
|  4> C          1.72854        1.42432       -5.63944
|  5> H          2.64672        1.95379       -5.38105
|  6> H          1.29992        1.93061       -6.50361
|  7> S          2.25263       -0.18811       -6.27184
|  8> F          3.56261       -0.44446       -5.63155
|  9> O          2.34494       -0.03374       -7.69650
| 10> O          1.26606       -1.15918       -5.80536
| 11> H         -0.17385        0.91270       -4.80656
| 12> H          0.44778        2.45562       -4.27173
| 13> H          1.12367        0.97423       -3.63791
| 14> *
| 15>
| 16> %MaxCore 64000
| 17>
| 18> %pal nprocs 4
| 19> end
| 20>
| 21> %scf
| 22>   MaxIter 150
| 23> end
| 24>
| 25>
| 26>                          ****END OF INPUT****

CARTESIAN COORDINATES (ANGSTROEM)
---------------------------------
  C      0.704660    1.443130   -4.503630
  C      1.728540    1.424320   -5.639440
  H      2.646720    1.953790   -5.381050
  H      1.299920    1.930610   -6.503610
  S      2.252630   -0.188110   -6.271840
  F      3.562610   -0.444460   -5.631550
  O      2.344940   -0.033740   -7.696500
  O      1.266060   -1.159180   -5.805360
  H     -0.173850    0.912700   -4.806560
  H      0.447780    2.455620   -4.271730
  H      1.123670    0.974230   -3.637910

 Total Charge           Charge          ....    0
 Multiplicity           Mult            ....    1
 Number of Electrons    NEL             ....   58
 Basis Dimension        Dim             ....  176

ORBITAL ENERGIES
----------------

  NO   OCC          E(Eh)            E(eV)
   0   2.0000     -88.380842     -2404.9650
   1   2.0000     -24.399088      -663.9329
   2   2.0000     -18.804927      -511.7081
   3   2.0000     -18.797923      -511.5175
   4   2.0000      -9.983417      -271.6626
   5   2.0000      -9.944286      -270.5978
   6   2.0000      -7.918591      -215.4758
   7   2.0000      -5.957768      -162.1191
   8   2.0000      -5.951594      -161.9511
   9   2.0000      -5.950013      -161.9081
  10   2.0000      -1.233303       -33.5599
  11   2.0000      -1.018886       -27.7253
  12   2.0000      -0.925998       -25.1977
  13   2.0000      -0.739475       -20.1221
  14   2.0000      -0.652083       -17.7441
  15   2.0000      -0.602425       -16.3928
  16   2.0000      -0.514401       -13.9976
  17   2.0000      -0.496188       -13.5020
  18   2.0000      -0.488105       -13.2820
  19   2.0000      -0.440515       -11.9870
  20   2.0000      -0.426103       -11.5949
  21   2.0000      -0.402111       -10.9420
  22   2.0000      -0.383789       -10.4434
  23   2.0000      -0.359013        -9.7692
  24   2.0000      -0.351854        -9.5744
  25   2.0000      -0.336308        -9.1514
  26   2.0000      -0.289804        -7.8860
  27   2.0000      -0.285435        -7.7671
  28   2.0000      -0.268938        -7.3182
  29   0.0000      -0.027531        -0.7491
  30   0.0000      -0.006639        -0.1807
  31   0.0000       0.012818         0.3488
  32   0.0000       0.023738         0.6460
  33   0.0000       0.027414         0.7460

MULLIKEN ATOMIC CHARGES
-----------------------
   0 C :    1.209162
   1 C :   -0.109004
   2 H :   -0.153268
   3 H :   -0.094919
   4 S :    1.310236
   5 F :   -0.382197
   6 O :   -0.581629
   7 O :   -0.628239
   8 H :   -0.144924
   9 H :   -0.241617
  10 H :   -0.183602
Sum of atomic charges:    0.0000000

LOEWDIN ATOMIC CHARGES
----------------------
   0 C :    0.148886
   1 C :   -0.077711
   2 H :    0.011429
   3 H :    0.016303
   4 S :    1.086660
   5 F :   -0.264620
   6 O :   -0.441427
   7 O :   -0.449111
   8 H :   -0.010169
   9 H :   -0.010640
  10 H :   -0.009600

  Mayer bond orders larger than 0.100000
B(  0-C ,  1-C ) :   1.3391 B(  0-C ,  3-H ) :   0.1073 B(  0-C ,  8-H ) :   0.7099
B(  0-C ,  9-H ) :   0.6230 B(  0-C , 10-H ) :   0.7106 B(  1-C ,  2-H ) :   0.8911
B(  1-C ,  3-H ) :   0.9122 B(  1-C ,  4-S ) :   0.9151 B(  1-C ,  8-H ) :   0.2641
B(  1-C ,  9-H ) :   0.2895 B(  1-C , 10-H ) :   0.2412 B(  4-S ,  5-F ) :   0.6826
B(  4-S ,  6-O ) :   1.5883 B(  4-S ,  7-O ) :   1.5353 B(  6-O ,  7-O ) :   0.1210

Dispersion correction           -0.019339317
FINAL SINGLE POINT ENERGY      -727.217861822329

DIPOLE MOMENT
-------------
                                X             Y             Z
Electronic contribution:      6.26970      -6.49091      -3.71809
Nuclear contribution   :     -6.09914       7.80989       4.64238
                        -----------------------------------------
Total Dipole Moment    :      0.17056       1.31898       0.92430
                        -----------------------------------------
Magnitude (a.u.)       :      1.61961
Magnitude (Debye)      :      4.11672

Rotational constants in cm-1:     0.154372     0.078826     0.078033
Rotational constants in MHz :  4627.943144  2363.154585  2339.382767

                             ****ORCA TERMINATED NORMALLY****
TOTAL RUN TIME: 0 days 0 hours 0 minutes 10 seconds 70 msec
