                         Program Version 5.0.0 -  RELEASE  -
|  1> !BLYP D3BJ RIJCOSX def2-SVPD def2/J TightSCF
|  2> *xyz 0 1
|  3> C          2.91632       -1.24259       -1.54313
|  4> C          3.46659       -1.59097       -2.88908
|  5> C          4.65227       -1.14316       -3.25969
|  6> N          2.75226       -2.29204       -3.72803
|  7> H          1.77836       -2.48960       -3.51274
|  8> H          2.94861       -2.20854       -4.71681
|  9> H          5.14672       -0.51251       -2.63385
| 10> H          4.78303       -1.00720       -4.25350
| 11> C          2.80408        0.29070       -1.35924
| 12> H          1.94047       -1.71653       -1.44116
| 13> H          3.55857       -1.66343       -0.76637
| 14> H          2.17393        0.69633       -2.12297
| 15> H          3.77707        0.73043       -1.42880
| 16> H          2.38369        0.50492       -0.39889
| 17> *
| 18>
| 19> %MaxCore 64000
| 20>
| 21> %pal nprocs 4
| 22> end
| 23>
| 24> %scf
| 25>   MaxIter 150
| 26> end
| 27>
| 28>
| 29>                          ****END OF INPUT****

CARTESIAN COORDINATES (ANGSTROEM)
---------------------------------
  C      2.916320   -1.242590   -1.543130
  C      3.466590   -1.590970   -2.889080
  C      4.652270   -1.143160   -3.259690
  N      2.752260   -2.292040   -3.728030
  H      1.778360   -2.489600   -3.512740
  H      2.948610   -2.208540   -4.716810
  H      5.146720   -0.512510   -2.633850
  H      4.783030   -1.007200   -4.253500
  C      2.804080    0.290700   -1.359240
  H      1.940470   -1.716530   -1.441160
  H      3.558570   -1.663430   -0.766370
  H      2.173930    0.696330   -2.122970
  H      3.777070    0.730430   -1.428800
  H      2.383690    0.504920   -0.398890

 Total Charge           Charge          ....    0
 Multiplicity           Mult            ....    1
 Number of Electrons    NEL             ....   40
 Basis Dimension        Dim             ....  172

ORBITAL ENERGIES
----------------

  NO   OCC          E(Eh)            E(eV)
   0   2.0000     -14.029771      -381.7695
   1   2.0000      -9.938889      -270.4509
   2   2.0000      -9.925105      -270.0758
   3   2.0000      -9.910858      -269.6882
   4   2.0000      -9.853422      -268.1252
   5   2.0000      -0.843087       -22.9416
   6   2.0000      -0.696979       -18.9658
   7   2.0000      -0.632056       -17.1991
   8   2.0000      -0.571559       -15.5529
   9   2.0000      -0.504601       -13.7309
  10   2.0000      -0.467514       -12.7217
  11   2.0000      -0.424178       -11.5425
  12   2.0000      -0.397821       -10.8253
  13   2.0000      -0.360591        -9.8122
  14   2.0000      -0.342314        -9.3148
  15   2.0000      -0.330239        -8.9863
  16   2.0000      -0.311808        -8.4847
  17   2.0000      -0.299711        -8.1556
  18   2.0000      -0.282393        -7.6843
  19   2.0000      -0.155865        -4.2413
  20   0.0000      -0.003469        -0.0944
  21   0.0000       0.003482         0.0948
  22   0.0000       0.029597         0.8054
  23   0.0000       0.037527         1.0212
  24   0.0000       0.050126         1.3640

MULLIKEN ATOMIC CHARGES
-----------------------
   0 C :    0.265424
   1 C :   -0.276279
   2 C :    0.666681
   3 N :    0.431229
   4 H :   -0.162530
   5 H :   -0.174403
   6 H :   -0.268608
   7 H :   -0.545067
   8 C :    1.070513
   9 H :   -0.216203
  10 H :   -0.146829
  11 H :   -0.240433
  12 H :   -0.249271
  13 H :   -0.154224
Sum of atomic charges:    0.0000000

LOEWDIN ATOMIC CHARGES
----------------------
   0 C :   -0.012119
   1 C :   -0.268270
   2 C :    0.181875
   3 N :    0.191234
   4 H :   -0.006443
   5 H :    0.001715
   6 H :   -0.091222
   7 H :   -0.093556
   8 C :    0.153044
   9 H :    0.001997
  10 H :    0.022344
  11 H :   -0.020070
  12 H :   -0.033321
  13 H :   -0.027207

  Mayer bond orders larger than 0.100000
B(  0-C ,  1-C ) :   1.2156 B(  0-C ,  2-C ) :   0.1013 B(  0-C ,  8-C ) :   1.2721
B(  0-C ,  9-H ) :   0.6761 B(  0-C , 10-H ) :   0.7299 B(  0-C , 11-H ) :   0.2171
B(  0-C , 12-H ) :   0.2349 B(  0-C , 13-H ) :   0.2211 B(  1-C ,  2-C ) :   1.7944
B(  1-C ,  3-N ) :   1.1940 B(  1-C ,  6-H ) :   0.1583 B(  1-C ,  7-H ) :   0.2393
B(  1-C ,  9-H ) :   0.2859 B(  1-C , 10-H ) :   0.2224 B(  2-C ,  3-N ) :   0.2869
B(  2-C ,  6-H ) :   0.6079 B(  2-C ,  7-H ) :   0.6712 B(  3-N ,  4-H ) :   1.0266
B(  3-N ,  5-H ) :   1.0765 B(  4-H ,  5-H ) :  -0.1250 B(  6-H ,  7-H ) :   0.1385
B(  8-C ,  9-H ) :   0.1208 B(  8-C , 10-H ) :   0.1085 B(  8-C , 11-H ) :   0.7239
B(  8-C , 12-H ) :   0.7434 B(  8-C , 13-H ) :   0.7207

Dispersion correction           -0.021692616
FINAL SINGLE POINT ENERGY      -212.311010071549

DIPOLE MOMENT
-------------
                                X             Y             Z
Electronic contribution:      0.11621      -2.75305      -1.82864
Nuclear contribution   :     -0.99366       2.78648       1.68526
                        -----------------------------------------
Total Dipole Moment    :     -0.87744       0.03342      -0.14337
                        -----------------------------------------
Magnitude (a.u.)       :      0.88971
Magnitude (Debye)      :      2.26146

Rotational constants in cm-1:     0.282898     0.128664     0.101801
Rotational constants in MHz :  8481.061354  3857.240210  3051.924245

                             ****ORCA TERMINATED NORMALLY****
TOTAL RUN TIME: 0 days 0 hours 0 minutes 10 seconds 913 msec
