                         Program Version 5.0.0 -  RELEASE  -
|  1> !BLYP D3BJ RIJCOSX def2-SVPD def2/J TightSCF
|  2> *xyz 0 1
|  3> C          0.70466        1.44313       -4.50363
|  4> C          1.72854        1.42432       -5.63944
|  5> H          2.64672        1.95379       -5.38105
|  6> H          1.29992        1.93061       -6.50361
|  7> S          2.25263       -0.18811       -6.27184
|  8> O          3.56261       -0.44446       -5.63155
|  9> F          2.34494       -0.03374       -7.69650
| 10> O          1.26606       -1.15918       -5.80536
| 11> H         -0.17385        0.91270       -4.80656
| 12> H          0.44778        2.45562       -4.27173
| 13> H          1.12367        0.97423       -3.63791
| 14> *
| 15>
| 16> %MaxCore 64000
| 17>
| 18> %pal nprocs 4
| 19> end
| 20>
| 21> %scf
| 22>   MaxIter 150
| 23> end
| 24>
| 25>
| 26>                          ****END OF INPUT****

CARTESIAN COORDINATES (ANGSTROEM)
---------------------------------
  C      0.704660    1.443130   -4.503630
  C      1.728540    1.424320   -5.639440
  H      2.646720    1.953790   -5.381050
  H      1.299920    1.930610   -6.503610
  S      2.252630   -0.188110   -6.271840
  O      3.562610   -0.444460   -5.631550
  F      2.344940   -0.033740   -7.696500
  O      1.266060   -1.159180   -5.805360
  H     -0.173850    0.912700   -4.806560
  H      0.447780    2.455620   -4.271730
  H      1.123670    0.974230   -3.637910

 Total Charge           Charge          ....    0
 Multiplicity           Mult            ....    1
 Number of Electrons    NEL             ....   58
 Basis Dimension        Dim             ....  176

ORBITAL ENERGIES
----------------

  NO   OCC          E(Eh)            E(eV)
   0   2.0000     -88.383148     -2405.0277
   1   2.0000     -24.421263      -664.5363
   2   2.0000     -18.798195      -511.5249
   3   2.0000     -18.790139      -511.3057
   4   2.0000      -9.984603      -271.6949
   5   2.0000      -9.945021      -270.6178
   6   2.0000      -7.920899      -215.5386
   7   2.0000      -5.960292      -162.1878
   8   2.0000      -5.953692      -162.0082
   9   2.0000      -5.952101      -161.9649
  10   2.0000      -1.270512       -34.5724
  11   2.0000      -1.005711       -27.3668
  12   2.0000      -0.906408       -24.6646
  13   2.0000      -0.740623       -20.1534
  14   2.0000      -0.666385       -18.1333
  15   2.0000      -0.609959       -16.5978
  16   2.0000      -0.525991       -14.3129
  17   2.0000      -0.522561       -14.2196
  18   2.0000      -0.494273       -13.4499
  19   2.0000      -0.441580       -12.0160
  20   2.0000      -0.427602       -11.6356
  21   2.0000      -0.393880       -10.7180
  22   2.0000      -0.381618       -10.3844
  23   2.0000      -0.361342        -9.8326
  24   2.0000      -0.346310        -9.4236
  25   2.0000      -0.331798        -9.0287
  26   2.0000      -0.283889        -7.7250
  27   2.0000      -0.273788        -7.4502
  28   2.0000      -0.253691        -6.9033
  29   0.0000      -0.028109        -0.7649
  30   0.0000      -0.009892        -0.2692
  31   0.0000       0.012567         0.3420
  32   0.0000       0.021345         0.5808
  33   0.0000       0.026729         0.7273

MULLIKEN ATOMIC CHARGES
-----------------------
   0 C :    1.182964
   1 C :   -0.106620
   2 H :   -0.153522
   3 H :   -0.095677
   4 S :    1.310005
   5 O :   -0.625425
   6 F :   -0.347390
   7 O :   -0.617188
   8 H :   -0.144048
   9 H :   -0.240114
  10 H :   -0.162984
Sum of atomic charges:    0.0000000

LOEWDIN ATOMIC CHARGES
----------------------
   0 C :    0.155757
   1 C :   -0.082737
   2 H :    0.016710
   3 H :    0.003789
   4 S :    1.089390
   5 O :   -0.463988
   6 F :   -0.244944
   7 O :   -0.449778
   8 H :   -0.011562
   9 H :   -0.009230
  10 H :   -0.003406

  Mayer bond orders larger than 0.100000
B(  0-C ,  1-C ) :   1.3492 B(  0-C ,  3-H ) :   0.1232 B(  0-C ,  8-H ) :   0.7077
B(  0-C ,  9-H ) :   0.6271 B(  0-C , 10-H ) :   0.7217 B(  1-C ,  2-H ) :   0.9185
B(  1-C ,  3-H ) :   0.8794 B(  1-C ,  4-S ) :   0.9077 B(  1-C ,  8-H ) :   0.2648
B(  1-C ,  9-H ) :   0.2850 B(  1-C , 10-H ) :   0.2340 B(  4-S ,  5-O ) :   1.5208
B(  4-S ,  6-F ) :   0.7553 B(  4-S ,  7-O ) :   1.5304 B(  5-O ,  7-O ) :   0.1012

Dispersion correction           -0.019363624
FINAL SINGLE POINT ENERGY      -727.198507460182

DIPOLE MOMENT
-------------
                                X             Y             Z
Electronic contribution:      4.20688      -5.80392      -7.16868
Nuclear contribution   :     -4.83029       7.38191       6.79413
                        -----------------------------------------
Total Dipole Moment    :     -0.62341       1.57799      -0.37456
                        -----------------------------------------
Magnitude (a.u.)       :      1.73752
Magnitude (Debye)      :      4.41643

Rotational constants in cm-1:     0.156575     0.079070     0.076729
Rotational constants in MHz :  4694.010604  2370.444114  2300.280155

                             ****ORCA TERMINATED NORMALLY****
TOTAL RUN TIME: 0 days 0 hours 0 minutes 10 seconds 911 msec
