                         Program Version 5.0.0 -  RELEASE  -
|  1> !BLYP D3BJ RIJCOSX def2-SVPD def2/J TightSCF
|  2> *xyz 0 1
|  3> C          2.91632       -1.24259       -1.54313
|  4> C          3.46659       -1.59097       -2.88908
|  5> N          4.65227       -1.14316       -3.25969
|  6> C          2.75226       -2.29204       -3.72803
|  7> H          1.77836       -2.48960       -3.51274
|  8> H          2.94861       -2.20854       -4.71681
|  9> H          5.14672       -0.51251       -2.63385
| 10> H          4.78303       -1.00720       -4.25350
| 11> C          2.80408        0.29070       -1.35924
| 12> H          1.94047       -1.71653       -1.44116
| 13> H          3.55857       -1.66343       -0.76637
| 14> H          2.17393        0.69633       -2.12297
| 15> H          3.77707        0.73043       -1.42880
| 16> H          2.38369        0.50492       -0.39889
| 17> *
| 18>
| 19> %MaxCore 64000
| 20>
| 21> %pal nprocs 4
| 22> end
| 23>
| 24> %scf
| 25>   MaxIter 150
| 26> end
| 27>
| 28>
| 29>                          ****END OF INPUT****

CARTESIAN COORDINATES (ANGSTROEM)
---------------------------------
  C      2.916320   -1.242590   -1.543130
  C      3.466590   -1.590970   -2.889080
  N      4.652270   -1.143160   -3.259690
  C      2.752260   -2.292040   -3.728030
  H      1.778360   -2.489600   -3.512740
  H      2.948610   -2.208540   -4.716810
  H      5.146720   -0.512510   -2.633850
  H      4.783030   -1.007200   -4.253500
  C      2.804080    0.290700   -1.359240
  H      1.940470   -1.716530   -1.441160
  H      3.558570   -1.663430   -0.766370
  H      2.173930    0.696330   -2.122970
  H      3.777070    0.730430   -1.428800
  H      2.383690    0.504920   -0.398890

 Total Charge           Charge          ....    0
 Multiplicity           Mult            ....    1
 Number of Electrons    NEL             ....   40
 Basis Dimension        Dim             ....  172

ORBITAL ENERGIES
----------------

  NO   OCC          E(Eh)            E(eV)
   0   2.0000     -14.026076      -381.6689
   1   2.0000      -9.937614      -270.4162
   2   2.0000      -9.923293      -270.0265
   3   2.0000      -9.915757      -269.8215
   4   2.0000      -9.856745      -268.2157
   5   2.0000      -0.838312       -22.8116
   6   2.0000      -0.694642       -18.9022
   7   2.0000      -0.642352       -17.4793
   8   2.0000      -0.564175       -15.3520
   9   2.0000      -0.503883       -13.7113
  10   2.0000      -0.471462       -12.8291
  11   2.0000      -0.421486       -11.4692
  12   2.0000      -0.387292       -10.5387
  13   2.0000      -0.382766       -10.4156
  14   2.0000      -0.339981        -9.2514
  15   2.0000      -0.333910        -9.0862
  16   2.0000      -0.312925        -8.5151
  17   2.0000      -0.297906        -8.1064
  18   2.0000      -0.277230        -7.5438
  19   2.0000      -0.162147        -4.4122
  20   0.0000      -0.006125        -0.1667
  21   0.0000       0.006365         0.1732
  22   0.0000       0.035004         0.9525
  23   0.0000       0.037537         1.0214
  24   0.0000       0.048050         1.3075

MULLIKEN ATOMIC CHARGES
-----------------------
   0 C :    0.135387
   1 C :   -0.408773
   2 N :    0.500535
   3 C :    0.567299
   4 H :   -0.155151
   5 H :   -0.545434
   6 H :   -0.178142
   7 H :   -0.165051
   8 C :    1.136251
   9 H :   -0.032832
  10 H :   -0.190254
  11 H :   -0.181773
  12 H :   -0.233015
  13 H :   -0.249046
Sum of atomic charges:   -0.0000000

LOEWDIN ATOMIC CHARGES
----------------------
   0 C :   -0.013700
   1 C :   -0.275930
   2 N :    0.197205
   3 C :    0.181949
   4 H :   -0.085683
   5 H :   -0.090361
   6 H :   -0.011586
   7 H :    0.000245
   8 C :    0.150942
   9 H :    0.014782
  10 H :    0.016081
  11 H :   -0.017883
  12 H :   -0.040657
  13 H :   -0.025403

  Mayer bond orders larger than 0.100000
B(  0-C ,  1-C ) :   1.3476 B(  0-C ,  3-C ) :   0.1041 B(  0-C ,  8-C ) :   1.2135
B(  0-C ,  9-H ) :   0.8307 B(  0-C , 10-H ) :   0.7077 B(  0-C , 11-H ) :   0.2051
B(  0-C , 12-H ) :   0.2627 B(  0-C , 13-H ) :   0.2787 B(  1-C ,  2-N ) :   1.2096
B(  1-C ,  3-C ) :   1.8236 B(  1-C ,  5-H ) :   0.3168 B(  1-C ,  9-H ) :   0.1847
B(  1-C , 10-H ) :   0.2618 B(  2-N ,  3-C ) :   0.3146 B(  2-N ,  6-H ) :   0.9766
B(  2-N ,  7-H ) :   1.0379 B(  3-C ,  4-H ) :   0.8409 B(  3-C ,  5-H ) :   0.5182
B(  3-C ,  9-H ) :  -0.1084 B(  4-H ,  5-H ) :   0.1548 B(  6-H ,  7-H ) :  -0.1087
B(  8-C ,  9-H ) :   0.1365 B(  8-C , 11-H ) :   0.7190 B(  8-C , 12-H ) :   0.6899
B(  8-C , 13-H ) :   0.7144

Dispersion correction           -0.021626519
FINAL SINGLE POINT ENERGY      -212.314209587157

DIPOLE MOMENT
-------------
                                X             Y             Z
Electronic contribution:      1.74413      -1.75490      -1.42291
Nuclear contribution   :     -1.43372       2.52039       1.57679
                        -----------------------------------------
Total Dipole Moment    :      0.31041       0.76548       0.15388
                        -----------------------------------------
Magnitude (a.u.)       :      0.84023
Magnitude (Debye)      :      2.13571

Rotational constants in cm-1:     0.274962     0.131786     0.102554
Rotational constants in MHz :  8243.150005  3950.846092  3074.493018

                             ****ORCA TERMINATED NORMALLY****
TOTAL RUN TIME: 0 days 0 hours 0 minutes 10 seconds 388 msec
