                         Program Version 5.0.0 -  RELEASE  -
|  1> !BLYP D3BJ RIJCOSX def2-SVPD def2/J TightSCF
|  2> *xyz 0 1
|  3> C          0.70466        1.44313       -4.50363
|  4> C          1.72854        1.42432       -5.63944
|  5> H          2.64672        1.95379       -5.38105
|  6> H          1.29992        1.93061       -6.50361
|  7> S          2.25263       -0.18811       -6.27184
|  8> O          3.56261       -0.44446       -5.63155
|  9> O          2.34494       -0.03374       -7.69650
| 10> F          1.26606       -1.15918       -5.80536
| 11> H         -0.17385        0.91270       -4.80656
| 12> H          0.44778        2.45562       -4.27173
| 13> H          1.12367        0.97423       -3.63791
| 14> *
| 15>
| 16> %MaxCore 64000
| 17>
| 18> %pal nprocs 4
| 19> end
| 20>
| 21> %scf
| 22>   MaxIter 150
| 23> end
| 24>
| 25>
| 26>                          ****END OF INPUT****

CARTESIAN COORDINATES (ANGSTROEM)
---------------------------------
  C      0.704660    1.443130   -4.503630
  C      1.728540    1.424320   -5.639440
  H      2.646720    1.953790   -5.381050
  H      1.299920    1.930610   -6.503610
  S      2.252630   -0.188110   -6.271840
  O      3.562610   -0.444460   -5.631550
  O      2.344940   -0.033740   -7.696500
  F      1.266060   -1.159180   -5.805360
  H     -0.173850    0.912700   -4.806560
  H      0.447780    2.455620   -4.271730
  H      1.123670    0.974230   -3.637910

 Total Charge           Charge          ....    0
 Multiplicity           Mult            ....    1
 Number of Electrons    NEL             ....   58
 Basis Dimension        Dim             ....  176

ORBITAL ENERGIES
----------------

  NO   OCC          E(Eh)            E(eV)
   0   2.0000     -88.381688     -2404.9880
   1   2.0000     -24.409627      -664.2197
   2   2.0000     -18.805037      -511.7111
   3   2.0000     -18.789746      -511.2950
   4   2.0000      -9.983473      -271.6641
   5   2.0000      -9.951749      -270.8009
   6   2.0000      -7.919443      -215.4990
   7   2.0000      -5.958816      -162.1476
   8   2.0000      -5.952347      -161.9716
   9   2.0000      -5.950696      -161.9267
  10   2.0000      -1.249775       -34.0081
  11   2.0000      -1.015212       -27.6253
  12   2.0000      -0.914453       -24.8835
  13   2.0000      -0.743196       -20.2234
  14   2.0000      -0.656034       -17.8516
  15   2.0000      -0.610728       -16.6188
  16   2.0000      -0.527748       -14.3608
  17   2.0000      -0.508489       -13.8367
  18   2.0000      -0.483100       -13.1458
  19   2.0000      -0.444694       -12.1007
  20   2.0000      -0.421347       -11.4654
  21   2.0000      -0.401232       -10.9181
  22   2.0000      -0.392175       -10.6716
  23   2.0000      -0.367586       -10.0025
  24   2.0000      -0.351963        -9.5774
  25   2.0000      -0.336042        -9.1442
  26   2.0000      -0.289774        -7.8851
  27   2.0000      -0.274451        -7.4682
  28   2.0000      -0.259979        -7.0744
  29   0.0000      -0.035491        -0.9658
  30   0.0000       0.004358         0.1186
  31   0.0000       0.016875         0.4592
  32   0.0000       0.020211         0.5500
  33   0.0000       0.026000         0.7075

MULLIKEN ATOMIC CHARGES
-----------------------
   0 C :    1.185877
   1 C :   -0.078144
   2 H :   -0.151959
   3 H :   -0.090817
   4 S :    1.288762
   5 O :   -0.628353
   6 O :   -0.571637
   7 F :   -0.384267
   8 H :   -0.164470
   9 H :   -0.229879
  10 H :   -0.175114
Sum of atomic charges:   -0.0000000

LOEWDIN ATOMIC CHARGES
----------------------
   0 C :    0.143497
   1 C :   -0.071780
   2 H :    0.024819
   3 H :    0.011291
   4 S :    1.085942
   5 O :   -0.464971
   6 O :   -0.440699
   7 F :   -0.253220
   8 H :   -0.016033
   9 H :   -0.010032
  10 H :   -0.008814

  Mayer bond orders larger than 0.100000
B(  0-C ,  1-C ) :   1.3137 B(  0-C ,  3-H ) :   0.1112 B(  0-C ,  8-H ) :   0.7078
B(  0-C ,  9-H ) :   0.6300 B(  0-C , 10-H ) :   0.7223 B(  1-C ,  2-H ) :   0.9107
B(  1-C ,  3-H ) :   0.9100 B(  1-C ,  4-S ) :   0.9233 B(  1-C ,  8-H ) :   0.2519
B(  1-C ,  9-H ) :   0.2878 B(  1-C , 10-H ) :   0.2273 B(  4-S ,  5-O ) :   1.5215
B(  4-S ,  6-O ) :   1.5874 B(  4-S ,  7-F ) :   0.7153 B(  5-O ,  6-O ) :   0.1075

Dispersion correction           -0.019241327
FINAL SINGLE POINT ENERGY      -727.208097653090

DIPOLE MOMENT
-------------
                                X             Y             Z
Electronic contribution:      2.40967      -7.64860      -4.01127
Nuclear contribution   :     -3.70606       8.55465       4.82350
                        -----------------------------------------
Total Dipole Moment    :     -1.29639       0.90605       0.81223
                        -----------------------------------------
Magnitude (a.u.)       :      1.77800
Magnitude (Debye)      :      4.51931

Rotational constants in cm-1:     0.153201     0.080978     0.077494
Rotational constants in MHz :  4592.852844  2427.650814  2323.207507

                             ****ORCA TERMINATED NORMALLY****
TOTAL RUN TIME: 0 days 0 hours 0 minutes 10 seconds 172 msec
