                         Program Version 5.0.0 -  RELEASE  -
|  1> !BLYP D3BJ RIJCOSX def2-SVPD def2/J TightSCF xyzfile
|  2>
|  3> *xyzfile 0 1 D1.xyz
|  4>
|  5> %MaxCore 64000
|  6>
|  7> %pal nprocs 4
|  8> end
|  9>
| 10> %scf
| 11>   MaxIter 150
| 12> end
| 13>
| 14>
| 15>                          ****END OF INPUT****

CARTESIAN COORDINATES (ANGSTROEM)
---------------------------------
  C      2.916324   -1.242589   -1.543125
  C      0.704661    1.443129   -4.503630
  C      1.728539    1.424320   -5.639443
  H      2.646718    1.953794   -5.381054
  H      1.299916    1.930613   -6.503614
  S      2.252625   -0.188115   -6.271840
  C      3.466585   -1.590971   -2.889082
  C      4.652275   -1.143164   -3.259692
  N      2.752264   -2.292043   -3.728029
  H      1.778364   -2.489604   -3.512738
  H      2.948612   -2.208544   -4.716813
  H      5.146723   -0.512508   -2.633852
  H      4.783030   -1.007203   -4.253498
  F      3.562607   -0.444464   -5.631552
  O      2.344944   -0.033742   -7.696501
  C      2.804084    0.290698   -1.359243
  C      1.052550    0.695659   -3.214915
  H     -0.232483    1.032925   -4.884449
  H      0.511700    2.495794   -4.267966
  C      2.388380    1.093669   -2.597108
  H      3.763425    0.674718   -0.999889
  H      2.094788    0.461222   -0.545756
  O      1.266058   -1.159177   -5.805365
  H      3.167316    1.013242   -3.359430
  H      2.357690    2.149375   -2.310997
  H      1.039284   -0.368429   -3.449329
  H      0.250787    0.865605   -2.488283
  H      1.940472   -1.716529   -1.441161
  H      3.558569   -1.663433   -0.766371

 Total Charge           Charge          ....    0
 Multiplicity           Mult            ....    1
 Number of Electrons    NEL             ....  112
 Basis Dimension        Dim             ....  404

ORBITAL ENERGIES
----------------

  NO   OCC          E(Eh)            E(eV)
   0   2.0000     -88.389944     -2405.2127
   1   2.0000     -24.408081      -664.1776
   2   2.0000     -18.811942      -511.8990
   3   2.0000     -18.807910      -511.7892
   4   2.0000     -14.021541      -381.5455
   5   2.0000      -9.984228      -271.6847
   6   2.0000      -9.951758      -270.8011
   7   2.0000      -9.937005      -270.3997
   8   2.0000      -9.929601      -270.1982
   9   2.0000      -9.926485      -270.1134
  10   2.0000      -9.924887      -270.0699
  11   2.0000      -9.924850      -270.0689
  12   2.0000      -9.850817      -268.0544
  13   2.0000      -7.926443      -215.6895
  14   2.0000      -5.965779      -162.3371
  15   2.0000      -5.959548      -162.1675
  16   2.0000      -5.957748      -162.1186
  17   2.0000      -1.244505       -33.8647
  18   2.0000      -1.027460       -27.9586
  19   2.0000      -0.935907       -25.4673
  20   2.0000      -0.839931       -22.8557
  21   2.0000      -0.756087       -20.5742
  22   2.0000      -0.720168       -19.5968
  23   2.0000      -0.684451       -18.6249
  24   2.0000      -0.657415       -17.8892
  25   2.0000      -0.625608       -17.0237
  26   2.0000      -0.613717       -16.7001
  27   2.0000      -0.567197       -15.4342
  28   2.0000      -0.533080       -14.5058
  29   2.0000      -0.513975       -13.9860
  30   2.0000      -0.506720       -13.7886
  31   2.0000      -0.501423       -13.6444
  32   2.0000      -0.488499       -13.2927
  33   2.0000      -0.460494       -12.5307
  34   2.0000      -0.445972       -12.1355
  35   2.0000      -0.439926       -11.9710
  36   2.0000      -0.423931       -11.5358
  37   2.0000      -0.420657       -11.4467
  38   2.0000      -0.408068       -11.1041
  39   2.0000      -0.395103       -10.7513
  40   2.0000      -0.385014       -10.4768
  41   2.0000      -0.375424       -10.2158
  42   2.0000      -0.351087        -9.5536
  43   2.0000      -0.347534        -9.4569
  44   2.0000      -0.340889        -9.2761
  45   2.0000      -0.335369        -9.1259
  46   2.0000      -0.329903        -8.9771
  47   2.0000      -0.313472        -8.5300
  48   2.0000      -0.307644        -8.3714
  49   2.0000      -0.296223        -8.0606
  50   2.0000      -0.294870        -8.0238
  51   2.0000      -0.285668        -7.7734
  52   2.0000      -0.283171        -7.7055
  53   2.0000      -0.275809        -7.5051
  54   2.0000      -0.273393        -7.4394
  55   2.0000      -0.153085        -4.1657
  56   0.0000      -0.027126        -0.7381
  57   0.0000      -0.011623        -0.3163
  58   0.0000      -0.003596        -0.0979
  59   0.0000       0.002483         0.0676
  60   0.0000       0.004883         0.1329

MULLIKEN ATOMIC CHARGES
-----------------------
   0 C :    0.954475
   1 C :    0.843907
   2 C :    0.465851
   3 H :   -0.008605
   4 H :   -0.431245
   5 S :    1.349025
   6 C :   -0.658235
   7 C :    0.940716
   8 N :    0.675795
   9 H :   -0.068892
  10 H :   -0.271052
  11 H :   -0.076298
  12 H :   -0.852390
  13 F :   -0.565024
  14 O :   -0.547529
  15 C :    0.658235
  16 C :    0.602622
  17 H :   -0.125645
  18 H :   -0.202117
  19 C :    0.254251
  20 H :   -0.150762
  21 H :   -0.298485
  22 O :   -0.747599
  23 H :   -0.196805
  24 H :   -0.324803
  25 H :   -0.552731
  26 H :   -0.217733
  27 H :   -0.044934
  28 H :   -0.403991
Sum of atomic charges:    0.0000000

LOEWDIN ATOMIC CHARGES
----------------------
   0 C :    0.036636
   1 C :   -0.015561
   2 C :   -0.025234
   3 H :    0.011959
   4 H :    0.017937
   5 S :    1.103194
   6 C :   -0.252751
   7 C :    0.181895
   8 N :    0.212021
   9 H :    0.002577
  10 H :   -0.044850
  11 H :   -0.077824
  12 H :   -0.124193
  13 F :   -0.272659
  14 O :   -0.424332
  15 C :    0.001276
  16 C :   -0.008435
  17 H :    0.027657
  18 H :    0.030755
  19 C :   -0.016329
  20 H :    0.015300
  21 H :    0.012990
  22 O :   -0.442805
  23 H :   -0.010834
  24 H :    0.022299
  25 H :   -0.019596
  26 H :    0.029360
  27 H :    0.006724
  28 H :    0.022823

  Mayer bond orders larger than 0.100000
B(  0-C ,  6-C ) :   1.2991 B(  0-C ,  8-N ) :   0.1315 B(  0-C , 15-C ) :   1.0784
B(  0-C , 19-C ) :   0.1732 B(  0-C , 20-H ) :   0.1374 B(  0-C , 21-H ) :   0.2486
B(  0-C , 27-H ) :   0.4085 B(  0-C , 28-H ) :   0.4841 B(  1-C ,  2-C ) :   1.1642
B(  1-C ,  3-H ) :   0.1322 B(  1-C ,  4-H ) :   0.2544 B(  1-C , 16-C ) :   1.2000
B(  1-C , 17-H ) :   0.4983 B(  1-C , 18-H ) :   0.5616 B(  1-C , 26-H ) :   0.1107
B(  2-C ,  3-H ) :   0.8075 B(  2-C ,  4-H ) :   0.7185 B(  2-C ,  5-S ) :   0.9075
B(  2-C , 16-C ) :   0.1222 B(  2-C , 17-H ) :   0.1498 B(  2-C , 18-H ) :   0.2294
B(  5-S , 13-F ) :   0.6741 B(  5-S , 14-O ) :   1.6226 B(  5-S , 22-O ) :   1.4965
B(  6-C ,  7-C ) :   2.0447 B(  6-C ,  8-N ) :   1.0679 B(  6-C , 11-H ) :   0.1313
B(  6-C , 12-H ) :   0.4423 B(  6-C , 15-C ) :   0.1438 B(  6-C , 27-H ) :   0.4107
B(  6-C , 28-H ) :   0.3116 B(  7-C ,  8-N ) :   0.4133 B(  7-C , 11-H ) :   0.4801
B(  8-N ,  9-H ) :   0.8604 B(  8-N , 10-H ) :   0.8784 B(  8-N , 11-H ) :   0.2039
B(  8-N , 12-H ) :  -0.1118 B(  9-H , 10-H ) :  -0.1450 B(  9-H , 12-H ) :  -0.1061
B( 10-H , 12-H ) :   0.1263 B( 11-H , 23-H ) :   0.1080 B( 12-H , 13-F ) :   0.3301
B( 13-F , 22-O ) :   0.1068 B( 14-O , 22-O ) :   0.1061 B( 15-C , 19-C ) :   1.1426
B( 15-C , 20-H ) :   0.5316 B( 15-C , 21-H ) :   0.6571 B( 15-C , 23-H ) :   0.2629
B( 15-C , 24-H ) :   0.1277 B( 15-C , 27-H ) :   0.1944 B( 15-C , 28-H ) :   0.1179
B( 16-C , 17-H ) :   0.3725 B( 16-C , 18-H ) :   0.1119 B( 16-C , 19-C ) :   1.1960
B( 16-C , 23-H ) :   0.2016 B( 16-C , 24-H ) :   0.2037 B( 16-C , 25-H ) :   0.6477
B( 16-C , 26-H ) :   0.5140 B( 17-H , 18-H ) :  -0.1708 B( 19-C , 20-H ) :   0.3729
B( 19-C , 21-H ) :   0.2354 B( 19-C , 23-H ) :   0.7138 B( 19-C , 24-H ) :   0.6765
B( 19-C , 25-H ) :   0.2152 B( 19-C , 26-H ) :   0.2696 B( 20-H , 21-H ) :  -0.2031

Dispersion correction           -0.073786530
FINAL SINGLE POINT ENERGY     -1016.871707161231

DIPOLE MOMENT
-------------
                                X             Y             Z
Electronic contribution:      2.13642      -4.98006     -18.59612
Nuclear contribution   :     -2.89481       6.29550      19.36835
                        -----------------------------------------
Total Dipole Moment    :     -0.75839       1.31544       0.77223
                        -----------------------------------------
Magnitude (a.u.)       :      1.70349
Magnitude (Debye)      :      4.32993

Rotational constants in cm-1:     0.036515     0.018832     0.015081
Rotational constants in MHz :  1094.679513   564.567051   452.109105

                             ****ORCA TERMINATED NORMALLY****
TOTAL RUN TIME: 0 days 0 hours 0 minutes 42 seconds 12 msec
