                         Program Version 5.0.0 -  RELEASE  -
|  1> !BLYP D3BJ RIJCOSX def2-SVPD def2/J TightSCF xyzfile
|  2>
|  3> *xyzfile 0 1 D6.xyz
|  4>
|  5> %MaxCore 64000
|  6>
|  7> %pal nprocs 4
|  8> end
|  9>
| 10> %scf
| 11>   MaxIter 150
| 12> end
| 13>
| 14>
| 15>                          ****END OF INPUT****

CARTESIAN COORDINATES (ANGSTROEM)
---------------------------------
  C      2.916324   -1.242589   -1.543125
  C      0.704661    1.443129   -4.503630
  C      1.728539    1.424320   -5.639443
  H      2.646718    1.953794   -5.381054
  H      1.299916    1.930613   -6.503614
  S      2.252625   -0.188115   -6.271840
  C      3.466585   -1.590971   -2.889082
  N      4.652275   -1.143164   -3.259692
  C      2.752264   -2.292043   -3.728029
  H      1.778364   -2.489604   -3.512738
  H      2.948612   -2.208544   -4.716813
  H      5.146723   -0.512508   -2.633852
  H      4.783030   -1.007203   -4.253498
  O      3.562607   -0.444464   -5.631552
  O      2.344944   -0.033742   -7.696501
  C      2.804084    0.290698   -1.359243
  C      1.052550    0.695659   -3.214915
  H     -0.232483    1.032925   -4.884449
  H      0.511700    2.495794   -4.267966
  C      2.388380    1.093669   -2.597108
  H      3.763425    0.674718   -0.999889
  H      2.094788    0.461222   -0.545756
  F      1.266058   -1.159177   -5.805365
  H      3.167316    1.013242   -3.359430
  H      2.357690    2.149375   -2.310997
  H      1.039284   -0.368429   -3.449329
  H      0.250787    0.865605   -2.488283
  H      1.940472   -1.716529   -1.441161
  H      3.558569   -1.663433   -0.766371

 Total Charge           Charge          ....    0
 Multiplicity           Mult            ....    1
 Number of Electrons    NEL             ....  112
 Basis Dimension        Dim             ....  404

ORBITAL ENERGIES
----------------

  NO   OCC          E(Eh)            E(eV)
   0   2.0000     -88.389193     -2405.1922
   1   2.0000     -24.410880      -664.2538
   2   2.0000     -18.809807      -511.8409
   3   2.0000     -18.795599      -511.4542
   4   2.0000     -14.007272      -381.1573
   5   2.0000      -9.982617      -271.6408
   6   2.0000      -9.954268      -270.8694
   7   2.0000      -9.929546      -270.1967
   8   2.0000      -9.926981      -270.1269
   9   2.0000      -9.926159      -270.1045
  10   2.0000      -9.924619      -270.0626
  11   2.0000      -9.917882      -269.8793
  12   2.0000      -9.845020      -267.8966
  13   2.0000      -7.925312      -215.6587
  14   2.0000      -5.964677      -162.3071
  15   2.0000      -5.958554      -162.1405
  16   2.0000      -5.956510      -162.0849
  17   2.0000      -1.251728       -34.0612
  18   2.0000      -1.020487       -27.7689
  19   2.0000      -0.923163       -25.1206
  20   2.0000      -0.824235       -22.4286
  21   2.0000      -0.756894       -20.5961
  22   2.0000      -0.716269       -19.4907
  23   2.0000      -0.678729       -18.4692
  24   2.0000      -0.652844       -17.7648
  25   2.0000      -0.634034       -17.2529
  26   2.0000      -0.604581       -16.4515
  27   2.0000      -0.564071       -15.3492
  28   2.0000      -0.532153       -14.4806
  29   2.0000      -0.515866       -14.0374
  30   2.0000      -0.508824       -13.8458
  31   2.0000      -0.498131       -13.5548
  32   2.0000      -0.480919       -13.0865
  33   2.0000      -0.453738       -12.3468
  34   2.0000      -0.442505       -12.0412
  35   2.0000      -0.438390       -11.9292
  36   2.0000      -0.421914       -11.4809
  37   2.0000      -0.411647       -11.2015
  38   2.0000      -0.405399       -11.0315
  39   2.0000      -0.392635       -10.6842
  40   2.0000      -0.387548       -10.5457
  41   2.0000      -0.368903       -10.0384
  42   2.0000      -0.356719        -9.7068
  43   2.0000      -0.344530        -9.3751
  44   2.0000      -0.338448        -9.2096
  45   2.0000      -0.335414        -9.1271
  46   2.0000      -0.321031        -8.7357
  47   2.0000      -0.314721        -8.5640
  48   2.0000      -0.303501        -8.2587
  49   2.0000      -0.290208        -7.8970
  50   2.0000      -0.287100        -7.8124
  51   2.0000      -0.283277        -7.7084
  52   2.0000      -0.278164        -7.5692
  53   2.0000      -0.263224        -7.1627
  54   2.0000      -0.258173        -7.0252
  55   2.0000      -0.151245        -4.1156
  56   0.0000      -0.034002        -0.9252
  57   0.0000      -0.006324        -0.1721
  58   0.0000      -0.000106        -0.0029
  59   0.0000       0.007394         0.2012
  60   0.0000       0.013090         0.3562

MULLIKEN ATOMIC CHARGES
-----------------------
   0 C :    0.810594
   1 C :    0.795703
   2 C :    0.474789
   3 H :   -0.000907
   4 H :   -0.404424
   5 S :    1.190721
   6 C :   -0.765785
   7 N :    0.694788
   8 C :    1.003989
   9 H :   -0.180361
  10 H :   -0.739021
  11 H :   -0.082652
  12 H :   -0.347612
  13 O :   -0.636224
  14 O :   -0.543417
  15 C :    0.803489
  16 C :    0.635278
  17 H :   -0.152600
  18 H :   -0.197428
  19 C :    0.181459
  20 H :   -0.151826
  21 H :   -0.294690
  22 F :   -0.447390
  23 H :   -0.119074
  24 H :   -0.387216
  25 H :   -0.658770
  26 H :   -0.189501
  27 H :    0.156257
  28 H :   -0.448171
Sum of atomic charges:    0.0000000

LOEWDIN ATOMIC CHARGES
----------------------
   0 C :    0.033993
   1 C :   -0.024053
   2 C :   -0.020821
   3 H :    0.021577
   4 H :    0.012828
   5 S :    1.121122
   6 C :   -0.258112
   7 N :    0.220364
   8 C :    0.167530
   9 H :   -0.078590
  10 H :   -0.127102
  11 H :   -0.000713
  12 H :   -0.056259
  13 O :   -0.456486
  14 O :   -0.422927
  15 C :   -0.002998
  16 C :   -0.007462
  17 H :    0.022915
  18 H :    0.029442
  19 C :   -0.013412
  20 H :    0.008706
  21 H :    0.012753
  22 F :   -0.239418
  23 H :   -0.007882
  24 H :    0.021578
  25 H :   -0.016926
  26 H :    0.029116
  27 H :    0.015428
  28 H :    0.015806

  Mayer bond orders larger than 0.100000
B(  0-C ,  6-C ) :   1.3338 B(  0-C ,  8-C ) :   0.1456 B(  0-C , 15-C ) :   1.0536
B(  0-C , 20-H ) :   0.1652 B(  0-C , 21-H ) :   0.2740 B(  0-C , 27-H ) :   0.7262
B(  0-C , 28-H ) :   0.3040 B(  1-C ,  2-C ) :   1.1686 B(  1-C ,  3-H ) :   0.1220
B(  1-C ,  4-H ) :   0.2666 B(  1-C , 16-C ) :   1.2032 B(  1-C , 17-H ) :   0.5016
B(  1-C , 18-H ) :   0.5682 B(  1-C , 25-H ) :   0.1244 B(  1-C , 26-H ) :   0.1202
B(  2-C ,  3-H ) :   0.8236 B(  2-C ,  4-H ) :   0.7139 B(  2-C ,  5-S ) :   0.9247
B(  2-C , 16-C ) :   0.1104 B(  2-C , 17-H ) :   0.1412 B(  2-C , 18-H ) :   0.2292
B(  5-S , 10-H ) :   0.1130 B(  5-S , 13-O ) :   1.4488 B(  5-S , 14-O ) :   1.6174
B(  5-S , 22-F ) :   0.7017 B(  6-C ,  7-N ) :   1.0432 B(  6-C ,  8-C ) :   1.8905
B(  6-C ,  9-H ) :   0.1488 B(  6-C , 10-H ) :   0.6261 B(  6-C , 11-H ) :   0.1119
B(  6-C , 15-C ) :   0.2959 B(  6-C , 21-H ) :  -0.1272 B(  6-C , 27-H ) :   0.1191
B(  6-C , 28-H ) :   0.4899 B(  7-N ,  8-C ) :   0.4991 B(  7-N ,  9-H ) :   0.1948
B(  7-N , 10-H ) :  -0.1332 B(  7-N , 11-H ) :   0.9285 B(  7-N , 12-H ) :   0.8225
B(  8-C ,  9-H ) :   0.4329 B(  8-C , 10-H ) :  -0.2477 B(  8-C , 27-H ) :  -0.1246
B(  9-H , 25-H ) :   0.1300 B( 10-H , 12-H ) :   0.1877 B( 10-H , 21-H ) :  -0.1092
B( 11-H , 12-H ) :  -0.1618 B( 12-H , 13-O ) :   0.1219 B( 13-O , 14-O ) :   0.1105
B( 15-C , 19-C ) :   1.1541 B( 15-C , 20-H ) :   0.5026 B( 15-C , 21-H ) :   0.6233
B( 15-C , 23-H ) :   0.1633 B( 15-C , 24-H ) :   0.1154 B( 15-C , 27-H ) :   0.1652
B( 15-C , 28-H ) :   0.1148 B( 16-C , 17-H ) :   0.3518 B( 16-C , 18-H ) :   0.1144
B( 16-C , 19-C ) :   1.2253 B( 16-C , 23-H ) :   0.1918 B( 16-C , 24-H ) :   0.1889
B( 16-C , 25-H ) :   0.6517 B( 16-C , 26-H ) :   0.4881 B( 17-H , 18-H ) :  -0.1783
B( 19-C , 20-H ) :   0.3804 B( 19-C , 21-H ) :   0.2108 B( 19-C , 23-H ) :   0.7825
B( 19-C , 24-H ) :   0.6619 B( 19-C , 25-H ) :   0.2404 B( 19-C , 26-H ) :   0.2400
B( 20-H , 21-H ) :  -0.2072 B( 27-H , 28-H ) :  -0.1091

Dispersion correction           -0.074114374
FINAL SINGLE POINT ENERGY     -1016.868650377634

DIPOLE MOMENT
-------------
                                X             Y             Z
Electronic contribution:     -0.39194      -5.35634     -18.68357
Nuclear contribution   :     -0.51418       6.96452      19.50670
                        -----------------------------------------
Total Dipole Moment    :     -0.90611       1.60818       0.82313
                        -----------------------------------------
Magnitude (a.u.)       :      2.02110
Magnitude (Debye)      :      5.13723

Rotational constants in cm-1:     0.036455     0.018603     0.015008
Rotational constants in MHz :  1092.895336   557.693628   449.926016

                             ****ORCA TERMINATED NORMALLY****
TOTAL RUN TIME: 0 days 0 hours 0 minutes 40 seconds 288 msec
