                         Program Version 5.0.0 -  RELEASE  -
|  1> !wB97X-D3 RIJCOSX def2-SVPD def2/J TightSCF CPCM(Water)
|  2> *xyz -1 1
|  3> C         -5.57236       -5.80780       -0.81644
|  4> S         -6.90318       -4.61903       -0.52846
|  5> O         -8.11485       -5.25093       -0.95701
|  6> O         -6.53271       -3.42684       -1.31485
|  7> O         -6.86563       -4.29496        0.91412
|  8> C         -3.82708       -4.66110        0.78617
|  9> C         -4.45780       -5.94187        0.22919
| 10> H         -5.17735       -5.54257       -1.79771
| 11> H         -6.07420       -6.76889       -0.92127
| 12> H         -3.68106       -6.56224       -0.22988
| 13> H         -4.84394       -6.51273        1.07581
| 14> H         -3.43706       -4.07576       -0.02016
| 15> H         -3.03403       -4.91680        1.45744
| 16> H         -4.56975       -4.09647        1.31013
| 17> *
| 18> %MaxCore 64000
| 19>
| 20> %pal nprocs 18
| 21> end
| 22>
| 23> %scf
| 24>   MaxIter 150
| 25> end
| 26>
| 27>                          ****END OF INPUT****

CARTESIAN COORDINATES (ANGSTROEM)
---------------------------------
  C     -5.572360   -5.807800   -0.816440
  S     -6.903180   -4.619030   -0.528460
  O     -8.114850   -5.250930   -0.957010
  O     -6.532710   -3.426840   -1.314850
  O     -6.865630   -4.294960    0.914120
  C     -3.827080   -4.661100    0.786170
  C     -4.457800   -5.941870    0.229190
  H     -5.177350   -5.542570   -1.797710
  H     -6.074200   -6.768890   -0.921270
  H     -3.681060   -6.562240   -0.229880
  H     -4.843940   -6.512730    1.075810
  H     -3.437060   -4.075760   -0.020160
  H     -3.034030   -4.916800    1.457440
  H     -4.569750   -4.096470    1.310130

 Total Charge           Charge          ....   -1
 Multiplicity           Mult            ....    1
 Number of Electrons    NEL             ....   66
 Basis Dimension        Dim             ....  212

ORBITAL ENERGIES
----------------

  NO   OCC          E(Eh)            E(eV)
   0   2.0000     -89.152530     -2425.9637
   1   2.0000     -19.211561      -522.7732
   2   2.0000     -19.199415      -522.4426
   3   2.0000     -19.197905      -522.4015
   4   2.0000     -10.298044      -280.2240
   5   2.0000     -10.287461      -279.9360
   6   2.0000     -10.262090      -279.2457
   7   2.0000      -8.226709      -223.8601
   8   2.0000      -6.186535      -168.3442
   9   2.0000      -6.186506      -168.3434
  10   2.0000      -6.184874      -168.2990
  11   2.0000      -1.227572       -33.4039
  12   2.0000      -1.085987       -29.5512
  13   2.0000      -1.062859       -28.9219
  14   2.0000      -0.899014       -24.4634
  15   2.0000      -0.814527       -22.1644
  16   2.0000      -0.716059       -19.4849
  17   2.0000      -0.646742       -17.5988
  18   2.0000      -0.586430       -15.9576
  19   2.0000      -0.566096       -15.4042
  20   2.0000      -0.556012       -15.1299
  21   2.0000      -0.542085       -14.7509
  22   2.0000      -0.529596       -14.4110
  23   2.0000      -0.495686       -13.4883
  24   2.0000      -0.453029       -12.3275
  25   2.0000      -0.447053       -12.1649
  26   2.0000      -0.436122       -11.8675
  27   2.0000      -0.430817       -11.7231
  28   2.0000      -0.420538       -11.4434
  29   2.0000      -0.388893       -10.5823
  30   2.0000      -0.376763       -10.2522
  31   2.0000      -0.367571       -10.0021
  32   2.0000      -0.344121        -9.3640
  33   0.0000       0.081985         2.2309
  34   0.0000       0.100050         2.7225
  35   0.0000       0.101023         2.7490
  36   0.0000       0.103615         2.8195
  37   0.0000       0.138662         3.7732

MULLIKEN ATOMIC CHARGES
-----------------------
   0 C :    0.014713
   1 S :    1.276400
   2 O :   -0.822840
   3 O :   -0.839913
   4 O :   -0.864888
   5 C :    0.730215
   6 C :   -0.331786
   7 H :    0.074326
   8 H :    0.035423
   9 H :   -0.050541
  10 H :   -0.011394
  11 H :   -0.040092
  12 H :   -0.000017
  13 H :   -0.169606
Sum of atomic charges:   -1.0000000

LOEWDIN ATOMIC CHARGES
----------------------
   0 C :   -0.065979
   1 S :    0.866312
   2 O :   -0.596175
   3 O :   -0.631599
   4 O :   -0.615810
   5 C :    0.121871
   6 C :   -0.075213
   7 H :    0.015256
   8 H :    0.010051
   9 H :    0.026859
  10 H :    0.023255
  11 H :   -0.012676
  12 H :   -0.014956
  13 H :   -0.051194

  Mayer bond orders larger than 0.100000
B(  0-C ,  1-S ) :   0.8971 B(  0-C ,  6-C ) :   1.2972 B(  0-C ,  7-H ) :   0.9074
B(  0-C ,  8-H ) :   0.8958 B(  0-C ,  9-H ) :   0.1429 B(  0-C , 10-H ) :   0.1278
B(  1-S ,  2-O ) :   1.3759 B(  1-S ,  3-O ) :   1.2517 B(  1-S ,  4-O ) :   1.2432
B(  5-C ,  6-C ) :   1.2565 B(  5-C , 11-H ) :   0.7775 B(  5-C , 12-H ) :   0.7540
B(  5-C , 13-H ) :   0.8494 B(  6-C ,  7-H ) :   0.1193 B(  6-C ,  8-H ) :   0.1338
B(  6-C ,  9-H ) :   0.8824 B(  6-C , 10-H ) :   0.9207 B(  6-C , 11-H ) :   0.1995
B(  6-C , 12-H ) :   0.1949 B(  6-C , 13-H ) :   0.2026

Dispersion correction           -0.004498576
FINAL SINGLE POINT ENERGY      -742.069800505428

DIPOLE MOMENT
-------------
                                X             Y             Z
Electronic contribution:     -9.05976       2.58021      -2.61465
Nuclear contribution   :     11.75544      -4.53524       2.70749
                        -----------------------------------------
Total Dipole Moment    :      2.69568      -1.95503       0.09285
                        -----------------------------------------
Magnitude (a.u.)       :      3.33128
Magnitude (Debye)      :      8.46744

Rotational constants in cm-1:     0.134586     0.054907     0.051455
Rotational constants in MHz :  4034.798577  1646.069534  1542.570153

                             ****ORCA TERMINATED NORMALLY****
TOTAL RUN TIME: 0 days 0 hours 0 minutes 15 seconds 309 msec
