                         Program Version 5.0.0 -  RELEASE  -
|  1> !wB97X-D3 RIJCOSX def2-SVPD def2/J TightSCF CPCM(Water)
|  2> *xyz 1 1
|  3> C         -4.38262       -1.67089        1.21620
|  4> N         -5.76354       -1.91517        0.70501
|  5> C         -3.28173       -2.19127        0.29436
|  6> H         -5.84081       -2.11520       -0.30065
|  7> H         -6.40882       -1.14866        0.93612
|  8> H         -6.17478       -2.79061        1.05143
|  9> H         -4.32862       -2.13922        2.19810
| 10> H         -4.26158       -0.59740        1.35725
| 11> C         -3.47464       -3.60590       -0.25961
| 12> H         -2.35455       -2.12760        0.87143
| 13> H         -3.16661       -1.49969       -0.54504
| 14> H         -2.64612       -3.85908       -0.88759
| 15> H         -4.37934       -3.64545       -0.82956
| 16> H         -3.53324       -4.30157        0.55126
| 17> *
| 18> %MaxCore 64000
| 19>
| 20> %pal nprocs 18
| 21> end
| 22>
| 23> %scf
| 24>   MaxIter 150
| 25> end
| 26>
| 27>                          ****END OF INPUT****

CARTESIAN COORDINATES (ANGSTROEM)
---------------------------------
  C     -4.382620   -1.670890    1.216200
  N     -5.763540   -1.915170    0.705010
  C     -3.281730   -2.191270    0.294360
  H     -5.840810   -2.115200   -0.300650
  H     -6.408820   -1.148660    0.936120
  H     -6.174780   -2.790610    1.051430
  H     -4.328620   -2.139220    2.198100
  H     -4.261580   -0.597400    1.357250
  C     -3.474640   -3.605900   -0.259610
  H     -2.354550   -2.127600    0.871430
  H     -3.166610   -1.499690   -0.545040
  H     -2.646120   -3.859080   -0.887590
  H     -4.379340   -3.645450   -0.829560
  H     -3.533240   -4.301570    0.551260

 Total Charge           Charge          ....    1
 Multiplicity           Mult            ....    1
 Number of Electrons    NEL             ....   34
 Basis Dimension        Dim             ....  160

ORBITAL ENERGIES
----------------

  NO   OCC          E(Eh)            E(eV)
   0   2.0000     -14.555586      -396.0776
   1   2.0000     -10.351522      -281.6792
   2   2.0000     -10.301203      -280.3100
   3   2.0000     -10.279630      -279.7230
   4   2.0000      -1.108069       -30.1521
   5   2.0000      -0.907446       -24.6929
   6   2.0000      -0.819665       -22.3042
   7   2.0000      -0.719678       -19.5834
   8   2.0000      -0.686540       -18.6817
   9   2.0000      -0.665072       -18.0975
  10   2.0000      -0.600733       -16.3468
  11   2.0000      -0.559387       -15.2217
  12   2.0000      -0.537777       -14.6337
  13   2.0000      -0.508030       -13.8242
  14   2.0000      -0.457541       -12.4503
  15   2.0000      -0.454840       -12.3768
  16   2.0000      -0.435656       -11.8548
  17   0.0000       0.083699         2.2776
  18   0.0000       0.115453         3.1416
  19   0.0000       0.120130         3.2689
  20   0.0000       0.133645         3.6367
  21   0.0000       0.153700         4.1824

MULLIKEN ATOMIC CHARGES
-----------------------
   0 C :    0.574287
   1 N :   -0.959998
   2 C :   -0.528129
   3 H :    0.411715
   4 H :    0.422215
   5 H :    0.484681
   6 H :    0.003514
   7 H :    0.030165
   8 C :    0.620605
   9 H :    0.016685
  10 H :   -0.010870
  11 H :   -0.027361
  12 H :   -0.047786
  13 H :    0.010277
Sum of atomic charges:    1.0000000

LOEWDIN ATOMIC CHARGES
----------------------
   0 C :    0.103076
   1 N :    0.352937
   2 C :   -0.054365
   3 H :    0.101497
   4 H :    0.119765
   5 H :    0.116936
   6 H :    0.050450
   7 H :    0.049015
   8 C :    0.131833
   9 H :    0.035339
  10 H :    0.030767
  11 H :   -0.008456
  12 H :   -0.021374
  13 H :   -0.007420

  Mayer bond orders larger than 0.100000
B(  0-C ,  1-N ) :   0.6200 B(  0-C ,  2-C ) :   1.2129 B(  0-C ,  6-H ) :   0.8618
B(  0-C ,  7-H ) :   0.9149 B(  0-C ,  9-H ) :   0.1333 B(  0-C , 10-H ) :   0.1095
B(  1-N ,  3-H ) :   0.6398 B(  1-N ,  4-H ) :   0.7055 B(  1-N ,  5-H ) :   0.6823
B(  1-N ,  6-H ) :   0.1126 B(  2-C ,  6-H ) :   0.1248 B(  2-C ,  8-C ) :   1.2910
B(  2-C ,  9-H ) :   0.9432 B(  2-C , 10-H ) :   0.9606 B(  2-C , 11-H ) :   0.2053
B(  2-C , 12-H ) :   0.1708 B(  2-C , 13-H ) :   0.1802 B(  8-C , 11-H ) :   0.7896
B(  8-C , 12-H ) :   0.8608 B(  8-C , 13-H ) :   0.8155

Dispersion correction           -0.002896416
FINAL SINGLE POINT ENERGY      -174.794994774164

DIPOLE MOMENT
-------------
                                X             Y             Z
Electronic contribution:     -2.26255       1.44351       0.84613
Nuclear contribution   :     -0.18358      -0.73024      -0.44649
                        -----------------------------------------
Total Dipole Moment    :     -2.44613       0.71327       0.39963
                        -----------------------------------------
Magnitude (a.u.)       :      2.57915
Magnitude (Debye)      :      6.55567

Rotational constants in cm-1:     0.423641     0.164544     0.133152
Rotational constants in MHz : 12700.438743  4932.897948  3991.802402

                             ****ORCA TERMINATED NORMALLY****
TOTAL RUN TIME: 0 days 0 hours 0 minutes 9 seconds 838 msec
