                         Program Version 5.0.0 -  RELEASE  -
|  1> !wB97X-D3 RIJCOSX def2-SVPD def2/J TightSCF CPCM(Water) xyzfile
|  2>
|  3> *xyzfile 0 1 B.xyz
|  4>
|  5> %MaxCore 64000
|  6>
|  7> %pal nprocs 18
|  8> end
|  9>
| 10> %scf
| 11>   MaxIter 150
| 12> end
| 13>
| 14>
| 15>                          ****END OF INPUT****

CARTESIAN COORDINATES (ANGSTROEM)
---------------------------------
  C     -4.382623   -1.670889    1.216201
  N     -5.763539   -1.915170    0.705012
  C     -3.281728   -2.191272    0.294361
  C     -5.572364   -5.807798   -0.816445
  S     -6.903179   -4.619033   -0.528458
  H     -5.840812   -2.115205   -0.300646
  H     -6.408823   -1.148656    0.936124
  H     -6.174781   -2.790606    1.051433
  O     -8.114853   -5.250932   -0.957007
  O     -6.532715   -3.426838   -1.314848
  H     -4.328618   -2.139223    2.198103
  H     -4.261583   -0.597399    1.357248
  O     -6.865632   -4.294957    0.914118
  C     -3.474641   -3.605898   -0.259608
  H     -2.354548   -2.127602    0.871433
  H     -3.166611   -1.499693   -0.545037
  C     -3.827078   -4.661097    0.786174
  H     -2.560559   -3.889391   -0.788050
  H     -4.255932   -3.570040   -1.019300
  C     -4.457800   -5.941875    0.229195
  H     -5.177347   -5.542575   -1.797714
  H     -6.074202   -6.768894   -0.921272
  H     -4.530506   -4.253640    1.511979
  H     -2.933400   -4.932302    1.356825
  H     -3.681064   -6.562236   -0.229885
  H     -4.843942   -6.512728    1.075805

 Total Charge           Charge          ....    0
 Multiplicity           Mult            ....    1
 Number of Electrons    NEL             ....   98
 Basis Dimension        Dim             ....  356

ORBITAL ENERGIES
----------------

  NO   OCC          E(Eh)            E(eV)
   0   2.0000     -89.173309     -2426.5291
   1   2.0000     -19.225190      -523.1440
   2   2.0000     -19.223735      -523.1044
   3   2.0000     -19.220438      -523.0147
   4   2.0000     -14.510621      -394.8541
   5   2.0000     -10.338447      -281.3234
   6   2.0000     -10.307369      -280.4778
   7   2.0000     -10.293336      -280.0959
   8   2.0000     -10.292307      -280.0679
   9   2.0000     -10.281372      -279.7704
  10   2.0000     -10.280708      -279.7523
  11   2.0000      -8.246528      -224.3994
  12   2.0000      -6.206790      -168.8954
  13   2.0000      -6.206300      -168.8820
  14   2.0000      -6.204439      -168.8314
  15   2.0000      -1.249006       -33.9872
  16   2.0000      -1.109779       -30.1986
  17   2.0000      -1.090499       -29.6740
  18   2.0000      -1.076342       -29.2887
  19   2.0000      -0.927025       -25.2256
  20   2.0000      -0.890413       -24.2294
  21   2.0000      -0.840233       -22.8639
  22   2.0000      -0.785817       -21.3832
  23   2.0000      -0.734224       -19.9793
  24   2.0000      -0.683762       -18.6061
  25   2.0000      -0.677939       -18.4477
  26   2.0000      -0.652763       -17.7626
  27   2.0000      -0.645528       -17.5657
  28   2.0000      -0.599996       -16.3267
  29   2.0000      -0.588459       -16.0128
  30   2.0000      -0.587468       -15.9858
  31   2.0000      -0.570947       -15.5363
  32   2.0000      -0.558055       -15.1854
  33   2.0000      -0.547332       -14.8937
  34   2.0000      -0.539392       -14.6776
  35   2.0000      -0.512930       -13.9575
  36   2.0000      -0.501897       -13.6573
  37   2.0000      -0.468862       -12.7584
  38   2.0000      -0.462548       -12.5866
  39   2.0000      -0.459452       -12.5023
  40   2.0000      -0.451760       -12.2930
  41   2.0000      -0.442170       -12.0321
  42   2.0000      -0.429899       -11.6982
  43   2.0000      -0.422426       -11.4948
  44   2.0000      -0.409228       -11.1357
  45   2.0000      -0.401591       -10.9278
  46   2.0000      -0.393255       -10.7010
  47   2.0000      -0.380724       -10.3600
  48   2.0000      -0.367442        -9.9986
  49   0.0000       0.078907         2.1472
  50   0.0000       0.093690         2.5494
  51   0.0000       0.094698         2.5769
  52   0.0000       0.097380         2.6498
  53   0.0000       0.118593         3.2271

MULLIKEN ATOMIC CHARGES
-----------------------
   0 C :    0.657743
   1 N :   -0.578962
   2 C :    0.166312
   3 C :    0.110605
   4 S :    1.344904
   5 H :    0.319592
   6 H :    0.392586
   7 H :    0.142703
   8 O :   -0.841966
   9 O :   -0.792975
  10 H :    0.205046
  11 H :   -0.286417
  12 O :   -0.852133
  13 C :    0.157568
  14 H :    0.018780
  15 H :    0.028694
  16 C :   -0.035422
  17 H :   -0.240035
  18 H :   -0.094902
  19 C :    0.389952
  20 H :    0.173906
  21 H :   -0.213593
  22 H :    0.011241
  23 H :   -0.213856
  24 H :    0.017094
  25 H :    0.013536
Sum of atomic charges:    0.0000000

LOEWDIN ATOMIC CHARGES
----------------------
   0 C :    0.109863
   1 N :    0.353289
   2 C :   -0.004200
   3 C :   -0.045380
   4 S :    0.958222
   5 H :   -0.007142
   6 H :    0.119831
   7 H :   -0.059797
   8 O :   -0.558438
   9 O :   -0.558917
  10 H :    0.040690
  11 H :    0.041553
  12 O :   -0.539754
  13 C :   -0.009539
  14 H :    0.034906
  15 H :    0.032908
  16 C :   -0.017324
  17 H :    0.033051
  18 H :   -0.020296
  19 C :   -0.021308
  20 H :    0.020324
  21 H :    0.013948
  22 H :   -0.013213
  23 H :    0.033059
  24 H :    0.033908
  25 H :    0.029757

  Mayer bond orders larger than 0.100000
B(  0-C ,  1-N ) :   0.6673 B(  0-C ,  2-C ) :   1.2103 B(  0-C , 10-H ) :   0.7284
B(  0-C , 11-H ) :   1.0354 B(  0-C , 14-H ) :   0.1304 B(  0-C , 15-H ) :   0.1290
B(  1-N ,  5-H ) :   0.7059 B(  1-N ,  6-H ) :   0.8117 B(  1-N ,  7-H ) :   1.1337
B(  2-C , 11-H ) :   0.1376 B(  2-C , 13-C ) :   1.2567 B(  2-C , 14-H ) :   0.8426
B(  2-C , 15-H ) :   0.7518 B(  3-C ,  4-S ) :   0.9213 B(  3-C ,  8-O ) :   0.1096
B(  3-C , 19-C ) :   1.2226 B(  3-C , 20-H ) :   0.8516 B(  3-C , 21-H ) :   0.9486
B(  3-C , 24-H ) :   0.1297 B(  3-C , 25-H ) :   0.1218 B(  4-S ,  8-O ) :   1.4556
B(  4-S ,  9-O ) :   1.1445 B(  4-S , 12-O ) :   1.1159 B(  5-H ,  9-O ) :   0.1463
B(  7-H , 12-O ) :   0.1279 B(  9-O , 12-O ) :   0.1408 B( 10-H , 11-H ) :  -0.1175
B( 13-C , 14-H ) :   0.1247 B( 13-C , 15-H ) :   0.2004 B( 13-C , 16-C ) :   1.1688
B( 13-C , 17-H ) :   0.8524 B( 13-C , 18-H ) :   0.8693 B( 13-C , 23-H ) :   0.1623
B( 16-C , 17-H ) :   0.1703 B( 16-C , 18-H ) :   0.1491 B( 16-C , 19-C ) :   1.2778
B( 16-C , 22-H ) :   0.8816 B( 16-C , 23-H ) :   0.8934 B( 16-C , 24-H ) :   0.1267
B( 16-C , 25-H ) :   0.2440 B( 19-C , 21-H ) :   0.1819 B( 19-C , 24-H ) :   0.7879
B( 19-C , 25-H ) :   0.6952

Dispersion correction           -0.013284279
FINAL SINGLE POINT ENERGY      -915.685347692341

DIPOLE MOMENT
-------------
                                X             Y             Z
Electronic contribution:    -12.71026      -2.38648      -3.32537
Nuclear contribution   :     16.18863       5.15617       4.97370
                        -----------------------------------------
Total Dipole Moment    :      3.47837       2.76969       1.64833
                        -----------------------------------------
Magnitude (a.u.)       :      4.74207
Magnitude (Debye)      :     12.05338

Rotational constants in cm-1:     0.048546     0.025588     0.020102
Rotational constants in MHz :  1455.374030   767.095631   602.645620

                             ****ORCA TERMINATED NORMALLY****
TOTAL RUN TIME: 0 days 0 hours 0 minutes 45 seconds 188 msec
