                         Program Version 5.0.0 -  RELEASE  -
|  1> !wB97X-D3 RIJCOSX def2-SVPD def2/J TightSCF CPCM(Water)
|  2> *xyz 0 1
|  3> C         -5.57236       -5.80780       -0.81644
|  4> S         -6.90318       -4.61903       -0.52846
|  5> F         -8.11485       -5.25093       -0.95701
|  6> O         -6.53271       -3.42684       -1.31485
|  7> O         -6.86563       -4.29496        0.91412
|  8> C         -3.82708       -4.66110        0.78617
|  9> C         -4.45780       -5.94187        0.22919
| 10> H         -5.17735       -5.54257       -1.79771
| 11> H         -6.07420       -6.76889       -0.92127
| 12> H         -3.68106       -6.56224       -0.22988
| 13> H         -4.84394       -6.51273        1.07581
| 14> H         -3.43706       -4.07576       -0.02016
| 15> H         -3.03403       -4.91680        1.45744
| 16> H         -4.56975       -4.09647        1.31013
| 17> *
| 18> %MaxCore 64000
| 19>
| 20> %pal nprocs 18
| 21> end
| 22>
| 23> %scf
| 24>   MaxIter 150
| 25> end
| 26>
| 27>                          ****END OF INPUT****

CARTESIAN COORDINATES (ANGSTROEM)
---------------------------------
  C     -5.572360   -5.807800   -0.816440
  S     -6.903180   -4.619030   -0.528460
  F     -8.114850   -5.250930   -0.957010
  O     -6.532710   -3.426840   -1.314850
  O     -6.865630   -4.294960    0.914120
  C     -3.827080   -4.661100    0.786170
  C     -4.457800   -5.941870    0.229190
  H     -5.177350   -5.542570   -1.797710
  H     -6.074200   -6.768890   -0.921270
  H     -3.681060   -6.562240   -0.229880
  H     -4.843940   -6.512730    1.075810
  H     -3.437060   -4.075760   -0.020160
  H     -3.034030   -4.916800    1.457440
  H     -4.569750   -4.096470    1.310130

 Total Charge           Charge          ....    0
 Multiplicity           Mult            ....    1
 Number of Electrons    NEL             ....   66
 Basis Dimension        Dim             ....  212

ORBITAL ENERGIES
----------------

  NO   OCC          E(Eh)            E(eV)
   0   2.0000     -89.241315     -2428.3796
   1   2.0000     -24.922590      -678.1782
   2   2.0000     -19.260521      -524.1054
   3   2.0000     -19.259665      -524.0821
   4   2.0000     -10.339641      -281.3559
   5   2.0000     -10.305651      -280.4310
   6   2.0000     -10.271725      -279.5078
   7   2.0000      -8.315545      -226.2775
   8   2.0000      -6.279171      -170.8649
   9   2.0000      -6.273185      -170.7021
  10   2.0000      -6.271110      -170.6456
  11   2.0000      -1.499254       -40.7968
  12   2.0000      -1.223032       -33.2804
  13   2.0000      -1.120470       -30.4895
  14   2.0000      -0.930773       -25.3276
  15   2.0000      -0.863994       -23.5105
  16   2.0000      -0.813294       -22.1309
  17   2.0000      -0.739674       -20.1276
  18   2.0000      -0.699095       -19.0233
  19   2.0000      -0.683869       -18.6090
  20   2.0000      -0.657956       -17.9039
  21   2.0000      -0.589044       -16.0287
  22   2.0000      -0.577661       -15.7190
  23   2.0000      -0.559186       -15.2162
  24   2.0000      -0.547999       -14.9118
  25   2.0000      -0.511943       -13.9307
  26   2.0000      -0.491430       -13.3725
  27   2.0000      -0.466814       -12.7027
  28   2.0000      -0.458144       -12.4667
  29   2.0000      -0.445510       -12.1230
  30   2.0000      -0.423976       -11.5370
  31   2.0000      -0.417431       -11.3589
  32   2.0000      -0.409923       -11.1546
  33   0.0000       0.071265         1.9392
  34   0.0000       0.092598         2.5197
  35   0.0000       0.098366         2.6767
  36   0.0000       0.100111         2.7242
  37   0.0000       0.116256         3.1635

MULLIKEN ATOMIC CHARGES
-----------------------
   0 C :   -0.076804
   1 S :    1.551583
   2 F :   -0.427778
   3 O :   -0.723823
   4 O :   -0.761021
   5 C :    0.700266
   6 C :   -0.361722
   7 H :    0.142698
   8 H :    0.119839
   9 H :   -0.014928
  10 H :    0.020640
  11 H :   -0.022665
  12 H :    0.012168
  13 H :   -0.158452
Sum of atomic charges:    0.0000000

LOEWDIN ATOMIC CHARGES
----------------------
   0 C :   -0.027472
   1 S :    1.152780
   2 F :   -0.237261
   3 O :   -0.524013
   4 O :   -0.516891
   5 C :    0.132548
   6 C :   -0.055357
   7 H :    0.033292
   8 H :    0.029334
   9 H :    0.040545
  10 H :    0.031946
  11 H :   -0.007417
  12 H :   -0.008632
  13 H :   -0.043400

  Mayer bond orders larger than 0.100000
B(  0-C ,  1-S ) :   0.9380 B(  0-C ,  6-C ) :   1.3328 B(  0-C ,  7-H ) :   0.9132
B(  0-C ,  8-H ) :   0.8642 B(  0-C ,  9-H ) :   0.1369 B(  0-C , 10-H ) :   0.1271
B(  1-S ,  2-F ) :   0.6965 B(  1-S ,  3-O ) :   1.4377 B(  1-S ,  4-O ) :   1.4121
B(  5-C ,  6-C ) :   1.2683 B(  5-C , 11-H ) :   0.7866 B(  5-C , 12-H ) :   0.7577
B(  5-C , 13-H ) :   0.8543 B(  6-C ,  7-H ) :   0.1145 B(  6-C ,  8-H ) :   0.1426
B(  6-C ,  9-H ) :   0.8867 B(  6-C , 10-H ) :   0.9249 B(  6-C , 11-H ) :   0.1951
B(  6-C , 12-H ) :   0.1934 B(  6-C , 13-H ) :   0.1924

Dispersion correction           -0.004490134
FINAL SINGLE POINT ENERGY      -766.460299618735

DIPOLE MOMENT
-------------
                                X             Y             Z
Electronic contribution:    -13.29340       1.81878      -4.12265
Nuclear contribution   :     13.81909      -4.05404       3.42760
                        -----------------------------------------
Total Dipole Moment    :      0.52569      -2.23525      -0.69505
                        -----------------------------------------
Magnitude (a.u.)       :      2.39912
Magnitude (Debye)      :      6.09809

Rotational constants in cm-1:     0.132500     0.053014     0.049575
Rotational constants in MHz :  3972.256497  1589.318970  1486.215991

                             ****ORCA TERMINATED NORMALLY****
TOTAL RUN TIME: 0 days 0 hours 0 minutes 15 seconds 4 msec
