                         Program Version 5.0.0 -  RELEASE  -
|  1> !wB97X-D3 RIJCOSX def2-SVPD def2/J TightSCF CPCM(Water)
|  2> *xyz 0 1
|  3> C         -4.38262       -1.67089        1.21620
|  4> C         -5.76354       -1.91517        0.70501
|  5> C         -3.28173       -2.19127        0.29436
|  6> H         -5.84081       -2.11520       -0.30065
|  7> H         -6.40882       -1.14866        0.93612
|  8> H         -6.17478       -2.79061        1.05143
|  9> H         -4.32862       -2.13922        2.19810
| 10> H         -4.26158       -0.59740        1.35725
| 11> C         -3.47464       -3.60590       -0.25961
| 12> H         -2.35455       -2.12760        0.87143
| 13> H         -3.16661       -1.49969       -0.54504
| 14> H         -2.64612       -3.85908       -0.88759
| 15> H         -4.37934       -3.64545       -0.82956
| 16> H         -3.53324       -4.30157        0.55126
| 17> *
| 18> %MaxCore 64000
| 19>
| 20> %pal nprocs 18
| 21> end
| 22>
| 23> %scf
| 24>   MaxIter 150
| 25> end
| 26>
| 27>                          ****END OF INPUT****

CARTESIAN COORDINATES (ANGSTROEM)
---------------------------------
  C     -4.382620   -1.670890    1.216200
  C     -5.763540   -1.915170    0.705010
  C     -3.281730   -2.191270    0.294360
  H     -5.840810   -2.115200   -0.300650
  H     -6.408820   -1.148660    0.936120
  H     -6.174780   -2.790610    1.051430
  H     -4.328620   -2.139220    2.198100
  H     -4.261580   -0.597400    1.357250
  C     -3.474640   -3.605900   -0.259610
  H     -2.354550   -2.127600    0.871430
  H     -3.166610   -1.499690   -0.545040
  H     -2.646120   -3.859080   -0.887590
  H     -4.379340   -3.645450   -0.829560
  H     -3.533240   -4.301570    0.551260

 Total Charge           Charge          ....    0
 Multiplicity           Mult            ....    1
 Number of Electrons    NEL             ....   34
 Basis Dimension        Dim             ....  160

ORBITAL ENERGIES
----------------

  NO   OCC          E(Eh)            E(eV)
   0   2.0000     -10.275464      -279.6096
   1   2.0000     -10.271453      -279.5004
   2   2.0000     -10.264848      -279.3207
   3   2.0000     -10.244778      -278.7746
   4   2.0000      -0.906758       -24.6741
   5   2.0000      -0.832447       -22.6520
   6   2.0000      -0.753560       -20.5054
   7   2.0000      -0.665921       -18.1206
   8   2.0000      -0.563751       -15.3405
   9   2.0000      -0.558938       -15.2095
  10   2.0000      -0.513109       -13.9624
  11   2.0000      -0.489552       -13.3214
  12   2.0000      -0.476225       -12.9587
  13   2.0000      -0.450807       -12.2671
  14   2.0000      -0.417418       -11.3585
  15   2.0000      -0.410222       -11.1627
  16   2.0000      -0.400440       -10.8965
  17   0.0000       0.099498         2.7075
  18   0.0000       0.123940         3.3726
  19   0.0000       0.126321         3.4374
  20   0.0000       0.142220         3.8700
  21   0.0000       0.171337         4.6623

MULLIKEN ATOMIC CHARGES
-----------------------
   0 C :   -0.251641
   1 C :    0.933051
   2 C :   -0.349850
   3 H :   -0.331537
   4 H :   -0.285194
   5 H :   -0.075469
   6 H :   -0.062858
   7 H :   -0.026143
   8 C :    0.601128
   9 H :   -0.047268
  10 H :   -0.001694
  11 H :   -0.019736
  12 H :   -0.045052
  13 H :   -0.037737
Sum of atomic charges:   -0.0000000

LOEWDIN ATOMIC CHARGES
----------------------
   0 C :   -0.068198
   1 C :    0.114500
   2 C :   -0.082660
   3 H :   -0.043004
   4 H :   -0.031774
   5 H :   -0.029551
   6 H :    0.021866
   7 H :    0.020414
   8 C :    0.120169
   9 H :    0.015683
  10 H :    0.021334
  11 H :   -0.017549
  12 H :   -0.027951
  13 H :   -0.013280

  Mayer bond orders larger than 0.100000
B(  0-C ,  1-C ) :   1.2381 B(  0-C ,  2-C ) :   1.2143 B(  0-C ,  3-H ) :   0.2534
B(  0-C ,  4-H ) :   0.1815 B(  0-C ,  5-H ) :   0.2185 B(  0-C ,  6-H ) :   0.8645
B(  0-C ,  7-H ) :   0.8998 B(  0-C ,  9-H ) :   0.1691 B(  0-C , 10-H ) :   0.1261
B(  1-C ,  3-H ) :   0.6560 B(  1-C ,  4-H ) :   0.7857 B(  1-C ,  5-H ) :   0.6148
B(  1-C ,  6-H ) :   0.1219 B(  2-C ,  6-H ) :   0.1359 B(  2-C ,  8-C ) :   1.3102
B(  2-C ,  9-H ) :   0.9012 B(  2-C , 10-H ) :   0.9087 B(  2-C , 11-H ) :   0.2035
B(  2-C , 12-H ) :   0.1810 B(  2-C , 13-H ) :   0.1755 B(  3-H ,  5-H ) :   0.2998
B(  8-C , 11-H ) :   0.7641 B(  8-C , 12-H ) :   0.8547 B(  8-C , 13-H ) :   0.8201

Dispersion correction           -0.002801691
FINAL SINGLE POINT ENERGY      -158.287066129151

DIPOLE MOMENT
-------------
                                X             Y             Z
Electronic contribution:      0.62650       0.58983       0.37505
Nuclear contribution   :     -0.64996      -0.59433      -0.37777
                        -----------------------------------------
Total Dipole Moment    :     -0.02346      -0.00450      -0.00273
                        -----------------------------------------
Magnitude (a.u.)       :      0.02404
Magnitude (Debye)      :      0.06112

Rotational constants in cm-1:     0.431358     0.171688     0.138554
Rotational constants in MHz : 12931.797515  5147.084397  4153.759343

                             ****ORCA TERMINATED NORMALLY****
TOTAL RUN TIME: 0 days 0 hours 0 minutes 8 seconds 153 msec
