                         Program Version 5.0.0 -  RELEASE  -
|  1> !wB97X-D3 RIJCOSX def2-SVPD def2/J TightSCF CPCM(Water)
|  2> *xyz 0 1
|  3> C         -5.57236       -5.80780       -0.81644
|  4> S         -6.90318       -4.61903       -0.52846
|  5> O         -8.11485       -5.25093       -0.95701
|  6> F         -6.53271       -3.42684       -1.31485
|  7> O         -6.86563       -4.29496        0.91412
|  8> C         -3.82708       -4.66110        0.78617
|  9> C         -4.45780       -5.94187        0.22919
| 10> H         -5.17735       -5.54257       -1.79771
| 11> H         -6.07420       -6.76889       -0.92127
| 12> H         -3.68106       -6.56224       -0.22988
| 13> H         -4.84394       -6.51273        1.07581
| 14> H         -3.43706       -4.07576       -0.02016
| 15> H         -3.03403       -4.91680        1.45744
| 16> H         -4.56975       -4.09647        1.31013
| 17> *
| 18> %MaxCore 64000
| 19>
| 20> %pal nprocs 18
| 21> end
| 22>
| 23> %scf
| 24>   MaxIter 150
| 25> end
| 26>
| 27>                          ****END OF INPUT****

CARTESIAN COORDINATES (ANGSTROEM)
---------------------------------
  C     -5.572360   -5.807800   -0.816440
  S     -6.903180   -4.619030   -0.528460
  O     -8.114850   -5.250930   -0.957010
  F     -6.532710   -3.426840   -1.314850
  O     -6.865630   -4.294960    0.914120
  C     -3.827080   -4.661100    0.786170
  C     -4.457800   -5.941870    0.229190
  H     -5.177350   -5.542570   -1.797710
  H     -6.074200   -6.768890   -0.921270
  H     -3.681060   -6.562240   -0.229880
  H     -4.843940   -6.512730    1.075810
  H     -3.437060   -4.075760   -0.020160
  H     -3.034030   -4.916800    1.457440
  H     -4.569750   -4.096470    1.310130

 Total Charge           Charge          ....    0
 Multiplicity           Mult            ....    1
 Number of Electrons    NEL             ....   66
 Basis Dimension        Dim             ....  212

ORBITAL ENERGIES
----------------

  NO   OCC          E(Eh)            E(eV)
   0   2.0000     -89.238551     -2428.3044
   1   2.0000     -24.902837      -677.6406
   2   2.0000     -19.272708      -524.4371
   3   2.0000     -19.258713      -524.0562
   4   2.0000     -10.338961      -281.3374
   5   2.0000     -10.303461      -280.3714
   6   2.0000     -10.271661      -279.5061
   7   2.0000      -8.312751      -226.2015
   8   2.0000      -6.276297      -170.7867
   9   2.0000      -6.270513      -170.6293
  10   2.0000      -6.268447      -170.5731
  11   2.0000      -1.464253       -39.8443
  12   2.0000      -1.238124       -33.6911
  13   2.0000      -1.135326       -30.8938
  14   2.0000      -0.930129       -25.3101
  15   2.0000      -0.855342       -23.2750
  16   2.0000      -0.804666       -21.8961
  17   2.0000      -0.733475       -19.9589
  18   2.0000      -0.676324       -18.4037
  19   2.0000      -0.668367       -18.1872
  20   2.0000      -0.658760       -17.9258
  21   2.0000      -0.595493       -16.2042
  22   2.0000      -0.573918       -15.6171
  23   2.0000      -0.558121       -15.1872
  24   2.0000      -0.545974       -14.8567
  25   2.0000      -0.521607       -14.1936
  26   2.0000      -0.499542       -13.5932
  27   2.0000      -0.467918       -12.7327
  28   2.0000      -0.462880       -12.5956
  29   2.0000      -0.439863       -11.9693
  30   2.0000      -0.435869       -11.8606
  31   2.0000      -0.424686       -11.5563
  32   2.0000      -0.411877       -11.2077
  33   0.0000       0.071704         1.9512
  34   0.0000       0.094364         2.5678
  35   0.0000       0.098073         2.6687
  36   0.0000       0.100992         2.7481
  37   0.0000       0.115518         3.1434

MULLIKEN ATOMIC CHARGES
-----------------------
   0 C :   -0.084187
   1 S :    1.500811
   2 O :   -0.709267
   3 F :   -0.395773
   4 O :   -0.760316
   5 C :    0.690898
   6 C :   -0.347409
   7 H :    0.156014
   8 H :    0.103704
   9 H :   -0.015972
  10 H :    0.016558
  11 H :   -0.017921
  12 H :    0.018263
  13 H :   -0.155403
Sum of atomic charges:   -0.0000000

LOEWDIN ATOMIC CHARGES
----------------------
   0 C :   -0.023529
   1 S :    1.144711
   2 O :   -0.490477
   3 F :   -0.262387
   4 O :   -0.513634
   5 C :    0.131039
   6 C :   -0.060800
   7 H :    0.034088
   8 H :    0.033090
   9 H :    0.038162
  10 H :    0.031693
  11 H :   -0.007365
  12 H :   -0.008829
  13 H :   -0.045762

  Mayer bond orders larger than 0.100000
B(  0-C ,  1-S ) :   0.9465 B(  0-C ,  6-C ) :   1.3304 B(  0-C ,  7-H ) :   0.8906
B(  0-C ,  8-H ) :   0.8978 B(  0-C ,  9-H ) :   0.1332 B(  0-C , 10-H ) :   0.1322
B(  1-S ,  2-O ) :   1.5566 B(  1-S ,  3-F ) :   0.6323 B(  1-S ,  4-O ) :   1.4423
B(  5-C ,  6-C ) :   1.2697 B(  5-C , 11-H ) :   0.7904 B(  5-C , 12-H ) :   0.7582
B(  5-C , 13-H ) :   0.8572 B(  6-C ,  7-H ) :   0.1129 B(  6-C ,  8-H ) :   0.1305
B(  6-C ,  9-H ) :   0.8868 B(  6-C , 10-H ) :   0.9242 B(  6-C , 11-H ) :   0.1899
B(  6-C , 12-H ) :   0.1933 B(  6-C , 13-H ) :   0.1886

Dispersion correction           -0.004434251
FINAL SINGLE POINT ENERGY      -766.476795317691

DIPOLE MOMENT
-------------
                                X             Y             Z
Electronic contribution:    -10.21797       5.40800      -4.84686
Nuclear contribution   :     12.11759      -6.01574       3.81244
                        -----------------------------------------
Total Dipole Moment    :      1.89962      -0.60774      -1.03442
                        -----------------------------------------
Magnitude (a.u.)       :      2.24676
Magnitude (Debye)      :      5.71080

Rotational constants in cm-1:     0.128152     0.053825     0.050608
Rotational constants in MHz :  3841.897096  1613.621976  1517.196867

                             ****ORCA TERMINATED NORMALLY****
TOTAL RUN TIME: 0 days 0 hours 0 minutes 15 seconds 454 msec
