                         Program Version 5.0.0 -  RELEASE  -
|  1> !wB97X-D3 RIJCOSX def2-SVPD def2/J TightSCF CPCM(Water)
|  2> *xyz 0 1
|  3> C         -5.57236       -5.80780       -0.81644
|  4> S         -6.90318       -4.61903       -0.52846
|  5> O         -8.11485       -5.25093       -0.95701
|  6> O         -6.53271       -3.42684       -1.31485
|  7> F         -6.86563       -4.29496        0.91412
|  8> C         -3.82708       -4.66110        0.78617
|  9> C         -4.45780       -5.94187        0.22919
| 10> H         -5.17735       -5.54257       -1.79771
| 11> H         -6.07420       -6.76889       -0.92127
| 12> H         -3.68106       -6.56224       -0.22988
| 13> H         -4.84394       -6.51273        1.07581
| 14> H         -3.43706       -4.07576       -0.02016
| 15> H         -3.03403       -4.91680        1.45744
| 16> H         -4.56975       -4.09647        1.31013
| 17> *
| 18> %MaxCore 64000
| 19>
| 20> %pal nprocs 18
| 21> end
| 22>
| 23> %scf
| 24>   MaxIter 150
| 25> end
| 26>
| 27>                          ****END OF INPUT****

CARTESIAN COORDINATES (ANGSTROEM)
---------------------------------
  C     -5.572360   -5.807800   -0.816440
  S     -6.903180   -4.619030   -0.528460
  O     -8.114850   -5.250930   -0.957010
  O     -6.532710   -3.426840   -1.314850
  F     -6.865630   -4.294960    0.914120
  C     -3.827080   -4.661100    0.786170
  C     -4.457800   -5.941870    0.229190
  H     -5.177350   -5.542570   -1.797710
  H     -6.074200   -6.768890   -0.921270
  H     -3.681060   -6.562240   -0.229880
  H     -4.843940   -6.512730    1.075810
  H     -3.437060   -4.075760   -0.020160
  H     -3.034030   -4.916800    1.457440
  H     -4.569750   -4.096470    1.310130

 Total Charge           Charge          ....    0
 Multiplicity           Mult            ....    1
 Number of Electrons    NEL             ....   66
 Basis Dimension        Dim             ....  212

ORBITAL ENERGIES
----------------

  NO   OCC          E(Eh)            E(eV)
   0   2.0000     -89.238946     -2428.3152
   1   2.0000     -24.903042      -677.6462
   2   2.0000     -19.273182      -524.4499
   3   2.0000     -19.260035      -524.0922
   4   2.0000     -10.339411      -281.3497
   5   2.0000     -10.305384      -280.4238
   6   2.0000     -10.276707      -279.6434
   7   2.0000      -8.313209      -226.2139
   8   2.0000      -6.276833      -170.8013
   9   2.0000      -6.270980      -170.6420
  10   2.0000      -6.268819      -170.5832
  11   2.0000      -1.463125       -39.8136
  12   2.0000      -1.239678       -33.7334
  13   2.0000      -1.136906       -30.9368
  14   2.0000      -0.932854       -25.3842
  15   2.0000      -0.854449       -23.2508
  16   2.0000      -0.806370       -21.9424
  17   2.0000      -0.737618       -20.0716
  18   2.0000      -0.678516       -18.4634
  19   2.0000      -0.675922       -18.3928
  20   2.0000      -0.651474       -17.7275
  21   2.0000      -0.587194       -15.9784
  22   2.0000      -0.574036       -15.6203
  23   2.0000      -0.560933       -15.2638
  24   2.0000      -0.555344       -15.1117
  25   2.0000      -0.521656       -14.1950
  26   2.0000      -0.501957       -13.6590
  27   2.0000      -0.472782       -12.8651
  28   2.0000      -0.463849       -12.6220
  29   2.0000      -0.447657       -12.1814
  30   2.0000      -0.431367       -11.7381
  31   2.0000      -0.422855       -11.5065
  32   2.0000      -0.418065       -11.3761
  33   0.0000       0.069180         1.8825
  34   0.0000       0.094049         2.5592
  35   0.0000       0.097608         2.6560
  36   0.0000       0.100447         2.7333
  37   0.0000       0.120583         3.2812

MULLIKEN ATOMIC CHARGES
-----------------------
   0 C :   -0.061710
   1 S :    1.474754
   2 O :   -0.706443
   3 O :   -0.729154
   4 F :   -0.419384
   5 C :    0.693384
   6 C :   -0.361640
   7 H :    0.142992
   8 H :    0.102721
   9 H :   -0.001686
  10 H :    0.018120
  11 H :   -0.025401
  12 H :    0.020470
  13 H :   -0.147022
Sum of atomic charges:    0.0000000

LOEWDIN ATOMIC CHARGES
----------------------
   0 C :   -0.021562
   1 S :    1.136459
   2 O :   -0.489240
   3 O :   -0.524595
   4 F :   -0.263779
   5 C :    0.133455
   6 C :   -0.064642
   7 H :    0.039294
   8 H :    0.029323
   9 H :    0.038849
  10 H :    0.032392
  11 H :   -0.006072
  12 H :   -0.006543
  13 H :   -0.033339

  Mayer bond orders larger than 0.100000
B(  0-C ,  1-S ) :   0.9571 B(  0-C ,  6-C ) :   1.3085 B(  0-C ,  7-H ) :   0.9059
B(  0-C ,  8-H ) :   0.8972 B(  0-C ,  9-H ) :   0.1398 B(  0-C , 10-H ) :   0.1257
B(  1-S ,  2-O ) :   1.5419 B(  1-S ,  3-O ) :   1.4516 B(  1-S ,  4-F ) :   0.6443
B(  5-C ,  6-C ) :   1.2674 B(  5-C , 11-H ) :   0.7943 B(  5-C , 12-H ) :   0.7593
B(  5-C , 13-H ) :   0.8492 B(  6-C ,  7-H ) :   0.1190 B(  6-C ,  8-H ) :   0.1354
B(  6-C ,  9-H ) :   0.8764 B(  6-C , 10-H ) :   0.9384 B(  6-C , 11-H ) :   0.1983
B(  6-C , 12-H ) :   0.1951 B(  6-C , 13-H ) :   0.1830

Dispersion correction           -0.004470388
FINAL SINGLE POINT ENERGY      -766.477519070118

DIPOLE MOMENT
-------------
                                X             Y             Z
Electronic contribution:    -10.83277       3.66658      -0.47456
Nuclear contribution   :     12.47562      -5.08213       1.41531
                        -----------------------------------------
Total Dipole Moment    :      1.64285      -1.41555       0.94075
                        -----------------------------------------
Magnitude (a.u.)       :      2.36384
Magnitude (Debye)      :      6.00840

Rotational constants in cm-1:     0.128398     0.054249     0.051014
Rotational constants in MHz :  3849.278549  1626.338413  1529.351405

                             ****ORCA TERMINATED NORMALLY****
TOTAL RUN TIME: 0 days 0 hours 0 minutes 15 seconds 451 msec
