                         Program Version 5.0.0 -  RELEASE  -
|  1> !LC-BLYP RIJCOSX def2-SVPD def2/J TightSCF
|  2> *xyz -1 1
|  3> C          4.12921        0.89839       -3.41895
|  4> C          5.01734        1.31521       -2.22130
|  5> O          4.73706        0.85411       -1.12283
|  6> O          5.92815        2.16811       -2.49136
|  7> H          4.48610        1.37210       -4.30953
|  8> H          3.11885        1.19903       -3.23540
|  9> H          4.16886       -0.16404       -3.53966
| 10> *
| 11> %MaxCore 64000
| 12>
| 13> %pal nprocs 4
| 14> end
| 15>
| 16> %scf
| 17>   MaxIter 150
| 18> end
| 19>
| 20>
| 21>                          ****END OF INPUT****

CARTESIAN COORDINATES (ANGSTROEM)
---------------------------------
  C      4.129210    0.898390   -3.418950
  C      5.017340    1.315210   -2.221300
  O      4.737060    0.854110   -1.122830
  O      5.928150    2.168110   -2.491360
  H      4.486100    1.372100   -4.309530
  H      3.118850    1.199030   -3.235400
  H      4.168860   -0.164040   -3.539660

 Total Charge           Charge          ....   -1
 Multiplicity           Mult            ....    1
 Number of Electrons    NEL             ....   32
 Basis Dimension        Dim             ....  110

ORBITAL ENERGIES
----------------

  NO   OCC          E(Eh)            E(eV)
   0   2.0000     -18.700218      -508.8588
   1   2.0000     -18.689871      -508.5773
   2   2.0000      -9.975694      -271.4524
   3   2.0000      -9.897260      -269.3181
   4   2.0000      -0.910581       -24.7782
   5   2.0000      -0.812384       -22.1061
   6   2.0000      -0.644397       -17.5349
   7   2.0000      -0.403855       -10.9894
   8   2.0000      -0.367040        -9.9877
   9   2.0000      -0.347488        -9.4556
  10   2.0000      -0.332205        -9.0398
  11   2.0000      -0.290420        -7.9027
  12   2.0000      -0.276444        -7.5224
  13   2.0000      -0.150470        -4.0945
  14   2.0000      -0.141601        -3.8532
  15   2.0000      -0.128763        -3.5038
  16   0.0000       0.221835         6.0364
  17   0.0000       0.257271         7.0007
  18   0.0000       0.281540         7.6611
  19   0.0000       0.291481         7.9316
  20   0.0000       0.316425         8.6104

MULLIKEN ATOMIC CHARGES
-----------------------
   0 C :    0.690415
   1 C :   -0.204912
   2 O :   -0.478689
   3 O :   -0.574395
   4 H :   -0.153218
   5 H :   -0.141012
   6 H :   -0.138190
Sum of atomic charges:   -1.0000000

LOEWDIN ATOMIC CHARGES
----------------------
   0 C :    0.133069
   1 C :   -0.376083
   2 O :   -0.298255
   3 O :   -0.342562
   4 H :   -0.042953
   5 H :   -0.035531
   6 H :   -0.037686

  Mayer bond orders larger than 0.100000
B(  0-C ,  1-C ) :   1.1799 B(  0-C ,  4-H ) :   0.8319 B(  0-C ,  5-H ) :   0.7904
B(  0-C ,  6-H ) :   0.7800 B(  1-C ,  2-O ) :   1.6892 B(  1-C ,  3-O ) :   1.5756
B(  1-C ,  4-H ) :   0.2706 B(  1-C ,  5-H ) :   0.1742 B(  1-C ,  6-H ) :   0.1827

FINAL SINGLE POINT ENERGY      -227.894045470774

DIPOLE MOMENT
-------------
                                X             Y             Z
Electronic contribution:      2.00306       0.92294       2.85201
Nuclear contribution   :     -2.87913      -1.42371      -3.86600
                        -----------------------------------------
Total Dipole Moment    :     -0.87607      -0.50078      -1.01399
                        -----------------------------------------
Magnitude (a.u.)       :      1.43054
Magnitude (Debye)      :      3.63615

Rotational constants in cm-1:     0.390018     0.334370     0.186171
Rotational constants in MHz : 11692.450907 10024.149143  5581.251544

                             ****ORCA TERMINATED NORMALLY****
TOTAL RUN TIME: 0 days 0 hours 0 minutes 8 seconds 402 msec
