                         Program Version 5.0.0 -  RELEASE  -
|  1> !LC-BLYP RIJCOSX def2-SVPD def2/J TightSCF
|  2> *xyz 1 1
|  3> C          3.34350        3.35457       -3.59200
|  4> C          4.25587        3.70385       -4.72605
|  5> N          3.73403        4.29378       -5.80077
|  6> N          5.51504        3.40725       -4.63718
|  7> H          6.14919        3.60120       -5.39905
|  8> H          5.81358        2.89950       -3.80879
|  9> H          2.74138        4.51311       -5.82470
| 10> H          4.28755        4.52126       -6.61434
| 11> H          2.34726        3.66659       -3.82664
| 12> H          3.67283        3.85124       -2.70331
| 13> H          3.35820        2.29620       -3.43538
| 14> *
| 15> %MaxCore 64000
| 16>
| 17> %pal nprocs 4
| 18> end
| 19>
| 20> %scf
| 21>   MaxIter 150
| 22> end
| 23>
| 24>
| 25>                          ****END OF INPUT****

CARTESIAN COORDINATES (ANGSTROEM)
---------------------------------
  C      3.343500    3.354570   -3.592000
  C      4.255870    3.703850   -4.726050
  N      3.734030    4.293780   -5.800770
  N      5.515040    3.407250   -4.637180
  H      6.149190    3.601200   -5.399050
  H      5.813580    2.899500   -3.808790
  H      2.741380    4.513110   -5.824700
  H      4.287550    4.521260   -6.614340
  H      2.347260    3.666590   -3.826640
  H      3.672830    3.851240   -2.703310
  H      3.358200    2.296200   -3.435380

 Total Charge           Charge          ....    1
 Multiplicity           Mult            ....    1
 Number of Electrons    NEL             ....   32
 Basis Dimension        Dim             ....  136

ORBITAL ENERGIES
----------------

  NO   OCC          E(Eh)            E(eV)
   0   2.0000     -14.443145      -393.0179
   1   2.0000     -14.439198      -392.9106
   2   2.0000     -10.421189      -283.5750
   3   2.0000     -10.284505      -279.8556
   4   2.0000      -1.306012       -35.5384
   5   2.0000      -1.209474       -32.9115
   6   2.0000      -1.060091       -28.8466
   7   2.0000      -0.947197       -25.7745
   8   2.0000      -0.891004       -24.2454
   9   2.0000      -0.876274       -23.8446
  10   2.0000      -0.810298       -22.0493
  11   2.0000      -0.775433       -21.1006
  12   2.0000      -0.720171       -19.5969
  13   2.0000      -0.704120       -19.1601
  14   2.0000      -0.680001       -18.5038
  15   2.0000      -0.600336       -16.3360
  16   0.0000      -0.135247        -3.6803
  17   0.0000      -0.105334        -2.8663
  18   0.0000      -0.059552        -1.6205
  19   0.0000      -0.057299        -1.5592
  20   0.0000      -0.032696        -0.8897

MULLIKEN ATOMIC CHARGES
-----------------------
   0 C :    0.818129
   1 C :    0.113386
   2 N :    0.162522
   3 N :    0.391523
   4 H :   -0.199378
   5 H :    0.030991
   6 H :    0.031715
   7 H :   -0.168931
   8 H :   -0.057842
   9 H :   -0.056225
  10 H :   -0.065889
Sum of atomic charges:    1.0000000

LOEWDIN ATOMIC CHARGES
----------------------
   0 C :    0.220578
   1 C :   -0.087256
   2 N :    0.290190
   3 N :    0.290609
   4 H :    0.055294
   5 H :    0.065909
   6 H :    0.052399
   7 H :    0.046330
   8 H :    0.010334
   9 H :    0.027851
  10 H :    0.027762

  Mayer bond orders larger than 0.100000
B(  0-C ,  1-C ) :   1.2877 B(  0-C ,  8-H ) :   0.7191 B(  0-C ,  9-H ) :   0.6966
B(  0-C , 10-H ) :   0.7245 B(  1-C ,  2-N ) :   1.1059 B(  1-C ,  3-N ) :   1.3504
B(  1-C ,  4-H ) :  -0.1510 B(  1-C ,  7-H ) :  -0.2522 B(  1-C ,  8-H ) :   0.3065
B(  1-C ,  9-H ) :   0.2081 B(  1-C , 10-H ) :   0.1802 B(  2-N ,  3-N ) :   0.1464
B(  2-N ,  6-H ) :   1.0811 B(  2-N ,  7-H ) :   1.3509 B(  3-N ,  4-H ) :   1.2429
B(  3-N ,  5-H ) :   1.0791 B(  4-H ,  5-H ) :  -0.1601 B(  6-H ,  7-H ) :  -0.1914
B(  8-H ,  9-H ) :   0.1025 B(  9-H , 10-H ) :   0.1046

FINAL SINGLE POINT ENERGY      -189.097474197950

DIPOLE MOMENT
-------------
                                X             Y             Z
Electronic contribution:      1.42147       0.50372      -1.60421
Nuclear contribution   :     -1.09951      -0.46604       1.22975
                        -----------------------------------------
Total Dipole Moment    :      0.32197       0.03768      -0.37445
                        -----------------------------------------
Magnitude (a.u.)       :      0.49528
Magnitude (Debye)      :      1.25889

Rotational constants in cm-1:     0.329035     0.303839     0.162676
Rotational constants in MHz :  9864.215808  9108.853745  4876.907929

                             ****ORCA TERMINATED NORMALLY****
TOTAL RUN TIME: 0 days 0 hours 0 minutes 11 seconds 505 msec
