                         Program Version 5.0.0 -  RELEASE  -
|  1> !LC-BLYP RIJCOSX def2-SVPD def2/J TightSCF
|  2> *xyz 0 1
|  3> C          4.12921        0.89839       -3.41895
|  4> C          5.01734        1.31521       -2.22130
|  5> F          4.73706        0.85411       -1.12283
|  6> O          5.92815        2.16811       -2.49136
|  7> H          4.48610        1.37210       -4.30953
|  8> H          3.11885        1.19903       -3.23540
|  9> H          4.16886       -0.16404       -3.53966
| 10> *
| 11> %MaxCore 64000
| 12>
| 13> %pal nprocs 4
| 14> end
| 15>
| 16> %scf
| 17>   MaxIter 150
| 18> end
| 19>
| 20>
| 21>                          ****END OF INPUT****

CARTESIAN COORDINATES (ANGSTROEM)
---------------------------------
  C      4.129210    0.898390   -3.418950
  C      5.017340    1.315210   -2.221300
  F      4.737060    0.854110   -1.122830
  O      5.928150    2.168110   -2.491360
  H      4.486100    1.372100   -4.309530
  H      3.118850    1.199030   -3.235400
  H      4.168860   -0.164040   -3.539660

 Total Charge           Charge          ....    0
 Multiplicity           Mult            ....    1
 Number of Electrons    NEL             ....   32
 Basis Dimension        Dim             ....  110

ORBITAL ENERGIES
----------------

  NO   OCC          E(Eh)            E(eV)
   0   2.0000     -24.564724      -668.4401
   1   2.0000     -18.967687      -516.1370
   2   2.0000     -10.280638      -279.7504
   3   2.0000     -10.113521      -275.2029
   4   2.0000      -1.417216       -38.5644
   5   2.0000      -1.111346       -30.2413
   6   2.0000      -0.875093       -23.8125
   7   2.0000      -0.778294       -21.1785
   8   2.0000      -0.678518       -18.4634
   9   2.0000      -0.666437       -18.1347
  10   2.0000      -0.606852       -16.5133
  11   2.0000      -0.549012       -14.9394
  12   2.0000      -0.537748       -14.6329
  13   2.0000      -0.502759       -13.6808
  14   2.0000      -0.457817       -12.4578
  15   2.0000      -0.393665       -10.7122
  16   0.0000       0.049291         1.3413
  17   0.0000       0.061654         1.6777
  18   0.0000       0.102673         2.7939
  19   0.0000       0.134198         3.6517
  20   0.0000       0.143274         3.8987

MULLIKEN ATOMIC CHARGES
-----------------------
   0 C :    0.654169
   1 C :    0.200451
   2 F :   -0.234866
   3 O :   -0.353879
   4 H :   -0.129672
   5 H :   -0.066859
   6 H :   -0.069343
Sum of atomic charges:   -0.0000000

LOEWDIN ATOMIC CHARGES
----------------------
   0 C :    0.204879
   1 C :   -0.078682
   2 F :    0.010910
   3 O :   -0.134522
   4 H :    0.000275
   5 H :   -0.000218
   6 H :   -0.002642

  Mayer bond orders larger than 0.100000
B(  0-C ,  1-C ) :   1.2044 B(  0-C ,  4-H ) :   0.8483 B(  0-C ,  5-H ) :   0.7848
B(  0-C ,  6-H ) :   0.7780 B(  1-C ,  2-F ) :   0.9406 B(  1-C ,  3-O ) :   1.9371
B(  1-C ,  4-H ) :   0.2318 B(  1-C ,  5-H ) :   0.1384 B(  1-C ,  6-H ) :   0.1438
B(  2-F ,  3-O ) :   0.1036

FINAL SINGLE POINT ENERGY      -252.401657883214

DIPOLE MOMENT
-------------
                                X             Y             Z
Electronic contribution:      1.69853       0.20556       4.83312
Nuclear contribution   :     -2.65749      -0.95231      -5.09883
                        -----------------------------------------
Total Dipole Moment    :     -0.95895      -0.74676      -0.26570
                        -----------------------------------------
Magnitude (a.u.)       :      1.24412
Magnitude (Debye)      :      3.16230

Rotational constants in cm-1:     0.365278     0.322469     0.176821
Rotational constants in MHz : 10950.755781  9667.377070  5300.957073

                             ****ORCA TERMINATED NORMALLY****
TOTAL RUN TIME: 0 days 0 hours 0 minutes 8 seconds 326 msec
