                         Program Version 5.0.0 -  RELEASE  -
|  1> !LC-BLYP RIJCOSX def2-SVPD def2/J TightSCF
|  2> *xyz 0 1
|  3> C          3.34350        3.35457       -3.59200
|  4> C          4.25587        3.70385       -4.72605
|  5> C          3.73403        4.29378       -5.80077
|  6> N          5.51504        3.40725       -4.63718
|  7> H          6.14919        3.60120       -5.39905
|  8> H          5.81358        2.89950       -3.80879
|  9> H          2.74138        4.51311       -5.82470
| 10> H          4.28755        4.52126       -6.61434
| 11> H          2.34726        3.66659       -3.82664
| 12> H          3.67283        3.85124       -2.70331
| 13> H          3.35820        2.29620       -3.43538
| 14> *
| 15> %MaxCore 64000
| 16>
| 17> %pal nprocs 4
| 18> end
| 19>
| 20> %scf
| 21>   MaxIter 150
| 22> end
| 23>
| 24>
| 25>                          ****END OF INPUT****

CARTESIAN COORDINATES (ANGSTROEM)
---------------------------------
  C      3.343500    3.354570   -3.592000
  C      4.255870    3.703850   -4.726050
  C      3.734030    4.293780   -5.800770
  N      5.515040    3.407250   -4.637180
  H      6.149190    3.601200   -5.399050
  H      5.813580    2.899500   -3.808790
  H      2.741380    4.513110   -5.824700
  H      4.287550    4.521260   -6.614340
  H      2.347260    3.666590   -3.826640
  H      3.672830    3.851240   -2.703310
  H      3.358200    2.296200   -3.435380

 Total Charge           Charge          ....    0
 Multiplicity           Mult            ....    1
 Number of Electrons    NEL             ....   32
 Basis Dimension        Dim             ....  136

ORBITAL ENERGIES
----------------

  NO   OCC          E(Eh)            E(eV)
   0   2.0000     -14.192118      -386.1872
   1   2.0000     -10.110137      -275.1108
   2   2.0000     -10.075403      -274.1657
   3   2.0000     -10.017770      -272.5974
   4   2.0000      -1.031646       -28.0725
   5   2.0000      -0.858159       -23.3517
   6   2.0000      -0.789713       -21.4892
   7   2.0000      -0.679102       -18.4793
   8   2.0000      -0.636631       -17.3236
   9   2.0000      -0.578129       -15.7317
  10   2.0000      -0.541525       -14.7356
  11   2.0000      -0.498222       -13.5573
  12   2.0000      -0.491842       -13.3837
  13   2.0000      -0.450415       -12.2564
  14   2.0000      -0.443331       -12.0637
  15   2.0000      -0.284410        -7.7392
  16   0.0000       0.072162         1.9636
  17   0.0000       0.107452         2.9239
  18   0.0000       0.113760         3.0956
  19   0.0000       0.121992         3.3196
  20   0.0000       0.146854         3.9961

MULLIKEN ATOMIC CHARGES
-----------------------
   0 C :    1.101587
   1 C :   -0.662199
   2 C :    0.579128
   3 N :    0.544955
   4 H :   -0.239667
   5 H :   -0.167905
   6 H :   -0.238974
   7 H :   -0.606151
   8 H :   -0.042110
   9 H :   -0.132998
  10 H :   -0.135666
Sum of atomic charges:    0.0000000

LOEWDIN ATOMIC CHARGES
----------------------
   0 C :    0.151247
   1 C :   -0.312697
   2 C :    0.165512
   3 N :    0.175482
   4 H :    0.012387
   5 H :    0.008392
   6 H :   -0.085064
   7 H :   -0.089648
   8 H :   -0.010782
   9 H :   -0.007604
  10 H :   -0.007225

  Mayer bond orders larger than 0.100000
B(  0-C ,  1-C ) :   1.2616 B(  0-C ,  2-C ) :   0.1111 B(  0-C ,  8-H ) :   0.7380
B(  0-C ,  9-H ) :   0.5614 B(  0-C , 10-H ) :   0.5848 B(  1-C ,  2-C ) :   1.6402
B(  1-C ,  3-N ) :   1.3253 B(  1-C ,  7-H ) :   0.1360 B(  1-C ,  8-H ) :   0.2838
B(  1-C ,  9-H ) :   0.3297 B(  1-C , 10-H ) :   0.3090 B(  2-C ,  3-N ) :   0.2638
B(  2-C ,  6-H ) :   0.9477 B(  2-C ,  7-H ) :   0.6656 B(  3-N ,  4-H ) :   1.1888
B(  3-N ,  5-H ) :   1.0964 B(  4-H ,  5-H ) :  -0.1304 B(  8-H , 10-H ) :   0.1033

FINAL SINGLE POINT ENERGY      -172.647325182437

DIPOLE MOMENT
-------------
                                X             Y             Z
Electronic contribution:      1.76745      -0.04651      -0.55139
Nuclear contribution   :     -1.20871      -0.33119       0.98382
                        -----------------------------------------
Total Dipole Moment    :      0.55874      -0.37770       0.43243
                        -----------------------------------------
Magnitude (a.u.)       :      0.80115
Magnitude (Debye)      :      2.03636

Rotational constants in cm-1:     0.348453     0.308655     0.168735
Rotational constants in MHz : 10446.369928  9253.232733  5058.539653

                             ****ORCA TERMINATED NORMALLY****
TOTAL RUN TIME: 0 days 0 hours 0 minutes 12 seconds 284 msec
