                         Program Version 5.0.0 -  RELEASE  -
|  1> !LC-BLYP RIJCOSX def2-SVPD def2/J TightSCF
|  2> *xyz 0 1
|  3> C          4.12921        0.89839       -3.41895
|  4> C          5.01734        1.31521       -2.22130
|  5> O          4.73706        0.85411       -1.12283
|  6> F          5.92815        2.16811       -2.49136
|  7> H          4.48610        1.37210       -4.30953
|  8> H          3.11885        1.19903       -3.23540
|  9> H          4.16886       -0.16404       -3.53966
| 10> *
| 11> %MaxCore 64000
| 12>
| 13> %pal nprocs 4
| 14> end
| 15>
| 16> %scf
| 17>   MaxIter 150
| 18> end
| 19>
| 20>
| 21>                          ****END OF INPUT****

CARTESIAN COORDINATES (ANGSTROEM)
---------------------------------
  C      4.129210    0.898390   -3.418950
  C      5.017340    1.315210   -2.221300
  O      4.737060    0.854110   -1.122830
  F      5.928150    2.168110   -2.491360
  H      4.486100    1.372100   -4.309530
  H      3.118850    1.199030   -3.235400
  H      4.168860   -0.164040   -3.539660

 Total Charge           Charge          ....    0
 Multiplicity           Mult            ....    1
 Number of Electrons    NEL             ....   32
 Basis Dimension        Dim             ....  110

ORBITAL ENERGIES
----------------

  NO   OCC          E(Eh)            E(eV)
   0   2.0000     -24.543958      -667.8751
   1   2.0000     -18.977434      -516.4022
   2   2.0000     -10.276604      -279.6406
   3   2.0000     -10.113533      -275.2032
   4   2.0000      -1.377186       -37.4751
   5   2.0000      -1.143570       -31.1181
   6   2.0000      -0.873833       -23.7782
   7   2.0000      -0.757440       -20.6110
   8   2.0000      -0.655505       -17.8372
   9   2.0000      -0.648757       -17.6536
  10   2.0000      -0.609188       -16.5768
  11   2.0000      -0.548667       -14.9300
  12   2.0000      -0.539774       -14.6880
  13   2.0000      -0.509602       -13.8670
  14   2.0000      -0.473829       -12.8935
  15   2.0000      -0.406965       -11.0741
  16   0.0000       0.051221         1.3938
  17   0.0000       0.062643         1.7046
  18   0.0000       0.104092         2.8325
  19   0.0000       0.137082         3.7302
  20   0.0000       0.140184         3.8146

MULLIKEN ATOMIC CHARGES
-----------------------
   0 C :    0.637709
   1 C :    0.166095
   2 O :   -0.287899
   3 F :   -0.277863
   4 H :   -0.119344
   5 H :   -0.057850
   6 H :   -0.060847
Sum of atomic charges:   -0.0000000

LOEWDIN ATOMIC CHARGES
----------------------
   0 C :    0.207134
   1 C :   -0.075556
   2 O :   -0.097649
   3 F :   -0.031350
   4 H :   -0.012196
   5 H :    0.005388
   6 H :    0.004229

  Mayer bond orders larger than 0.100000
B(  0-C ,  1-C ) :   1.2168 B(  0-C ,  4-H ) :   0.8457 B(  0-C ,  5-H ) :   0.7877
B(  0-C ,  6-H ) :   0.7767 B(  1-C ,  2-O ) :   1.9960 B(  1-C ,  3-F ) :   0.8977
B(  1-C ,  4-H ) :   0.1833 B(  1-C ,  5-H ) :   0.1480 B(  1-C ,  6-H ) :   0.1593

FINAL SINGLE POINT ENERGY      -252.417341709317

DIPOLE MOMENT
-------------
                                X             Y             Z
Electronic contribution:      3.64257       2.34833       2.59740
Nuclear contribution   :     -3.88824      -2.31007      -3.68473
                        -----------------------------------------
Total Dipole Moment    :     -0.24567       0.03826      -1.08733
                        -----------------------------------------
Magnitude (a.u.)       :      1.11539
Magnitude (Debye)      :      2.83510

Rotational constants in cm-1:     0.367620     0.319924     0.176595
Rotational constants in MHz : 11020.955969  9591.092757  5294.190719

                             ****ORCA TERMINATED NORMALLY****
TOTAL RUN TIME: 0 days 0 hours 0 minutes 8 seconds 413 msec
