                         Program Version 5.0.0 -  RELEASE  -
|  1> !LC-BLYP RIJCOSX def2-SVPD def2/J TightSCF
|  2> *xyz 0 1
|  3> C          3.34350        3.35457       -3.59200
|  4> C          4.25587        3.70385       -4.72605
|  5> N          3.73403        4.29378       -5.80077
|  6> C          5.51504        3.40725       -4.63718
|  7> H          6.14919        3.60120       -5.39905
|  8> H          5.81358        2.89950       -3.80879
|  9> H          2.74138        4.51311       -5.82470
| 10> H          4.28755        4.52126       -6.61434
| 11> H          2.34726        3.66659       -3.82664
| 12> H          3.67283        3.85124       -2.70331
| 13> H          3.35820        2.29620       -3.43538
| 14> *
| 15> %MaxCore 64000
| 16>
| 17> %pal nprocs 4
| 18> end
| 19>
| 20> %scf
| 21>   MaxIter 150
| 22> end
| 23>
| 24>
| 25>                          ****END OF INPUT****

CARTESIAN COORDINATES (ANGSTROEM)
---------------------------------
  C      3.343500    3.354570   -3.592000
  C      4.255870    3.703850   -4.726050
  N      3.734030    4.293780   -5.800770
  C      5.515040    3.407250   -4.637180
  H      6.149190    3.601200   -5.399050
  H      5.813580    2.899500   -3.808790
  H      2.741380    4.513110   -5.824700
  H      4.287550    4.521260   -6.614340
  H      2.347260    3.666590   -3.826640
  H      3.672830    3.851240   -2.703310
  H      3.358200    2.296200   -3.435380

 Total Charge           Charge          ....    0
 Multiplicity           Mult            ....    1
 Number of Electrons    NEL             ....   32
 Basis Dimension        Dim             ....  136

ORBITAL ENERGIES
----------------

  NO   OCC          E(Eh)            E(eV)
   0   2.0000     -14.188739      -386.0952
   1   2.0000     -10.107219      -275.0314
   2   2.0000     -10.075163      -274.1591
   3   2.0000     -10.015110      -272.5250
   4   2.0000      -1.018024       -27.7019
   5   2.0000      -0.862307       -23.4646
   6   2.0000      -0.793160       -21.5830
   7   2.0000      -0.673991       -18.3402
   8   2.0000      -0.626805       -17.0562
   9   2.0000      -0.579692       -15.7742
  10   2.0000      -0.537638       -14.6299
  11   2.0000      -0.497626       -13.5411
  12   2.0000      -0.493731       -13.4351
  13   2.0000      -0.454188       -12.3591
  14   2.0000      -0.438643       -11.9361
  15   2.0000      -0.288105        -7.8397
  16   0.0000       0.073027         1.9872
  17   0.0000       0.107279         2.9192
  18   0.0000       0.113217         3.0808
  19   0.0000       0.120770         3.2863
  20   0.0000       0.146031         3.9737

MULLIKEN ATOMIC CHARGES
-----------------------
   0 C :    1.019184
   1 C :   -0.387754
   2 N :    0.310114
   3 C :    0.511686
   4 H :   -0.507329
   5 H :   -0.252706
   6 H :   -0.126552
   7 H :   -0.217513
   8 H :   -0.218766
   9 H :   -0.060729
  10 H :   -0.069636
Sum of atomic charges:   -0.0000000

LOEWDIN ATOMIC CHARGES
----------------------
   0 C :    0.152668
   1 C :   -0.300705
   2 N :    0.177593
   3 C :    0.150190
   4 H :   -0.079786
   5 H :   -0.068396
   6 H :   -0.006537
   7 H :    0.002047
   8 H :   -0.024433
   9 H :   -0.001279
  10 H :   -0.001363

  Mayer bond orders larger than 0.100000
B(  0-C ,  1-C ) :   1.0782 B(  0-C ,  2-N ) :   0.1270 B(  0-C ,  3-C ) :   0.1478
B(  0-C ,  8-H ) :   0.6284 B(  0-C ,  9-H ) :   0.6704 B(  0-C , 10-H ) :   0.6847
B(  1-C ,  2-N ) :   1.1194 B(  1-C ,  3-C ) :   1.8228 B(  1-C ,  4-H ) :   0.2501
B(  1-C ,  5-H ) :   0.1517 B(  1-C ,  7-H ) :  -0.1565 B(  1-C ,  8-H ) :   0.3306
B(  1-C ,  9-H ) :   0.2170 B(  1-C , 10-H ) :   0.1986 B(  2-N ,  3-C ) :   0.2538
B(  2-N ,  6-H ) :   1.1129 B(  2-N ,  7-H ) :   1.3020 B(  3-C ,  4-H ) :   0.6471
B(  3-C ,  5-H ) :   0.7244 B(  6-H ,  7-H ) :  -0.1765

FINAL SINGLE POINT ENERGY      -172.646549649681

DIPOLE MOMENT
-------------
                                X             Y             Z
Electronic contribution:      0.19398       0.74153      -1.55028
Nuclear contribution   :     -0.80929      -0.53001       1.24477
                        -----------------------------------------
Total Dipole Moment    :     -0.61531       0.21152      -0.30551
                        -----------------------------------------
Magnitude (a.u.)       :      0.71881
Magnitude (Debye)      :      1.82706

Rotational constants in cm-1:     0.352070     0.305406     0.168593
Rotational constants in MHz : 10554.792117  9155.853997  5054.288053

                             ****ORCA TERMINATED NORMALLY****
TOTAL RUN TIME: 0 days 0 hours 0 minutes 12 seconds 359 msec
