                         Program Version 5.0.0 -  RELEASE  -
|  1> !LC-BLYP RIJCOSX def2-SVPD def2/J TightSCF xyzfile
|  2>
|  3> *xyzfile 0 1 D3.xyz
|  4>
|  5> %MaxCore 64000
|  6>
|  7> %pal nprocs 4
|  8> end
|  9>
| 10> %scf
| 11>   MaxIter 150
| 12> end
| 13>
| 14>
| 15>                          ****END OF INPUT****

CARTESIAN COORDINATES (ANGSTROEM)
---------------------------------
  C      3.343500    3.354571   -3.591998
  C      2.952633    1.863077   -3.574849
  C      4.129209    0.898394   -3.418950
  H      3.733687   -0.100605   -3.237633
  H      4.719095    0.862556   -4.339005
  C      5.017344    1.315212   -2.221305
  C      4.255868    3.703851   -4.726054
  C      3.734032    4.293783   -5.800770
  N      5.515039    3.407255   -4.637185
  H      6.149187    3.601203   -5.399053
  H      5.813584    2.899504   -3.808785
  H      2.741380    4.513109   -5.824701
  H      4.287548    4.521260   -6.614341
  H      2.278938    1.735250   -2.725496
  H      2.377466    1.625787   -4.475869
  O      4.737055    0.854112   -1.122825
  F      5.928146    2.168108   -2.491365
  H      3.861246    3.597252   -2.662979
  H      2.446493    3.973461   -3.656556

 Total Charge           Charge          ....    0
 Multiplicity           Mult            ....    1
 Number of Electrons    NEL             ....   70
 Basis Dimension        Dim             ....  266

ORBITAL ENERGIES
----------------

  NO   OCC          E(Eh)            E(eV)
   0   2.0000     -24.573387      -668.6759
   1   2.0000     -18.993077      -516.8279
   2   2.0000     -14.181909      -385.9094
   3   2.0000     -10.288019      -279.9512
   4   2.0000     -10.123407      -275.4719
   5   2.0000     -10.111566      -275.1497
   6   2.0000     -10.108442      -275.0647
   7   2.0000     -10.096530      -274.7405
   8   2.0000     -10.021443      -272.6973
   9   2.0000      -1.411134       -38.3989
  10   2.0000      -1.158578       -31.5265
  11   2.0000      -1.034097       -28.1392
  12   2.0000      -0.929585       -25.2953
  13   2.0000      -0.861953       -23.4549
  14   2.0000      -0.822707       -22.3870
  15   2.0000      -0.784845       -21.3567
  16   2.0000      -0.748507       -20.3679
  17   2.0000      -0.694766       -18.9055
  18   2.0000      -0.682484       -18.5713
  19   2.0000      -0.658768       -17.9260
  20   2.0000      -0.635045       -17.2805
  21   2.0000      -0.610781       -16.6202
  22   2.0000      -0.591375       -16.0921
  23   2.0000      -0.578318       -15.7368
  24   2.0000      -0.554128       -15.0786
  25   2.0000      -0.532052       -14.4779
  26   2.0000      -0.506304       -13.7772
  27   2.0000      -0.502355       -13.6698
  28   2.0000      -0.490998       -13.3607
  29   2.0000      -0.480912       -13.0863
  30   2.0000      -0.461431       -12.5562
  31   2.0000      -0.440235       -11.9794
  32   2.0000      -0.434858       -11.8331
  33   2.0000      -0.413227       -11.2445
  34   2.0000      -0.285670        -7.7735
  35   0.0000       0.035717         0.9719
  36   0.0000       0.062919         1.7121
  37   0.0000       0.086668         2.3584
  38   0.0000       0.091349         2.4857
  39   0.0000       0.094364         2.5678

MULLIKEN ATOMIC CHARGES
-----------------------
   0 C :    0.584532
   1 C :    0.164092
   2 C :    0.391789
   3 H :   -0.230067
   4 H :    0.074034
   5 C :    0.448941
   6 C :   -0.202260
   7 C :    0.460712
   8 N :    0.945351
   9 H :   -0.239314
  10 H :   -0.567576
  11 H :   -0.251041
  12 H :   -0.527839
  13 H :   -0.030983
  14 H :   -0.245847
  15 O :   -0.248079
  16 F :   -0.353717
  17 H :   -0.081411
  18 H :   -0.091317
Sum of atomic charges:    0.0000000

LOEWDIN ATOMIC CHARGES
----------------------
   0 C :    0.010008
   1 C :   -0.007846
   2 C :    0.047589
   3 H :    0.038593
   4 H :    0.029896
   5 C :   -0.028932
   6 C :   -0.260132
   7 C :    0.173164
   8 N :    0.211920
   9 H :    0.021383
  10 H :   -0.106013
  11 H :   -0.083154
  12 H :   -0.086799
  13 H :    0.034814
  14 H :    0.038179
  15 O :   -0.067437
  16 F :   -0.025335
  17 H :    0.025846
  18 H :    0.034256

  Mayer bond orders larger than 0.100000
B(  0-C ,  1-C ) :   1.1246 B(  0-C ,  6-C ) :   1.1443 B(  0-C ,  8-N ) :   0.1234
B(  0-C , 13-H ) :   0.1222 B(  0-C , 14-H ) :   0.1636 B(  0-C , 17-H ) :   0.5490
B(  0-C , 18-H ) :   0.7756 B(  1-C ,  2-C ) :   1.2490 B(  1-C ,  3-H ) :   0.2045
B(  1-C ,  4-H ) :   0.1860 B(  1-C ,  5-C ) :   0.1134 B(  1-C , 13-H ) :   0.8155
B(  1-C , 14-H ) :   0.9000 B(  1-C , 17-H ) :   0.2019 B(  1-C , 18-H ) :   0.1593
B(  2-C ,  3-H ) :   0.7615 B(  2-C ,  4-H ) :   0.8040 B(  2-C ,  5-C ) :   1.0469
B(  2-C , 13-H ) :   0.1301 B(  2-C , 16-F ) :   0.1182 B(  3-H ,  5-C ) :   0.1480
B(  5-C , 15-O ) :   2.0109 B(  5-C , 16-F ) :   0.6964 B(  6-C ,  7-C ) :   1.4757
B(  6-C ,  8-N ) :   1.1846 B(  6-C ,  9-H ) :  -0.1026 B(  6-C , 10-H ) :   0.1241
B(  6-C , 12-H ) :   0.1590 B(  6-C , 17-H ) :   0.2384 B(  6-C , 18-H ) :   0.2167
B(  7-C ,  8-N ) :   0.1828 B(  7-C , 11-H ) :   0.9639 B(  7-C , 12-H ) :   0.5499
B(  8-N ,  9-H ) :   1.1830 B(  8-N , 10-H ) :   0.8587 B(  9-H , 10-H ) :  -0.2136
B( 10-H , 16-F ) :   0.1769 B( 15-O , 16-F ) :   0.1305

FINAL SINGLE POINT ENERGY      -463.053910457773

DIPOLE MOMENT
-------------
                                X             Y             Z
Electronic contribution:      7.43325      -3.58341       8.02079
Nuclear contribution   :     -7.21688       3.18902      -8.52197
                        -----------------------------------------
Total Dipole Moment    :      0.21637      -0.39439      -0.50119
                        -----------------------------------------
Magnitude (a.u.)       :      0.67346
Magnitude (Debye)      :      1.71179

Rotational constants in cm-1:     0.103917     0.036987     0.030872
Rotational constants in MHz :  3115.342573  1108.839114   925.506342

                             ****ORCA TERMINATED NORMALLY****
TOTAL RUN TIME: 0 days 0 hours 1 minutes 2 seconds 839 msec
