                         Program Version 5.0.0 -  RELEASE  -
|  1> !wB97X-D3 RIJCOSX def2-TZVPD def2/J TightSCF
|  2> *xyz -1 1
|  3> C         -0.90349       -0.87394       -1.98739
|  4> C         -0.96015       -0.52236       -0.48987
|  5> H         -1.69039       -1.20813       -0.02168
|  6> H         -1.41449        0.48633       -0.40668
|  7> O          0.26170       -0.58031        0.13861
|  8> H         -1.88568       -0.80774       -2.40670
|  9> H         -0.53143       -1.87013       -2.10605
| 10> H         -0.25399       -0.18836       -2.49039
| 11> *
| 12>
| 13> %MaxCore 64000
| 14>
| 15> %pal nprocs 4
| 16> end
| 17>
| 18> %scf
| 19>   MaxIter 150
| 20> end
| 21>
| 22>
| 23>                          ****END OF INPUT****

CARTESIAN COORDINATES (ANGSTROEM)
---------------------------------
  C     -0.903490   -0.873940   -1.987390
  C     -0.960150   -0.522360   -0.489870
  H     -1.690390   -1.208130   -0.021680
  H     -1.414490    0.486330   -0.406680
  O      0.261700   -0.580310    0.138610
  H     -1.885680   -0.807740   -2.406700
  H     -0.531430   -1.870130   -2.106050
  H     -0.253990   -0.188360   -2.490390

 Total Charge           Charge          ....   -1
 Multiplicity           Mult            ....    1
 Number of Electrons    NEL             ....   26
 Basis Dimension        Dim             ....  159

ORBITAL ENERGIES
----------------

  NO   OCC          E(Eh)            E(eV)
   0   2.0000     -18.893533      -514.1192
   1   2.0000     -10.087311      -274.4897
   2   2.0000     -10.064688      -273.8741
   3   2.0000      -0.790401       -21.5079
   4   2.0000      -0.641242       -17.4491
   5   2.0000      -0.481755       -13.1092
   6   2.0000      -0.351722        -9.5708
   7   2.0000      -0.327890        -8.9223
   8   2.0000      -0.268827        -7.3151
   9   2.0000      -0.252740        -6.8774
  10   2.0000      -0.204824        -5.5735
  11   2.0000      -0.059697        -1.6244
  12   2.0000      -0.057482        -1.5642
  13   0.0000       0.212478         5.7818
  14   0.0000       0.233021         6.3408
  15   0.0000       0.262617         7.1462
  16   0.0000       0.263989         7.1835
  17   0.0000       0.287301         7.8178

MULLIKEN ATOMIC CHARGES
-----------------------
   0 C :   -0.882348
   1 C :   -0.249394
   2 H :    0.136559
   3 H :    0.135424
   4 O :   -0.923357
   5 H :    0.310544
   6 H :    0.236414
   7 H :    0.236159
Sum of atomic charges:   -1.0000000

LOEWDIN ATOMIC CHARGES
----------------------
   0 C :   -0.168560
   1 C :   -0.614841
   2 H :    0.055428
   3 H :    0.056765
   4 O :   -0.437176
   5 H :    0.029103
   6 H :    0.039666
   7 H :    0.039615

  Mayer bond orders larger than 0.100000
B(  0-C ,  1-C ) :   0.7687 B(  0-C ,  4-O ) :   0.2273 B(  0-C ,  5-H ) :   0.9418
B(  0-C ,  6-H ) :   0.9930 B(  0-C ,  7-H ) :   0.9931 B(  1-C ,  2-H ) :   1.0694
B(  1-C ,  3-H ) :   1.0675 B(  1-C ,  4-O ) :   1.0506

Dispersion correction           -0.000860276
FINAL SINGLE POINT ENERGY      -154.439682181230

DIPOLE MOMENT
-------------
                                X             Y             Z
Electronic contribution:      1.81123       0.17391       2.08704
Nuclear contribution   :     -2.90669      -0.27617      -3.31210
                        -----------------------------------------
Total Dipole Moment    :     -1.09546      -0.10226      -1.22506
                        -----------------------------------------
Magnitude (a.u.)       :      1.64659
Magnitude (Debye)      :      4.18531

Rotational constants in cm-1:     1.291883     0.321656     0.284469
Rotational constants in MHz : 38729.676116  9643.011620  8528.167295

                             ****ORCA TERMINATED NORMALLY****
TOTAL RUN TIME: 0 days 0 hours 0 minutes 23 seconds 724 msec
