                         Program Version 5.0.0 -  RELEASE  -
|  1> !wB97X-D3 RIJCOSX def2-TZVPD def2/J TightSCF
|  2> *xyz 1 1
|  3> C          4.36645       -0.13321       -1.41606
|  4> C          4.50829       -0.93187       -2.72425
|  5> C          3.05650       -0.32080       -0.70738
|  6> N          2.38983        0.71129       -0.24391
|  7> N          2.51600       -1.50772       -0.55023
|  8> H          2.96768       -2.32291       -0.95631
|  9> H          1.54987       -1.49063       -0.24988
| 10> H          2.74307        1.64947       -0.41280
| 11> H          1.44036        0.50278        0.03703
| 12> H          4.48784        0.93300       -1.61157
| 13> H          5.16967       -0.41443       -0.72982
| 14> H          5.46700       -0.73824       -3.15818
| 15> H          3.74074       -0.63528       -3.40821
| 16> H          4.41574       -1.97727       -2.51573
| 17> *
| 18>
| 19> %MaxCore 64000
| 20>
| 21> %pal nprocs 4
| 22> end
| 23>
| 24> %scf
| 25>   MaxIter 150
| 26> end
| 27>
| 28>
| 29>                          ****END OF INPUT****

CARTESIAN COORDINATES (ANGSTROEM)
---------------------------------
  C      4.366450   -0.133210   -1.416060
  C      4.508290   -0.931870   -2.724250
  C      3.056500   -0.320800   -0.707380
  N      2.389830    0.711290   -0.243910
  N      2.516000   -1.507720   -0.550230
  H      2.967680   -2.322910   -0.956310
  H      1.549870   -1.490630   -0.249880
  H      2.743070    1.649470   -0.412800
  H      1.440360    0.502780    0.037030
  H      4.487840    0.933000   -1.611570
  H      5.169670   -0.414430   -0.729820
  H      5.467000   -0.738240   -3.158180
  H      3.740740   -0.635280   -3.408210
  H      4.415740   -1.977270   -2.515730

 Total Charge           Charge          ....    1
 Multiplicity           Mult            ....    1
 Number of Electrons    NEL             ....   40
 Basis Dimension        Dim             ....  266

ORBITAL ENERGIES
----------------

  NO   OCC          E(Eh)            E(eV)
   0   2.0000     -14.667669      -399.1276
   1   2.0000     -14.666314      -399.0907
   2   2.0000     -10.600019      -288.4412
   3   2.0000     -10.477363      -285.1035
   4   2.0000     -10.432638      -283.8865
   5   2.0000      -1.330815       -36.2133
   6   2.0000      -1.222498       -33.2659
   7   2.0000      -1.087718       -29.5983
   8   2.0000      -0.972320       -26.4582
   9   2.0000      -0.925901       -25.1951
  10   2.0000      -0.873282       -23.7632
  11   2.0000      -0.859495       -23.3880
  12   2.0000      -0.802024       -21.8242
  13   2.0000      -0.763874       -20.7861
  14   2.0000      -0.727502       -19.7963
  15   2.0000      -0.701524       -19.0894
  16   2.0000      -0.650461       -17.7000
  17   2.0000      -0.637018       -17.3342
  18   2.0000      -0.622467       -16.9382
  19   2.0000      -0.586716       -15.9653
  20   0.0000      -0.131510        -3.5786
  21   0.0000      -0.095644        -2.6026
  22   0.0000      -0.055721        -1.5162
  23   0.0000      -0.052049        -1.4163
  24   0.0000      -0.025401        -0.6912

MULLIKEN ATOMIC CHARGES
-----------------------
   0 C :   -0.306043
   1 C :   -1.249883
   2 C :    0.719981
   3 N :   -0.374526
   4 N :   -0.366561
   5 H :    0.233214
   6 H :    0.207082
   7 H :    0.263629
   8 H :    0.202098
   9 H :    0.308966
  10 H :    0.323344
  11 H :    0.317423
  12 H :    0.348645
  13 H :    0.372630
Sum of atomic charges:    1.0000000

LOEWDIN ATOMIC CHARGES
----------------------
   0 C :   -0.137753
   1 C :   -0.058478
   2 C :   -0.350469
   3 N :    0.218536
   4 N :    0.223528
   5 H :    0.148160
   6 H :    0.147175
   7 H :    0.155456
   8 H :    0.145803
   9 H :    0.124299
  10 H :    0.141513
  11 H :    0.087960
  12 H :    0.086194
  13 H :    0.068077

  Mayer bond orders larger than 0.100000
B(  0-C ,  1-C ) :   0.6569 B(  0-C ,  2-C ) :   0.8439 B(  0-C ,  9-H ) :   0.8992
B(  0-C , 10-H ) :   0.8982 B(  1-C , 11-H ) :   0.9779 B(  1-C , 12-H ) :   0.9415
B(  1-C , 13-H ) :   0.8932 B(  2-C ,  3-N ) :   1.2117 B(  2-C ,  4-N ) :   1.1816
B(  3-N ,  4-N ) :   0.1076 B(  3-N ,  7-H ) :   0.9352 B(  3-N ,  8-H ) :   1.0197
B(  4-N ,  5-H ) :   0.9421 B(  4-N ,  6-H ) :   1.0168

Dispersion correction           -0.002897595
FINAL SINGLE POINT ENERGY      -229.052062664948

DIPOLE MOMENT
-------------
                                X             Y             Z
Electronic contribution:     -2.66331       0.62877       3.11196
Nuclear contribution   :      1.78847      -0.48174      -2.67127
                        -----------------------------------------
Total Dipole Moment    :     -0.87484       0.14703       0.44069
                        -----------------------------------------
Magnitude (a.u.)       :      0.99054
Magnitude (Debye)      :      2.51776

Rotational constants in cm-1:     0.286883     0.123210     0.094446
Rotational constants in MHz :  8600.540572  3693.747366  2831.415242

                             ****ORCA TERMINATED NORMALLY****
TOTAL RUN TIME: 0 days 0 hours 0 minutes 54 seconds 429 msec
