                         Program Version 5.0.0 -  RELEASE  -
|  1> !wB97X-D3 RIJCOSX def2-TZVPD def2/J TightSCF
|  2> *xyz 0 1
|  3> C         -0.90349       -0.87394       -1.98739
|  4> C         -0.96015       -0.52236       -0.48987
|  5> H         -1.69039       -1.20813       -0.02168
|  6> H         -1.41449        0.48633       -0.40668
|  7> F          0.26170       -0.58031        0.13861
|  8> H         -1.88568       -0.80774       -2.40670
|  9> H         -0.53143       -1.87013       -2.10605
| 10> H         -0.25399       -0.18836       -2.49039
| 11> *
| 12>
| 13> %MaxCore 64000
| 14>
| 15> %pal nprocs 4
| 16> end
| 17>
| 18> %scf
| 19>   MaxIter 150
| 20> end
| 21>
| 22>
| 23>                          ****END OF INPUT****

CARTESIAN COORDINATES (ANGSTROEM)
---------------------------------
  C     -0.903490   -0.873940   -1.987390
  C     -0.960150   -0.522360   -0.489870
  H     -1.690390   -1.208130   -0.021680
  H     -1.414490    0.486330   -0.406680
  F      0.261700   -0.580310    0.138610
  H     -1.885680   -0.807740   -2.406700
  H     -0.531430   -1.870130   -2.106050
  H     -0.253990   -0.188360   -2.490390

 Total Charge           Charge          ....    0
 Multiplicity           Mult            ....    1
 Number of Electrons    NEL             ....   26
 Basis Dimension        Dim             ....  159

ORBITAL ENERGIES
----------------

  NO   OCC          E(Eh)            E(eV)
   0   2.0000     -24.770730      -674.0458
   1   2.0000     -10.354044      -281.7479
   2   2.0000     -10.269303      -279.4419
   3   2.0000      -1.311439       -35.6861
   4   2.0000      -0.881387       -23.9838
   5   2.0000      -0.743279       -20.2257
   6   2.0000      -0.608303       -16.5528
   7   2.0000      -0.598753       -16.2929
   8   2.0000      -0.558481       -15.1970
   9   2.0000      -0.504866       -13.7381
  10   2.0000      -0.498974       -13.5778
  11   2.0000      -0.432141       -11.7592
  12   2.0000      -0.427007       -11.6194
  13   0.0000       0.072907         1.9839
  14   0.0000       0.095803         2.6069
  15   0.0000       0.118503         3.2246
  16   0.0000       0.121429         3.3042
  17   0.0000       0.149028         4.0553

MULLIKEN ATOMIC CHARGES
-----------------------
   0 C :   -0.966862
   1 C :   -0.070149
   2 H :    0.217925
   3 H :    0.217503
   4 F :   -0.303102
   5 H :    0.331925
   6 H :    0.286508
   7 H :    0.286253
Sum of atomic charges:   -0.0000000

LOEWDIN ATOMIC CHARGES
----------------------
   0 C :   -0.086145
   1 C :   -0.279203
   2 H :    0.110073
   3 H :    0.111804
   4 F :   -0.054260
   5 H :    0.067586
   6 H :    0.065098
   7 H :    0.065049

  Mayer bond orders larger than 0.100000
B(  0-C ,  1-C ) :   0.8028 B(  0-C ,  4-F ) :   0.1001 B(  0-C ,  5-H ) :   0.9230
B(  0-C ,  6-H ) :   0.9544 B(  0-C ,  7-H ) :   0.9545 B(  1-C ,  2-H ) :   0.9828
B(  1-C ,  3-H ) :   0.9815 B(  1-C ,  4-F ) :   0.7680

Dispersion correction           -0.000868780
FINAL SINGLE POINT ENERGY      -179.087470932143

DIPOLE MOMENT
-------------
                                X             Y             Z
Electronic contribution:      3.22230       0.37615       3.98247
Nuclear contribution   :     -3.84149      -0.36812      -4.38946
                        -----------------------------------------
Total Dipole Moment    :     -0.61919       0.00803      -0.40700
                        -----------------------------------------
Magnitude (a.u.)       :      0.74102
Magnitude (Debye)      :      1.88351

Rotational constants in cm-1:     1.270659     0.299196     0.265842
Rotational constants in MHz : 38093.410361  8969.665806  7969.741481

                             ****ORCA TERMINATED NORMALLY****
TOTAL RUN TIME: 0 days 0 hours 0 minutes 17 seconds 243 msec
