                         Program Version 5.0.0 -  RELEASE  -
|  1> !wB97X-D3 RIJCOSX def2-TZVPD def2/J TightSCF
|  2> *xyz 0 1
|  3> C          4.36645       -0.13321       -1.41606
|  4> C          4.50829       -0.93187       -2.72425
|  5> C          3.05650       -0.32080       -0.70738
|  6> C          2.38983        0.71129       -0.24391
|  7> N          2.51600       -1.50772       -0.55023
|  8> H          2.96768       -2.32291       -0.95631
|  9> H          1.54987       -1.49063       -0.24988
| 10> H          2.74307        1.64947       -0.41280
| 11> H          1.44036        0.50278        0.03703
| 12> H          4.48784        0.93300       -1.61157
| 13> H          5.16967       -0.41443       -0.72982
| 14> H          5.46700       -0.73824       -3.15818
| 15> H          3.74074       -0.63528       -3.40821
| 16> H          4.41574       -1.97727       -2.51573
| 17> *
| 18>
| 19> %MaxCore 64000
| 20>
| 21> %pal nprocs 4
| 22> end
| 23>
| 24> %scf
| 25>   MaxIter 150
| 26> end
| 27>
| 28>
| 29>                          ****END OF INPUT****

CARTESIAN COORDINATES (ANGSTROEM)
---------------------------------
  C      4.366450   -0.133210   -1.416060
  C      4.508290   -0.931870   -2.724250
  C      3.056500   -0.320800   -0.707380
  C      2.389830    0.711290   -0.243910
  N      2.516000   -1.507720   -0.550230
  H      2.967680   -2.322910   -0.956310
  H      1.549870   -1.490630   -0.249880
  H      2.743070    1.649470   -0.412800
  H      1.440360    0.502780    0.037030
  H      4.487840    0.933000   -1.611570
  H      5.169670   -0.414430   -0.729820
  H      5.467000   -0.738240   -3.158180
  H      3.740740   -0.635280   -3.408210
  H      4.415740   -1.977270   -2.515730

 Total Charge           Charge          ....    0
 Multiplicity           Mult            ....    1
 Number of Electrons    NEL             ....   40
 Basis Dimension        Dim             ....  266

ORBITAL ENERGIES
----------------

  NO   OCC          E(Eh)            E(eV)
   0   2.0000     -14.419528      -392.3753
   1   2.0000     -10.293512      -280.1007
   2   2.0000     -10.276779      -279.6454
   3   2.0000     -10.265607      -279.3414
   4   2.0000     -10.202336      -277.6197
   5   2.0000      -1.050511       -28.5859
   6   2.0000      -0.895010       -24.3545
   7   2.0000      -0.837343       -22.7853
   8   2.0000      -0.748163       -20.3585
   9   2.0000      -0.667809       -18.1720
  10   2.0000      -0.637089       -17.3361
  11   2.0000      -0.572458       -15.5774
  12   2.0000      -0.540522       -14.7083
  13   2.0000      -0.530242       -14.4286
  14   2.0000      -0.490425       -13.3451
  15   2.0000      -0.478706       -13.0262
  16   2.0000      -0.452786       -12.3209
  17   2.0000      -0.438173       -11.9233
  18   2.0000      -0.420995       -11.4559
  19   2.0000      -0.276902        -7.5349
  20   0.0000       0.066976         1.8225
  21   0.0000       0.090734         2.4690
  22   0.0000       0.093299         2.5388
  23   0.0000       0.106358         2.8942
  24   0.0000       0.118785         3.2323

MULLIKEN ATOMIC CHARGES
-----------------------
   0 C :   -0.191868
   1 C :   -1.192982
   2 C :    0.817064
   3 C :   -1.477657
   4 N :   -0.431488
   5 H :    0.182611
   6 H :    0.173963
   7 H :    0.329297
   8 H :    0.331258
   9 H :    0.248213
  10 H :    0.264669
  11 H :    0.318137
  12 H :    0.313540
  13 H :    0.315244
Sum of atomic charges:   -0.0000000

LOEWDIN ATOMIC CHARGES
----------------------
   0 C :   -0.190482
   1 C :   -0.095511
   2 C :   -0.499799
   3 C :    0.009879
   4 N :    0.093144
   5 H :    0.105815
   6 H :    0.112637
   7 H :    0.025632
   8 H :    0.023427
   9 H :    0.108590
  10 H :    0.115003
  11 H :    0.065020
  12 H :    0.073487
  13 H :    0.053158

  Mayer bond orders larger than 0.100000
B(  0-C ,  1-C ) :   0.5903 B(  0-C ,  2-C ) :   0.9059 B(  0-C ,  9-H ) :   0.9354
B(  0-C , 10-H ) :   0.8917 B(  1-C , 11-H ) :   0.9647 B(  1-C , 12-H ) :   0.9928
B(  1-C , 13-H ) :   0.9367 B(  2-C ,  3-C ) :   1.0059 B(  2-C ,  4-N ) :   1.0551
B(  2-C ,  8-H ) :  -0.1639 B(  3-C ,  4-N ) :   0.1106 B(  3-C ,  7-H ) :   0.9379
B(  3-C ,  8-H ) :   0.9995 B(  4-N ,  5-H ) :   0.9975 B(  4-N ,  6-H ) :   0.9930

Dispersion correction           -0.002911663
FINAL SINGLE POINT ENERGY      -212.578926957841

DIPOLE MOMENT
-------------
                                X             Y             Z
Electronic contribution:     -1.48001      -0.43184       2.05937
Nuclear contribution   :      1.56827      -0.21459      -2.46657
                        -----------------------------------------
Total Dipole Moment    :      0.08826      -0.64643      -0.40720
                        -----------------------------------------
Magnitude (a.u.)       :      0.76907
Magnitude (Debye)      :      1.95483

Rotational constants in cm-1:     0.294070     0.127722     0.097792
Rotational constants in MHz :  8815.983970  3829.010547  2931.715816

                             ****ORCA TERMINATED NORMALLY****
TOTAL RUN TIME: 0 days 0 hours 0 minutes 57 seconds 56 msec
