                         Program Version 5.0.0 -  RELEASE  -
|  1> !wB97X-D3 RIJCOSX def2-TZVPD def2/J TightSCF
|  2> *xyz 0 1
|  3> C          4.36645       -0.13321       -1.41606
|  4> C          4.50829       -0.93187       -2.72425
|  5> C          3.05650       -0.32080       -0.70738
|  6> N          2.38983        0.71129       -0.24391
|  7> C          2.51600       -1.50772       -0.55023
|  8> H          2.96768       -2.32291       -0.95631
|  9> H          1.54987       -1.49063       -0.24988
| 10> H          2.74307        1.64947       -0.41280
| 11> H          1.44036        0.50278        0.03703
| 12> H          4.48784        0.93300       -1.61157
| 13> H          5.16967       -0.41443       -0.72982
| 14> H          5.46700       -0.73824       -3.15818
| 15> H          3.74074       -0.63528       -3.40821
| 16> H          4.41574       -1.97727       -2.51573
| 17> *
| 18>
| 19> %MaxCore 64000
| 20>
| 21> %pal nprocs 4
| 22> end
| 23>
| 24> %scf
| 25>   MaxIter 150
| 26> end
| 27>
| 28>
| 29>                          ****END OF INPUT****

CARTESIAN COORDINATES (ANGSTROEM)
---------------------------------
  C      4.366450   -0.133210   -1.416060
  C      4.508290   -0.931870   -2.724250
  C      3.056500   -0.320800   -0.707380
  N      2.389830    0.711290   -0.243910
  C      2.516000   -1.507720   -0.550230
  H      2.967680   -2.322910   -0.956310
  H      1.549870   -1.490630   -0.249880
  H      2.743070    1.649470   -0.412800
  H      1.440360    0.502780    0.037030
  H      4.487840    0.933000   -1.611570
  H      5.169670   -0.414430   -0.729820
  H      5.467000   -0.738240   -3.158180
  H      3.740740   -0.635280   -3.408210
  H      4.415740   -1.977270   -2.515730

 Total Charge           Charge          ....    0
 Multiplicity           Mult            ....    1
 Number of Electrons    NEL             ....   40
 Basis Dimension        Dim             ....  266

ORBITAL ENERGIES
----------------

  NO   OCC          E(Eh)            E(eV)
   0   2.0000     -14.420266      -392.3954
   1   2.0000     -10.293726      -280.1065
   2   2.0000     -10.278089      -279.6810
   3   2.0000     -10.259300      -279.1697
   4   2.0000     -10.200563      -277.5714
   5   2.0000      -1.050850       -28.5951
   6   2.0000      -0.896589       -24.3974
   7   2.0000      -0.826025       -22.4773
   8   2.0000      -0.757791       -20.6205
   9   2.0000      -0.658454       -17.9174
  10   2.0000      -0.634166       -17.2565
  11   2.0000      -0.580434       -15.7944
  12   2.0000      -0.552085       -15.0230
  13   2.0000      -0.506008       -13.7692
  14   2.0000      -0.488021       -13.2797
  15   2.0000      -0.477977       -13.0064
  16   2.0000      -0.453395       -12.3375
  17   2.0000      -0.436123       -11.8675
  18   2.0000      -0.422569       -11.4987
  19   2.0000      -0.275387        -7.4937
  20   0.0000       0.069955         1.9036
  21   0.0000       0.088830         2.4172
  22   0.0000       0.093986         2.5575
  23   0.0000       0.104210         2.8357
  24   0.0000       0.122142         3.3236

MULLIKEN ATOMIC CHARGES
-----------------------
   0 C :   -0.221292
   1 C :   -1.136996
   2 C :    0.829663
   3 N :   -0.425765
   4 C :   -1.491949
   5 H :    0.306087
   6 H :    0.319557
   7 H :    0.214304
   8 H :    0.169369
   9 H :    0.260002
  10 H :    0.262049
  11 H :    0.311803
  12 H :    0.309679
  13 H :    0.293488
Sum of atomic charges:   -0.0000000

LOEWDIN ATOMIC CHARGES
----------------------
   0 C :   -0.190075
   1 C :   -0.093450
   2 C :   -0.495968
   3 N :    0.086567
   4 C :    0.010116
   5 H :    0.022211
   6 H :    0.025007
   7 H :    0.110396
   8 H :    0.111107
   9 H :    0.101240
  10 H :    0.116904
  11 H :    0.063384
  12 H :    0.073581
  13 H :    0.058982

  Mayer bond orders larger than 0.100000
B(  0-C ,  1-C ) :   0.6080 B(  0-C ,  2-C ) :   0.6902 B(  0-C ,  9-H ) :   1.0114
B(  0-C , 10-H ) :   0.9333 B(  1-C ,  2-C ) :   0.1379 B(  1-C , 11-H ) :   0.9558
B(  1-C , 12-H ) :   0.9817 B(  1-C , 13-H ) :   0.9708 B(  2-C ,  3-N ) :   1.1122
B(  2-C ,  4-C ) :   0.9168 B(  2-C ,  6-H ) :  -0.1730 B(  2-C ,  9-H ) :  -0.1147
B(  3-N ,  4-C ) :   0.1335 B(  3-N ,  7-H ) :   0.9954 B(  3-N ,  8-H ) :   0.9922
B(  4-C ,  5-H ) :   0.9555 B(  4-C ,  6-H ) :   1.0316

Dispersion correction           -0.002887014
FINAL SINGLE POINT ENERGY      -212.577727580116

DIPOLE MOMENT
-------------
                                X             Y             Z
Electronic contribution:     -1.59252       1.46229       2.33630
Nuclear contribution   :      1.59749      -0.72853      -2.53752
                        -----------------------------------------
Total Dipole Moment    :      0.00497       0.73376      -0.20122
                        -----------------------------------------
Magnitude (a.u.)       :      0.76087
Magnitude (Debye)      :      1.93397

Rotational constants in cm-1:     0.304597     0.124127     0.096828
Rotational constants in MHz :  9131.600925  3721.227051  2902.830760

                             ****ORCA TERMINATED NORMALLY****
TOTAL RUN TIME: 0 days 0 hours 0 minutes 58 seconds 611 msec
