                         Program Version 5.0.0 -  RELEASE  -
|  1> !wB97X-D3 RIJCOSX def2-TZVPD def2/J TightSCF xyzfile
|  2>
|  3> *xyzfile 0 1 D2.xyz
|  4>
|  5> %MaxCore 64000
|  6>
|  7> %pal nprocs 18
|  8> end
|  9>
| 10> %scf
| 11>   MaxIter 150
| 12> end
| 13>
| 14>
| 15>                          ****END OF INPUT****

CARTESIAN COORDINATES (ANGSTROEM)
---------------------------------
  C      4.366454   -0.133215   -1.416062
  C      4.508292   -0.931872   -2.724249
  H      4.753716   -1.972051   -2.488408
  C      3.294164   -0.918214   -3.656570
  H      5.385637   -0.536236   -3.242640
  H      2.483463   -1.477378   -3.185764
  H      3.553092   -1.478495   -4.560331
  C      2.772335    0.460100   -4.051448
  H      2.608762    1.065107   -3.155194
  C      1.465354    0.410537   -4.853644
  H      3.532940    0.988848   -4.635671
  C      0.326171   -0.375613   -4.192580
  H      1.666704   -0.022269   -5.839323
  H      1.138198    1.439246   -5.035449
  C     -0.017405    0.080588   -2.778406
  H      0.585573   -1.439385   -4.168057
  H     -0.560005   -0.311425   -4.831461
  H      0.902090    0.201296   -2.206729
  C     -0.903495   -0.873945   -1.987388
  H     -0.479549    1.074657   -2.811915
  H     -0.502554   -1.892096   -2.081204
  H     -1.917039   -0.895427   -2.406277
  C     -0.960148   -0.522365   -0.489867
  H     -1.690392   -1.208130   -0.021677
  H     -1.414490    0.486329   -0.406677
  F      0.261703   -0.580307    0.138611
  C      3.056503   -0.320797   -0.707384
  N      2.389825    0.711285   -0.243909
  C      2.515999   -1.507721   -0.550229
  H      2.967683   -2.322915   -0.956305
  H      1.549872   -1.490634   -0.249876
  H      2.743071    1.649471   -0.412802
  H      1.440364    0.502778    0.037031
  H      4.487835    0.932997   -1.611569
  H      5.169672   -0.414432   -0.729817

 Total Charge           Charge          ....    0
 Multiplicity           Mult            ....    1
 Number of Electrons    NEL             ....  104
 Basis Dimension        Dim             ....  682

ORBITAL ENERGIES
----------------

  NO   OCC          E(Eh)            E(eV)
   0   2.0000     -24.802568      -674.9122
   1   2.0000     -14.395030      -391.7087
   2   2.0000     -10.367316      -282.1090
   3   2.0000     -10.285759      -279.8897
   4   2.0000     -10.276030      -279.6250
   5   2.0000     -10.267746      -279.3996
   6   2.0000     -10.267413      -279.3905
   7   2.0000     -10.265897      -279.3493
   8   2.0000     -10.264692      -279.3165
   9   2.0000     -10.263658      -279.2883
  10   2.0000     -10.260823      -279.2112
  11   2.0000     -10.254989      -279.0524
  12   2.0000     -10.175337      -276.8850
  13   2.0000      -1.353271       -36.8244
  14   2.0000      -1.032996       -28.1093
  15   2.0000      -0.936768       -25.4907
  16   2.0000      -0.913727       -24.8638
  17   2.0000      -0.887907       -24.1612
  18   2.0000      -0.844808       -22.9884
  19   2.0000      -0.813019       -22.1234
  20   2.0000      -0.800120       -21.7724
  21   2.0000      -0.754036       -20.5184
  22   2.0000      -0.727644       -19.8002
  23   2.0000      -0.697177       -18.9712
  24   2.0000      -0.661115       -17.9898
  25   2.0000      -0.651243       -17.7212
  26   2.0000      -0.635608       -17.2958
  27   2.0000      -0.626235       -17.0407
  28   2.0000      -0.614098       -16.7105
  29   2.0000      -0.585983       -15.9454
  30   2.0000      -0.579051       -15.7568
  31   2.0000      -0.563226       -15.3262
  32   2.0000      -0.550965       -14.9925
  33   2.0000      -0.536073       -14.5873
  34   2.0000      -0.528130       -14.3711
  35   2.0000      -0.513160       -13.9638
  36   2.0000      -0.495274       -13.4771
  37   2.0000      -0.486198       -13.2301
  38   2.0000      -0.476663       -12.9707
  39   2.0000      -0.463729       -12.6187
  40   2.0000      -0.459066       -12.4918
  41   2.0000      -0.454107       -12.3569
  42   2.0000      -0.445497       -12.1226
  43   2.0000      -0.442872       -12.0512
  44   2.0000      -0.426287       -11.5998
  45   2.0000      -0.420168       -11.4333
  46   2.0000      -0.407072       -11.0770
  47   2.0000      -0.400577       -10.9003
  48   2.0000      -0.399064       -10.8591
  49   2.0000      -0.392173       -10.6716
  50   2.0000      -0.389905       -10.6098
  51   2.0000      -0.257341        -7.0026
  52   0.0000       0.066312         1.8044
  53   0.0000       0.073459         1.9989
  54   0.0000       0.077262         2.1024
  55   0.0000       0.081610         2.2207
  56   0.0000       0.092934         2.5289

MULLIKEN ATOMIC CHARGES
-----------------------
   0 C :   -0.644648
   1 C :   -0.660208
   2 H :    0.373446
   3 C :   -0.342167
   4 H :    0.288592
   5 H :    0.150030
   6 H :    0.328765
   7 C :   -0.545735
   8 H :    0.299624
   9 C :   -0.817598
  10 H :    0.297680
  11 C :   -0.572123
  12 H :    0.319171
  13 H :    0.305039
  14 C :    0.524790
  15 H :    0.335793
  16 H :    0.347509
  17 H :   -0.797584
  18 C :   -0.616102
  19 H :    0.384432
  20 H :    0.318954
  21 H :    0.370105
  22 C :   -0.452789
  23 H :    0.262312
  24 H :    0.317217
  25 F :   -0.449962
  26 C :    0.364900
  27 N :   -0.326279
  28 C :   -1.726810
  29 H :    0.441773
  30 H :    0.754253
  31 H :    0.220612
  32 H :    0.376431
  33 H :    0.367480
  34 H :    0.203100
Sum of atomic charges:   -0.0000000

LOEWDIN ATOMIC CHARGES
----------------------
   0 C :   -0.142081
   1 C :   -0.195482
   2 H :    0.107970
   3 C :   -0.213523
   4 H :    0.107610
   5 H :    0.088178
   6 H :    0.117524
   7 C :   -0.211068
   8 H :    0.095641
   9 C :   -0.206556
  10 H :    0.115423
  11 C :   -0.215024
  12 H :    0.109578
  13 H :    0.108725
  14 C :   -0.219071
  15 H :    0.106394
  16 H :    0.111982
  17 H :    0.076193
  18 C :   -0.178882
  19 H :    0.125602
  20 H :    0.119415
  21 H :    0.121023
  22 C :   -0.184230
  23 H :    0.122717
  24 H :    0.127235
  25 F :   -0.089532
  26 C :   -0.484420
  27 N :    0.100543
  28 C :    0.022014
  29 H :    0.038582
  30 H :    0.006596
  31 H :    0.115186
  32 H :    0.071534
  33 H :    0.104782
  34 H :    0.119426

  Mayer bond orders larger than 0.100000
B(  0-C ,  1-C ) :   0.9234 B(  0-C ,  7-C ) :   0.1660 B(  0-C , 26-C ) :   0.8640
B(  0-C , 33-H ) :   0.8881 B(  0-C , 34-H ) :   0.9993 B(  1-C ,  2-H ) :   0.8381
B(  1-C ,  3-C ) :   1.0535 B(  1-C ,  4-H ) :   0.9094 B(  1-C ,  7-C ) :   0.3319
B(  1-C , 28-C ) :   0.1693 B(  3-C ,  5-H ) :   1.0722 B(  3-C ,  6-H ) :   0.8131
B(  3-C ,  7-C ) :   0.5077 B(  3-C ,  9-C ) :   0.2810 B(  3-C , 11-C ) :   0.2472
B(  3-C , 26-C ) :   0.1763 B(  3-C , 28-C ) :  -0.1101 B(  7-C ,  8-H ) :   0.9809
B(  7-C ,  9-C ) :   0.8901 B(  7-C , 10-H ) :   0.8986 B(  9-C , 11-C ) :   0.8618
B(  9-C , 12-H ) :   0.9103 B(  9-C , 13-H ) :   0.9395 B(  9-C , 14-C ) :   0.3326
B( 11-C , 14-C ) :   0.4734 B( 11-C , 15-H ) :   0.8999 B( 11-C , 16-H ) :   0.8825
B( 11-C , 18-C ) :   0.4900 B( 14-C , 17-H ) :   1.5573 B( 14-C , 18-C ) :   0.5790
B( 14-C , 19-H ) :   0.8125 B( 14-C , 22-C ) :   0.3007 B( 14-C , 27-N ) :  -0.1774
B( 17-H , 18-C ) :   0.1426 B( 18-C , 19-H ) :  -0.1204 B( 18-C , 20-H ) :   0.8857
B( 18-C , 21-H ) :   0.8911 B( 18-C , 22-C ) :   0.7810 B( 22-C , 23-H ) :   0.9475
B( 22-C , 24-H ) :   0.9018 B( 22-C , 25-F ) :   0.8562 B( 25-F , 30-H ) :  -0.1029
B( 26-C , 27-N ) :   1.2110 B( 26-C , 28-C ) :   1.3588 B( 26-C , 29-H ) :  -0.1053
B( 26-C , 30-H ) :  -0.1341 B( 26-C , 33-H ) :  -0.1109 B( 27-N , 30-H ) :   0.1090
B( 27-N , 31-H ) :   0.8938 B( 27-N , 32-H ) :   0.7837 B( 28-C , 29-H ) :   0.8824
B( 28-C , 30-H ) :   0.5825

Dispersion correction           -0.017787564
FINAL SINGLE POINT ENERGY      -587.030838093546

DIPOLE MOMENT
-------------
                                X             Y             Z
Electronic contribution:     -2.79892       0.00975      10.66889
Nuclear contribution   :      1.85154       0.58682     -11.15333
                        -----------------------------------------
Total Dipole Moment    :     -0.94738       0.59657      -0.48443
                        -----------------------------------------
Magnitude (a.u.)       :      1.21988
Magnitude (Debye)      :      3.10068

Rotational constants in cm-1:     0.028379     0.022321     0.014415
Rotational constants in MHz :   850.785777   669.176075   432.155504

                             ****ORCA TERMINATED NORMALLY****
TOTAL RUN TIME: 0 days 0 hours 3 minutes 35 seconds 307 msec
