                         Program Version 5.0.0 -  RELEASE  -
|  1> !CAM-B3LYP RIJCOSX def2-TZVPD def2/J TightSCF
|  2> *xyz -1 1
|  3> C         -7.33044       -2.67899       -3.20681
|  4> S         -6.01966       -2.92697       -4.41913
|  5> O         -5.64583       -1.58838       -4.91931
|  6> O         -4.88196       -3.50370       -3.66724
|  7> O         -6.54927       -3.80515       -5.42507
|  8> C         -7.46900       -1.24615       -2.71383
|  9> H         -7.11825       -3.37982       -2.39805
| 10> H         -8.24184       -3.00474       -3.70651
| 11> H         -7.67580       -0.60214       -3.54292
| 12> H         -6.55749       -0.94096       -2.24382
| 13> H         -8.27114       -1.18777       -2.00810
| 14> *
| 15> %MaxCore 64000
| 16>
| 17> %pal nprocs 4
| 18> end
| 19>
| 20> %scf
| 21>   MaxIter 150
| 22> end
| 23>
| 24>
| 25>                          ****END OF INPUT****

CARTESIAN COORDINATES (ANGSTROEM)
---------------------------------
  C     -7.330440   -2.678990   -3.206810
  S     -6.019660   -2.926970   -4.419130
  O     -5.645830   -1.588380   -4.919310
  O     -4.881960   -3.503700   -3.667240
  O     -6.549270   -3.805150   -5.425070
  C     -7.469000   -1.246150   -2.713830
  H     -7.118250   -3.379820   -2.398050
  H     -8.241840   -3.004740   -3.706510
  H     -7.675800   -0.602140   -3.542920
  H     -6.557490   -0.940960   -2.243820
  H     -8.271140   -1.187770   -2.008100

 Total Charge           Charge          ....   -1
 Multiplicity           Mult            ....    1
 Number of Electrons    NEL             ....   58
 Basis Dimension        Dim             ....  285

ORBITAL ENERGIES
----------------

  NO   OCC          E(Eh)            E(eV)
   0   2.0000     -88.918762     -2419.6025
   1   2.0000     -18.982719      -516.5461
   2   2.0000     -18.971672      -516.2454
   3   2.0000     -18.968477      -516.1585
   4   2.0000     -10.108913      -275.0775
   5   2.0000     -10.100035      -274.8359
   6   2.0000      -7.962230      -216.6633
   7   2.0000      -5.926712      -161.2740
   8   2.0000      -5.925714      -161.2469
   9   2.0000      -5.925482      -161.2406
  10   2.0000      -1.005407       -27.3585
  11   2.0000      -0.871616       -23.7179
  12   2.0000      -0.849223       -23.1085
  13   2.0000      -0.719618       -19.5818
  14   2.0000      -0.588972       -16.0267
  15   2.0000      -0.458078       -12.4649
  16   2.0000      -0.393629       -10.7112
  17   2.0000      -0.386557       -10.5187
  18   2.0000      -0.345706        -9.4072
  19   2.0000      -0.327712        -8.9175
  20   2.0000      -0.325133        -8.8473
  21   2.0000      -0.296500        -8.0682
  22   2.0000      -0.287969        -7.8360
  23   2.0000      -0.218590        -5.9481
  24   2.0000      -0.217234        -5.9112
  25   2.0000      -0.180819        -4.9203
  26   2.0000      -0.173840        -4.7304
  27   2.0000      -0.165820        -4.5122
  28   2.0000      -0.128733        -3.5030
  29   0.0000       0.143668         3.9094
  30   0.0000       0.162241         4.4148
  31   0.0000       0.166683         4.5357
  32   0.0000       0.176266         4.7965
  33   0.0000       0.194045         5.2802

MULLIKEN ATOMIC CHARGES
-----------------------
   0 C :   -0.487771
   1 S :    1.209957
   2 O :   -0.736216
   3 O :   -0.741705
   4 O :   -0.698733
   5 C :   -1.023524
   6 H :    0.289970
   7 H :    0.284033
   8 H :    0.291769
   9 H :    0.282550
  10 H :    0.329670
Sum of atomic charges:   -1.0000000

LOEWDIN ATOMIC CHARGES
----------------------
   0 C :   -0.320844
   1 S :    0.371087
   2 O :   -0.413760
   3 O :   -0.426884
   4 O :   -0.391378
   5 C :   -0.153611
   6 H :    0.082010
   7 H :    0.077699
   8 H :    0.058919
   9 H :    0.065870
  10 H :    0.050894

  Mayer bond orders larger than 0.100000
B(  0-C ,  1-S ) :   0.9172 B(  0-C ,  3-O ) :   0.1233 B(  0-C ,  4-O ) :   0.1196
B(  0-C ,  5-C ) :   0.5394 B(  0-C ,  6-H ) :   0.9704 B(  0-C ,  7-H ) :   0.9711
B(  1-S ,  2-O ) :   1.4641 B(  1-S ,  3-O ) :   1.4728 B(  1-S ,  4-O ) :   1.5022
B(  5-C ,  8-H ) :   0.9918 B(  5-C ,  9-H ) :   0.9888 B(  5-C , 10-H ) :   0.9239

FINAL SINGLE POINT ENERGY      -703.203816891068

DIPOLE MOMENT
-------------
                                X             Y             Z
Electronic contribution:      4.64158      -3.49968      -5.06673
Nuclear contribution   :     -6.18165       4.01759       6.33106
                        -----------------------------------------
Total Dipole Moment    :     -1.54007       0.51791       1.26433
                        -----------------------------------------
Magnitude (a.u.)       :      2.05879
Magnitude (Debye)      :      5.23302

Rotational constants in cm-1:     0.161711     0.082788     0.081165
Rotational constants in MHz :  4847.971521  2481.906910  2433.276832

                             ****ORCA TERMINATED NORMALLY****
TOTAL RUN TIME: 0 days 0 hours 1 minutes 7 seconds 772 msec
