                         Program Version 5.0.0 -  RELEASE  -
|  1> !CAM-B3LYP RIJCOSX def2-TZVPD def2/J TightSCF
|  2> *xyz 1 1
|  3> C         -2.16038       -1.36949       -3.46710
|  4> N         -3.03011       -1.91086       -4.54107
|  5> C         -2.04772        0.14658       -3.51177
|  6> H         -3.47744       -2.79151       -4.25710
|  7> H         -2.53801       -2.01786       -5.43808
|  8> H         -3.89159       -1.37604       -4.71437
|  9> H         -1.18444       -1.84400       -3.56639
| 10> H         -2.59819       -1.70838       -2.52848
| 11> H         -1.61525        0.44478       -4.44395
| 12> H         -1.42718        0.48198       -2.70720
| 13> H         -3.02145        0.57958       -3.41560
| 14> *
| 15> %MaxCore 64000
| 16>
| 17> %pal nprocs 4
| 18> end
| 19>
| 20> %scf
| 21>   MaxIter 150
| 22> end
| 23>
| 24>
| 25>                          ****END OF INPUT****

CARTESIAN COORDINATES (ANGSTROEM)
---------------------------------
  C     -2.160380   -1.369490   -3.467100
  N     -3.030110   -1.910860   -4.541070
  C     -2.047720    0.146580   -3.511770
  H     -3.477440   -2.791510   -4.257100
  H     -2.538010   -2.017860   -5.438080
  H     -3.891590   -1.376040   -4.714370
  H     -1.184440   -1.844000   -3.566390
  H     -2.598190   -1.708380   -2.528480
  H     -1.615250    0.444780   -4.443950
  H     -1.427180    0.481980   -2.707200
  H     -3.021450    0.579580   -3.415600

 Total Charge           Charge          ....    1
 Multiplicity           Mult            ....    1
 Number of Electrons    NEL             ....   26
 Basis Dimension        Dim             ....  183

ORBITAL ENERGIES
----------------

  NO   OCC          E(Eh)            E(eV)
   0   2.0000     -14.724626      -400.6774
   1   2.0000     -10.498009      -285.6653
   2   2.0000     -10.415935      -283.4320
   3   2.0000      -1.300745       -35.3951
   4   2.0000      -1.049697       -28.5637
   5   2.0000      -0.925230       -25.1768
   6   2.0000      -0.881965       -23.9995
   7   2.0000      -0.841653       -22.9025
   8   2.0000      -0.770407       -20.9639
   9   2.0000      -0.713152       -19.4058
  10   2.0000      -0.649376       -17.6704
  11   2.0000      -0.634512       -17.2660
  12   2.0000      -0.616582       -16.7780
  13   0.0000      -0.167804        -4.5662
  14   0.0000      -0.109363        -2.9759
  15   0.0000      -0.108030        -2.9396
  16   0.0000      -0.099122        -2.6973
  17   0.0000      -0.069687        -1.8963

MULLIKEN ATOMIC CHARGES
-----------------------
   0 C :   -0.326834
   1 N :   -0.334589
   2 C :   -1.131497
   3 H :    0.355715
   4 H :    0.355615
   5 H :    0.345310
   6 H :    0.326854
   7 H :    0.325082
   8 H :    0.365274
   9 H :    0.343055
  10 H :    0.376015
Sum of atomic charges:    1.0000000

LOEWDIN ATOMIC CHARGES
----------------------
   0 C :   -0.201111
   1 N :    0.177006
   2 C :   -0.056114
   3 H :    0.180844
   4 H :    0.186185
   5 H :    0.180376
   6 H :    0.137932
   7 H :    0.135432
   8 H :    0.083752
   9 H :    0.092969
  10 H :    0.082730

  Mayer bond orders larger than 0.100000
B(  0-C ,  1-N ) :   0.8958 B(  0-C ,  2-C ) :   0.6095 B(  0-C ,  6-H ) :   0.9341
B(  0-C ,  7-H ) :   0.9012 B(  1-N ,  3-H ) :   0.8704 B(  1-N ,  4-H ) :   0.8625
B(  1-N ,  5-H ) :   0.8689 B(  2-C ,  8-H ) :   0.9373 B(  2-C ,  9-H ) :   0.9645
B(  2-C , 10-H ) :   0.8998

FINAL SINGLE POINT ENERGY      -135.504601798329

DIPOLE MOMENT
-------------
                                X             Y             Z
Electronic contribution:     -0.64347      -1.48513      -0.76814
Nuclear contribution   :     -0.15215       0.37393      -0.04773
                        -----------------------------------------
Total Dipole Moment    :     -0.79561      -1.11120      -0.81587
                        -----------------------------------------
Magnitude (a.u.)       :      1.59167
Magnitude (Debye)      :      4.04569

Rotational constants in cm-1:     1.020762     0.277172     0.247319
Rotational constants in MHz : 30601.664035  8309.399682  7414.438136

                             ****ORCA TERMINATED NORMALLY****
TOTAL RUN TIME: 0 days 0 hours 0 minutes 25 seconds 923 msec
