                         Program Version 5.0.0 -  RELEASE  -
|  1> !CAM-B3LYP RIJCOSX def2-TZVPD def2/J TightSCF xyzfile
|  2>
|  3> *xyzfile 0 1 B.xyz
|  4>
|  5> %MaxCore 64000
|  6>
|  7> %pal nprocs 4
|  8> end
|  9>
| 10> %scf
| 11>   MaxIter 150
| 12> end
| 13>
| 14>
| 15>                          ****END OF INPUT****

CARTESIAN COORDINATES (ANGSTROEM)
---------------------------------
  C     -2.160376   -1.369486   -3.467104
  N     -3.030108   -1.910857   -4.541074
  C     -2.047717    0.146583   -3.511774
  C     -7.330440   -2.678991   -3.206811
  S     -6.019659   -2.926965   -4.419128
  H     -3.477443   -2.791513   -4.257096
  H     -2.538013   -2.017860   -5.438075
  H     -3.891589   -1.376039   -4.714365
  O     -5.645830   -1.588384   -4.919307
  O     -4.881961   -3.503697   -3.667235
  H     -1.184438   -1.843997   -3.566393
  H     -2.598195   -1.708376   -2.528477
  O     -6.549267   -3.805150   -5.425071
  C     -3.328755    0.875037   -3.103669
  H     -1.740034    0.452343   -4.517126
  H     -1.232611    0.434938   -2.842208
  C     -3.628487    0.771601   -1.609363
  H     -4.175106    0.490791   -3.682203
  H     -3.237812    1.928663   -3.381480
  C     -4.975718    1.361432   -1.190644
  H     -2.830700    1.276234   -1.054766
  H     -3.594312   -0.275838   -1.294603
  C     -6.184720    0.784347   -1.926464
  H     -4.956292    2.445725   -1.342200
  H     -5.097256    1.205252   -0.114136
  C     -6.286921   -0.735882   -1.893531
  H     -6.163994    1.100199   -2.974250
  H     -7.094530    1.223459   -1.504509
  C     -7.468999   -1.246153   -2.713833
  H     -6.360641   -1.090347   -0.859176
  H     -5.369848   -1.171853   -2.295982
  H     -7.601914   -0.601349   -3.585329
  H     -8.389791   -1.173436   -2.126922
  H     -7.118254   -3.379818   -2.398055
  H     -8.241838   -3.004745   -3.706513

 Total Charge           Charge          ....    0
 Multiplicity           Mult            ....    1
 Number of Electrons    NEL             ....  122
 Basis Dimension        Dim             ....  725

ORBITAL ENERGIES
----------------

  NO   OCC          E(Eh)            E(eV)
   0   2.0000     -89.086175     -2424.1581
   1   2.0000     -19.152145      -521.1563
   2   2.0000     -19.152111      -521.1554
   3   2.0000     -19.137576      -520.7599
   4   2.0000     -14.492884      -394.3714
   5   2.0000     -10.327623      -281.0289
   6   2.0000     -10.279782      -279.7271
   7   2.0000     -10.259391      -279.1722
   8   2.0000     -10.251080      -278.9461
   9   2.0000     -10.245945      -278.8064
  10   2.0000     -10.243285      -278.7339
  11   2.0000     -10.235673      -278.5268
  12   2.0000     -10.235387      -278.5190
  13   2.0000     -10.232075      -278.4289
  14   2.0000      -8.130629      -221.2457
  15   2.0000      -6.095172      -165.8581
  16   2.0000      -6.094248      -165.8329
  17   2.0000      -6.093380      -165.8093
  18   2.0000      -1.180391       -32.1201
  19   2.0000      -1.089676       -29.6516
  20   2.0000      -1.038910       -28.2702
  21   2.0000      -1.036845       -28.2140
  22   2.0000      -0.921852       -25.0849
  23   2.0000      -0.892463       -24.2852
  24   2.0000      -0.865876       -23.5617
  25   2.0000      -0.820797       -22.3350
  26   2.0000      -0.787216       -21.4212
  27   2.0000      -0.742062       -20.1925
  28   2.0000      -0.703254       -19.1365
  29   2.0000      -0.684799       -18.6343
  30   2.0000      -0.670857       -18.2550
  31   2.0000      -0.645006       -17.5515
  32   2.0000      -0.636872       -17.3302
  33   2.0000      -0.612875       -16.6772
  34   2.0000      -0.585425       -15.9302
  35   2.0000      -0.561741       -15.2857
  36   2.0000      -0.560592       -15.2545
  37   2.0000      -0.546325       -14.8663
  38   2.0000      -0.529181       -14.3997
  39   2.0000      -0.518013       -14.0959
  40   2.0000      -0.509228       -13.8568
  41   2.0000      -0.505699       -13.7608
  42   2.0000      -0.498699       -13.5703
  43   2.0000      -0.483402       -13.1540
  44   2.0000      -0.479714       -13.0537
  45   2.0000      -0.468562       -12.7502
  46   2.0000      -0.455173       -12.3859
  47   2.0000      -0.441812       -12.0223
  48   2.0000      -0.435879       -11.8609
  49   2.0000      -0.420380       -11.4391
  50   2.0000      -0.412054       -11.2126
  51   2.0000      -0.404894       -11.0177
  52   2.0000      -0.392521       -10.6810
  53   2.0000      -0.388951       -10.5839
  54   2.0000      -0.385463       -10.4890
  55   2.0000      -0.381579       -10.3833
  56   2.0000      -0.376350       -10.2410
  57   2.0000      -0.350377        -9.5342
  58   2.0000      -0.342555        -9.3214
  59   2.0000      -0.332659        -9.0521
  60   2.0000      -0.308269        -8.3884
  61   0.0000       0.002394         0.0651
  62   0.0000       0.026618         0.7243
  63   0.0000       0.031111         0.8466
  64   0.0000       0.038835         1.0567
  65   0.0000       0.047772         1.2999

MULLIKEN ATOMIC CHARGES
-----------------------
   0 C :   -0.635163
   1 N :   -0.150280
   2 C :   -0.577422
   3 C :   -0.947232
   4 S :    1.346555
   5 H :    0.404942
   6 H :    0.311945
   7 H :    0.284367
   8 O :   -0.870059
   9 O :   -0.868150
  10 H :    0.351231
  11 H :    0.320970
  12 O :   -0.657063
  13 C :   -0.333004
  14 H :    0.286840
  15 H :    0.334973
  16 C :   -0.517289
  17 H :    0.179965
  18 H :    0.285497
  19 C :   -0.785524
  20 H :    0.315894
  21 H :    0.271937
  22 C :   -0.738693
  23 H :    0.281903
  24 H :    0.303620
  25 C :   -0.021185
  26 H :    0.327141
  27 H :    0.322317
  28 C :   -0.640502
  29 H :    0.305078
  30 H :    0.109023
  31 H :    0.328642
  32 H :    0.373592
  33 H :    0.357106
  34 H :    0.338029
Sum of atomic charges:   -0.0000000

LOEWDIN ATOMIC CHARGES
----------------------
   0 C :   -0.159476
   1 N :    0.148868
   2 C :   -0.187605
   3 C :   -0.232708
   4 S :    0.469646
   5 H :    0.076162
   6 H :    0.176201
   7 H :    0.083032
   8 O :   -0.379171
   9 O :   -0.384638
  10 H :    0.127481
  11 H :    0.124174
  12 O :   -0.323120
  13 C :   -0.203474
  14 H :    0.116665
  15 H :    0.119181
  16 C :   -0.217792
  17 H :    0.097976
  18 H :    0.123016
  19 C :   -0.209102
  20 H :    0.116244
  21 H :    0.100624
  22 C :   -0.217038
  23 H :    0.111353
  24 H :    0.111945
  25 C :   -0.218607
  26 H :    0.110888
  27 H :    0.117610
  28 C :   -0.237716
  29 H :    0.126925
  30 H :    0.084433
  31 H :    0.109186
  32 H :    0.117263
  33 H :    0.103542
  34 H :    0.098033

  Mayer bond orders larger than 0.100000
B(  0-C ,  1-N ) :   0.8616 B(  0-C ,  2-C ) :   0.7757 B(  0-C , 10-H ) :   0.8735
B(  0-C , 11-H ) :   0.8971 B(  1-N ,  5-H ) :   0.7733 B(  1-N ,  6-H ) :   0.8454
B(  1-N ,  7-H ) :   0.9142 B(  2-C , 13-C ) :   0.7792 B(  2-C , 14-H ) :   0.9636
B(  2-C , 15-H ) :   0.9246 B(  2-C , 16-C ) :   0.1031 B(  3-C ,  4-S ) :   0.9959
B(  3-C ,  9-O ) :   0.1235 B(  3-C , 12-O ) :   0.1541 B(  3-C , 28-C ) :   0.6761
B(  3-C , 33-H ) :   0.8785 B(  3-C , 34-H ) :   1.0240 B(  4-S ,  8-O ) :   1.3543
B(  4-S ,  9-O ) :   1.3026 B(  4-S , 12-O ) :   1.3612 B(  8-O ,  9-O ) :   0.1084
B( 13-C , 16-C ) :   0.3492 B( 13-C , 17-H ) :   1.1089 B( 13-C , 18-H ) :   0.9369
B( 13-C , 21-H ) :  -0.1421 B( 16-C , 19-C ) :   0.8687 B( 16-C , 20-H ) :   0.9473
B( 16-C , 21-H ) :   1.0516 B( 16-C , 25-C ) :   0.1067 B( 19-C , 22-C ) :   0.7999
B( 19-C , 23-H ) :   1.0073 B( 19-C , 24-H ) :   0.9656 B( 22-C , 25-C ) :   0.3979
B( 22-C , 26-H ) :   1.0004 B( 22-C , 27-H ) :   0.9065 B( 22-C , 28-C ) :   0.3603
B( 25-C , 26-H ) :  -0.1012 B( 25-C , 28-C ) :   0.5245 B( 25-C , 29-H ) :   0.8284
B( 25-C , 30-H ) :   1.2914 B( 28-C , 29-H ) :  -0.1010 B( 28-C , 31-H ) :   0.8954
B( 28-C , 32-H ) :   0.9308 B( 28-C , 34-H ) :  -0.1099 B( 29-H , 30-H ) :   0.1640

FINAL SINGLE POINT ENERGY     -1034.210545191620

DIPOLE MOMENT
-------------
                                X             Y             Z
Electronic contribution:     -5.96568     -15.19161     -11.39531
Nuclear contribution   :      8.59301      16.99497      12.41069
                        -----------------------------------------
Total Dipole Moment    :      2.62733       1.80336       1.01538
                        -----------------------------------------
Magnitude (a.u.)       :      3.34455
Magnitude (Debye)      :      8.50116

Rotational constants in cm-1:     0.025617     0.015295     0.010641
Rotational constants in MHz :   767.991150   458.522408   319.013093

                             ****ORCA TERMINATED NORMALLY****
TOTAL RUN TIME: 0 days 0 hours 10 minutes 41 seconds 120 msec
