                         Program Version 5.0.0 -  RELEASE  -
|  1> !CAM-B3LYP RIJCOSX def2-TZVPD def2/J TightSCF
|  2> *xyz 0 1
|  3> C         -7.33044       -2.67899       -3.20681
|  4> S         -6.01966       -2.92697       -4.41913
|  5> F         -5.64583       -1.58838       -4.91931
|  6> O         -4.88196       -3.50370       -3.66724
|  7> O         -6.54927       -3.80515       -5.42507
|  8> C         -7.46900       -1.24615       -2.71383
|  9> H         -7.11825       -3.37982       -2.39805
| 10> H         -8.24184       -3.00474       -3.70651
| 11> H         -7.67580       -0.60214       -3.54292
| 12> H         -6.55749       -0.94096       -2.24382
| 13> H         -8.27114       -1.18777       -2.00810
| 14> *
| 15> %MaxCore 64000
| 16>
| 17> %pal nprocs 4
| 18> end
| 19>
| 20> %scf
| 21>   MaxIter 150
| 22> end
| 23>
| 24>
| 25>                          ****END OF INPUT****

CARTESIAN COORDINATES (ANGSTROEM)
---------------------------------
  C     -7.330440   -2.678990   -3.206810
  S     -6.019660   -2.926970   -4.419130
  F     -5.645830   -1.588380   -4.919310
  O     -4.881960   -3.503700   -3.667240
  O     -6.549270   -3.805150   -5.425070
  C     -7.469000   -1.246150   -2.713830
  H     -7.118250   -3.379820   -2.398050
  H     -8.241840   -3.004740   -3.706510
  H     -7.675800   -0.602140   -3.542920
  H     -6.557490   -0.940960   -2.243820
  H     -8.271140   -1.187770   -2.008100

 Total Charge           Charge          ....    0
 Multiplicity           Mult            ....    1
 Number of Electrons    NEL             ....   58
 Basis Dimension        Dim             ....  285

ORBITAL ENERGIES
----------------

  NO   OCC          E(Eh)            E(eV)
   0   2.0000     -89.179322     -2426.6927
   1   2.0000     -24.864956      -676.6098
   2   2.0000     -19.217486      -522.9344
   3   2.0000     -19.202747      -522.5333
   4   2.0000     -10.310261      -280.5565
   5   2.0000     -10.271429      -279.4998
   6   2.0000      -8.223300      -223.7674
   7   2.0000      -6.191321      -168.4744
   8   2.0000      -6.184544      -168.2900
   9   2.0000      -6.184365      -168.2851
  10   2.0000      -1.442649       -39.2565
  11   2.0000      -1.193749       -32.4836
  12   2.0000      -1.092767       -29.7357
  13   2.0000      -0.915165       -24.9029
  14   2.0000      -0.805724       -21.9249
  15   2.0000      -0.757003       -20.5991
  16   2.0000      -0.664821       -18.0907
  17   2.0000      -0.646270       -17.5859
  18   2.0000      -0.618731       -16.8365
  19   2.0000      -0.573779       -15.6133
  20   2.0000      -0.547347       -14.8941
  21   2.0000      -0.522117       -14.2075
  22   2.0000      -0.515538       -14.0285
  23   2.0000      -0.485644       -13.2150
  24   2.0000      -0.468324       -12.7438
  25   2.0000      -0.456923       -12.4335
  26   2.0000      -0.404937       -11.0189
  27   2.0000      -0.391892       -10.6639
  28   2.0000      -0.379821       -10.3355
  29   0.0000       0.012163         0.3310
  30   0.0000       0.039035         1.0622
  31   0.0000       0.042350         1.1524
  32   0.0000       0.046322         1.2605
  33   0.0000       0.071327         1.9409

MULLIKEN ATOMIC CHARGES
-----------------------
   0 C :   -0.399041
   1 S :    1.181760
   2 F :   -0.177579
   3 O :   -0.596886
   4 O :   -0.559272
   5 C :   -1.144390
   6 H :    0.336171
   7 H :    0.334798
   8 H :    0.350968
   9 H :    0.342121
  10 H :    0.331350
Sum of atomic charges:    0.0000000

LOEWDIN ATOMIC CHARGES
----------------------
   0 C :   -0.269123
   1 S :    0.616170
   2 F :   -0.080156
   3 O :   -0.308816
   4 O :   -0.274967
   5 C :   -0.117160
   6 H :    0.108640
   7 H :    0.100377
   8 H :    0.070992
   9 H :    0.077475
  10 H :    0.076567

  Mayer bond orders larger than 0.100000
B(  0-C ,  1-S ) :   0.8853 B(  0-C ,  5-C ) :   0.5328 B(  0-C ,  6-H ) :   0.9271
B(  0-C ,  7-H ) :   0.9323 B(  1-S ,  2-F ) :   0.9879 B(  1-S ,  3-O ) :   1.6628
B(  1-S ,  4-O ) :   1.7001 B(  5-C ,  8-H ) :   0.9259 B(  5-C ,  9-H ) :   0.9520
B(  5-C , 10-H ) :   0.9465

FINAL SINGLE POINT ENERGY      -727.734350443407

DIPOLE MOMENT
-------------
                                X             Y             Z
Electronic contribution:      5.61750      -1.69780      -6.35890
Nuclear contribution   :     -6.81251       2.87933       7.15058
                        -----------------------------------------
Total Dipole Moment    :     -1.19501       1.18152       0.79167
                        -----------------------------------------
Magnitude (a.u.)       :      1.85763
Magnitude (Debye)      :      4.72173

Rotational constants in cm-1:     0.152543     0.082494     0.078987
Rotational constants in MHz :  4573.135887  2473.116216  2367.980829

                             ****ORCA TERMINATED NORMALLY****
TOTAL RUN TIME: 0 days 0 hours 1 minutes 8 seconds 434 msec
