                         Program Version 5.0.0 -  RELEASE  -
|  1> !CAM-B3LYP RIJCOSX def2-TZVPD def2/J TightSCF
|  2> *xyz 0 1
|  3> C         -2.16038       -1.36949       -3.46710
|  4> C         -3.03011       -1.91086       -4.54107
|  5> C         -2.04772        0.14658       -3.51177
|  6> H         -3.47744       -2.79151       -4.25710
|  7> H         -2.53801       -2.01786       -5.43808
|  8> H         -3.89159       -1.37604       -4.71437
|  9> H         -1.18444       -1.84400       -3.56639
| 10> H         -2.59819       -1.70838       -2.52848
| 11> H         -1.61525        0.44478       -4.44395
| 12> H         -1.42718        0.48198       -2.70720
| 13> H         -3.02145        0.57958       -3.41560
| 14> *
| 15> %MaxCore 64000
| 16>
| 17> %pal nprocs 4
| 18> end
| 19>
| 20> %scf
| 21>   MaxIter 150
| 22> end
| 23>
| 24>
| 25>                          ****END OF INPUT****

CARTESIAN COORDINATES (ANGSTROEM)
---------------------------------
  C     -2.160380   -1.369490   -3.467100
  C     -3.030110   -1.910860   -4.541070
  C     -2.047720    0.146580   -3.511770
  H     -3.477440   -2.791510   -4.257100
  H     -2.538010   -2.017860   -5.438080
  H     -3.891590   -1.376040   -4.714370
  H     -1.184440   -1.844000   -3.566390
  H     -2.598190   -1.708380   -2.528480
  H     -1.615250    0.444780   -4.443950
  H     -1.427180    0.481980   -2.707200
  H     -3.021450    0.579580   -3.415600

 Total Charge           Charge          ....    0
 Multiplicity           Mult            ....    1
 Number of Electrons    NEL             ....   26
 Basis Dimension        Dim             ....  183

ORBITAL ENERGIES
----------------

  NO   OCC          E(Eh)            E(eV)
   0   2.0000     -10.228770      -278.3390
   1   2.0000     -10.219143      -278.0770
   2   2.0000     -10.200643      -277.5736
   3   2.0000      -0.874100       -23.7855
   4   2.0000      -0.772248       -21.0139
   5   2.0000      -0.665580       -18.1113
   6   2.0000      -0.541275       -14.7288
   7   2.0000      -0.509730       -13.8705
   8   2.0000      -0.469688       -12.7809
   9   2.0000      -0.461397       -12.5553
  10   2.0000      -0.404846       -11.0164
  11   2.0000      -0.392579       -10.6826
  12   2.0000      -0.391604       -10.6561
  13   0.0000       0.040064         1.0902
  14   0.0000       0.061257         1.6669
  15   0.0000       0.064399         1.7524
  16   0.0000       0.088318         2.4033
  17   0.0000       0.112005         3.0478

MULLIKEN ATOMIC CHARGES
-----------------------
   0 C :   -0.084596
   1 C :   -1.310449
   2 C :   -1.090260
   3 H :    0.371606
   4 H :    0.335533
   5 H :    0.371814
   6 H :    0.239142
   7 H :    0.251389
   8 H :    0.305780
   9 H :    0.302830
  10 H :    0.307211
Sum of atomic charges:   -0.0000000

LOEWDIN ATOMIC CHARGES
----------------------
   0 C :   -0.316290
   1 C :   -0.134791
   2 C :   -0.116826
   3 H :    0.051827
   4 H :    0.057960
   5 H :    0.054458
   6 H :    0.104700
   7 H :    0.103101
   8 H :    0.067929
   9 H :    0.061214
  10 H :    0.066716

  Mayer bond orders larger than 0.100000
B(  0-C ,  1-C ) :   0.5812 B(  0-C ,  2-C ) :   0.5994 B(  0-C ,  6-H ) :   0.9891
B(  0-C ,  7-H ) :   0.9884 B(  1-C ,  3-H ) :   0.9288 B(  1-C ,  4-H ) :   0.9454
B(  1-C ,  5-H ) :   0.9303 B(  2-C ,  8-H ) :   0.9733 B(  2-C ,  9-H ) :   0.9886
B(  2-C , 10-H ) :   0.9704

FINAL SINGLE POINT ENERGY      -119.091998185980

DIPOLE MOMENT
-------------
                                X             Y             Z
Electronic contribution:      0.31748      -0.13045       0.27531
Nuclear contribution   :     -0.34625       0.09603      -0.26933
                        -----------------------------------------
Total Dipole Moment    :     -0.02876      -0.03441       0.00597
                        -----------------------------------------
Magnitude (a.u.)       :      0.04524
Magnitude (Debye)      :      0.11500

Rotational constants in cm-1:     1.028617     0.291238     0.258956
Rotational constants in MHz : 30837.159054  8731.095379  7763.318586

                             ****ORCA TERMINATED NORMALLY****
TOTAL RUN TIME: 0 days 0 hours 0 minutes 24 seconds 434 msec
