                         Program Version 5.0.0 -  RELEASE  -
|  1> !CAM-B3LYP RIJCOSX def2-TZVPD def2/J TightSCF
|  2> *xyz 0 1
|  3> C         -7.33044       -2.67899       -3.20681
|  4> S         -6.01966       -2.92697       -4.41913
|  5> O         -5.64583       -1.58838       -4.91931
|  6> F         -4.88196       -3.50370       -3.66724
|  7> O         -6.54927       -3.80515       -5.42507
|  8> C         -7.46900       -1.24615       -2.71383
|  9> H         -7.11825       -3.37982       -2.39805
| 10> H         -8.24184       -3.00474       -3.70651
| 11> H         -7.67580       -0.60214       -3.54292
| 12> H         -6.55749       -0.94096       -2.24382
| 13> H         -8.27114       -1.18777       -2.00810
| 14> *
| 15> %MaxCore 64000
| 16>
| 17> %pal nprocs 4
| 18> end
| 19>
| 20> %scf
| 21>   MaxIter 150
| 22> end
| 23>
| 24>
| 25>                          ****END OF INPUT****

CARTESIAN COORDINATES (ANGSTROEM)
---------------------------------
  C     -7.330440   -2.678990   -3.206810
  S     -6.019660   -2.926970   -4.419130
  O     -5.645830   -1.588380   -4.919310
  F     -4.881960   -3.503700   -3.667240
  O     -6.549270   -3.805150   -5.425070
  C     -7.469000   -1.246150   -2.713830
  H     -7.118250   -3.379820   -2.398050
  H     -8.241840   -3.004740   -3.706510
  H     -7.675800   -0.602140   -3.542920
  H     -6.557490   -0.940960   -2.243820
  H     -8.271140   -1.187770   -2.008100

 Total Charge           Charge          ....    0
 Multiplicity           Mult            ....    1
 Number of Electrons    NEL             ....   58
 Basis Dimension        Dim             ....  285

ORBITAL ENERGIES
----------------

  NO   OCC          E(Eh)            E(eV)
   0   2.0000     -89.179365     -2426.6939
   1   2.0000     -24.862229      -676.5356
   2   2.0000     -19.217462      -522.9337
   3   2.0000     -19.205789      -522.6161
   4   2.0000     -10.310586      -280.5653
   5   2.0000     -10.262453      -279.2555
   6   2.0000      -8.223330      -223.7682
   7   2.0000      -6.191277      -168.4732
   8   2.0000      -6.184780      -168.2964
   9   2.0000      -6.184276      -168.2827
  10   2.0000      -1.439058       -39.1588
  11   2.0000      -1.194735       -32.5104
  12   2.0000      -1.096076       -29.8257
  13   2.0000      -0.910701       -24.7814
  14   2.0000      -0.806758       -21.9530
  15   2.0000      -0.750027       -20.4093
  16   2.0000      -0.654953       -17.8222
  17   2.0000      -0.642488       -17.4830
  18   2.0000      -0.627163       -17.0660
  19   2.0000      -0.568114       -15.4592
  20   2.0000      -0.555415       -15.1136
  21   2.0000      -0.526682       -14.3317
  22   2.0000      -0.500077       -13.6078
  23   2.0000      -0.473617       -12.8878
  24   2.0000      -0.468911       -12.7597
  25   2.0000      -0.454175       -12.3587
  26   2.0000      -0.404251       -11.0002
  27   2.0000      -0.397947       -10.8287
  28   2.0000      -0.382676       -10.4131
  29   0.0000       0.015406         0.4192
  30   0.0000       0.036153         0.9838
  31   0.0000       0.042837         1.1656
  32   0.0000       0.046427         1.2633
  33   0.0000       0.068622         1.8673

MULLIKEN ATOMIC CHARGES
-----------------------
   0 C :   -0.493504
   1 S :    1.179046
   2 O :   -0.592621
   3 F :   -0.169166
   4 O :   -0.563810
   5 C :   -1.049371
   6 H :    0.369168
   7 H :    0.326035
   8 H :    0.328631
   9 H :    0.320184
  10 H :    0.345407
Sum of atomic charges:    0.0000000

LOEWDIN ATOMIC CHARGES
----------------------
   0 C :   -0.272332
   1 S :    0.619254
   2 O :   -0.299858
   3 F :   -0.085398
   4 O :   -0.275552
   5 C :   -0.115881
   6 H :    0.099395
   7 H :    0.103692
   8 H :    0.074730
   9 H :    0.076359
  10 H :    0.075591

  Mayer bond orders larger than 0.100000
B(  0-C ,  1-S ) :   0.9000 B(  0-C ,  5-C ) :   0.5854 B(  0-C ,  6-H ) :   0.8718
B(  0-C ,  7-H ) :   0.9427 B(  1-S ,  2-O ) :   1.6525 B(  1-S ,  3-F ) :   0.9876
B(  1-S ,  4-O ) :   1.6973 B(  5-C ,  8-H ) :   0.9730 B(  5-C ,  9-H ) :   0.9471
B(  5-C , 10-H ) :   0.9269

FINAL SINGLE POINT ENERGY      -727.737323489933

DIPOLE MOMENT
-------------
                                X             Y             Z
Electronic contribution:      6.96266      -4.97165      -4.24300
Nuclear contribution   :     -7.60849       4.87515       5.84588
                        -----------------------------------------
Total Dipole Moment    :     -0.64583      -0.09650       1.60288
                        -----------------------------------------
Magnitude (a.u.)       :      1.73079
Magnitude (Debye)      :      4.39932

Rotational constants in cm-1:     0.153704     0.080342     0.079431
Rotational constants in MHz :  4607.928650  2408.599360  2381.267225

                             ****ORCA TERMINATED NORMALLY****
TOTAL RUN TIME: 0 days 0 hours 1 minutes 6 seconds 406 msec
