                         Program Version 5.0.0 -  RELEASE  -
|  1> !CAM-B3LYP RIJCOSX def2-TZVPD def2/J TightSCF
|  2> *xyz 0 1
|  3> C         -7.33044       -2.67899       -3.20681
|  4> S         -6.01966       -2.92697       -4.41913
|  5> O         -5.64583       -1.58838       -4.91931
|  6> O         -4.88196       -3.50370       -3.66724
|  7> F         -6.54927       -3.80515       -5.42507
|  8> C         -7.46900       -1.24615       -2.71383
|  9> H         -7.11825       -3.37982       -2.39805
| 10> H         -8.24184       -3.00474       -3.70651
| 11> H         -7.67580       -0.60214       -3.54292
| 12> H         -6.55749       -0.94096       -2.24382
| 13> H         -8.27114       -1.18777       -2.00810
| 14> *
| 15> %MaxCore 64000
| 16>
| 17> %pal nprocs 4
| 18> end
| 19>
| 20> %scf
| 21>   MaxIter 150
| 22> end
| 23>
| 24>
| 25>                          ****END OF INPUT****

CARTESIAN COORDINATES (ANGSTROEM)
---------------------------------
  C     -7.330440   -2.678990   -3.206810
  S     -6.019660   -2.926970   -4.419130
  O     -5.645830   -1.588380   -4.919310
  O     -4.881960   -3.503700   -3.667240
  F     -6.549270   -3.805150   -5.425070
  C     -7.469000   -1.246150   -2.713830
  H     -7.118250   -3.379820   -2.398050
  H     -8.241840   -3.004740   -3.706510
  H     -7.675800   -0.602140   -3.542920
  H     -6.557490   -0.940960   -2.243820
  H     -8.271140   -1.187770   -2.008100

 Total Charge           Charge          ....    0
 Multiplicity           Mult            ....    1
 Number of Electrons    NEL             ....   58
 Basis Dimension        Dim             ....  285

ORBITAL ENERGIES
----------------

  NO   OCC          E(Eh)            E(eV)
   0   2.0000     -89.181766     -2426.7592
   1   2.0000     -24.884665      -677.1461
   2   2.0000     -19.206270      -522.6292
   3   2.0000     -19.203433      -522.5520
   4   2.0000     -10.311308      -280.5850
   5   2.0000     -10.262589      -279.2592
   6   2.0000      -8.225721      -223.8333
   7   2.0000      -6.193572      -168.5357
   8   2.0000      -6.187050      -168.3582
   9   2.0000      -6.186734      -168.3496
  10   2.0000      -1.476084       -40.1663
  11   2.0000      -1.178811       -32.0771
  12   2.0000      -1.079199       -29.3665
  13   2.0000      -0.910998       -24.7895
  14   2.0000      -0.821105       -22.3434
  15   2.0000      -0.757968       -20.6253
  16   2.0000      -0.670982       -18.2584
  17   2.0000      -0.668725       -18.1969
  18   2.0000      -0.632101       -17.2003
  19   2.0000      -0.569605       -15.4997
  20   2.0000      -0.554208       -15.0808
  21   2.0000      -0.515467       -14.0266
  22   2.0000      -0.496864       -13.5203
  23   2.0000      -0.476190       -12.9578
  24   2.0000      -0.459354       -12.4997
  25   2.0000      -0.450531       -12.2596
  26   2.0000      -0.396427       -10.7873
  27   2.0000      -0.389868       -10.6088
  28   2.0000      -0.369152       -10.0451
  29   0.0000       0.014463         0.3936
  30   0.0000       0.032760         0.8914
  31   0.0000       0.043209         1.1758
  32   0.0000       0.047110         1.2819
  33   0.0000       0.069182         1.8825

MULLIKEN ATOMIC CHARGES
-----------------------
   0 C :   -0.486360
   1 S :    1.169226
   2 O :   -0.589717
   3 O :   -0.588659
   4 F :   -0.125418
   5 C :   -1.079142
   6 H :    0.339422
   7 H :    0.356805
   8 H :    0.329711
   9 H :    0.328993
  10 H :    0.345139
Sum of atomic charges:    0.0000000

LOEWDIN ATOMIC CHARGES
----------------------
   0 C :   -0.277277
   1 S :    0.618530
   2 O :   -0.300695
   3 O :   -0.307530
   4 F :   -0.051156
   5 C :   -0.110786
   6 H :    0.103066
   7 H :    0.094735
   8 H :    0.073115
   9 H :    0.081328
  10 H :    0.076669

  Mayer bond orders larger than 0.100000
B(  0-C ,  1-S ) :   0.9002 B(  0-C ,  5-C ) :   0.6078 B(  0-C ,  6-H ) :   0.9420
B(  0-C ,  7-H ) :   0.8714 B(  1-S ,  2-O ) :   1.6607 B(  1-S ,  3-O ) :   1.6679
B(  1-S ,  4-F ) :   1.0250 B(  5-C ,  8-H ) :   0.9544 B(  5-C ,  9-H ) :   0.9586
B(  5-C , 10-H ) :   0.9176

FINAL SINGLE POINT ENERGY      -727.718944431220

DIPOLE MOMENT
-------------
                                X             Y             Z
Electronic contribution:      4.11207      -5.46741      -7.24979
Nuclear contribution   :     -5.87110       5.18927       7.67759
                        -----------------------------------------
Total Dipole Moment    :     -1.75903      -0.27814       0.42780
                        -----------------------------------------
Magnitude (a.u.)       :      1.83155
Magnitude (Debye)      :      4.65542

Rotational constants in cm-1:     0.155988     0.080452     0.078187
Rotational constants in MHz :  4676.405251  2411.902056  2343.983816

                             ****ORCA TERMINATED NORMALLY****
TOTAL RUN TIME: 0 days 0 hours 1 minutes 8 seconds 27 msec
