                         Program Version 5.0.0 -  RELEASE  -
|  1> !CAM-B3LYP RIJCOSX def2-TZVPD def2/J TightSCF xyzfile
|  2>
|  3> *xyzfile 0 1 D1.xyz
|  4>
|  5> %MaxCore 64000
|  6>
|  7> %pal nprocs 4
|  8> end
|  9>
| 10> %scf
| 11>   MaxIter 150
| 12> end
| 13>
| 14>
| 15>                          ****END OF INPUT****

CARTESIAN COORDINATES (ANGSTROEM)
---------------------------------
  C     -2.160376   -1.369486   -3.467104
  C     -3.030108   -1.910857   -4.541074
  C     -2.047717    0.146583   -3.511774
  C     -7.330440   -2.678991   -3.206811
  S     -6.019659   -2.926965   -4.419128
  H     -3.477443   -2.791513   -4.257096
  H     -2.538013   -2.017860   -5.438075
  H     -3.891589   -1.376039   -4.714365
  F     -5.645830   -1.588384   -4.919307
  O     -4.881961   -3.503697   -3.667235
  H     -1.184438   -1.843997   -3.566393
  H     -2.598195   -1.708376   -2.528477
  O     -6.549267   -3.805150   -5.425071
  C     -3.328755    0.875037   -3.103669
  H     -1.740034    0.452343   -4.517126
  H     -1.232611    0.434938   -2.842208
  C     -3.628487    0.771601   -1.609363
  H     -4.175106    0.490791   -3.682203
  H     -3.237812    1.928663   -3.381480
  C     -4.975718    1.361432   -1.190644
  H     -2.830700    1.276234   -1.054766
  H     -3.594312   -0.275838   -1.294603
  C     -6.184720    0.784347   -1.926464
  H     -4.956292    2.445725   -1.342200
  H     -5.097256    1.205252   -0.114136
  C     -6.286921   -0.735882   -1.893531
  H     -6.163994    1.100199   -2.974250
  H     -7.094530    1.223459   -1.504509
  C     -7.468999   -1.246153   -2.713833
  H     -6.360641   -1.090347   -0.859176
  H     -5.369848   -1.171853   -2.295982
  H     -7.601914   -0.601349   -3.585329
  H     -8.389791   -1.173436   -2.126922
  H     -7.118254   -3.379818   -2.398055
  H     -8.241838   -3.004745   -3.706513

 Total Charge           Charge          ....    0
 Multiplicity           Mult            ....    1
 Number of Electrons    NEL             ....  122
 Basis Dimension        Dim             ....  725

ORBITAL ENERGIES
----------------

  NO   OCC          E(Eh)            E(eV)
   0   2.0000     -89.183540     -2426.8075
   1   2.0000     -24.868627      -676.7097
   2   2.0000     -19.221521      -523.0442
   3   2.0000     -19.205523      -522.6089
   4   2.0000     -10.309190      -280.5273
   5   2.0000     -10.277435      -279.6632
   6   2.0000     -10.255726      -279.0725
   7   2.0000     -10.247888      -278.8592
   8   2.0000     -10.240900      -278.6690
   9   2.0000     -10.233824      -278.4765
  10   2.0000     -10.231373      -278.4098
  11   2.0000     -10.223903      -278.2066
  12   2.0000     -10.213634      -277.9271
  13   2.0000     -10.165611      -276.6203
  14   2.0000      -8.227872      -223.8918
  15   2.0000      -6.195863      -168.5980
  16   2.0000      -6.189033      -168.4122
  17   2.0000      -6.188950      -168.4099
  18   2.0000      -1.450544       -39.4713
  19   2.0000      -1.199720       -32.6460
  20   2.0000      -1.101872       -29.9835
  21   2.0000      -0.932836       -25.3838
  22   2.0000      -0.900813       -24.5124
  23   2.0000      -0.871651       -23.7188
  24   2.0000      -0.843408       -22.9503
  25   2.0000      -0.802819       -21.8458
  26   2.0000      -0.787705       -21.4345
  27   2.0000      -0.751333       -20.4448
  28   2.0000      -0.716649       -19.5010
  29   2.0000      -0.699916       -19.0457
  30   2.0000      -0.669954       -18.2304
  31   2.0000      -0.660798       -17.9812
  32   2.0000      -0.644726       -17.5439
  33   2.0000      -0.627452       -17.0738
  34   2.0000      -0.621658       -16.9162
  35   2.0000      -0.571115       -15.5408
  36   2.0000      -0.563707       -15.3393
  37   2.0000      -0.550104       -14.9691
  38   2.0000      -0.540946       -14.7199
  39   2.0000      -0.535113       -14.5612
  40   2.0000      -0.521464       -14.1897
  41   2.0000      -0.508073       -13.8254
  42   2.0000      -0.502962       -13.6863
  43   2.0000      -0.496939       -13.5224
  44   2.0000      -0.480982       -13.0882
  45   2.0000      -0.465569       -12.6688
  46   2.0000      -0.459169       -12.4946
  47   2.0000      -0.457907       -12.4603
  48   2.0000      -0.443035       -12.0556
  49   2.0000      -0.433776       -11.8037
  50   2.0000      -0.423015       -11.5108
  51   2.0000      -0.419897       -11.4260
  52   2.0000      -0.406597       -11.0641
  53   2.0000      -0.401602       -10.9281
  54   2.0000      -0.395516       -10.7625
  55   2.0000      -0.388978       -10.5846
  56   2.0000      -0.383081       -10.4242
  57   2.0000      -0.378926       -10.3111
  58   2.0000      -0.368050       -10.0151
  59   2.0000      -0.365212        -9.9379
  60   2.0000      -0.341689        -9.2978
  61   0.0000       0.012645         0.3441
  62   0.0000       0.030244         0.8230
  63   0.0000       0.034811         0.9472
  64   0.0000       0.041048         1.1170
  65   0.0000       0.051705         1.4070

MULLIKEN ATOMIC CHARGES
-----------------------
   0 C :   -0.217163
   1 C :   -1.926226
   2 C :   -0.637822
   3 C :   -0.794248
   4 S :    1.281878
   5 H :    0.684363
   6 H :    0.479871
   7 H :    0.543021
   8 F :   -0.238889
   9 O :   -0.642952
  10 H :    0.272198
  11 H :    0.258449
  12 O :   -0.580258
  13 C :   -0.318513
  14 H :    0.300202
  15 H :    0.270838
  16 C :   -0.489870
  17 H :    0.118023
  18 H :    0.280721
  19 C :   -0.799007
  20 H :    0.330023
  21 H :    0.220135
  22 C :   -0.699559
  23 H :    0.284395
  24 H :    0.300206
  25 C :   -0.083562
  26 H :    0.344088
  27 H :    0.314859
  28 C :   -0.734578
  29 H :    0.311471
  30 H :    0.164018
  31 H :    0.310580
  32 H :    0.381428
  33 H :    0.369067
  34 H :    0.342816
Sum of atomic charges:    0.0000000

LOEWDIN ATOMIC CHARGES
----------------------
   0 C :   -0.238050
   1 C :   -0.134547
   2 C :   -0.211225
   3 C :   -0.207024
   4 S :    0.655742
   5 H :    0.001647
   6 H :    0.073882
   7 H :    0.018725
   8 F :   -0.094793
   9 O :   -0.303686
  10 H :    0.112450
  11 H :    0.103147
  12 O :   -0.255179
  13 C :   -0.209706
  14 H :    0.114346
  15 H :    0.108039
  16 C :   -0.217716
  17 H :    0.091764
  18 H :    0.117329
  19 C :   -0.210209
  20 H :    0.116740
  21 H :    0.100536
  22 C :   -0.218388
  23 H :    0.111700
  24 H :    0.110878
  25 C :   -0.213493
  26 H :    0.108684
  27 H :    0.117185
  28 C :   -0.231712
  29 H :    0.131580
  30 H :    0.091813
  31 H :    0.111751
  32 H :    0.124515
  33 H :    0.117678
  34 H :    0.105596

  Mayer bond orders larger than 0.100000
B(  0-C ,  1-C ) :   0.2880 B(  0-C ,  2-C ) :   0.7242 B(  0-C ,  7-H ) :  -0.1054
B(  0-C , 10-H ) :   0.9678 B(  0-C , 11-H ) :   1.0103 B(  1-C ,  2-C ) :   0.1071
B(  1-C ,  5-H ) :   0.6494 B(  1-C ,  6-H ) :   0.7289 B(  1-C ,  7-H ) :   0.8837
B(  1-C ,  8-F ) :   0.2154 B(  1-C ,  9-O ) :   0.1200 B(  2-C , 13-C ) :   0.8683
B(  2-C , 14-H ) :   0.9520 B(  2-C , 15-H ) :   0.9645 B(  2-C , 16-C ) :   0.1159
B(  3-C ,  4-S ) :   0.9438 B(  3-C , 12-O ) :   0.1401 B(  3-C , 28-C ) :   0.7042
B(  3-C , 33-H ) :   0.8683 B(  3-C , 34-H ) :   1.0395 B(  4-S ,  8-F ) :   1.0446
B(  4-S ,  9-O ) :   1.5775 B(  4-S , 12-O ) :   1.4375 B(  5-H ,  6-H ) :   0.1040
B(  5-H ,  9-O ) :  -0.2088 B(  7-H ,  8-F ) :  -0.2551 B( 13-C , 16-C ) :   0.3612
B( 13-C , 17-H ) :   1.1451 B( 13-C , 18-H ) :   0.9256 B( 13-C , 21-H ) :  -0.1435
B( 13-C , 22-C ) :   0.1066 B( 16-C , 19-C ) :   0.8266 B( 16-C , 20-H ) :   0.9112
B( 16-C , 21-H ) :   1.1046 B( 19-C , 22-C ) :   0.8436 B( 19-C , 23-H ) :   1.0086
B( 19-C , 24-H ) :   0.9748 B( 22-C , 25-C ) :   0.4008 B( 22-C , 26-H ) :   0.9866
B( 22-C , 27-H ) :   0.9130 B( 22-C , 28-C ) :   0.3201 B( 25-C , 26-H ) :  -0.1093
B( 25-C , 28-C ) :   0.3592 B( 25-C , 29-H ) :   0.8420 B( 25-C , 30-H ) :   1.2547
B( 28-C , 29-H ) :  -0.1042 B( 28-C , 31-H ) :   0.9619 B( 28-C , 32-H ) :   0.9147
B( 28-C , 34-H ) :  -0.1136 B( 29-H , 30-H ) :   0.1750

FINAL SINGLE POINT ENERGY     -1042.103694975554

DIPOLE MOMENT
-------------
                                X             Y             Z
Electronic contribution:    -10.87284     -16.17626     -13.15580
Nuclear contribution   :      9.63012      17.20461      14.03552
                        -----------------------------------------
Total Dipole Moment    :     -1.24272       1.02834       0.87972
                        -----------------------------------------
Magnitude (a.u.)       :      1.83732
Magnitude (Debye)      :      4.67010

Rotational constants in cm-1:     0.025899     0.015189     0.010690
Rotational constants in MHz :   776.424978   455.369614   320.488876

                             ****ORCA TERMINATED NORMALLY****
TOTAL RUN TIME: 0 days 0 hours 12 minutes 17 seconds 218 msec
