                         Program Version 5.0.0 -  RELEASE  -
|  1> !CAM-B3LYP RIJCOSX def2-TZVPD def2/J TightSCF xyzfile
|  2>
|  3> *xyzfile 0 1 D2.xyz
|  4>
|  5> %MaxCore 64000
|  6>
|  7> %pal nprocs 4
|  8> end
|  9>
| 10> %scf
| 11>   MaxIter 150
| 12> end
| 13>
| 14>
| 15>                          ****END OF INPUT****

CARTESIAN COORDINATES (ANGSTROEM)
---------------------------------
  C     -2.160376   -1.369486   -3.467104
  C     -3.030108   -1.910857   -4.541074
  C     -2.047717    0.146583   -3.511774
  C     -7.330440   -2.678991   -3.206811
  S     -6.019659   -2.926965   -4.419128
  H     -3.477443   -2.791513   -4.257096
  H     -2.538013   -2.017860   -5.438075
  H     -3.891589   -1.376039   -4.714365
  O     -5.645830   -1.588384   -4.919307
  F     -4.881961   -3.503697   -3.667235
  H     -1.184438   -1.843997   -3.566393
  H     -2.598195   -1.708376   -2.528477
  O     -6.549267   -3.805150   -5.425071
  C     -3.328755    0.875037   -3.103669
  H     -1.740034    0.452343   -4.517126
  H     -1.232611    0.434938   -2.842208
  C     -3.628487    0.771601   -1.609363
  H     -4.175106    0.490791   -3.682203
  H     -3.237812    1.928663   -3.381480
  C     -4.975718    1.361432   -1.190644
  H     -2.830700    1.276234   -1.054766
  H     -3.594312   -0.275838   -1.294603
  C     -6.184720    0.784347   -1.926464
  H     -4.956292    2.445725   -1.342200
  H     -5.097256    1.205252   -0.114136
  C     -6.286921   -0.735882   -1.893531
  H     -6.163994    1.100199   -2.974250
  H     -7.094530    1.223459   -1.504509
  C     -7.468999   -1.246153   -2.713833
  H     -6.360641   -1.090347   -0.859176
  H     -5.369848   -1.171853   -2.295982
  H     -7.601914   -0.601349   -3.585329
  H     -8.389791   -1.173436   -2.126922
  H     -7.118254   -3.379818   -2.398055
  H     -8.241838   -3.004745   -3.706513

 Total Charge           Charge          ....    0
 Multiplicity           Mult            ....    1
 Number of Electrons    NEL             ....  122
 Basis Dimension        Dim             ....  725

ORBITAL ENERGIES
----------------

  NO   OCC          E(Eh)            E(eV)
   0   2.0000     -89.183757     -2426.8134
   1   2.0000     -24.866242      -676.6449
   2   2.0000     -19.221627      -523.0471
   3   2.0000     -19.208855      -522.6995
   4   2.0000     -10.309980      -280.5488
   5   2.0000     -10.270332      -279.4700
   6   2.0000     -10.252421      -278.9825
   7   2.0000     -10.242212      -278.7048
   8   2.0000     -10.237187      -278.5680
   9   2.0000     -10.231110      -278.4026
  10   2.0000     -10.225541      -278.2511
  11   2.0000     -10.222813      -278.1769
  12   2.0000     -10.216353      -278.0011
  13   2.0000     -10.168858      -276.7087
  14   2.0000      -8.228056      -223.8968
  15   2.0000      -6.195987      -168.6014
  16   2.0000      -6.189389      -168.4218
  17   2.0000      -6.189037      -168.4122
  18   2.0000      -1.448512       -39.4160
  19   2.0000      -1.200641       -32.6711
  20   2.0000      -1.104211       -30.0471
  21   2.0000      -0.927829       -25.2475
  22   2.0000      -0.898026       -24.4365
  23   2.0000      -0.870543       -23.6887
  24   2.0000      -0.843741       -22.9594
  25   2.0000      -0.802281       -21.8312
  26   2.0000      -0.787141       -21.4192
  27   2.0000      -0.747773       -20.3479
  28   2.0000      -0.713098       -19.4044
  29   2.0000      -0.698676       -19.0119
  30   2.0000      -0.659572       -17.9479
  31   2.0000      -0.654570       -17.8117
  32   2.0000      -0.648831       -17.6556
  33   2.0000      -0.633844       -17.2478
  34   2.0000      -0.619111       -16.8469
  35   2.0000      -0.576625       -15.6908
  36   2.0000      -0.558045       -15.1852
  37   2.0000      -0.548283       -14.9195
  38   2.0000      -0.542184       -14.7536
  39   2.0000      -0.534924       -14.5560
  40   2.0000      -0.515282       -14.0215
  41   2.0000      -0.502914       -13.6850
  42   2.0000      -0.500640       -13.6231
  43   2.0000      -0.496325       -13.5057
  44   2.0000      -0.475388       -12.9360
  45   2.0000      -0.468229       -12.7412
  46   2.0000      -0.457012       -12.4359
  47   2.0000      -0.449768       -12.2388
  48   2.0000      -0.440909       -11.9977
  49   2.0000      -0.431217       -11.7340
  50   2.0000      -0.424079       -11.5398
  51   2.0000      -0.411318       -11.1925
  52   2.0000      -0.404203       -10.9989
  53   2.0000      -0.400373       -10.8947
  54   2.0000      -0.394191       -10.7265
  55   2.0000      -0.391917       -10.6646
  56   2.0000      -0.382781       -10.4160
  57   2.0000      -0.377166       -10.2632
  58   2.0000      -0.365428        -9.9438
  59   2.0000      -0.363054        -9.8792
  60   2.0000      -0.350627        -9.5410
  61   0.0000       0.015267         0.4154
  62   0.0000       0.030949         0.8422
  63   0.0000       0.035491         0.9658
  64   0.0000       0.040773         1.1095
  65   0.0000       0.051987         1.4146

MULLIKEN ATOMIC CHARGES
-----------------------
   0 C :   -0.185980
   1 C :   -1.967803
   2 C :   -0.646810
   3 C :   -0.957908
   4 S :    1.293023
   5 H :    0.560536
   6 H :    0.467408
   7 H :    0.693832
   8 O :   -0.661719
   9 F :   -0.206451
  10 H :    0.260491
  11 H :    0.259770
  12 O :   -0.578451
  13 C :   -0.345825
  14 H :    0.302852
  15 H :    0.273332
  16 C :   -0.509545
  17 H :    0.181134
  18 H :    0.265521
  19 C :   -0.779102
  20 H :    0.329034
  21 H :    0.217919
  22 C :   -0.792686
  23 H :    0.282557
  24 H :    0.298080
  25 C :   -0.000403
  26 H :    0.363816
  27 H :    0.324231
  28 C :   -0.581074
  29 H :    0.325600
  30 H :    0.028856
  31 H :    0.339592
  32 H :    0.394380
  33 H :    0.414178
  34 H :    0.337615
Sum of atomic charges:    0.0000000

LOEWDIN ATOMIC CHARGES
----------------------
   0 C :   -0.242454
   1 C :   -0.129518
   2 C :   -0.208838
   3 C :   -0.210373
   4 S :    0.656315
   5 H :    0.019980
   6 H :    0.075682
   7 H :    0.005897
   8 O :   -0.296152
   9 F :   -0.105510
  10 H :    0.110071
  11 H :    0.099540
  12 O :   -0.256052
  13 C :   -0.206350
  14 H :    0.115601
  15 H :    0.107607
  16 C :   -0.219391
  17 H :    0.096509
  18 H :    0.117675
  19 C :   -0.210692
  20 H :    0.115767
  21 H :    0.097959
  22 C :   -0.214645
  23 H :    0.111664
  24 H :    0.109761
  25 C :   -0.215690
  26 H :    0.112582
  27 H :    0.117211
  28 C :   -0.229112
  29 H :    0.128087
  30 H :    0.089585
  31 H :    0.114854
  32 H :    0.124560
  33 H :    0.109089
  34 H :    0.108778

  Mayer bond orders larger than 0.100000
B(  0-C ,  1-C ) :   0.1919 B(  0-C ,  2-C ) :   0.7689 B(  0-C ,  7-H ) :  -0.1056
B(  0-C , 10-H ) :   0.9959 B(  0-C , 11-H ) :   0.9973 B(  1-C ,  2-C ) :   0.1178
B(  1-C ,  5-H ) :   0.7550 B(  1-C ,  6-H ) :   0.7550 B(  1-C ,  7-H ) :   0.6880
B(  1-C ,  8-O ) :   0.2305 B(  1-C ,  9-F ) :   0.1281 B(  2-C , 13-C ) :   0.8503
B(  2-C , 14-H ) :   0.9432 B(  2-C , 15-H ) :   0.9702 B(  2-C , 16-C ) :   0.1233
B(  3-C ,  4-S ) :   0.9645 B(  3-C , 12-O ) :   0.1453 B(  3-C , 25-C ) :   0.1084
B(  3-C , 28-C ) :   0.6145 B(  3-C , 33-H ) :   0.8225 B(  3-C , 34-H ) :   1.0300
B(  4-S ,  8-O ) :   1.6668 B(  4-S ,  9-F ) :   0.9170 B(  4-S , 12-O ) :   1.4665
B(  5-H ,  9-F ) :  -0.1186 B(  7-H ,  8-O ) :  -0.2733 B( 13-C , 16-C ) :   0.3465
B( 13-C , 17-H ) :   1.1230 B( 13-C , 18-H ) :   0.9398 B( 13-C , 21-H ) :  -0.1462
B( 13-C , 22-C ) :   0.1173 B( 16-C , 19-C ) :   0.8235 B( 16-C , 20-H ) :   0.9164
B( 16-C , 21-H ) :   1.1048 B( 16-C , 25-C ) :   0.1008 B( 19-C , 22-C ) :   0.8307
B( 19-C , 23-H ) :   1.0057 B( 19-C , 24-H ) :   0.9755 B( 22-C , 25-C ) :   0.4513
B( 22-C , 26-H ) :   0.9621 B( 22-C , 27-H ) :   0.9071 B( 22-C , 28-C ) :   0.3530
B( 25-C , 28-C ) :   0.4863 B( 25-C , 29-H ) :   0.8454 B( 25-C , 30-H ) :   1.2340
B( 28-C , 29-H ) :  -0.1066 B( 28-C , 31-H ) :   0.9049 B( 28-C , 32-H ) :   0.9065
B( 28-C , 34-H ) :  -0.1001 B( 29-H , 30-H ) :   0.1364

FINAL SINGLE POINT ENERGY     -1042.106984430522

DIPOLE MOMENT
-------------
                                X             Y             Z
Electronic contribution:     -9.53705     -19.50152     -11.06783
Nuclear contribution   :      8.71934      19.48829      12.54264
                        -----------------------------------------
Total Dipole Moment    :     -0.81771      -0.01323       1.47481
                        -----------------------------------------
Magnitude (a.u.)       :      1.68638
Magnitude (Debye)      :      4.28645

Rotational constants in cm-1:     0.025810     0.015137     0.010647
Rotational constants in MHz :   773.773140   453.802427   319.195213

                             ****ORCA TERMINATED NORMALLY****
TOTAL RUN TIME: 0 days 0 hours 12 minutes 13 seconds 795 msec
