                         Program Version 5.0.0 -  RELEASE  -
|  1> !CAM-B3LYP RIJCOSX def2-TZVPD def2/J TightSCF xyzfile
|  2>
|  3> *xyzfile 0 1 D3.xyz
|  4>
|  5> %MaxCore 64000
|  6>
|  7> %pal nprocs 4
|  8> end
|  9>
| 10> %scf
| 11>   MaxIter 150
| 12> end
| 13>
| 14>
| 15>                          ****END OF INPUT****

CARTESIAN COORDINATES (ANGSTROEM)
---------------------------------
  C     -2.160376   -1.369486   -3.467104
  C     -3.030108   -1.910857   -4.541074
  C     -2.047717    0.146583   -3.511774
  C     -7.330440   -2.678991   -3.206811
  S     -6.019659   -2.926965   -4.419128
  H     -3.477443   -2.791513   -4.257096
  H     -2.538013   -2.017860   -5.438075
  H     -3.891589   -1.376039   -4.714365
  O     -5.645830   -1.588384   -4.919307
  O     -4.881961   -3.503697   -3.667235
  H     -1.184438   -1.843997   -3.566393
  H     -2.598195   -1.708376   -2.528477
  F     -6.549267   -3.805150   -5.425071
  C     -3.328755    0.875037   -3.103669
  H     -1.740034    0.452343   -4.517126
  H     -1.232611    0.434938   -2.842208
  C     -3.628487    0.771601   -1.609363
  H     -4.175106    0.490791   -3.682203
  H     -3.237812    1.928663   -3.381480
  C     -4.975718    1.361432   -1.190644
  H     -2.830700    1.276234   -1.054766
  H     -3.594312   -0.275838   -1.294603
  C     -6.184720    0.784347   -1.926464
  H     -4.956292    2.445725   -1.342200
  H     -5.097256    1.205252   -0.114136
  C     -6.286921   -0.735882   -1.893531
  H     -6.163994    1.100199   -2.974250
  H     -7.094530    1.223459   -1.504509
  C     -7.468999   -1.246153   -2.713833
  H     -6.360641   -1.090347   -0.859176
  H     -5.369848   -1.171853   -2.295982
  H     -7.601914   -0.601349   -3.585329
  H     -8.389791   -1.173436   -2.126922
  H     -7.118254   -3.379818   -2.398055
  H     -8.241838   -3.004745   -3.706513

 Total Charge           Charge          ....    0
 Multiplicity           Mult            ....    1
 Number of Electrons    NEL             ....  122
 Basis Dimension        Dim             ....  725

ORBITAL ENERGIES
----------------

  NO   OCC          E(Eh)            E(eV)
   0   2.0000     -89.189961     -2426.9822
   1   2.0000     -24.891288      -677.3264
   2   2.0000     -19.213946      -522.8381
   3   2.0000     -19.210933      -522.7561
   4   2.0000     -10.311994      -280.6036
   5   2.0000     -10.270933      -279.4863
   6   2.0000     -10.244593      -278.7695
   7   2.0000     -10.236768      -278.5566
   8   2.0000     -10.230982      -278.3992
   9   2.0000     -10.222750      -278.1752
  10   2.0000     -10.216790      -278.0130
  11   2.0000     -10.211112      -277.8585
  12   2.0000     -10.199541      -277.5436
  13   2.0000     -10.143514      -276.0190
  14   2.0000      -8.234213      -224.0643
  15   2.0000      -6.202116      -168.7682
  16   2.0000      -6.195476      -168.5875
  17   2.0000      -6.195209      -168.5802
  18   2.0000      -1.482831       -40.3499
  19   2.0000      -1.192663       -32.4540
  20   2.0000      -1.093039       -29.7431
  21   2.0000      -0.926729       -25.2176
  22   2.0000      -0.891539       -24.2600
  23   2.0000      -0.861682       -23.4476
  24   2.0000      -0.840665       -22.8757
  25   2.0000      -0.805845       -21.9282
  26   2.0000      -0.780226       -21.2310
  27   2.0000      -0.743383       -20.2285
  28   2.0000      -0.707954       -19.2644
  29   2.0000      -0.687727       -18.7140
  30   2.0000      -0.678374       -18.4595
  31   2.0000      -0.669338       -18.2136
  32   2.0000      -0.642113       -17.4728
  33   2.0000      -0.635912       -17.3041
  34   2.0000      -0.608562       -16.5598
  35   2.0000      -0.573214       -15.5980
  36   2.0000      -0.561475       -15.2785
  37   2.0000      -0.544675       -14.8214
  38   2.0000      -0.540440       -14.7061
  39   2.0000      -0.530683       -14.4406
  40   2.0000      -0.516756       -14.0616
  41   2.0000      -0.500917       -13.6306
  42   2.0000      -0.489780       -13.3276
  43   2.0000      -0.485735       -13.2175
  44   2.0000      -0.473774       -12.8920
  45   2.0000      -0.455226       -12.3873
  46   2.0000      -0.451344       -12.2817
  47   2.0000      -0.444414       -12.0931
  48   2.0000      -0.431654       -11.7459
  49   2.0000      -0.420938       -11.4543
  50   2.0000      -0.414213       -11.2713
  51   2.0000      -0.404013       -10.9938
  52   2.0000      -0.400472       -10.8974
  53   2.0000      -0.396979       -10.8023
  54   2.0000      -0.388381       -10.5684
  55   2.0000      -0.378041       -10.2870
  56   2.0000      -0.371884       -10.1195
  57   2.0000      -0.367305        -9.9949
  58   2.0000      -0.352278        -9.5860
  59   2.0000      -0.343726        -9.3533
  60   2.0000      -0.329305        -8.9609
  61   0.0000       0.008914         0.2426
  62   0.0000       0.030559         0.8315
  63   0.0000       0.033988         0.9249
  64   0.0000       0.042525         1.1572
  65   0.0000       0.053184         1.4472

MULLIKEN ATOMIC CHARGES
-----------------------
   0 C :   -0.207292
   1 C :   -1.931332
   2 C :   -0.632815
   3 C :   -0.966850
   4 S :    1.260373
   5 H :    0.576010
   6 H :    0.468590
   7 H :    0.660908
   8 O :   -0.667092
   9 O :   -0.635408
  10 H :    0.264735
  11 H :    0.253482
  12 F :   -0.092703
  13 C :   -0.338807
  14 H :    0.296942
  15 H :    0.271229
  16 C :   -0.504414
  17 H :    0.162060
  18 H :    0.269209
  19 C :   -0.786256
  20 H :    0.329149
  21 H :    0.220510
  22 C :   -0.753829
  23 H :    0.280856
  24 H :    0.296963
  25 C :   -0.067896
  26 H :    0.359619
  27 H :    0.319894
  28 C :   -0.629081
  29 H :    0.316332
  30 H :    0.119258
  31 H :    0.320930
  32 H :    0.383856
  33 H :    0.364686
  34 H :    0.418183
Sum of atomic charges:   -0.0000000

LOEWDIN ATOMIC CHARGES
----------------------
   0 C :   -0.241902
   1 C :   -0.140249
   2 C :   -0.211874
   3 C :   -0.214557
   4 S :    0.677320
   5 H :    0.000166
   6 H :    0.070932
   7 H :    0.005974
   8 O :   -0.295030
   9 O :   -0.300846
  10 H :    0.108882
  11 H :    0.101369
  12 F :   -0.034873
  13 C :   -0.207569
  14 H :    0.113700
  15 H :    0.105903
  16 C :   -0.218820
  17 H :    0.095831
  18 H :    0.116132
  19 C :   -0.211451
  20 H :    0.115194
  21 H :    0.099804
  22 C :   -0.216397
  23 H :    0.110801
  24 H :    0.109307
  25 C :   -0.211585
  26 H :    0.111527
  27 H :    0.115591
  28 C :   -0.226661
  29 H :    0.129023
  30 H :    0.094222
  31 H :    0.112902
  32 H :    0.124645
  33 H :    0.112362
  34 H :    0.100225

  Mayer bond orders larger than 0.100000
B(  0-C ,  1-C ) :   0.2412 B(  0-C ,  2-C ) :   0.7420 B(  0-C , 10-H ) :   0.9785
B(  0-C , 11-H ) :   1.0042 B(  1-C ,  2-C ) :   0.1029 B(  1-C ,  5-H ) :   0.7930
B(  1-C ,  6-H ) :   0.7691 B(  1-C ,  7-H ) :   0.7479 B(  1-C ,  8-O ) :   0.1979
B(  2-C , 13-C ) :   0.8511 B(  2-C , 14-H ) :   0.9503 B(  2-C , 15-H ) :   0.9675
B(  2-C , 16-C ) :   0.1237 B(  3-C ,  4-S ) :   0.9318 B(  3-C ,  9-O ) :   0.1135
B(  3-C , 28-C ) :   0.7056 B(  3-C , 33-H ) :   0.8944 B(  3-C , 34-H ) :   0.8989
B(  4-S ,  8-O ) :   1.6898 B(  4-S ,  9-O ) :   1.6312 B(  4-S , 12-F ) :   0.8740
B(  5-H ,  6-H ) :   0.1002 B(  5-H ,  9-O ) :  -0.1974 B(  7-H ,  8-O ) :  -0.3172
B(  8-O ,  9-O ) :   0.1505 B( 13-C , 16-C ) :   0.3572 B( 13-C , 17-H ) :   1.1340
B( 13-C , 18-H ) :   0.9324 B( 13-C , 21-H ) :  -0.1413 B( 13-C , 22-C ) :   0.1187
B( 16-C , 19-C ) :   0.8182 B( 16-C , 20-H ) :   0.9144 B( 16-C , 21-H ) :   1.1053
B( 19-C , 22-C ) :   0.8367 B( 19-C , 23-H ) :   1.0095 B( 19-C , 24-H ) :   0.9749
B( 22-C , 25-C ) :   0.4116 B( 22-C , 26-H ) :   0.9716 B( 22-C , 27-H ) :   0.9080
B( 22-C , 28-C ) :   0.3486 B( 25-C , 26-H ) :  -0.1028 B( 25-C , 28-C ) :   0.4961
B( 25-C , 29-H ) :   0.8389 B( 25-C , 30-H ) :   1.2448 B( 28-C , 29-H ) :  -0.1113
B( 28-C , 31-H ) :   0.9074 B( 28-C , 32-H ) :   0.9112 B( 29-H , 30-H ) :   0.1608

FINAL SINGLE POINT ENERGY     -1042.088211249312

DIPOLE MOMENT
-------------
                                X             Y             Z
Electronic contribution:    -12.67887     -20.28018     -14.29473
Nuclear contribution   :     10.70731      19.84772      14.63855
                        -----------------------------------------
Total Dipole Moment    :     -1.97155      -0.43246       0.34382
                        -----------------------------------------
Magnitude (a.u.)       :      2.04750
Magnitude (Debye)      :      5.20434

Rotational constants in cm-1:     0.026014     0.014812     0.010477
Rotational constants in MHz :   779.874765   444.063394   314.081855

                             ****ORCA TERMINATED NORMALLY****
TOTAL RUN TIME: 0 days 0 hours 11 minutes 26 seconds 536 msec
