                         Program Version 5.0.0 -  RELEASE  -
|  1> !DLPNO-CCSD(T) aug-cc-pVTZ aug-cc-pVTZ/C TightSCF TightPNO RIJCOSX def2/J
|  2> *xyz -1 1
|  3> C          1.36401        0.46874       -2.81376
|  4> C          0.96805        1.63064       -3.71575
|  5> C         -0.50835        1.72268       -4.12430
|  6> S         -1.32861        0.14674       -4.43578
|  7> H         -0.59151        2.29496       -5.04722
|  8> H         -1.11411        2.23561       -3.37436
|  9> O         -2.57135        0.47573       -5.06834
| 10> O         -1.51496       -0.40051       -3.06342
| 11> H          1.57869        1.52065       -4.61273
| 12> H          1.26665        2.57599       -3.25045
| 13> O         -0.37793       -0.62756       -5.20114
| 14> H          1.07115       -0.45339       -3.27071
| 15> H          0.87480        0.56905       -1.86745
| 16> H          2.42423        0.47442       -2.66954
| 17> *
| 18> %MaxCore 64000
| 19>
| 20> %pal nprocs 2
| 21> end
| 22>
| 23> %scf
| 24>   MaxIter 150
| 25> end
| 26>
| 27>
| 28>                          ****END OF INPUT****

CARTESIAN COORDINATES (ANGSTROEM)
---------------------------------
  C      1.364010    0.468740   -2.813760
  C      0.968050    1.630640   -3.715750
  C     -0.508350    1.722680   -4.124300
  S     -1.328610    0.146740   -4.435780
  H     -0.591510    2.294960   -5.047220
  H     -1.114110    2.235610   -3.374360
  O     -2.571350    0.475730   -5.068340
  O     -1.514960   -0.400510   -3.063420
  H      1.578690    1.520650   -4.612730
  H      1.266650    2.575990   -3.250450
  O     -0.377930   -0.627560   -5.201140
  H      1.071150   -0.453390   -3.270710
  H      0.874800    0.569050   -1.867450
  H      2.424230    0.474420   -2.669540

 Total Charge           Charge          ....   -1
 Multiplicity           Mult            ....    1
 Number of Electrons    NEL             ....   66
 Basis Dimension        Dim             ....  487

ORBITAL ENERGIES
----------------

  NO   OCC          E(Eh)            E(eV)
   0   2.0000     -91.985035     -2503.0401
   1   2.0000     -20.339217      -553.4582
   2   2.0000     -20.336559      -553.3859
   3   2.0000     -20.319165      -552.9126
   4   2.0000     -11.093445      -301.8680
   5   2.0000     -11.090254      -301.7811
   6   2.0000     -11.063247      -301.0463
   7   2.0000      -8.948521      -243.5016
   8   2.0000      -6.634721      -180.5399
   9   2.0000      -6.633418      -180.5045
  10   2.0000      -6.633285      -180.5009
  11   2.0000      -1.279136       -34.8071
  12   2.0000      -1.140827       -31.0435
  13   2.0000      -1.106579       -30.1115
  14   2.0000      -0.927679       -25.2434
  15   2.0000      -0.815269       -22.1846
  16   2.0000      -0.690680       -18.7943
  17   2.0000      -0.593551       -16.1513
  18   2.0000      -0.509393       -13.8613
  19   2.0000      -0.488947       -13.3049
  20   2.0000      -0.472481       -12.8569
  21   2.0000      -0.460414       -12.5285
  22   2.0000      -0.442352       -12.0370
  23   2.0000      -0.410752       -11.1771
  24   2.0000      -0.373013       -10.1502
  25   2.0000      -0.358796        -9.7633
  26   2.0000      -0.339953        -9.2506
  27   2.0000      -0.326857        -8.8942
  28   2.0000      -0.319632        -8.6976
  29   2.0000      -0.285916        -7.7802
  30   2.0000      -0.268179        -7.2975
  31   2.0000      -0.244448        -6.6518
  32   2.0000      -0.234421        -6.3789
  33   0.0000       0.111007         3.0207
  34   0.0000       0.121291         3.3005
  35   0.0000       0.129476         3.5232
  36   0.0000       0.140651         3.8273
  37   0.0000       0.147141         4.0039

MULLIKEN ATOMIC CHARGES
-----------------------
   0 C :   -0.984891
   1 C :   -0.438183
   2 C :   -0.571115
   3 S :    2.273933
   4 H :    0.206039
   5 H :    0.248502
   6 O :   -1.058827
   7 O :   -1.065547
   8 H :    0.246820
   9 H :    0.280491
  10 O :   -1.078392
  11 H :    0.413714
  12 H :    0.281726
  13 H :    0.245728
Sum of atomic charges:   -1.0000000

LOEWDIN ATOMIC CHARGES
----------------------
   0 C :    0.544286
   1 C :    0.208838
   2 C :    0.145162
   3 S :   -0.386712
   4 H :   -0.216054
   5 H :   -0.205889
   6 O :   -0.041228
   7 O :   -0.053026
   8 H :   -0.172108
   9 H :   -0.163987
  10 O :   -0.019129
  11 H :   -0.249355
  12 H :   -0.193381
  13 H :   -0.197415

  Mayer bond orders larger than 0.100000
B(  0-C ,  1-C ) :   0.8008 B(  0-C , 11-H ) :   0.8672 B(  0-C , 12-H ) :   0.9517
B(  0-C , 13-H ) :   1.0201 B(  1-C ,  2-C ) :   0.8976 B(  1-C ,  8-H ) :   0.9618
B(  1-C ,  9-H ) :   0.9432 B(  2-C ,  3-S ) :   0.7573 B(  2-C ,  4-H ) :   0.9795
B(  2-C ,  5-H ) :   0.9560 B(  3-S ,  6-O ) :   1.2275 B(  3-S ,  7-O ) :   1.3299
B(  3-S , 10-O ) :   1.3585

E(0)                                       ...   -739.966586213
E(0)                                       ...   -739.966586213
E(CORR)(strong-pairs)                      ...     -1.491227978
E(CORR)(weak-pairs)                        ...     -0.001596761
E(CORR)(corrected)                         ...     -1.492824738
E(TOT)                                     ...   -741.459410951
E(CCSD(T))                                 ...   -741.522895802
FINAL SINGLE POINT ENERGY      -741.522895802118

DIPOLE MOMENT
-------------
                                X             Y             Z
Electronic contribution:     -8.24088      -4.32937      -4.05569
Nuclear contribution   :      9.76868       5.90538       4.47074
                        -----------------------------------------
Total Dipole Moment    :      1.52781       1.57601       0.41505
                        -----------------------------------------
Magnitude (a.u.)       :      2.23389
Magnitude (Debye)      :      5.67809

Rotational constants in cm-1:     0.135183     0.058485     0.054837
Rotational constants in MHz :  4052.676901  1753.343161  1643.972690

                             ****ORCA TERMINATED NORMALLY****
TOTAL RUN TIME: 0 days 1 hours 27 minutes 38 seconds 365 msec
