                         Program Version 5.0.0 -  RELEASE  -
|  1> !DLPNO-CCSD(T) aug-cc-pVTZ aug-cc-pVTZ/C TightSCF TightPNO RIJCOSX def2/J
|  2> *xyz 1 1
|  3> C          1.36401        0.46874       -2.81376
|  4> N          0.42884        0.32140       -1.65531
|  5> C          0.96805        1.63064       -3.71575
|  6> C         -0.50835        1.72268       -4.12430
|  7> H          0.74858       -0.40054       -1.00134
|  8> H         -0.46105        0.02333       -2.07773
|  9> H          0.31026        1.20137       -1.13495
| 10> H          1.29485       -0.46874       -3.36468
| 11> H          2.37622        0.59740       -2.43149
| 12> H          1.57869        1.52065       -4.61273
| 13> H          1.26665        2.57599       -3.25045
| 14> H         -0.65192        2.57663       -4.75283
| 15> H         -1.11549        1.81835       -3.24844
| 16> H         -0.78702        0.83723       -4.65648
| 17> *
| 18> %MaxCore 64000
| 19>
| 20> %pal nprocs 8
| 21> end
| 22>
| 23> %scf
| 24>   MaxIter 150
| 25> end
| 26>
| 27>
| 28>                          ****END OF INPUT****

CARTESIAN COORDINATES (ANGSTROEM)
---------------------------------
  C      1.364010    0.468740   -2.813760
  N      0.428840    0.321400   -1.655310
  C      0.968050    1.630640   -3.715750
  C     -0.508350    1.722680   -4.124300
  H      0.748580   -0.400540   -1.001340
  H     -0.461050    0.023330   -2.077730
  H      0.310260    1.201370   -1.134950
  H      1.294850   -0.468740   -3.364680
  H      2.376220    0.597400   -2.431490
  H      1.578690    1.520650   -4.612730
  H      1.266650    2.575990   -3.250450
  H     -0.651920    2.576630   -4.752830
  H     -1.115490    1.818350   -3.248440
  H     -0.787020    0.837230   -4.656480

 Total Charge           Charge          ....    1
 Multiplicity           Mult            ....    1
 Number of Electrons    NEL             ....   34
 Basis Dimension        Dim             ....  414

ORBITAL ENERGIES
----------------

  NO   OCC          E(Eh)            E(eV)
   0   2.0000     -15.894769      -432.5187
   1   2.0000     -11.475475      -312.2635
   2   2.0000     -11.400431      -310.2215
   3   2.0000     -11.371752      -309.4411
   4   2.0000      -1.513798       -41.1925
   5   2.0000      -1.239861       -33.7383
   6   2.0000      -1.127892       -30.6915
   7   2.0000      -1.004038       -27.3213
   8   2.0000      -0.975591       -26.5472
   9   2.0000      -0.960660       -26.1409
  10   2.0000      -0.847621       -23.0650
  11   2.0000      -0.800768       -21.7900
  12   2.0000      -0.765861       -20.8401
  13   2.0000      -0.741837       -20.1864
  14   2.0000      -0.673631       -18.3304
  15   2.0000      -0.665605       -18.1120
  16   2.0000      -0.654139       -17.8000
  17   0.0000      -0.114327        -3.1110
  18   0.0000      -0.080977        -2.2035
  19   0.0000      -0.078422        -2.1340
  20   0.0000      -0.069263        -1.8847
  21   0.0000      -0.046602        -1.2681

MULLIKEN ATOMIC CHARGES
-----------------------
   0 C :   -0.322652
   1 N :    0.122721
   2 C :   -0.516407
   3 C :   -0.858052
   4 H :    0.075734
   5 H :    0.187183
   6 H :    0.139319
   7 H :    0.329856
   8 H :    0.342967
   9 H :    0.336742
  10 H :    0.283636
  11 H :    0.296061
  12 H :    0.278360
  13 H :    0.304532
Sum of atomic charges:    1.0000000

LOEWDIN ATOMIC CHARGES
----------------------
   0 C :    0.340942
   1 N :    1.099210
   2 C :    0.319345
   3 C :    0.633853
   4 H :   -0.122743
   5 H :   -0.156744
   6 H :   -0.118698
   7 H :   -0.110671
   8 H :   -0.106652
   9 H :   -0.131157
  10 H :   -0.132659
  11 H :   -0.155534
  12 H :   -0.189928
  13 H :   -0.168563

  Mayer bond orders larger than 0.100000
B(  0-C ,  1-N ) :   0.7686 B(  0-C ,  2-C ) :   0.9026 B(  0-C ,  7-H ) :   0.9039
B(  0-C ,  8-H ) :   0.9004 B(  1-N ,  4-H ) :   1.0811 B(  1-N ,  5-H ) :   0.9592
B(  1-N ,  6-H ) :   0.9918 B(  2-C ,  3-C ) :   0.8173 B(  2-C ,  9-H ) :   0.9061
B(  2-C , 10-H ) :   0.9405 B(  3-C , 11-H ) :   0.9808 B(  3-C , 12-H ) :   0.9285
B(  3-C , 13-H ) :   0.9158

E(0)                                       ...   -173.719347681
E(0)                                       ...   -173.719347681
E(CORR)(strong-pairs)                      ...     -0.803029316
E(CORR)(weak-pairs)                        ...     -0.000704123
E(CORR)(corrected)                         ...     -0.803733440
E(TOT)                                     ...   -174.523081120
E(CCSD(T))                                 ...   -174.551650771
FINAL SINGLE POINT ENERGY      -174.551650771163

DIPOLE MOMENT
-------------
                                X             Y             Z
Electronic contribution:      0.77303      -1.09850       1.97184
Nuclear contribution   :     -0.79558       0.15863      -0.24664
                        -----------------------------------------
Total Dipole Moment    :     -0.02255      -0.93987       1.72520
                        -----------------------------------------
Magnitude (a.u.)       :      1.96473
Magnitude (Debye)      :      4.99394

Rotational constants in cm-1:     0.425244     0.165801     0.135024
Rotational constants in MHz : 12748.492920  4970.589839  4047.903558

                             ****ORCA TERMINATED NORMALLY****
TOTAL RUN TIME: 0 days 0 hours 6 minutes 21 seconds 550 msec
