                         Program Version 5.0.0 -  RELEASE  -
|  1> !DLPNO-CCSD(T) aug-cc-pVTZ aug-cc-pVTZ/C TightSCF TightPNO RIJCOSX def2/J
|  2> *xyz 0 1
|  3> C          1.36401        0.46874       -2.81376
|  4> C          0.96805        1.63064       -3.71575
|  5> C         -0.50835        1.72268       -4.12430
|  6> S         -1.32861        0.14674       -4.43578
|  7> H         -0.59151        2.29496       -5.04722
|  8> H         -1.11411        2.23561       -3.37436
|  9> F         -2.57135        0.47573       -5.06834
| 10> O         -1.51496       -0.40051       -3.06342
| 11> H          1.57869        1.52065       -4.61273
| 12> H          1.26665        2.57599       -3.25045
| 13> O         -0.37793       -0.62756       -5.20114
| 14> H          1.07115       -0.45339       -3.27071
| 15> H          0.87480        0.56905       -1.86745
| 16> H          2.42423        0.47442       -2.66954
| 17> *
| 18> %MaxCore 64000
| 19>
| 20> %pal nprocs 2
| 21> end
| 22>
| 23> %scf
| 24>   MaxIter 150
| 25> end
| 26>
| 27>
| 28>                          ****END OF INPUT****

CARTESIAN COORDINATES (ANGSTROEM)
---------------------------------
  C      1.364010    0.468740   -2.813760
  C      0.968050    1.630640   -3.715750
  C     -0.508350    1.722680   -4.124300
  S     -1.328610    0.146740   -4.435780
  H     -0.591510    2.294960   -5.047220
  H     -1.114110    2.235610   -3.374360
  F     -2.571350    0.475730   -5.068340
  O     -1.514960   -0.400510   -3.063420
  H      1.578690    1.520650   -4.612730
  H      1.266650    2.575990   -3.250450
  O     -0.377930   -0.627560   -5.201140
  H      1.071150   -0.453390   -3.270710
  H      0.874800    0.569050   -1.867450
  H      2.424230    0.474420   -2.669540

 Total Charge           Charge          ....    0
 Multiplicity           Mult            ....    1
 Number of Electrons    NEL             ....   66
 Basis Dimension        Dim             ....  487

ORBITAL ENERGIES
----------------

  NO   OCC          E(Eh)            E(eV)
   0   2.0000     -92.251473     -2510.2902
   1   2.0000     -26.440301      -719.4772
   2   2.0000     -20.570730      -559.7580
   3   2.0000     -20.553425      -559.2871
   4   2.0000     -11.291185      -307.2488
   5   2.0000     -11.251284      -306.1630
   6   2.0000     -11.205387      -304.9141
   7   2.0000      -9.215188      -250.7580
   8   2.0000      -6.902552      -187.8280
   9   2.0000      -6.898892      -187.7284
  10   2.0000      -6.897963      -187.7031
  11   2.0000      -1.812337       -49.3162
  12   2.0000      -1.452002       -39.5110
  13   2.0000      -1.338813       -36.4310
  14   2.0000      -1.103358       -30.0239
  15   2.0000      -1.017584       -27.6899
  16   2.0000      -0.956202       -26.0196
  17   2.0000      -0.864948       -23.5364
  18   2.0000      -0.837955       -22.8019
  19   2.0000      -0.813344       -22.1322
  20   2.0000      -0.760334       -20.6897
  21   2.0000      -0.672510       -18.2999
  22   2.0000      -0.660145       -17.9635
  23   2.0000      -0.628683       -17.1073
  24   2.0000      -0.624106       -16.9828
  25   2.0000      -0.580459       -15.7951
  26   2.0000      -0.554903       -15.0997
  27   2.0000      -0.520580       -14.1657
  28   2.0000      -0.515003       -14.0140
  29   2.0000      -0.503672       -13.7056
  30   2.0000      -0.486760       -13.2454
  31   2.0000      -0.474116       -12.9014
  32   2.0000      -0.464189       -12.6312
  33   0.0000       0.023786         0.6473
  34   0.0000       0.035950         0.9783
  35   0.0000       0.038969         1.0604
  36   0.0000       0.046320         1.2604
  37   0.0000       0.058590         1.5943

MULLIKEN ATOMIC CHARGES
-----------------------
   0 C :   -0.964230
   1 C :   -0.420619
   2 C :   -0.512858
   3 S :    2.144605
   4 H :    0.256638
   5 H :    0.291307
   6 F :   -0.486701
   7 O :   -0.909984
   8 H :    0.264362
   9 H :    0.304536
  10 O :   -0.928100
  11 H :    0.401212
  12 H :    0.293800
  13 H :    0.266031
Sum of atomic charges:   -0.0000000

LOEWDIN ATOMIC CHARGES
----------------------
   0 C :    0.569084
   1 C :    0.245364
   2 C :    0.197165
   3 S :   -0.099808
   4 H :   -0.201002
   5 H :   -0.190509
   6 F :    0.298236
   7 O :    0.027369
   8 H :   -0.158976
   9 H :   -0.140871
  10 O :    0.056719
  11 H :   -0.242166
  12 H :   -0.183756
  13 H :   -0.176847

  Mayer bond orders larger than 0.100000
B(  0-C ,  1-C ) :   0.8132 B(  0-C , 11-H ) :   0.8817 B(  0-C , 12-H ) :   0.9405
B(  0-C , 13-H ) :   1.0056 B(  1-C ,  2-C ) :   0.9095 B(  1-C ,  3-S ) :   0.1026
B(  1-C ,  8-H ) :   0.9482 B(  1-C ,  9-H ) :   0.9185 B(  2-C ,  3-S ) :   0.8369
B(  2-C ,  4-H ) :   0.9318 B(  2-C ,  5-H ) :   0.9222 B(  3-S ,  6-F ) :   0.4736
B(  3-S ,  7-O ) :   1.5529 B(  3-S , 10-O ) :   1.5760

E(0)                                       ...   -764.457708172
E(0)                                       ...   -764.457708172
E(CORR)(strong-pairs)                      ...     -1.496561654
E(CORR)(weak-pairs)                        ...     -0.001629938
E(CORR)(corrected)                         ...     -1.498191592
E(TOT)                                     ...   -765.955899763
E(CCSD(T))                                 ...   -766.017063059
FINAL SINGLE POINT ENERGY      -766.017063059141

DIPOLE MOMENT
-------------
                                X             Y             Z
Electronic contribution:    -11.80510      -4.17185      -5.86047
Nuclear contribution   :     11.77809       5.83971       5.48704
                        -----------------------------------------
Total Dipole Moment    :     -0.02701       1.66786      -0.37343
                        -----------------------------------------
Magnitude (a.u.)       :      1.70937
Magnitude (Debye)      :      4.34487

Rotational constants in cm-1:     0.133968     0.056186     0.052650
Rotational constants in MHz :  4016.256208  1684.422248  1578.415210

                             ****ORCA TERMINATED NORMALLY****
TOTAL RUN TIME: 0 days 1 hours 22 minutes 56 seconds 40 msec
