                         Program Version 5.0.0 -  RELEASE  -
|  1> !DLPNO-CCSD(T) aug-cc-pVTZ aug-cc-pVTZ/C TightSCF TightPNO RIJCOSX def2/J
|  2> *xyz 0 1
|  3> C          1.36401        0.46874       -2.81376
|  4> C          0.42884        0.32140       -1.65531
|  5> C          0.96805        1.63064       -3.71575
|  6> C         -0.50835        1.72268       -4.12430
|  7> H          0.74858       -0.40054       -1.00134
|  8> H         -0.46105        0.02333       -2.07773
|  9> H          0.31026        1.20137       -1.13495
| 10> H          1.29485       -0.46874       -3.36468
| 11> H          2.37622        0.59740       -2.43149
| 12> H          1.57869        1.52065       -4.61273
| 13> H          1.26665        2.57599       -3.25045
| 14> H         -0.65192        2.57663       -4.75283
| 15> H         -1.11549        1.81835       -3.24844
| 16> H         -0.78702        0.83723       -4.65648
| 17> *
| 18> %MaxCore 64000
| 19>
| 20> %pal nprocs 8
| 21> end
| 22>
| 23> %scf
| 24>   MaxIter 150
| 25> end
| 26>
| 27>
| 28>                          ****END OF INPUT****

CARTESIAN COORDINATES (ANGSTROEM)
---------------------------------
  C      1.364010    0.468740   -2.813760
  C      0.428840    0.321400   -1.655310
  C      0.968050    1.630640   -3.715750
  C     -0.508350    1.722680   -4.124300
  H      0.748580   -0.400540   -1.001340
  H     -0.461050    0.023330   -2.077730
  H      0.310260    1.201370   -1.134950
  H      1.294850   -0.468740   -3.364680
  H      2.376220    0.597400   -2.431490
  H      1.578690    1.520650   -4.612730
  H      1.266650    2.575990   -3.250450
  H     -0.651920    2.576630   -4.752830
  H     -1.115490    1.818350   -3.248440
  H     -0.787020    0.837230   -4.656480

 Total Charge           Charge          ....    0
 Multiplicity           Mult            ....    1
 Number of Electrons    NEL             ....   34
 Basis Dimension        Dim             ....  414

ORBITAL ENERGIES
----------------

  NO   OCC          E(Eh)            E(eV)
   0   2.0000     -11.210779      -305.0608
   1   2.0000     -11.206621      -304.9477
   2   2.0000     -11.201594      -304.8109
   3   2.0000     -11.178070      -304.1707
   4   2.0000      -1.079215       -29.3669
   5   2.0000      -0.986254       -26.8373
   6   2.0000      -0.883671       -24.0459
   7   2.0000      -0.772768       -21.0281
   8   2.0000      -0.639457       -17.4005
   9   2.0000      -0.628619       -17.1056
  10   2.0000      -0.585340       -15.9279
  11   2.0000      -0.543006       -14.7759
  12   2.0000      -0.531236       -14.4557
  13   2.0000      -0.513952       -13.9853
  14   2.0000      -0.463240       -12.6054
  15   2.0000      -0.458969       -12.4892
  16   2.0000      -0.450163       -12.2496
  17   0.0000       0.032592         0.8869
  18   0.0000       0.038560         1.0493
  19   0.0000       0.040422         1.0999
  20   0.0000       0.040944         1.1142
  21   0.0000       0.058123         1.5816

MULLIKEN ATOMIC CHARGES
-----------------------
   0 C :   -0.395374
   1 C :   -0.994960
   2 C :   -0.475506
   3 C :   -0.899551
   4 H :    0.302739
   5 H :    0.324574
   6 H :    0.296471
   7 H :    0.213662
   8 H :    0.250719
   9 H :    0.284019
  10 H :    0.244775
  11 H :    0.276998
  12 H :    0.283546
  13 H :    0.287888
Sum of atomic charges:   -0.0000000

LOEWDIN ATOMIC CHARGES
----------------------
   0 C :    0.271593
   1 C :    0.607416
   2 C :    0.274273
   3 C :    0.603543
   4 H :   -0.202579
   5 H :   -0.224223
   6 H :   -0.193039
   7 H :   -0.141925
   8 H :   -0.139622
   9 H :   -0.157530
  10 H :   -0.143809
  11 H :   -0.181237
  12 H :   -0.195858
  13 H :   -0.177002

  Mayer bond orders larger than 0.100000
B(  0-C ,  1-C ) :   0.7544 B(  0-C ,  2-C ) :   0.8563 B(  0-C ,  7-H ) :   1.0051
B(  0-C ,  8-H ) :   0.9727 B(  1-C ,  4-H ) :   0.9695 B(  1-C ,  5-H ) :   0.9355
B(  1-C ,  6-H ) :   0.9427 B(  2-C ,  3-C ) :   0.7936 B(  2-C ,  9-H ) :   0.9573
B(  2-C , 10-H ) :   0.9673 B(  3-C , 11-H ) :   0.9875 B(  3-C , 12-H ) :   0.9431
B(  3-C , 13-H ) :   0.9351

E(0)                                       ...   -157.341430548
E(0)                                       ...   -157.341430548
E(CORR)(strong-pairs)                      ...     -0.778022843
E(CORR)(weak-pairs)                        ...     -0.000705790
E(CORR)(corrected)                         ...     -0.778728634
E(TOT)                                     ...   -158.120159181
E(CCSD(T))                                 ...   -158.148357333
FINAL SINGLE POINT ENERGY      -158.148357333203

DIPOLE MOMENT
-------------
                                X             Y             Z
Electronic contribution:      0.83546       0.05420      -0.18144
Nuclear contribution   :     -0.83100      -0.05970       0.18742
                        -----------------------------------------
Total Dipole Moment    :      0.00446      -0.00550       0.00597
                        -----------------------------------------
Magnitude (a.u.)       :      0.00926
Magnitude (Debye)      :      0.02354

Rotational constants in cm-1:     0.433656     0.172838     0.140497
Rotational constants in MHz : 13000.688694  5181.547473  4211.992439

                             ****ORCA TERMINATED NORMALLY****
TOTAL RUN TIME: 0 days 0 hours 6 minutes 46 seconds 11 msec
