                         Program Version 5.0.0 -  RELEASE  -
|  1> !DLPNO-CCSD(T) aug-cc-pVTZ aug-cc-pVTZ/C TightSCF TightPNO RIJCOSX def2/J
|  2> *xyz 0 1
|  3> C          1.36401        0.46874       -2.81376
|  4> C          0.96805        1.63064       -3.71575
|  5> C         -0.50835        1.72268       -4.12430
|  6> S         -1.32861        0.14674       -4.43578
|  7> H         -0.59151        2.29496       -5.04722
|  8> H         -1.11411        2.23561       -3.37436
|  9> O         -2.57135        0.47573       -5.06834
| 10> F         -1.51496       -0.40051       -3.06342
| 11> H          1.57869        1.52065       -4.61273
| 12> H          1.26665        2.57599       -3.25045
| 13> O         -0.37793       -0.62756       -5.20114
| 14> H          1.07115       -0.45339       -3.27071
| 15> H          0.87480        0.56905       -1.86745
| 16> H          2.42423        0.47442       -2.66954
| 17> *
| 18> %MaxCore 64000
| 19>
| 20> %pal nprocs 2
| 21> end
| 22>
| 23> %scf
| 24>   MaxIter 150
| 25> end
| 26>
| 27>
| 28>                          ****END OF INPUT****

CARTESIAN COORDINATES (ANGSTROEM)
---------------------------------
  C      1.364010    0.468740   -2.813760
  C      0.968050    1.630640   -3.715750
  C     -0.508350    1.722680   -4.124300
  S     -1.328610    0.146740   -4.435780
  H     -0.591510    2.294960   -5.047220
  H     -1.114110    2.235610   -3.374360
  O     -2.571350    0.475730   -5.068340
  F     -1.514960   -0.400510   -3.063420
  H      1.578690    1.520650   -4.612730
  H      1.266650    2.575990   -3.250450
  O     -0.377930   -0.627560   -5.201140
  H      1.071150   -0.453390   -3.270710
  H      0.874800    0.569050   -1.867450
  H      2.424230    0.474420   -2.669540

 Total Charge           Charge          ....    0
 Multiplicity           Mult            ....    1
 Number of Electrons    NEL             ....   66
 Basis Dimension        Dim             ....  487

ORBITAL ENERGIES
----------------

  NO   OCC          E(Eh)            E(eV)
   0   2.0000     -92.249440     -2510.2349
   1   2.0000     -26.408947      -718.6240
   2   2.0000     -20.573207      -559.8254
   3   2.0000     -20.568910      -559.7085
   4   2.0000     -11.290284      -307.2242
   5   2.0000     -11.253725      -306.2294
   6   2.0000     -11.221911      -305.3637
   7   2.0000      -9.212715      -250.6907
   8   2.0000      -6.900427      -187.7702
   9   2.0000      -6.896437      -187.6616
  10   2.0000      -6.895449      -187.6347
  11   2.0000      -1.760752       -47.9125
  12   2.0000      -1.469089       -39.9759
  13   2.0000      -1.367717       -37.2175
  14   2.0000      -1.108875       -30.1740
  15   2.0000      -1.009151       -27.4604
  16   2.0000      -0.940818       -25.6009
  17   2.0000      -0.859251       -23.3814
  18   2.0000      -0.802064       -21.8253
  19   2.0000      -0.794260       -21.6129
  20   2.0000      -0.757588       -20.6150
  21   2.0000      -0.683479       -18.5984
  22   2.0000      -0.652816       -17.7640
  23   2.0000      -0.646094       -17.5811
  24   2.0000      -0.627458       -17.0740
  25   2.0000      -0.597723       -16.2649
  26   2.0000      -0.567260       -15.4359
  27   2.0000      -0.538383       -14.6502
  28   2.0000      -0.528670       -14.3859
  29   2.0000      -0.506832       -13.7916
  30   2.0000      -0.501611       -13.6495
  31   2.0000      -0.489388       -13.3169
  32   2.0000      -0.473482       -12.8841
  33   0.0000       0.023949         0.6517
  34   0.0000       0.035762         0.9731
  35   0.0000       0.036146         0.9836
  36   0.0000       0.044980         1.2240
  37   0.0000       0.057124         1.5544

MULLIKEN ATOMIC CHARGES
-----------------------
   0 C :   -0.966865
   1 C :   -0.439181
   2 C :   -0.537720
   3 S :    2.279272
   4 H :    0.271536
   5 H :    0.272662
   6 O :   -0.922450
   7 F :   -0.538354
   8 H :    0.267597
   9 H :    0.308397
  10 O :   -0.930080
  11 H :    0.382894
  12 H :    0.292268
  13 H :    0.260025
Sum of atomic charges:    0.0000000

LOEWDIN ATOMIC CHARGES
----------------------
   0 C :    0.572116
   1 C :    0.237633
   2 C :    0.202259
   3 S :   -0.103995
   4 H :   -0.183489
   5 H :   -0.189578
   6 O :    0.040427
   7 F :    0.266913
   8 H :   -0.157982
   9 H :   -0.143520
  10 O :    0.059120
  11 H :   -0.241345
  12 H :   -0.185723
  13 H :   -0.172835

  Mayer bond orders larger than 0.100000
B(  0-C ,  1-C ) :   0.8086 B(  0-C , 11-H ) :   0.8760 B(  0-C , 12-H ) :   0.9356
B(  0-C , 13-H ) :   1.0266 B(  1-C ,  2-C ) :   0.9241 B(  1-C ,  8-H ) :   0.9501
B(  1-C ,  9-H ) :   0.9217 B(  2-C ,  3-S ) :   0.8417 B(  2-C ,  4-H ) :   0.9341
B(  2-C ,  5-H ) :   0.9314 B(  3-S ,  6-O ) :   1.4213 B(  3-S ,  7-F ) :   0.5768
B(  3-S , 10-O ) :   1.5388

E(0)                                       ...   -764.482723236
E(0)                                       ...   -764.482723236
E(CORR)(strong-pairs)                      ...     -1.494855708
E(CORR)(weak-pairs)                        ...     -0.001562141
E(CORR)(corrected)                         ...     -1.496417849
E(TOT)                                     ...   -765.979141085
E(CCSD(T))                                 ...   -766.039813321
FINAL SINGLE POINT ENERGY      -766.039813321157

DIPOLE MOMENT
-------------
                                X             Y             Z
Electronic contribution:     -9.84963      -5.72085      -2.24204
Nuclear contribution   :     10.64200       6.78206       3.33086
                        -----------------------------------------
Total Dipole Moment    :      0.79237       1.06120       1.08882
                        -----------------------------------------
Magnitude (a.u.)       :      1.71451
Magnitude (Debye)      :      4.35793

Rotational constants in cm-1:     0.128573     0.057881     0.053975
Rotational constants in MHz :  3854.523324  1735.233387  1618.120420

                             ****ORCA TERMINATED NORMALLY****
TOTAL RUN TIME: 0 days 1 hours 23 minutes 11 seconds 3 msec
