                         Program Version 5.0.0 -  RELEASE  -
|  1> !DLPNO-CCSD(T) aug-cc-pVTZ aug-cc-pVTZ/C TightSCF TightPNO RIJCOSX def2/J
|  2> *xyz 0 1
|  3> C          1.36401        0.46874       -2.81376
|  4> C          0.96805        1.63064       -3.71575
|  5> C         -0.50835        1.72268       -4.12430
|  6> S         -1.32861        0.14674       -4.43578
|  7> H         -0.59151        2.29496       -5.04722
|  8> H         -1.11411        2.23561       -3.37436
|  9> O         -2.57135        0.47573       -5.06834
| 10> O         -1.51496       -0.40051       -3.06342
| 11> H          1.57869        1.52065       -4.61273
| 12> H          1.26665        2.57599       -3.25045
| 13> F         -0.37793       -0.62756       -5.20114
| 14> H          1.07115       -0.45339       -3.27071
| 15> H          0.87480        0.56905       -1.86745
| 16> H          2.42423        0.47442       -2.66954
| 17> *
| 18> %MaxCore 64000
| 19>
| 20> %pal nprocs 2
| 21> end
| 22>
| 23> %scf
| 24>   MaxIter 150
| 25> end
| 26>
| 27>
| 28>                          ****END OF INPUT****

CARTESIAN COORDINATES (ANGSTROEM)
---------------------------------
  C      1.364010    0.468740   -2.813760
  C      0.968050    1.630640   -3.715750
  C     -0.508350    1.722680   -4.124300
  S     -1.328610    0.146740   -4.435780
  H     -0.591510    2.294960   -5.047220
  H     -1.114110    2.235610   -3.374360
  O     -2.571350    0.475730   -5.068340
  O     -1.514960   -0.400510   -3.063420
  H      1.578690    1.520650   -4.612730
  H      1.266650    2.575990   -3.250450
  F     -0.377930   -0.627560   -5.201140
  H      1.071150   -0.453390   -3.270710
  H      0.874800    0.569050   -1.867450
  H      2.424230    0.474420   -2.669540

 Total Charge           Charge          ....    0
 Multiplicity           Mult            ....    1
 Number of Electrons    NEL             ....   66
 Basis Dimension        Dim             ....  487

ORBITAL ENERGIES
----------------

  NO   OCC          E(Eh)            E(eV)
   0   2.0000     -92.250130     -2510.2537
   1   2.0000     -26.433574      -719.2941
   2   2.0000     -20.573494      -559.8332
   3   2.0000     -20.551576      -559.2368
   4   2.0000     -11.290717      -307.2360
   5   2.0000     -11.256987      -306.3182
   6   2.0000     -11.220683      -305.3303
   7   2.0000      -9.213750      -250.7189
   8   2.0000      -6.901403      -187.7967
   9   2.0000      -6.897286      -187.6847
  10   2.0000      -6.896428      -187.6613
  11   2.0000      -1.801415       -49.0190
  12   2.0000      -1.456995       -39.6469
  13   2.0000      -1.340551       -36.4782
  14   2.0000      -1.110666       -30.2228
  15   2.0000      -1.014186       -27.5974
  16   2.0000      -0.958764       -26.0893
  17   2.0000      -0.865220       -23.5438
  18   2.0000      -0.831039       -22.6137
  19   2.0000      -0.822766       -22.3886
  20   2.0000      -0.752407       -20.4740
  21   2.0000      -0.670785       -18.2530
  22   2.0000      -0.661670       -18.0050
  23   2.0000      -0.638409       -17.3720
  24   2.0000      -0.623290       -16.9606
  25   2.0000      -0.593037       -16.1373
  26   2.0000      -0.560095       -15.2410
  27   2.0000      -0.539723       -14.6866
  28   2.0000      -0.523749       -14.2519
  29   2.0000      -0.505920       -13.7668
  30   2.0000      -0.490728       -13.3534
  31   2.0000      -0.476730       -12.9725
  32   2.0000      -0.463286       -12.6066
  33   0.0000       0.022980         0.6253
  34   0.0000       0.034567         0.9406
  35   0.0000       0.035955         0.9784
  36   0.0000       0.044717         1.2168
  37   0.0000       0.057660         1.5690

MULLIKEN ATOMIC CHARGES
-----------------------
   0 C :   -0.944176
   1 C :   -0.455839
   2 C :   -0.492152
   3 S :    2.216047
   4 H :    0.252806
   5 H :    0.300859
   6 O :   -0.914990
   7 O :   -0.917536
   8 H :    0.247850
   9 H :    0.296339
  10 F :   -0.520922
  11 H :    0.363270
  12 H :    0.300911
  13 H :    0.267533
Sum of atomic charges:    0.0000000

LOEWDIN ATOMIC CHARGES
----------------------
   0 C :    0.567692
   1 C :    0.236721
   2 C :    0.200518
   3 S :   -0.107990
   4 H :   -0.198502
   5 H :   -0.173621
   6 O :    0.039832
   7 O :    0.028125
   8 H :   -0.163313
   9 H :   -0.140791
  10 F :    0.303624
  11 H :   -0.235426
  12 H :   -0.180516
  13 H :   -0.176354

  Mayer bond orders larger than 0.100000
B(  0-C ,  1-C ) :   0.8058 B(  0-C , 11-H ) :   0.9117 B(  0-C , 12-H ) :   0.9311
B(  0-C , 13-H ) :   1.0045 B(  1-C ,  2-C ) :   0.9016 B(  1-C ,  8-H ) :   0.9717
B(  1-C ,  9-H ) :   0.9319 B(  2-C ,  3-S ) :   0.8559 B(  2-C ,  4-H ) :   0.9463
B(  2-C ,  5-H ) :   0.9227 B(  3-S ,  6-O ) :   1.4124 B(  3-S ,  7-O ) :   1.5220
B(  3-S , 10-F ) :   0.6045

E(0)                                       ...   -764.461965272
E(0)                                       ...   -764.461965272
E(CORR)(strong-pairs)                      ...     -1.495848277
E(CORR)(weak-pairs)                        ...     -0.001572326
E(CORR)(corrected)                         ...     -1.497420603
E(TOT)                                     ...   -765.959385874
E(CCSD(T))                                 ...   -766.020326655
FINAL SINGLE POINT ENERGY      -766.020326655126

DIPOLE MOMENT
-------------
                                X             Y             Z
Electronic contribution:     -7.83160      -6.10141      -6.03714
Nuclear contribution   :      9.41919       7.02624       5.62986
                        -----------------------------------------
Total Dipole Moment    :      1.58759       0.92483      -0.40729
                        -----------------------------------------
Magnitude (a.u.)       :      1.88192
Magnitude (Debye)      :      4.78347

Rotational constants in cm-1:     0.128702     0.057313     0.054552
Rotational constants in MHz :  3858.395793  1718.208003  1635.420361

                             ****ORCA TERMINATED NORMALLY****
TOTAL RUN TIME: 0 days 1 hours 29 minutes 11 seconds 309 msec
