                         Program Version 5.0.0 -  RELEASE  -
|  1> !DLPNO-CCSD(T) aug-cc-pVTZ aug-cc-pVTZ/C TightSCF TightPNO RIJCOSX def2/J
|  2>
|  3> *xyzfile 0 1 D2.xyz
|  4>
|  5> %MaxCore 64000
|  6>
|  7> %pal nprocs 18
|  8> end
|  9>
| 10> %scf
| 11>   MaxIter 150
| 12> end
| 13>
| 14>
| 15>                          ****END OF INPUT****

CARTESIAN COORDINATES (ANGSTROEM)
---------------------------------
  C      1.364014    0.468742   -2.813764
  C      0.428844    0.321402   -1.655312
  C      0.968045    1.630639   -3.715749
  C     -0.508347    1.722679   -4.124300
  S     -1.328608    0.146737   -4.435781
  H     -0.591511    2.294958   -5.047219
  H     -1.114114    2.235610   -3.374362
  H      0.748578   -0.400542   -1.001345
  H     -0.461053    0.023332   -2.077731
  H      0.310258    1.201375   -1.134948
  O     -2.571347    0.475733   -5.068341
  F     -1.514963   -0.400512   -3.063420
  H      1.294847   -0.468742   -3.364684
  H      2.376216    0.597400   -2.431495
  H      1.578688    1.520652   -4.612733
  H      1.266653    2.575988   -3.250448
  O     -0.377928   -0.627558   -5.201141

 Total Charge           Charge          ....    0
 Multiplicity           Mult            ....    1
 Number of Electrons    NEL             ....   74
 Basis Dimension        Dim             ....  579

ORBITAL ENERGIES
----------------

  NO   OCC          E(Eh)            E(eV)
   0   2.0000     -92.253181     -2510.3367
   1   2.0000     -26.414706      -718.7807
   2   2.0000     -20.576441      -559.9134
   3   2.0000     -20.572244      -559.7992
   4   2.0000     -11.292041      -307.2721
   5   2.0000     -11.249903      -306.1254
   6   2.0000     -11.223339      -305.4026
   7   2.0000     -11.178339      -304.1781
   8   2.0000      -9.216699      -250.7991
   9   2.0000      -6.904467      -187.8801
  10   2.0000      -6.900301      -187.7667
  11   2.0000      -6.899391      -187.7420
  12   2.0000      -1.776658       -48.3453
  13   2.0000      -1.473318       -40.0910
  14   2.0000      -1.370871       -37.3033
  15   2.0000      -1.120559       -30.4920
  16   2.0000      -1.048270       -28.5249
  17   2.0000      -0.964268       -26.2391
  18   2.0000      -0.937726       -25.5168
  19   2.0000      -0.828429       -22.5427
  20   2.0000      -0.819374       -22.2963
  21   2.0000      -0.803229       -21.8570
  22   2.0000      -0.759567       -20.6689
  23   2.0000      -0.681811       -18.5530
  24   2.0000      -0.659782       -17.9536
  25   2.0000      -0.653376       -17.7793
  26   2.0000      -0.649730       -17.6800
  27   2.0000      -0.596263       -16.2251
  28   2.0000      -0.573120       -15.5954
  29   2.0000      -0.564720       -15.3668
  30   2.0000      -0.561198       -15.2710
  31   2.0000      -0.518891       -14.1197
  32   2.0000      -0.510460       -13.8903
  33   2.0000      -0.493657       -13.4331
  34   2.0000      -0.483275       -13.1506
  35   2.0000      -0.474992       -12.9252
  36   2.0000      -0.466379       -12.6908
  37   0.0000       0.024989         0.6800
  38   0.0000       0.034095         0.9278
  39   0.0000       0.035419         0.9638
  40   0.0000       0.042594         1.1590
  41   0.0000       0.054330         1.4784

MULLIKEN ATOMIC CHARGES
-----------------------
   0 C :   -0.364534
   1 C :   -1.069217
   2 C :   -0.473536
   3 C :   -0.479391
   4 S :    2.267440
   5 H :    0.279828
   6 H :    0.220372
   7 H :    0.151689
   8 H :    0.614729
   9 H :    0.243607
  10 O :   -0.956427
  11 F :   -0.566518
  12 H :    0.202300
  13 H :    0.353251
  14 H :    0.237165
  15 H :    0.271539
  16 O :   -0.932297
Sum of atomic charges:   -0.0000000

LOEWDIN ATOMIC CHARGES
----------------------
   0 C :    0.266052
   1 C :    0.600629
   2 C :    0.264423
   3 C :    0.217504
   4 S :   -0.018004
   5 H :   -0.177624
   6 H :   -0.181919
   7 H :   -0.188409
   8 H :   -0.565220
   9 H :   -0.186759
  10 O :    0.048490
  11 F :    0.449038
  12 H :   -0.175804
  13 H :   -0.131436
  14 H :   -0.154209
  15 H :   -0.136242
  16 O :    0.069490

  Mayer bond orders larger than 0.100000
B(  0-C ,  1-C ) :   0.7184 B(  0-C ,  2-C ) :   0.8508 B(  0-C , 12-H ) :   1.0400
B(  0-C , 13-H ) :   0.9142 B(  1-C ,  7-H ) :   1.1605 B(  1-C ,  8-H ) :   0.7225
B(  1-C ,  9-H ) :   1.0440 B(  2-C ,  3-C ) :   0.9078 B(  2-C ,  4-S ) :   0.1129
B(  2-C , 14-H ) :   0.9886 B(  2-C , 15-H ) :   0.9468 B(  3-C ,  4-S ) :   0.8239
B(  3-C ,  5-H ) :   0.9322 B(  3-C ,  6-H ) :   0.9568 B(  4-S , 10-O ) :   1.3526
B(  4-S , 11-F ) :   0.6139 B(  4-S , 16-O ) :   1.5356 B(  7-H ,  9-H ) :   0.1232
B(  8-H , 11-F ) :  -0.1898

E(0)                                       ...   -803.481787560
E(0)                                       ...   -803.481787560
E(CORR)(strong-pairs)                      ...     -1.687328071
E(CORR)(weak-pairs)                        ...     -0.001984078
E(CORR)(corrected)                         ...     -1.689312149
E(TOT)                                     ...   -805.171099709
E(CCSD(T))                                 ...   -805.239868881
FINAL SINGLE POINT ENERGY      -805.239868880735

DIPOLE MOMENT
-------------
                                X             Y             Z
Electronic contribution:    -10.43953      -5.47172      -6.03054
Nuclear contribution   :     11.08796       6.45140       7.05645
                        -----------------------------------------
Total Dipole Moment    :      0.64843       0.97968       1.02591
                        -----------------------------------------
Magnitude (a.u.)       :      1.55972
Magnitude (Debye)      :      3.96450

Rotational constants in cm-1:     0.100113     0.046890     0.041843
Rotational constants in MHz :  3001.313402  1405.711946  1254.411771

                             ****ORCA TERMINATED NORMALLY****
TOTAL RUN TIME: 0 days 0 hours 38 minutes 48 seconds 290 msec
