                         Program Version 5.0.0 -  RELEASE  -
|  1> !BLYP D3BJ RIJCOSX def2-TZVP def2/J TightSCF
|  2> *xyz -1 1
|  3> C         -5.57236       -5.80780       -0.81644
|  4> S         -6.90318       -4.61903       -0.52846
|  5> O         -8.11485       -5.25093       -0.95701
|  6> O         -6.53271       -3.42684       -1.31485
|  7> O         -6.86563       -4.29496        0.91412
|  8> C         -4.45780       -5.94187        0.22919
|  9> H         -5.17735       -5.54257       -1.79771
| 10> H         -6.07420       -6.76889       -0.92127
| 11> H         -3.75515       -6.68239       -0.09144
| 12> H         -4.88182       -6.23486        1.16689
| 13> H         -3.95908       -5.00189        0.34143
| 14> *
| 15> %MaxCore 64000
| 16>
| 17> %pal nprocs 4
| 18> end
| 19>
| 20> %scf
| 21>   MaxIter 150
| 22> end
| 23>
| 24>                          ****END OF INPUT****

CARTESIAN COORDINATES (ANGSTROEM)
---------------------------------
  C     -5.572360   -5.807800   -0.816440
  S     -6.903180   -4.619030   -0.528460
  O     -8.114850   -5.250930   -0.957010
  O     -6.532710   -3.426840   -1.314850
  O     -6.865630   -4.294960    0.914120
  C     -4.457800   -5.941870    0.229190
  H     -5.177350   -5.542570   -1.797710
  H     -6.074200   -6.768890   -0.921270
  H     -3.755150   -6.682390   -0.091440
  H     -4.881820   -6.234860    1.166890
  H     -3.959080   -5.001890    0.341430

 Total Charge           Charge          ....   -1
 Multiplicity           Mult            ....    1
 Number of Electrons    NEL             ....   58
 Basis Dimension        Dim             ....  222

ORBITAL ENERGIES
----------------

  NO   OCC          E(Eh)            E(eV)
   0   2.0000     -88.070270     -2396.5139
   1   2.0000     -18.544944      -504.6336
   2   2.0000     -18.531638      -504.2715
   3   2.0000     -18.530104      -504.2298
   4   2.0000      -9.758783      -265.5500
   5   2.0000      -9.758133      -265.5323
   6   2.0000      -7.600759      -206.8272
   7   2.0000      -5.629446      -153.1850
   8   2.0000      -5.628442      -153.1577
   9   2.0000      -5.628213      -153.1515
  10   2.0000      -0.814494       -22.1635
  11   2.0000      -0.689055       -18.7501
  12   2.0000      -0.666619       -18.1396
  13   2.0000      -0.547639       -14.9020
  14   2.0000      -0.433974       -11.8090
  15   2.0000      -0.310833        -8.4582
  16   2.0000      -0.260581        -7.0908
  17   2.0000      -0.247737        -6.7413
  18   2.0000      -0.214880        -5.8472
  19   2.0000      -0.195857        -5.3295
  20   2.0000      -0.192612        -5.2412
  21   2.0000      -0.171000        -4.6531
  22   2.0000      -0.166271        -4.5245
  23   2.0000      -0.089346        -2.4312
  24   2.0000      -0.086232        -2.3465
  25   2.0000      -0.060820        -1.6550
  26   2.0000      -0.049476        -1.3463
  27   2.0000      -0.040909        -1.1132
  28   2.0000      -0.004560        -0.1241
  29   0.0000       0.151492         4.1223
  30   0.0000       0.197673         5.3789
  31   0.0000       0.209870         5.7109
  32   0.0000       0.213980         5.8227
  33   0.0000       0.235627         6.4117

MULLIKEN ATOMIC CHARGES
-----------------------
   0 C :   -0.210108
   1 S :    0.740870
   2 O :   -0.503171
   3 O :   -0.553416
   4 O :   -0.554565
   5 C :   -0.256528
   6 H :    0.064172
   7 H :    0.059849
   8 H :    0.046037
   9 H :    0.085219
  10 H :    0.081642
Sum of atomic charges:   -1.0000000

LOEWDIN ATOMIC CHARGES
----------------------
   0 C :   -0.429375
   1 S :    0.389663
   2 O :   -0.350819
   3 O :   -0.408139
   4 O :   -0.403079
   5 C :   -0.336370
   6 H :    0.113592
   7 H :    0.111821
   8 H :    0.094872
   9 H :    0.108798
  10 H :    0.109037

  Mayer bond orders larger than 0.100000
B(  0-C ,  1-S ) :   0.8571 B(  0-C ,  5-C ) :   0.9392 B(  0-C ,  6-H ) :   0.9587
B(  0-C ,  7-H ) :   0.9521 B(  1-S ,  2-O ) :   1.8412 B(  1-S ,  3-O ) :   1.7861
B(  1-S ,  4-O ) :   1.7687 B(  5-C ,  8-H ) :   0.9534 B(  5-C ,  9-H ) :   0.9735
B(  5-C , 10-H ) :   0.9760

Dispersion correction           -0.020196004
FINAL SINGLE POINT ENERGY      -703.237325087999

DIPOLE MOMENT
-------------
                                X             Y             Z
Electronic contribution:     -6.81675       4.43200      -0.91301
Nuclear contribution   :      8.13140      -5.68016       0.80206
                        -----------------------------------------
Total Dipole Moment    :      1.31466      -1.24816      -0.11095
                        -----------------------------------------
Magnitude (a.u.)       :      1.81619
Magnitude (Debye)      :      4.61638

Rotational constants in cm-1:     0.162101     0.080498     0.079099
Rotational constants in MHz :  4859.669771  2413.267251  2371.338602

                             ****ORCA TERMINATED NORMALLY****
TOTAL RUN TIME: 0 days 0 hours 0 minutes 11 seconds 868 msec
