                         Program Version 5.0.0 -  RELEASE  -
|  1> !BLYP D3BJ RIJCOSX def2-TZVP def2/J TightSCF
|  2> *xyz 1 1
|  3> C         -4.38262       -1.67089        1.21620
|  4> N         -5.76354       -1.91517        0.70501
|  5> C         -3.28173       -2.19127        0.29436
|  6> H         -5.84081       -2.11520       -0.30065
|  7> H         -6.40882       -1.14866        0.93612
|  8> H         -6.17478       -2.79061        1.05143
|  9> H         -4.32862       -2.13922        2.19810
| 10> H         -4.26158       -0.59740        1.35725
| 11> H         -3.36057       -1.71407       -0.66008
| 12> H         -3.38775       -3.24919        0.17403
| 13> H         -2.32559       -1.97514        0.72329
| 14> *
| 15> %MaxCore 64000
| 16>
| 17> %pal nprocs 4
| 18> end
| 19>
| 20> %scf
| 21>   MaxIter 150
| 22> end
| 23>
| 24>                          ****END OF INPUT****

CARTESIAN COORDINATES (ANGSTROEM)
---------------------------------
  C     -4.382620   -1.670890    1.216200
  N     -5.763540   -1.915170    0.705010
  C     -3.281730   -2.191270    0.294360
  H     -5.840810   -2.115200   -0.300650
  H     -6.408820   -1.148660    0.936120
  H     -6.174780   -2.790610    1.051430
  H     -4.328620   -2.139220    2.198100
  H     -4.261580   -0.597400    1.357250
  H     -3.360570   -1.714070   -0.660080
  H     -3.387750   -3.249190    0.174030
  H     -2.325590   -1.975140    0.723290

 Total Charge           Charge          ....    1
 Multiplicity           Mult            ....    1
 Number of Electrons    NEL             ....   26
 Basis Dimension        Dim             ....  141

ORBITAL ENERGIES
----------------

  NO   OCC          E(Eh)            E(eV)
   0   2.0000     -14.339176      -390.1888
   1   2.0000     -10.157908      -276.4107
   2   2.0000     -10.078815      -274.2585
   3   2.0000      -1.129555       -30.7368
   4   2.0000      -0.891429       -24.2570
   5   2.0000      -0.784532       -21.3482
   6   2.0000      -0.741330       -20.1726
   7   2.0000      -0.721056       -19.6209
   8   2.0000      -0.650888       -17.7116
   9   2.0000      -0.590022       -16.0553
  10   2.0000      -0.536895       -14.6097
  11   2.0000      -0.521219       -14.1831
  12   2.0000      -0.503889       -13.7115
  13   0.0000      -0.222660        -6.0589
  14   0.0000      -0.168649        -4.5892
  15   0.0000      -0.163453        -4.4478
  16   0.0000      -0.138152        -3.7593
  17   0.0000      -0.101289        -2.7562

MULLIKEN ATOMIC CHARGES
-----------------------
   0 C :   -0.147740
   1 N :   -0.256911
   2 C :   -0.324815
   3 H :    0.303534
   4 H :    0.319661
   5 H :    0.308828
   6 H :    0.176701
   7 H :    0.175216
   8 H :    0.141772
   9 H :    0.137230
  10 H :    0.166525
Sum of atomic charges:    1.0000000

LOEWDIN ATOMIC CHARGES
----------------------
   0 C :   -0.266704
   1 N :    0.174265
   2 C :   -0.268804
   3 H :    0.216348
   4 H :    0.221174
   5 H :    0.218841
   6 H :    0.150470
   7 H :    0.151185
   8 H :    0.128784
   9 H :    0.127970
  10 H :    0.146473

  Mayer bond orders larger than 0.100000
B(  0-C ,  1-N ) :   0.8286 B(  0-C ,  2-C ) :   0.9673 B(  0-C ,  6-H ) :   0.9583
B(  0-C ,  7-H ) :   0.9578 B(  1-N ,  3-H ) :   0.8840 B(  1-N ,  4-H ) :   0.8846
B(  1-N ,  5-H ) :   0.8905 B(  2-C ,  8-H ) :   0.9578 B(  2-C ,  9-H ) :   0.9619
B(  2-C , 10-H ) :   0.9557

Dispersion correction           -0.012313259
FINAL SINGLE POINT ENERGY      -135.515243985447

DIPOLE MOMENT
-------------
                                X             Y             Z
Electronic contribution:     -1.79454       0.24109       0.30685
Nuclear contribution   :      0.19437      -0.25358      -0.32106
                        -----------------------------------------
Total Dipole Moment    :     -1.60018      -0.01250      -0.01421
                        -----------------------------------------
Magnitude (a.u.)       :      1.60029
Magnitude (Debye)      :      4.06761

Rotational constants in cm-1:     1.030014     0.272489     0.242697
Rotational constants in MHz : 30879.030706  8169.007780  7275.865152

                             ****ORCA TERMINATED NORMALLY****
TOTAL RUN TIME: 0 days 0 hours 0 minutes 8 seconds 530 msec
