                         Program Version 5.0.0 -  RELEASE  -
|  1> !BLYP D3BJ RIJCOSX def2-TZVP def2/J TightSCF xyzfile
|  2>
|  3> *xyzfile 0 1 B.xyz
|  4>
|  5> %MaxCore 64000
|  6>
|  7> %pal nprocs 18
|  8> end
|  9>
| 10> %scf
| 11>   MaxIter 150
| 12> end
| 13>
| 14>
| 15>                          ****END OF INPUT****

CARTESIAN COORDINATES (ANGSTROEM)
---------------------------------
  C     -4.382623   -1.670889    1.216201
  N     -5.763539   -1.915170    0.705012
  C     -3.281728   -2.191272    0.294361
  C     -5.572364   -5.807798   -0.816445
  S     -6.903179   -4.619033   -0.528458
  H     -5.840812   -2.115205   -0.300646
  H     -6.408823   -1.148656    0.936124
  H     -6.174781   -2.790606    1.051433
  O     -8.114853   -5.250932   -0.957007
  O     -6.532715   -3.426838   -1.314848
  H     -4.328618   -2.139223    2.198103
  H     -4.261583   -0.597399    1.357248
  O     -6.865632   -4.294957    0.914118
  C     -3.474641   -3.605898   -0.259608
  H     -2.354548   -2.127602    0.871433
  H     -3.166611   -1.499693   -0.545037
  C     -3.827078   -4.661097    0.786174
  H     -2.560559   -3.889391   -0.788050
  H     -4.255932   -3.570040   -1.019300
  C     -4.457800   -5.941875    0.229195
  H     -5.177347   -5.542575   -1.797714
  H     -6.074202   -6.768894   -0.921272
  H     -4.530506   -4.253640    1.511979
  H     -2.933400   -4.932302    1.356825
  H     -3.681064   -6.562236   -0.229885
  H     -4.843942   -6.512728    1.075805

 Total Charge           Charge          ....    0
 Multiplicity           Mult            ....    1
 Number of Electrons    NEL             ....   98
 Basis Dimension        Dim             ....  437

ORBITAL ENERGIES
----------------

  NO   OCC          E(Eh)            E(eV)
   0   2.0000     -88.245940     -2401.2941
   1   2.0000     -18.724048      -509.5072
   2   2.0000     -18.719872      -509.3936
   3   2.0000     -18.707993      -509.0704
   4   2.0000     -14.107010      -383.8713
   5   2.0000      -9.989222      -271.8205
   6   2.0000      -9.937298      -270.4076
   7   2.0000      -9.911365      -269.7019
   8   2.0000      -9.906043      -269.5571
   9   2.0000      -9.905930      -269.5541
  10   2.0000      -9.905329      -269.5377
  11   2.0000      -7.777297      -211.6310
  12   2.0000      -5.806073      -157.9913
  13   2.0000      -5.805261      -157.9692
  14   2.0000      -5.804110      -157.9379
  15   2.0000      -0.996283       -27.1102
  16   2.0000      -0.917959       -24.9789
  17   2.0000      -0.864629       -23.5278
  18   2.0000      -0.861310       -23.4374
  19   2.0000      -0.749670       -20.3996
  20   2.0000      -0.711403       -19.3583
  21   2.0000      -0.665845       -18.1186
  22   2.0000      -0.618716       -16.8361
  23   2.0000      -0.569617       -15.5001
  24   2.0000      -0.542100       -14.7513
  25   2.0000      -0.522547       -14.2192
  26   2.0000      -0.516379       -14.0514
  27   2.0000      -0.476716       -12.9721
  28   2.0000      -0.455657       -12.3991
  29   2.0000      -0.434053       -11.8112
  30   2.0000      -0.428610       -11.6631
  31   2.0000      -0.412477       -11.2241
  32   2.0000      -0.393545       -10.7089
  33   2.0000      -0.382644       -10.4123
  34   2.0000      -0.377019       -10.2592
  35   2.0000      -0.371053       -10.0969
  36   2.0000      -0.359082        -9.7711
  37   2.0000      -0.340537        -9.2665
  38   2.0000      -0.329533        -8.9670
  39   2.0000      -0.325137        -8.8474
  40   2.0000      -0.300752        -8.1839
  41   2.0000      -0.293878        -7.9968
  42   2.0000      -0.286634        -7.7997
  43   2.0000      -0.271592        -7.3904
  44   2.0000      -0.263014        -7.1570
  45   2.0000      -0.229647        -6.2490
  46   2.0000      -0.226883        -6.1738
  47   2.0000      -0.219774        -5.9804
  48   2.0000      -0.194092        -5.2815
  49   0.0000      -0.035942        -0.9780
  50   0.0000       0.005001         0.1361
  51   0.0000       0.016356         0.4451
  52   0.0000       0.019510         0.5309
  53   0.0000       0.033637         0.9153

MULLIKEN ATOMIC CHARGES
-----------------------
   0 C :   -0.177775
   1 N :   -0.224079
   2 C :   -0.140526
   3 C :   -0.263488
   4 S :    0.811920
   5 H :    0.274424
   6 H :    0.246264
   7 H :    0.273754
   8 O :   -0.445075
   9 O :   -0.558648
  10 H :    0.146669
  11 H :    0.125271
  12 O :   -0.549397
  13 C :   -0.232094
  14 H :    0.092517
  15 H :    0.104584
  16 C :   -0.182553
  17 H :    0.080735
  18 H :    0.145733
  19 C :   -0.099868
  20 H :    0.112055
  21 H :    0.121555
  22 H :    0.100528
  23 H :    0.070916
  24 H :    0.078155
  25 H :    0.088423
Sum of atomic charges:   -0.0000000

LOEWDIN ATOMIC CHARGES
----------------------
   0 C :   -0.273017
   1 N :    0.141869
   2 C :   -0.262803
   3 C :   -0.382575
   4 S :    0.434749
   5 H :    0.177188
   6 H :    0.190909
   7 H :    0.157412
   8 O :   -0.283829
   9 O :   -0.368846
  10 H :    0.136824
  11 H :    0.133224
  12 O :   -0.350907
  13 C :   -0.266480
  14 H :    0.144343
  15 H :    0.139154
  16 C :   -0.270609
  17 H :    0.136607
  18 H :    0.140889
  19 C :   -0.275934
  20 H :    0.129430
  21 H :    0.135299
  22 H :    0.130283
  23 H :    0.131388
  24 H :    0.135842
  25 H :    0.139590

  Mayer bond orders larger than 0.100000
B(  0-C ,  1-N ) :   0.8837 B(  0-C ,  2-C ) :   0.9596 B(  0-C , 10-H ) :   0.9727
B(  0-C , 11-H ) :   0.9679 B(  1-N ,  5-H ) :   0.8219 B(  1-N ,  6-H ) :   0.9112
B(  1-N ,  7-H ) :   0.7839 B(  2-C , 13-C ) :   0.9618 B(  2-C , 14-H ) :   0.9594
B(  2-C , 15-H ) :   0.9641 B(  3-C ,  4-S ) :   0.8832 B(  3-C , 19-C ) :   0.9520
B(  3-C , 20-H ) :   0.9537 B(  3-C , 21-H ) :   0.9497 B(  4-S ,  8-O ) :   1.9602
B(  4-S ,  9-O ) :   1.5948 B(  4-S , 12-O ) :   1.5565 B(  5-H ,  9-O ) :   0.1289
B(  7-H , 12-O ) :   0.2004 B( 13-C , 16-C ) :   0.9330 B( 13-C , 17-H ) :   0.9636
B( 13-C , 18-H ) :   0.9639 B( 16-C , 19-C ) :   0.9686 B( 16-C , 22-H ) :   0.9608
B( 16-C , 23-H ) :   0.9520 B( 19-C , 24-H ) :   0.9487 B( 19-C , 25-H ) :   0.9622

Dispersion correction           -0.063056626
FINAL SINGLE POINT ENERGY      -916.362627447433

DIPOLE MOMENT
-------------
                                X             Y             Z
Electronic contribution:    -13.68321      -2.94997      -3.71140
Nuclear contribution   :     16.18863       5.15617       4.97370
                        -----------------------------------------
Total Dipole Moment    :      2.50542       2.20619       1.26230
                        -----------------------------------------
Magnitude (a.u.)       :      3.56901
Magnitude (Debye)      :      9.07170

Rotational constants in cm-1:     0.048546     0.025588     0.020102
Rotational constants in MHz :  1455.374030   767.095631   602.645620

                             ****ORCA TERMINATED NORMALLY****
TOTAL RUN TIME: 0 days 0 hours 0 minutes 20 seconds 576 msec
