                         Program Version 5.0.0 -  RELEASE  -
|  1> !BLYP D3BJ RIJCOSX def2-TZVP def2/J TightSCF
|  2> *xyz 0 1
|  3> C         -5.57236       -5.80780       -0.81644
|  4> S         -6.90318       -4.61903       -0.52846
|  5> F         -8.11485       -5.25093       -0.95701
|  6> O         -6.53271       -3.42684       -1.31485
|  7> O         -6.86563       -4.29496        0.91412
|  8> C         -4.45780       -5.94187        0.22919
|  9> H         -5.17735       -5.54257       -1.79771
| 10> H         -6.07420       -6.76889       -0.92127
| 11> H         -3.75515       -6.68239       -0.09144
| 12> H         -4.88182       -6.23486        1.16689
| 13> H         -3.95908       -5.00189        0.34143
| 14> *
| 15> %MaxCore 64000
| 16>
| 17> %pal nprocs 4
| 18> end
| 19>
| 20> %scf
| 21>   MaxIter 150
| 22> end
| 23>
| 24>                          ****END OF INPUT****

CARTESIAN COORDINATES (ANGSTROEM)
---------------------------------
  C     -5.572360   -5.807800   -0.816440
  S     -6.903180   -4.619030   -0.528460
  F     -8.114850   -5.250930   -0.957010
  O     -6.532710   -3.426840   -1.314850
  O     -6.865630   -4.294960    0.914120
  C     -4.457800   -5.941870    0.229190
  H     -5.177350   -5.542570   -1.797710
  H     -6.074200   -6.768890   -0.921270
  H     -3.755150   -6.682390   -0.091440
  H     -4.881820   -6.234860    1.166890
  H     -3.959080   -5.001890    0.341430

 Total Charge           Charge          ....    0
 Multiplicity           Mult            ....    1
 Number of Electrons    NEL             ....   58
 Basis Dimension        Dim             ....  222

ORBITAL ENERGIES
----------------

  NO   OCC          E(Eh)            E(eV)
   0   2.0000     -88.335072     -2403.7195
   1   2.0000     -24.403200      -664.0448
   2   2.0000     -18.770750      -510.7781
   3   2.0000     -18.770379      -510.7680
   4   2.0000      -9.963412      -271.1182
   5   2.0000      -9.922730      -270.0112
   6   2.0000      -7.866194      -214.0500
   7   2.0000      -5.898366      -160.5027
   8   2.0000      -5.891774      -160.3233
   9   2.0000      -5.891500      -160.3159
  10   2.0000      -1.277394       -34.7597
  11   2.0000      -0.993683       -27.0395
  12   2.0000      -0.900937       -24.5157
  13   2.0000      -0.739642       -20.1267
  14   2.0000      -0.664982       -18.0951
  15   2.0000      -0.608532       -16.5590
  16   2.0000      -0.523171       -14.2362
  17   2.0000      -0.519942       -14.1484
  18   2.0000      -0.490451       -13.3458
  19   2.0000      -0.438180       -11.9235
  20   2.0000      -0.420027       -11.4295
  21   2.0000      -0.388312       -10.5665
  22   2.0000      -0.375799       -10.2260
  23   2.0000      -0.356787        -9.7087
  24   2.0000      -0.343705        -9.3527
  25   2.0000      -0.324363        -8.8264
  26   2.0000      -0.275891        -7.5074
  27   2.0000      -0.270007        -7.3473
  28   2.0000      -0.247840        -6.7441
  29   0.0000      -0.010655        -0.2899
  30   0.0000      -0.002508        -0.0683
  31   0.0000       0.025962         0.7065
  32   0.0000       0.039926         1.0864
  33   0.0000       0.049264         1.3405

MULLIKEN ATOMIC CHARGES
-----------------------
   0 C :   -0.221048
   1 S :    0.792220
   2 F :   -0.074921
   3 O :   -0.407581
   4 O :   -0.411283
   5 C :   -0.277570
   6 H :    0.136946
   7 H :    0.106873
   8 H :    0.113267
   9 H :    0.118967
  10 H :    0.124130
Sum of atomic charges:   -0.0000000

LOEWDIN ATOMIC CHARGES
----------------------
   0 C :   -0.393818
   1 S :    0.503927
   2 F :    0.117992
   3 O :   -0.285267
   4 O :   -0.283943
   5 C :   -0.294327
   6 H :    0.138797
   7 H :    0.128418
   8 H :    0.122246
   9 H :    0.122041
  10 H :    0.123935

  Mayer bond orders larger than 0.100000
B(  0-C ,  1-S ) :   0.8930 B(  0-C ,  5-C ) :   0.9594 B(  0-C ,  6-H ) :   0.9381
B(  0-C ,  7-H ) :   0.9359 B(  1-S ,  2-F ) :   1.1575 B(  1-S ,  3-O ) :   1.9152
B(  1-S ,  4-O ) :   1.9034 B(  5-C ,  8-H ) :   0.9522 B(  5-C ,  9-H ) :   0.9677
B(  5-C , 10-H ) :   0.9710

Dispersion correction           -0.019292721
FINAL SINGLE POINT ENERGY      -727.762490439774

DIPOLE MOMENT
-------------
                                X             Y             Z
Electronic contribution:     -9.44543       3.65914      -1.84022
Nuclear contribution   :      9.80704      -5.24335       1.35017
                        -----------------------------------------
Total Dipole Moment    :      0.36160      -1.58421      -0.49005
                        -----------------------------------------
Magnitude (a.u.)       :      1.69724
Magnitude (Debye)      :      4.31405

Rotational constants in cm-1:     0.156316     0.078308     0.076228
Rotational constants in MHz :  4686.224999  2347.601204  2285.245115

                             ****ORCA TERMINATED NORMALLY****
TOTAL RUN TIME: 0 days 0 hours 0 minutes 11 seconds 832 msec
