                         Program Version 5.0.0 -  RELEASE  -
|  1> !BLYP D3BJ RIJCOSX def2-TZVP def2/J TightSCF
|  2> *xyz 0 1
|  3> C         -4.38262       -1.67089        1.21620
|  4> C         -5.76354       -1.91517        0.70501
|  5> C         -3.28173       -2.19127        0.29436
|  6> H         -5.84081       -2.11520       -0.30065
|  7> H         -6.40882       -1.14866        0.93612
|  8> H         -6.17478       -2.79061        1.05143
|  9> H         -4.32862       -2.13922        2.19810
| 10> H         -4.26158       -0.59740        1.35725
| 11> H         -3.36057       -1.71407       -0.66008
| 12> H         -3.38775       -3.24919        0.17403
| 13> H         -2.32559       -1.97514        0.72329
| 14> *
| 15> %MaxCore 64000
| 16>
| 17> %pal nprocs 4
| 18> end
| 19>
| 20> %scf
| 21>   MaxIter 150
| 22> end
| 23>
| 24>                          ****END OF INPUT****

CARTESIAN COORDINATES (ANGSTROEM)
---------------------------------
  C     -4.382620   -1.670890    1.216200
  C     -5.763540   -1.915170    0.705010
  C     -3.281730   -2.191270    0.294360
  H     -5.840810   -2.115200   -0.300650
  H     -6.408820   -1.148660    0.936120
  H     -6.174780   -2.790610    1.051430
  H     -4.328620   -2.139220    2.198100
  H     -4.261580   -0.597400    1.357250
  H     -3.360570   -1.714070   -0.660080
  H     -3.387750   -3.249190    0.174030
  H     -2.325590   -1.975140    0.723290

 Total Charge           Charge          ....    0
 Multiplicity           Mult            ....    1
 Number of Electrons    NEL             ....   26
 Basis Dimension        Dim             ....  141

ORBITAL ENERGIES
----------------

  NO   OCC          E(Eh)            E(eV)
   0   2.0000      -9.891006      -269.1480
   1   2.0000      -9.882004      -268.9030
   2   2.0000      -9.863808      -268.4078
   3   2.0000      -0.707519       -19.2526
   4   2.0000      -0.618663       -16.8347
   5   2.0000      -0.524764       -14.2795
   6   2.0000      -0.409109       -11.1324
   7   2.0000      -0.389367       -10.5952
   8   2.0000      -0.360286        -9.8039
   9   2.0000      -0.337260        -9.1773
  10   2.0000      -0.296084        -8.0569
  11   2.0000      -0.289385        -7.8746
  12   2.0000      -0.277878        -7.5614
  13   0.0000       0.020847         0.5673
  14   0.0000       0.061608         1.6764
  15   0.0000       0.064967         1.7678
  16   0.0000       0.071278         1.9396
  17   0.0000       0.097029         2.6403

MULLIKEN ATOMIC CHARGES
-----------------------
   0 C :   -0.101503
   1 C :   -0.323420
   2 C :   -0.300068
   3 H :    0.099238
   4 H :    0.098500
   5 H :    0.102469
   6 H :    0.072654
   7 H :    0.072052
   8 H :    0.094640
   9 H :    0.089936
  10 H :    0.095503
Sum of atomic charges:    0.0000000

LOEWDIN ATOMIC CHARGES
----------------------
   0 C :   -0.310231
   1 C :   -0.305091
   2 C :   -0.299994
   3 H :    0.107433
   4 H :    0.107091
   5 H :    0.107762
   6 H :    0.129035
   7 H :    0.128257
   8 H :    0.112142
   9 H :    0.111893
  10 H :    0.111703

  Mayer bond orders larger than 0.100000
B(  0-C ,  1-C ) :   0.9466 B(  0-C ,  2-C ) :   0.9635 B(  0-C ,  6-H ) :   0.9720
B(  0-C ,  7-H ) :   0.9729 B(  1-C ,  3-H ) :   0.9800 B(  1-C ,  4-H ) :   0.9806
B(  1-C ,  5-H ) :   0.9775 B(  2-C ,  8-H ) :   0.9755 B(  2-C ,  9-H ) :   0.9766
B(  2-C , 10-H ) :   0.9773

Dispersion correction           -0.012399011
FINAL SINGLE POINT ENERGY      -119.093546536582

DIPOLE MOMENT
-------------
                                X             Y             Z
Electronic contribution:      0.18542       0.24085       0.34080
Nuclear contribution   :     -0.21528      -0.24783      -0.32864
                        -----------------------------------------
Total Dipole Moment    :     -0.02986      -0.00698       0.01215
                        -----------------------------------------
Magnitude (a.u.)       :      0.03298
Magnitude (Debye)      :      0.08384

Rotational constants in cm-1:     1.037566     0.286459     0.254172
Rotational constants in MHz : 31105.431429  8587.814531  7619.871198

                             ****ORCA TERMINATED NORMALLY****
TOTAL RUN TIME: 0 days 0 hours 0 minutes 8 seconds 441 msec
