                         Program Version 5.0.0 -  RELEASE  -
|  1> !BLYP D3BJ RIJCOSX def2-TZVP def2/J TightSCF
|  2> *xyz 0 1
|  3> C         -5.57236       -5.80780       -0.81644
|  4> S         -6.90318       -4.61903       -0.52846
|  5> O         -8.11485       -5.25093       -0.95701
|  6> F         -6.53271       -3.42684       -1.31485
|  7> O         -6.86563       -4.29496        0.91412
|  8> C         -4.45780       -5.94187        0.22919
|  9> H         -5.17735       -5.54257       -1.79771
| 10> H         -6.07420       -6.76889       -0.92127
| 11> H         -3.75515       -6.68239       -0.09144
| 12> H         -4.88182       -6.23486        1.16689
| 13> H         -3.95908       -5.00189        0.34143
| 14> *
| 15> %MaxCore 64000
| 16>
| 17> %pal nprocs 4
| 18> end
| 19>
| 20> %scf
| 21>   MaxIter 150
| 22> end
| 23>
| 24>                          ****END OF INPUT****

CARTESIAN COORDINATES (ANGSTROEM)
---------------------------------
  C     -5.572360   -5.807800   -0.816440
  S     -6.903180   -4.619030   -0.528460
  O     -8.114850   -5.250930   -0.957010
  F     -6.532710   -3.426840   -1.314850
  O     -6.865630   -4.294960    0.914120
  C     -4.457800   -5.941870    0.229190
  H     -5.177350   -5.542570   -1.797710
  H     -6.074200   -6.768890   -0.921270
  H     -3.755150   -6.682390   -0.091440
  H     -4.881820   -6.234860    1.166890
  H     -3.959080   -5.001890    0.341430

 Total Charge           Charge          ....    0
 Multiplicity           Mult            ....    1
 Number of Electrons    NEL             ....   58
 Basis Dimension        Dim             ....  222

ORBITAL ENERGIES
----------------

  NO   OCC          E(Eh)            E(eV)
   0   2.0000     -88.332837     -2403.6587
   1   2.0000     -24.381544      -663.4555
   2   2.0000     -18.784514      -511.1526
   3   2.0000     -18.770693      -510.7765
   4   2.0000      -9.962866      -271.1034
   5   2.0000      -9.922259      -269.9984
   6   2.0000      -7.864089      -213.9927
   7   2.0000      -5.896353      -160.4479
   8   2.0000      -5.889755      -160.2684
   9   2.0000      -5.889332      -160.2569
  10   2.0000      -1.241902       -33.7939
  11   2.0000      -1.010323       -27.4923
  12   2.0000      -0.916018       -24.9261
  13   2.0000      -0.739410       -20.1204
  14   2.0000      -0.651997       -17.7417
  15   2.0000      -0.601303       -16.3623
  16   2.0000      -0.509884       -13.8747
  17   2.0000      -0.494618       -13.4593
  18   2.0000      -0.484932       -13.1957
  19   2.0000      -0.436745       -11.8844
  20   2.0000      -0.421019       -11.4565
  21   2.0000      -0.396173       -10.7804
  22   2.0000      -0.379029       -10.3139
  23   2.0000      -0.354842        -9.6557
  24   2.0000      -0.349483        -9.5099
  25   2.0000      -0.330959        -9.0058
  26   2.0000      -0.288215        -7.8427
  27   2.0000      -0.275310        -7.4916
  28   2.0000      -0.260337        -7.0841
  29   0.0000      -0.010372        -0.2822
  30   0.0000       0.000151         0.0041
  31   0.0000       0.027610         0.7513
  32   0.0000       0.042288         1.1507
  33   0.0000       0.052097         1.4176

MULLIKEN ATOMIC CHARGES
-----------------------
   0 C :   -0.231039
   1 S :    0.796691
   2 O :   -0.368125
   3 F :   -0.108774
   4 O :   -0.419036
   5 C :   -0.272303
   6 H :    0.114301
   7 H :    0.140796
   8 H :    0.112141
   9 H :    0.128547
  10 H :    0.106801
Sum of atomic charges:    0.0000000

LOEWDIN ATOMIC CHARGES
----------------------
   0 C :   -0.392008
   1 S :    0.512905
   2 O :   -0.236015
   3 F :    0.064531
   4 O :   -0.286907
   5 C :   -0.300289
   6 H :    0.130433
   7 H :    0.143399
   8 H :    0.121291
   9 H :    0.123786
  10 H :    0.118875

  Mayer bond orders larger than 0.100000
B(  0-C ,  1-S ) :   0.8907 B(  0-C ,  5-C ) :   0.9539 B(  0-C ,  6-H ) :   0.9416
B(  0-C ,  7-H ) :   0.9412 B(  1-S ,  2-O ) :   1.9630 B(  1-S ,  3-F ) :   1.1141
B(  1-S ,  4-O ) :   1.9012 B(  5-C ,  8-H ) :   0.9530 B(  5-C ,  9-H ) :   0.9688
B(  5-C , 10-H ) :   0.9705

Dispersion correction           -0.019264349
FINAL SINGLE POINT ENERGY      -727.780510111698

DIPOLE MOMENT
-------------
                                X             Y             Z
Electronic contribution:     -6.80002       6.72057      -2.45562
Nuclear contribution   :      8.15840      -7.14411       1.72305
                        -----------------------------------------
Total Dipole Moment    :      1.35838      -0.42354      -0.73257
                        -----------------------------------------
Magnitude (a.u.)       :      1.60038
Magnitude (Debye)      :      4.06785

Rotational constants in cm-1:     0.153926     0.078297     0.077402
Rotational constants in MHz :  4614.585804  2347.272644  2320.438903

                             ****ORCA TERMINATED NORMALLY****
TOTAL RUN TIME: 0 days 0 hours 0 minutes 12 seconds 98 msec
