                         Program Version 5.0.0 -  RELEASE  -
|  1> !BLYP D3BJ RIJCOSX def2-TZVP def2/J TightSCF
|  2> *xyz 0 1
|  3> C         -5.57236       -5.80780       -0.81644
|  4> S         -6.90318       -4.61903       -0.52846
|  5> O         -8.11485       -5.25093       -0.95701
|  6> O         -6.53271       -3.42684       -1.31485
|  7> F         -6.86563       -4.29496        0.91412
|  8> C         -4.45780       -5.94187        0.22919
|  9> H         -5.17735       -5.54257       -1.79771
| 10> H         -6.07420       -6.76889       -0.92127
| 11> H         -3.75515       -6.68239       -0.09144
| 12> H         -4.88182       -6.23486        1.16689
| 13> H         -3.95908       -5.00189        0.34143
| 14> *
| 15> %MaxCore 64000
| 16>
| 17> %pal nprocs 4
| 18> end
| 19>
| 20> %scf
| 21>   MaxIter 150
| 22> end
| 23>
| 24>                          ****END OF INPUT****

CARTESIAN COORDINATES (ANGSTROEM)
---------------------------------
  C     -5.572360   -5.807800   -0.816440
  S     -6.903180   -4.619030   -0.528460
  O     -8.114850   -5.250930   -0.957010
  O     -6.532710   -3.426840   -1.314850
  F     -6.865630   -4.294960    0.914120
  C     -4.457800   -5.941870    0.229190
  H     -5.177350   -5.542570   -1.797710
  H     -6.074200   -6.768890   -0.921270
  H     -3.755150   -6.682390   -0.091440
  H     -4.881820   -6.234860    1.166890
  H     -3.959080   -5.001890    0.341430

 Total Charge           Charge          ....    0
 Multiplicity           Mult            ....    1
 Number of Electrons    NEL             ....   58
 Basis Dimension        Dim             ....  222

ORBITAL ENERGIES
----------------

  NO   OCC          E(Eh)            E(eV)
   0   2.0000     -88.332295     -2403.6439
   1   2.0000     -24.380499      -663.4271
   2   2.0000     -18.784186      -511.1437
   3   2.0000     -18.769669      -510.7487
   4   2.0000      -9.962175      -271.0846
   5   2.0000      -9.929172      -270.1865
   6   2.0000      -7.863580      -213.9789
   7   2.0000      -5.895916      -160.4360
   8   2.0000      -5.889055      -160.2493
   9   2.0000      -5.888960      -160.2467
  10   2.0000      -1.239332       -33.7239
  11   2.0000      -1.010751       -27.5039
  12   2.0000      -0.916451       -24.9379
  13   2.0000      -0.742143       -20.1948
  14   2.0000      -0.649506       -17.6739
  15   2.0000      -0.605422       -16.4744
  16   2.0000      -0.514870       -14.0103
  17   2.0000      -0.493954       -13.4412
  18   2.0000      -0.477679       -12.9983
  19   2.0000      -0.440964       -11.9992
  20   2.0000      -0.415071       -11.2946
  21   2.0000      -0.396478       -10.7887
  22   2.0000      -0.387812       -10.5529
  23   2.0000      -0.363087        -9.8801
  24   2.0000      -0.349998        -9.5239
  25   2.0000      -0.332447        -9.0464
  26   2.0000      -0.288924        -7.8620
  27   2.0000      -0.273163        -7.4331
  28   2.0000      -0.259870        -7.0714
  29   0.0000      -0.021255        -0.5784
  30   0.0000       0.017486         0.4758
  31   0.0000       0.031857         0.8669
  32   0.0000       0.037926         1.0320
  33   0.0000       0.049554         1.3484

MULLIKEN ATOMIC CHARGES
-----------------------
   0 C :   -0.218628
   1 S :    0.797141
   2 O :   -0.368012
   3 O :   -0.417032
   4 F :   -0.112503
   5 C :   -0.306460
   6 H :    0.142007
   7 H :    0.131620
   8 H :    0.118296
   9 H :    0.112692
  10 H :    0.120879
Sum of atomic charges:   -0.0000000

LOEWDIN ATOMIC CHARGES
----------------------
   0 C :   -0.386093
   1 S :    0.513459
   2 O :   -0.236098
   3 O :   -0.290175
   4 F :    0.064521
   5 C :   -0.307702
   6 H :    0.144008
   7 H :    0.137208
   8 H :    0.123651
   9 H :    0.117138
  10 H :    0.120086

  Mayer bond orders larger than 0.100000
B(  0-C ,  1-S ) :   0.8943 B(  0-C ,  5-C ) :   0.9496 B(  0-C ,  6-H ) :   0.9399
B(  0-C ,  7-H ) :   0.9391 B(  1-S ,  2-O ) :   1.9625 B(  1-S ,  3-O ) :   1.9116
B(  1-S ,  4-F ) :   1.1077 B(  5-C ,  8-H ) :   0.9584 B(  5-C ,  9-H ) :   0.9684
B(  5-C , 10-H ) :   0.9690

Dispersion correction           -0.019173023
FINAL SINGLE POINT ENERGY      -727.780539285330

DIPOLE MOMENT
-------------
                                X             Y             Z
Electronic contribution:     -7.33467       5.23449       1.27690
Nuclear contribution   :      8.50531      -6.23950      -0.59960
                        -----------------------------------------
Total Dipole Moment    :      1.17064      -1.00501       0.67730
                        -----------------------------------------
Magnitude (a.u.)       :      1.68499
Magnitude (Debye)      :      4.28290

Rotational constants in cm-1:     0.152799     0.080212     0.076962
Rotational constants in MHz :  4580.804531  2404.707790  2307.252710

                             ****ORCA TERMINATED NORMALLY****
TOTAL RUN TIME: 0 days 0 hours 0 minutes 12 seconds 100 msec
