                         Program Version 5.0.0 -  RELEASE  -
|  1> !BLYP D3BJ RIJCOSX def2-TZVP def2/J TightSCF xyzfile
|  2>
|  3> *xyzfile 0 1 D1.xyz
|  4>
|  5> %MaxCore 64000
|  6>
|  7> %pal nprocs 18
|  8> end
|  9>
| 10> %scf
| 11>   MaxIter 150
| 12> end
| 13>
| 14>
| 15>                          ****END OF INPUT****

CARTESIAN COORDINATES (ANGSTROEM)
---------------------------------
  C     -4.382623   -1.670889    1.216201
  C     -5.763539   -1.915170    0.705012
  C     -3.281728   -2.191272    0.294361
  C     -5.572364   -5.807798   -0.816445
  S     -6.903179   -4.619033   -0.528458
  H     -5.840812   -2.115205   -0.300646
  H     -6.408823   -1.148656    0.936124
  H     -6.174781   -2.790606    1.051433
  F     -8.114853   -5.250932   -0.957007
  O     -6.532715   -3.426838   -1.314848
  H     -4.328618   -2.139223    2.198103
  H     -4.261583   -0.597399    1.357248
  O     -6.865632   -4.294957    0.914118
  C     -3.474641   -3.605898   -0.259608
  H     -2.354548   -2.127602    0.871433
  H     -3.166611   -1.499693   -0.545037
  C     -3.827078   -4.661097    0.786174
  H     -2.560559   -3.889391   -0.788050
  H     -4.255932   -3.570040   -1.019300
  C     -4.457800   -5.941875    0.229195
  H     -5.177347   -5.542575   -1.797714
  H     -6.074202   -6.768894   -0.921272
  H     -4.530506   -4.253640    1.511979
  H     -2.933400   -4.932302    1.356825
  H     -3.681064   -6.562236   -0.229885
  H     -4.843942   -6.512728    1.075805

 Total Charge           Charge          ....    0
 Multiplicity           Mult            ....    1
 Number of Electrons    NEL             ....   98
 Basis Dimension        Dim             ....  437

ORBITAL ENERGIES
----------------

  NO   OCC          E(Eh)            E(eV)
   0   2.0000     -88.342266     -2403.9153
   1   2.0000     -24.407926      -664.1734
   2   2.0000     -18.780245      -511.0364
   3   2.0000     -18.778848      -510.9984
   4   2.0000      -9.964319      -271.1429
   5   2.0000      -9.930058      -270.2106
   6   2.0000      -9.898802      -269.3601
   7   2.0000      -9.888479      -269.0792
   8   2.0000      -9.880702      -268.8676
   9   2.0000      -9.867117      -268.4979
  10   2.0000      -9.811755      -266.9914
  11   2.0000      -7.873761      -214.2559
  12   2.0000      -5.905827      -160.7057
  13   2.0000      -5.899397      -160.5307
  14   2.0000      -5.899057      -160.5215
  15   2.0000      -1.282329       -34.8939
  16   2.0000      -1.007792       -27.4234
  17   2.0000      -0.915213       -24.9042
  18   2.0000      -0.752304       -20.4712
  19   2.0000      -0.713949       -19.4275
  20   2.0000      -0.676945       -18.4206
  21   2.0000      -0.652305       -17.7501
  22   2.0000      -0.618624       -16.8336
  23   2.0000      -0.575132       -15.6501
  24   2.0000      -0.544187       -14.8081
  25   2.0000      -0.528005       -14.3677
  26   2.0000      -0.517452       -14.0806
  27   2.0000      -0.491662       -13.3788
  28   2.0000      -0.477778       -13.0010
  29   2.0000      -0.437939       -11.9169
  30   2.0000      -0.437402       -11.9023
  31   2.0000      -0.412685       -11.2297
  32   2.0000      -0.409592       -11.1456
  33   2.0000      -0.388246       -10.5647
  34   2.0000      -0.381403       -10.3785
  35   2.0000      -0.361587        -9.8393
  36   2.0000      -0.360228        -9.8023
  37   2.0000      -0.338301        -9.2056
  38   2.0000      -0.330136        -8.9835
  39   2.0000      -0.326332        -8.8799
  40   2.0000      -0.297501        -8.0954
  41   2.0000      -0.292516        -7.9598
  42   2.0000      -0.288435        -7.8487
  43   2.0000      -0.286237        -7.7889
  44   2.0000      -0.276872        -7.5341
  45   2.0000      -0.265161        -7.2154
  46   2.0000      -0.251555        -6.8452
  47   2.0000      -0.244548        -6.6545
  48   2.0000      -0.222941        -6.0665
  49   0.0000      -0.016951        -0.4613
  50   0.0000      -0.006983        -0.1900
  51   0.0000       0.019843         0.5400
  52   0.0000       0.028847         0.7850
  53   0.0000       0.032013         0.8711

MULLIKEN ATOMIC CHARGES
-----------------------
   0 C :   -0.119795
   1 C :   -0.392792
   2 C :   -0.142058
   3 C :   -0.277596
   4 S :    0.821317
   5 H :    0.133349
   6 H :    0.076089
   7 H :    0.148738
   8 F :   -0.074370
   9 O :   -0.407100
  10 H :    0.067408
  11 H :    0.062837
  12 O :   -0.407867
  13 C :   -0.147872
  14 H :    0.060479
  15 H :    0.071935
  16 C :   -0.200556
  17 H :    0.062481
  18 H :    0.109401
  19 C :   -0.108855
  20 H :    0.147032
  21 H :    0.126135
  22 H :    0.130363
  23 H :    0.073279
  24 H :    0.093225
  25 H :    0.094795
Sum of atomic charges:   -0.0000000

LOEWDIN ATOMIC CHARGES
----------------------
   0 C :   -0.299258
   1 C :   -0.328609
   2 C :   -0.262006
   3 C :   -0.371303
   4 S :    0.522177
   5 H :    0.104956
   6 H :    0.099206
   7 H :    0.095147
   8 F :    0.120390
   9 O :   -0.256523
  10 H :    0.126121
  11 H :    0.129028
  12 O :   -0.249536
  13 C :   -0.265006
  14 H :    0.128607
  15 H :    0.132774
  16 C :   -0.260566
  17 H :    0.128864
  18 H :    0.135279
  19 C :   -0.266966
  20 H :    0.141898
  21 H :    0.133182
  22 H :    0.143360
  23 H :    0.134156
  24 H :    0.144036
  25 H :    0.140591

  Mayer bond orders larger than 0.100000
B(  0-C ,  1-C ) :   0.9166 B(  0-C ,  2-C ) :   0.9826 B(  0-C , 10-H ) :   0.9718
B(  0-C , 11-H ) :   0.9608 B(  1-C ,  5-H ) :   0.9803 B(  1-C ,  6-H ) :   0.9706
B(  1-C ,  7-H ) :   0.9651 B(  2-C , 13-C ) :   0.9775 B(  2-C , 14-H ) :   0.9663
B(  2-C , 15-H ) :   0.9583 B(  3-C ,  4-S ) :   0.9017 B(  3-C , 19-C ) :   0.9499
B(  3-C , 20-H ) :   0.9381 B(  3-C , 21-H ) :   0.9388 B(  4-S ,  8-F ) :   1.1626
B(  4-S ,  9-O ) :   1.8527 B(  4-S , 12-O ) :   1.8341 B( 13-C , 16-C ) :   0.9477
B( 13-C , 17-H ) :   0.9608 B( 13-C , 18-H ) :   0.9606 B( 16-C , 19-C ) :   0.9666
B( 16-C , 22-H ) :   0.9699 B( 16-C , 23-H ) :   0.9559 B( 19-C , 24-H ) :   0.9429
B( 19-C , 25-H ) :   0.9658

Dispersion correction           -0.062316465
FINAL SINGLE POINT ENERGY      -924.241551228700

DIPOLE MOMENT
-------------
                                X             Y             Z
Electronic contribution:    -19.01211      -8.59097      -6.71017
Nuclear contribution   :     19.08524       6.89775       6.14221
                        -----------------------------------------
Total Dipole Moment    :      0.07312      -1.69321      -0.56796
                        -----------------------------------------
Magnitude (a.u.)       :      1.78743
Magnitude (Debye)      :      4.54328

Rotational constants in cm-1:     0.049343     0.024787     0.019726
Rotational constants in MHz :  1479.262779   743.087234   591.370705

                             ****ORCA TERMINATED NORMALLY****
TOTAL RUN TIME: 0 days 0 hours 0 minutes 17 seconds 223 msec
