                         Program Version 5.0.0 -  RELEASE  -
|  1> !BLYP D3BJ RIJCOSX def2-TZVP def2/J TightSCF xyzfile
|  2>
|  3> *xyzfile 0 1 D2.xyz
|  4>
|  5> %MaxCore 64000
|  6>
|  7> %pal nprocs 18
|  8> end
|  9>
| 10> %scf
| 11>   MaxIter 150
| 12> end
| 13>
| 14>
| 15>                          ****END OF INPUT****

CARTESIAN COORDINATES (ANGSTROEM)
---------------------------------
  C     -4.382623   -1.670889    1.216201
  C     -5.763539   -1.915170    0.705012
  C     -3.281728   -2.191272    0.294361
  C     -5.572364   -5.807798   -0.816445
  S     -6.903179   -4.619033   -0.528458
  H     -5.840812   -2.115205   -0.300646
  H     -6.408823   -1.148656    0.936124
  H     -6.174781   -2.790606    1.051433
  O     -8.114853   -5.250932   -0.957007
  F     -6.532715   -3.426838   -1.314848
  H     -4.328618   -2.139223    2.198103
  H     -4.261583   -0.597399    1.357248
  O     -6.865632   -4.294957    0.914118
  C     -3.474641   -3.605898   -0.259608
  H     -2.354548   -2.127602    0.871433
  H     -3.166611   -1.499693   -0.545037
  C     -3.827078   -4.661097    0.786174
  H     -2.560559   -3.889391   -0.788050
  H     -4.255932   -3.570040   -1.019300
  C     -4.457800   -5.941875    0.229195
  H     -5.177347   -5.542575   -1.797714
  H     -6.074202   -6.768894   -0.921272
  H     -4.530506   -4.253640    1.511979
  H     -2.933400   -4.932302    1.356825
  H     -3.681064   -6.562236   -0.229885
  H     -4.843942   -6.512728    1.075805

 Total Charge           Charge          ....    0
 Multiplicity           Mult            ....    1
 Number of Electrons    NEL             ....   98
 Basis Dimension        Dim             ....  437

ORBITAL ENERGIES
----------------

  NO   OCC          E(Eh)            E(eV)
   0   2.0000     -88.337832     -2403.7946
   1   2.0000     -24.386170      -663.5814
   2   2.0000     -18.788902      -511.2720
   3   2.0000     -18.776433      -510.9327
   4   2.0000      -9.963096      -271.1096
   5   2.0000      -9.929932      -270.2072
   6   2.0000      -9.905680      -269.5472
   7   2.0000      -9.904079      -269.5037
   8   2.0000      -9.893936      -269.2277
   9   2.0000      -9.881404      -268.8867
  10   2.0000      -9.832932      -267.5677
  11   2.0000      -7.869495      -214.1398
  12   2.0000      -5.901673      -160.5927
  13   2.0000      -5.895196      -160.4164
  14   2.0000      -5.894648      -160.4015
  15   2.0000      -1.250569       -34.0297
  16   2.0000      -1.017059       -27.6756
  17   2.0000      -0.926794       -25.2194
  18   2.0000      -0.754878       -20.5413
  19   2.0000      -0.722583       -19.6625
  20   2.0000      -0.678470       -18.4621
  21   2.0000      -0.654921       -17.8213
  22   2.0000      -0.621258       -16.9053
  23   2.0000      -0.585789       -15.9401
  24   2.0000      -0.549040       -14.9401
  25   2.0000      -0.513803       -13.9813
  26   2.0000      -0.502931       -13.6854
  27   2.0000      -0.491171       -13.3654
  28   2.0000      -0.490627       -13.3506
  29   2.0000      -0.441529       -12.0146
  30   2.0000      -0.433958       -11.8086
  31   2.0000      -0.413944       -11.2640
  32   2.0000      -0.406218       -11.0538
  33   2.0000      -0.402527       -10.9533
  34   2.0000      -0.384877       -10.4730
  35   2.0000      -0.373816       -10.1721
  36   2.0000      -0.353041        -9.6067
  37   2.0000      -0.346063        -9.4169
  38   2.0000      -0.342319        -9.3150
  39   2.0000      -0.337169        -9.1748
  40   2.0000      -0.312336        -8.4991
  41   2.0000      -0.307195        -8.3592
  42   2.0000      -0.304306        -8.2806
  43   2.0000      -0.287917        -7.8346
  44   2.0000      -0.283687        -7.7195
  45   2.0000      -0.274691        -7.4747
  46   2.0000      -0.268586        -7.3086
  47   2.0000      -0.266865        -7.2618
  48   2.0000      -0.231598        -6.3021
  49   0.0000      -0.013933        -0.3791
  50   0.0000      -0.004328        -0.1178
  51   0.0000       0.015371         0.4183
  52   0.0000       0.024863         0.6766
  53   0.0000       0.030990         0.8433

MULLIKEN ATOMIC CHARGES
-----------------------
   0 C :   -0.122416
   1 C :   -0.408975
   2 C :   -0.145361
   3 C :   -0.292293
   4 S :    0.840375
   5 H :    0.084666
   6 H :    0.090217
   7 H :    0.178050
   8 O :   -0.376302
   9 F :   -0.106384
  10 H :    0.077701
  11 H :    0.069489
  12 O :   -0.415341
  13 C :   -0.147485
  14 H :    0.069051
  15 H :    0.076037
  16 C :   -0.213752
  17 H :    0.074647
  18 H :    0.072140
  19 C :   -0.095294
  20 H :    0.134796
  21 H :    0.152072
  22 H :    0.135534
  23 H :    0.077303
  24 H :    0.089898
  25 H :    0.101627
Sum of atomic charges:   -0.0000000

LOEWDIN ATOMIC CHARGES
----------------------
   0 C :   -0.296023
   1 C :   -0.331752
   2 C :   -0.261654
   3 C :   -0.367604
   4 S :    0.532942
   5 H :    0.094151
   6 H :    0.102824
   7 H :    0.095436
   8 O :   -0.231202
   9 F :    0.081615
  10 H :    0.129571
  11 H :    0.130854
  12 O :   -0.249128
  13 C :   -0.265387
  14 H :    0.131766
  15 H :    0.132778
  16 C :   -0.262347
  17 H :    0.132330
  18 H :    0.124944
  19 C :   -0.269286
  20 H :    0.134265
  21 H :    0.147042
  22 H :    0.143579
  23 H :    0.135306
  24 H :    0.142332
  25 H :    0.142651

  Mayer bond orders larger than 0.100000
B(  0-C ,  1-C ) :   0.9140 B(  0-C ,  2-C ) :   0.9755 B(  0-C , 10-H ) :   0.9750
B(  0-C , 11-H ) :   0.9623 B(  1-C ,  5-H ) :   0.9886 B(  1-C ,  6-H ) :   0.9697
B(  1-C ,  7-H ) :   0.9580 B(  2-C , 13-C ) :   0.9729 B(  2-C , 14-H ) :   0.9665
B(  2-C , 15-H ) :   0.9608 B(  3-C ,  4-S ) :   0.9021 B(  3-C , 19-C ) :   0.9377
B(  3-C , 20-H ) :   0.9428 B(  3-C , 21-H ) :   0.9436 B(  4-S ,  8-O ) :   1.9946
B(  4-S ,  9-F ) :   1.0938 B(  4-S , 12-O ) :   1.8073 B( 13-C , 16-C ) :   0.9501
B( 13-C , 17-H ) :   0.9639 B( 13-C , 18-H ) :   0.9685 B( 16-C , 19-C ) :   0.9584
B( 16-C , 22-H ) :   0.9713 B( 16-C , 23-H ) :   0.9545 B( 19-C , 24-H ) :   0.9411
B( 19-C , 25-H ) :   0.9637

Dispersion correction           -0.061695953
FINAL SINGLE POINT ENERGY      -924.258161171549

DIPOLE MOMENT
-------------
                                X             Y             Z
Electronic contribution:    -16.07185      -5.35076      -7.19381
Nuclear contribution   :     17.25367       4.78608       6.55647
                        -----------------------------------------
Total Dipole Moment    :      1.18182      -0.56468      -0.63734
                        -----------------------------------------
Magnitude (a.u.)       :      1.45663
Magnitude (Debye)      :      3.70245

Rotational constants in cm-1:     0.048508     0.025517     0.020225
Rotational constants in MHz :  1454.219007   764.979652   606.316599

                             ****ORCA TERMINATED NORMALLY****
TOTAL RUN TIME: 0 days 0 hours 0 minutes 16 seconds 480 msec
