                         Program Version 5.0.0 -  RELEASE  -
|  1> !PBE0 D3BJ RIJCOSX def2-TZVPD def2/J TightSCF
|  2> *xyz -1 1
|  3> C         -0.05517        1.61942       -3.78858
|  4> C          1.22302        2.46987       -3.75691
|  5> H          1.11470        3.25807       -4.53300
|  6> H          1.23773        3.01124       -2.79216
|  7> O          2.35381        1.71203       -3.93448
|  8> H         -0.10198        1.08015       -4.71156
|  9> H         -0.91014        2.25726       -3.70441
| 10> H         -0.04403        0.92826       -2.97183
| 11> *
| 12>
| 13> %MaxCore 64000
| 14>
| 15> %pal nprocs 4
| 16> end
| 17>
| 18> %scf
| 19>   MaxIter 150
| 20> end
| 21>
| 22>
| 23>                          ****END OF INPUT****

CARTESIAN COORDINATES (ANGSTROEM)
---------------------------------
  C     -0.055170    1.619420   -3.788580
  C      1.223020    2.469870   -3.756910
  H      1.114700    3.258070   -4.533000
  H      1.237730    3.011240   -2.792160
  O      2.353810    1.712030   -3.934480
  H     -0.101980    1.080150   -4.711560
  H     -0.910140    2.257260   -3.704410
  H     -0.044030    0.928260   -2.971830

 Total Charge           Charge          ....   -1
 Multiplicity           Mult            ....    1
 Number of Electrons    NEL             ....   26
 Basis Dimension        Dim             ....  159

ORBITAL ENERGIES
----------------

  NO   OCC          E(Eh)            E(eV)
   0   2.0000     -18.873800      -513.5822
   1   2.0000     -10.033049      -273.0131
   2   2.0000     -10.009278      -272.3663
   3   2.0000      -0.706605       -19.2277
   4   2.0000      -0.547550       -14.8996
   5   2.0000      -0.391011       -10.6400
   6   2.0000      -0.263679        -7.1751
   7   2.0000      -0.240381        -6.5411
   8   2.0000      -0.185817        -5.0563
   9   2.0000      -0.168404        -4.5825
  10   2.0000      -0.125754        -3.4219
  11   2.0000       0.018418         0.5012
  12   2.0000       0.020143         0.5481
  13   0.0000       0.160470         4.3666
  14   0.0000       0.183609         4.9963
  15   0.0000       0.209980         5.7138
  16   0.0000       0.212854         5.7920
  17   0.0000       0.234277         6.3750

MULLIKEN ATOMIC CHARGES
-----------------------
   0 C :   -0.714909
   1 C :   -0.119544
   2 H :    0.085274
   3 H :    0.083886
   4 O :   -0.902748
   5 H :    0.153057
   6 H :    0.258287
   7 H :    0.156697
Sum of atomic charges:   -1.0000000

LOEWDIN ATOMIC CHARGES
----------------------
   0 C :   -0.175844
   1 C :   -0.619462
   2 H :    0.055549
   3 H :    0.054431
   4 O :   -0.418566
   5 H :    0.039568
   6 H :    0.025702
   7 H :    0.038621

  Mayer bond orders larger than 0.100000
B(  0-C ,  1-C ) :   0.9022 B(  0-C ,  4-O ) :   0.3815 B(  0-C ,  5-H ) :   1.0208
B(  0-C ,  6-H ) :   0.9852 B(  0-C ,  7-H ) :   1.0143 B(  1-C ,  2-H ) :   1.0704
B(  1-C ,  3-H ) :   1.0747 B(  1-C ,  4-O ) :   0.9499

Dispersion correction           -0.003051143
FINAL SINGLE POINT ENERGY      -154.305781913086

DIPOLE MOMENT
-------------
                                X             Y             Z
Electronic contribution:      2.83821      -0.53193      -0.25649
Nuclear contribution   :     -4.28298       0.81046       0.39340
                        -----------------------------------------
Total Dipole Moment    :     -1.44477       0.27854       0.13692
                        -----------------------------------------
Magnitude (a.u.)       :      1.47773
Magnitude (Debye)      :      3.75609

Rotational constants in cm-1:     1.266793     0.328147     0.288309
Rotational constants in MHz : 37977.512300  9837.594308  8643.275638

                             ****ORCA TERMINATED NORMALLY****
TOTAL RUN TIME: 0 days 0 hours 0 minutes 19 seconds 113 msec
