                         Program Version 5.0.0 -  RELEASE  -
|  1> !PBE0 D3BJ RIJCOSX def2-TZVPD def2/J TightSCF
|  2> *xyz 1 1
|  3> C          1.63556       -1.67040       -5.29211
|  4> C          0.33848       -1.50091       -4.50540
|  5> N          2.48451       -0.50741       -5.14039
|  6> H          1.39834       -1.82924       -6.35259
|  7> H          2.15586       -2.56540       -4.93209
|  8> C          3.45115       -0.14953       -5.95259
|  9> N          3.92267        1.08956       -5.85071
| 10> N          3.96616       -1.00618       -6.86788
| 11> H          3.52139       -1.90647       -6.99527
| 12> H          4.44482       -0.62347       -7.67035
| 13> H          2.25200        0.24080       -4.49879
| 14> H          3.46428        1.64078       -5.13639
| 15> H          4.83447        1.31375       -6.22465
| 16> H         -0.17658       -0.62881       -4.85045
| 17> H          0.56384       -1.39374       -3.46490
| 18> H         -0.28102       -2.36136       -4.64938
| 19> *
| 20>
| 21> %MaxCore 64000
| 22>
| 23> %pal nprocs 4
| 24> end
| 25>
| 26> %scf
| 27>   MaxIter 150
| 28> end
| 29>
| 30>
| 31>                          ****END OF INPUT****

CARTESIAN COORDINATES (ANGSTROEM)
---------------------------------
  C      1.635560   -1.670400   -5.292110
  C      0.338480   -1.500910   -4.505400
  N      2.484510   -0.507410   -5.140390
  H      1.398340   -1.829240   -6.352590
  H      2.155860   -2.565400   -4.932090
  C      3.451150   -0.149530   -5.952590
  N      3.922670    1.089560   -5.850710
  N      3.966160   -1.006180   -6.867880
  H      3.521390   -1.906470   -6.995270
  H      4.444820   -0.623470   -7.670350
  H      2.252000    0.240800   -4.498790
  H      3.464280    1.640780   -5.136390
  H      4.834470    1.313750   -6.224650
  H     -0.176580   -0.628810   -4.850450
  H      0.563840   -1.393740   -3.464900
  H     -0.281020   -2.361360   -4.649380

 Total Charge           Charge          ....    1
 Multiplicity           Mult            ....    1
 Number of Electrons    NEL             ....   48
 Basis Dimension        Dim             ....  312

ORBITAL ENERGIES
----------------

  NO   OCC          E(Eh)            E(eV)
   0   2.0000     -14.612644      -397.6303
   1   2.0000     -14.606329      -397.4584
   2   2.0000     -14.604666      -397.4132
   3   2.0000     -10.552748      -287.1549
   4   2.0000     -10.431670      -283.8602
   5   2.0000     -10.358839      -281.8783
   6   2.0000      -1.247270       -33.9399
   7   2.0000      -1.132745       -30.8236
   8   2.0000      -1.118602       -30.4387
   9   2.0000      -0.959244       -26.1024
  10   2.0000      -0.851667       -23.1750
  11   2.0000      -0.833112       -22.6701
  12   2.0000      -0.792769       -21.5723
  13   2.0000      -0.762222       -20.7411
  14   2.0000      -0.704106       -19.1597
  15   2.0000      -0.698924       -19.0187
  16   2.0000      -0.676876       -18.4187
  17   2.0000      -0.656532       -17.8652
  18   2.0000      -0.616466       -16.7749
  19   2.0000      -0.560690       -15.2571
  20   2.0000      -0.543795       -14.7974
  21   2.0000      -0.533867       -14.5272
  22   2.0000      -0.490941       -13.3592
  23   2.0000      -0.465893       -12.6776
  24   0.0000      -0.166274        -4.5245
  25   0.0000      -0.155531        -4.2322
  26   0.0000      -0.125534        -3.4160
  27   0.0000      -0.110368        -3.0033
  28   0.0000      -0.092762        -2.5242

MULLIKEN ATOMIC CHARGES
-----------------------
   0 C :   -0.306215
   1 C :   -1.072775
   2 N :    0.009928
   3 H :    0.289115
   4 H :    0.289651
   5 C :    0.471204
   6 N :   -0.224278
   7 N :   -0.270380
   8 H :    0.219317
   9 H :    0.211438
  10 H :    0.182214
  11 H :    0.185034
  12 H :    0.218260
  13 H :    0.304337
  14 H :    0.276130
  15 H :    0.217019
Sum of atomic charges:    1.0000000

LOEWDIN ATOMIC CHARGES
----------------------
   0 C :   -0.218500
   1 C :   -0.059830
   2 N :    0.083146
   3 H :    0.130526
   4 H :    0.133738
   5 C :   -0.439757
   6 N :    0.205509
   7 N :    0.216016
   8 H :    0.121394
   9 H :    0.136240
  10 H :    0.165177
  11 H :    0.136803
  12 H :    0.143197
  13 H :    0.080380
  14 H :    0.080582
  15 H :    0.085380

  Mayer bond orders larger than 0.100000
B(  0-C ,  1-C ) :   0.9598 B(  0-C ,  2-N ) :   1.0271 B(  0-C ,  3-H ) :   0.8160
B(  0-C ,  4-H ) :   0.8420 B(  1-C , 13-H ) :   0.9422 B(  1-C , 14-H ) :   0.9532
B(  1-C , 15-H ) :   1.0194 B(  2-N ,  5-C ) :   1.2379 B(  2-N , 10-H ) :   0.9459
B(  5-C ,  6-N ) :   1.1905 B(  5-C ,  7-N ) :   1.2143 B(  6-N , 11-H ) :   0.9685
B(  6-N , 12-H ) :   0.9595 B(  7-N ,  8-H ) :   0.9416 B(  7-N ,  9-H ) :   0.9691

Dispersion correction           -0.010111558
FINAL SINGLE POINT ENERGY      -284.181192302859

DIPOLE MOMENT
-------------
                                X             Y             Z
Electronic contribution:      4.69386       2.47086      -1.70029
Nuclear contribution   :     -3.96322      -1.85512       1.24891
                        -----------------------------------------
Total Dipole Moment    :      0.73064       0.61575      -0.45139
                        -----------------------------------------
Magnitude (a.u.)       :      1.05675
Magnitude (Debye)      :      2.68606

Rotational constants in cm-1:     0.261404     0.067000     0.054949
Rotational constants in MHz :  7836.702504  2008.609425  1647.329138

                             ****ORCA TERMINATED NORMALLY****
TOTAL RUN TIME: 0 days 0 hours 0 minutes 52 seconds 618 msec
