                         Program Version 5.0.0 -  RELEASE  -
|  1> !PBE0 D3BJ RIJCOSX def2-TZVPD def2/J TightSCF xyzfile
|  2>
|  3> *xyzfile 0 1 B.xyz
|  4>
|  5> %MaxCore 64000
|  6>
|  7> %pal nprocs 4
|  8> end
|  9>
| 10> %scf
| 11>   MaxIter 150
| 12> end
| 13>
| 14>
| 15>                          ****END OF INPUT****

CARTESIAN COORDINATES (ANGSTROEM)
---------------------------------
  C      1.635557   -1.670396   -5.292109
  C      0.338484   -1.500907   -4.505398
  N      2.484511   -0.507410   -5.140392
  C     -0.684873   -0.528026   -5.099889
  C     -0.290406    0.951335   -5.153423
  H      0.607991    1.070692   -5.764412
  C     -0.055168    1.619420   -3.788577
  H     -1.080912    1.483775   -5.689436
  H      0.045006    0.862302   -3.003015
  H     -0.922936    2.230329   -3.517028
  C      1.223022    2.469865   -3.756911
  H      1.114701    3.258074   -4.532999
  H      1.237732    3.011242   -2.792157
  O      2.353815    1.712032   -3.934477
  H      1.398337   -1.829239   -6.352591
  H      2.155864   -2.565398   -4.932091
  C      3.451149   -0.149530   -5.952589
  N      3.922667    1.089559   -5.850711
  N      3.966162   -1.006183   -6.867880
  H      3.521391   -1.906467   -6.995270
  H      4.444824   -0.623472   -7.670348
  H      2.251995    0.240804   -4.498792
  H      3.464277    1.640782   -5.136392
  H      4.834470    1.313745   -6.224653
  H     -0.937999   -0.869056   -6.110838
  H     -1.604638   -0.622496   -4.513132
  H      0.594887   -1.211578   -3.482312
  H     -0.126530   -2.487656   -4.434176

 Total Charge           Charge          ....    0
 Multiplicity           Mult            ....    1
 Number of Electrons    NEL             ....   88
 Basis Dimension        Dim             ....  563

ORBITAL ENERGIES
----------------

  NO   OCC          E(Eh)            E(eV)
   0   2.0000     -19.073913      -519.0276
   1   2.0000     -14.441496      -392.9731
   2   2.0000     -14.401980      -391.8978
   3   2.0000     -14.398141      -391.7933
   4   2.0000     -10.365047      -282.0473
   5   2.0000     -10.273589      -279.5586
   6   2.0000     -10.225041      -278.2375
   7   2.0000     -10.211852      -277.8786
   8   2.0000     -10.197596      -277.4907
   9   2.0000     -10.193238      -277.3721
  10   2.0000     -10.175075      -276.8779
  11   2.0000      -1.059477       -28.8298
  12   2.0000      -0.953489       -25.9458
  13   2.0000      -0.933185       -25.3932
  14   2.0000      -0.910078       -24.7645
  15   2.0000      -0.823664       -22.4130
  16   2.0000      -0.769162       -20.9300
  17   2.0000      -0.712199       -19.3799
  18   2.0000      -0.672599       -18.3024
  19   2.0000      -0.645413       -17.5626
  20   2.0000      -0.614527       -16.7221
  21   2.0000      -0.596401       -16.2289
  22   2.0000      -0.578654       -15.7460
  23   2.0000      -0.544277       -14.8105
  24   2.0000      -0.523720       -14.2512
  25   2.0000      -0.511078       -13.9071
  26   2.0000      -0.502979       -13.6868
  27   2.0000      -0.491744       -13.3810
  28   2.0000      -0.453420       -12.3382
  29   2.0000      -0.439619       -11.9626
  30   2.0000      -0.429130       -11.6772
  31   2.0000      -0.424056       -11.5391
  32   2.0000      -0.396991       -10.8027
  33   2.0000      -0.378990       -10.3129
  34   2.0000      -0.370626       -10.0852
  35   2.0000      -0.349290        -9.5047
  36   2.0000      -0.332678        -9.0526
  37   2.0000      -0.323349        -8.7988
  38   2.0000      -0.315630        -8.5887
  39   2.0000      -0.307611        -8.3705
  40   2.0000      -0.301977        -8.2172
  41   2.0000      -0.274897        -7.4803
  42   2.0000      -0.190336        -5.1793
  43   2.0000      -0.183083        -4.9819
  44   0.0000      -0.016181        -0.4403
  45   0.0000       0.010616         0.2889
  46   0.0000       0.012146         0.3305
  47   0.0000       0.027002         0.7348
  48   0.0000       0.034276         0.9327

MULLIKEN ATOMIC CHARGES
-----------------------
   0 C :   -0.650326
   1 C :   -0.393289
   2 N :    0.080433
   3 C :   -0.257049
   4 C :   -0.272319
   5 H :    0.207732
   6 C :   -0.265620
   7 H :    0.140059
   8 H :    0.116788
   9 H :    0.147295
  10 C :   -0.221503
  11 H :    0.136461
  12 H :    0.100595
  13 O :   -1.026657
  14 H :    0.292881
  15 H :    0.270383
  16 C :    0.331871
  17 N :   -0.149500
  18 N :   -0.278230
  19 H :    0.204911
  20 H :    0.181965
  21 H :    0.332265
  22 H :    0.295875
  23 H :    0.156713
  24 H :    0.154996
  25 H :    0.063425
  26 H :    0.216687
  27 H :    0.083158
Sum of atomic charges:    0.0000000

LOEWDIN ATOMIC CHARGES
----------------------
   0 C :   -0.183281
   1 C :   -0.190800
   2 N :    0.087783
   3 C :   -0.210639
   4 C :   -0.214423
   5 H :    0.101713
   6 C :   -0.201339
   7 H :    0.106755
   8 H :    0.100743
   9 H :    0.103685
  10 C :   -0.407004
  11 H :    0.102856
  12 H :    0.095807
  13 O :   -0.326070
  14 H :    0.121229
  15 H :    0.121136
  16 C :   -0.457578
  17 N :    0.185899
  18 N :    0.173946
  19 H :    0.101310
  20 H :    0.114167
  21 H :    0.058766
  22 H :    0.051831
  23 H :    0.120656
  24 H :    0.106816
  25 H :    0.111460
  26 H :    0.113489
  27 H :    0.111088

  Mayer bond orders larger than 0.100000
B(  0-C ,  1-C ) :   1.2175 B(  0-C ,  2-N ) :   1.0754 B(  0-C ,  3-C ) :   0.1277
B(  0-C , 14-H ) :   0.8495 B(  0-C , 15-H ) :   0.8662 B(  0-C , 16-C ) :  -0.2158
B(  0-C , 18-N ) :   0.1140 B(  1-C ,  3-C ) :   1.0145 B(  1-C ,  6-C ) :   0.1134
B(  1-C , 26-H ) :   0.9052 B(  1-C , 27-H ) :   1.0215 B(  2-N , 16-C ) :   1.2984
B(  2-N , 21-H ) :   0.7264 B(  3-C ,  4-C ) :   0.9724 B(  3-C ,  6-C ) :   0.2149
B(  3-C , 24-H ) :   0.9235 B(  3-C , 25-H ) :   1.0261 B(  4-C ,  5-H ) :   1.0324
B(  4-C ,  6-C ) :   0.8799 B(  4-C ,  7-H ) :   0.9350 B(  4-C , 10-C ) :   0.2643
B(  6-C ,  8-H ) :   0.9591 B(  6-C ,  9-H ) :   1.0153 B(  6-C , 10-C ) :   0.9284
B( 10-C , 11-H ) :   1.0391 B( 10-C , 12-H ) :   0.9917 B( 10-C , 13-O ) :   0.9911
B( 13-O , 16-C ) :  -0.1425 B( 13-O , 21-H ) :   0.1221 B( 13-O , 22-H ) :   0.1827
B( 16-C , 17-N ) :   1.3084 B( 16-C , 18-N ) :   1.1920 B( 17-N , 22-H ) :   0.7767
B( 17-N , 23-H ) :   0.9808 B( 18-N , 19-H ) :   0.9464 B( 18-N , 20-H ) :   0.9801

Dispersion correction           -0.025132640
FINAL SINGLE POINT ENERGY      -516.064530875012

DIPOLE MOMENT
-------------
                                X             Y             Z
Electronic contribution:      8.36823      -0.91572      -2.22817
Nuclear contribution   :     -7.46499      -1.05836       0.01518
                        -----------------------------------------
Total Dipole Moment    :      0.90324      -1.97409      -2.21299
                        -----------------------------------------
Magnitude (a.u.)       :      3.10003
Magnitude (Debye)      :      7.87964

Rotational constants in cm-1:     0.044680     0.028958     0.019773
Rotational constants in MHz :  1339.486245   868.136755   592.791310

                             ****ORCA TERMINATED NORMALLY****
TOTAL RUN TIME: 0 days 0 hours 3 minutes 41 seconds 481 msec
