                         Program Version 5.0.0 -  RELEASE  -
|  1> !PBE0 D3BJ RIJCOSX def2-TZVPD def2/J TightSCF
|  2> *xyz 0 1
|  3> C         -0.05517        1.61942       -3.78858
|  4> C          1.22302        2.46987       -3.75691
|  5> H          1.11470        3.25807       -4.53300
|  6> H          1.23773        3.01124       -2.79216
|  7> F          2.35381        1.71203       -3.93448
|  8> H         -0.10198        1.08015       -4.71156
|  9> H         -0.91014        2.25726       -3.70441
| 10> H         -0.04403        0.92826       -2.97183
| 11> *
| 12>
| 13> %MaxCore 64000
| 14>
| 15> %pal nprocs 4
| 16> end
| 17>
| 18> %scf
| 19>   MaxIter 150
| 20> end
| 21>
| 22>
| 23>                          ****END OF INPUT****

CARTESIAN COORDINATES (ANGSTROEM)
---------------------------------
  C     -0.055170    1.619420   -3.788580
  C      1.223020    2.469870   -3.756910
  H      1.114700    3.258070   -4.533000
  H      1.237730    3.011240   -2.792160
  F      2.353810    1.712030   -3.934480
  H     -0.101980    1.080150   -4.711560
  H     -0.910140    2.257260   -3.704410
  H     -0.044030    0.928260   -2.971830

 Total Charge           Charge          ....    0
 Multiplicity           Mult            ....    1
 Number of Electrons    NEL             ....   26
 Basis Dimension        Dim             ....  159

ORBITAL ENERGIES
----------------

  NO   OCC          E(Eh)            E(eV)
   0   2.0000     -24.758409      -673.7106
   1   2.0000     -10.298920      -280.2479
   2   2.0000     -10.214145      -277.9410
   3   2.0000      -1.229927       -33.4680
   4   2.0000      -0.788243       -21.4492
   5   2.0000      -0.651660       -17.7326
   6   2.0000      -0.524108       -14.2617
   7   2.0000      -0.511302       -13.9132
   8   2.0000      -0.473756       -12.8916
   9   2.0000      -0.419308       -11.4100
  10   2.0000      -0.413794       -11.2599
  11   2.0000      -0.349823        -9.5192
  12   2.0000      -0.344230        -9.3670
  13   0.0000       0.016826         0.4579
  14   0.0000       0.043507         1.1839
  15   0.0000       0.060847         1.6557
  16   0.0000       0.064290         1.7494
  17   0.0000       0.091036         2.4772

MULLIKEN ATOMIC CHARGES
-----------------------
   0 C :   -0.622590
   1 C :    0.036184
   2 H :    0.131330
   3 H :    0.128780
   4 F :   -0.260829
   5 H :    0.179895
   6 H :    0.228181
   7 H :    0.179049
Sum of atomic charges:   -0.0000000

LOEWDIN ATOMIC CHARGES
----------------------
   0 C :   -0.086045
   1 C :   -0.287601
   2 H :    0.113078
   3 H :    0.111065
   4 F :   -0.048547
   5 H :    0.065698
   6 H :    0.067470
   7 H :    0.064882

  Mayer bond orders larger than 0.100000
B(  0-C ,  1-C ) :   0.9364 B(  0-C ,  5-H ) :   0.9779 B(  0-C ,  6-H ) :   0.9521
B(  0-C ,  7-H ) :   0.9756 B(  1-C ,  2-H ) :   0.9898 B(  1-C ,  3-H ) :   0.9941
B(  1-C ,  4-F ) :   0.8497

Dispersion correction           -0.002811665
FINAL SINGLE POINT ENERGY      -178.939586907304

DIPOLE MOMENT
-------------
                                X             Y             Z
Electronic contribution:      5.02880      -0.74057      -0.43294
Nuclear contribution   :     -5.66833       1.07099       0.52006
                        -----------------------------------------
Total Dipole Moment    :     -0.63953       0.33042       0.08712
                        -----------------------------------------
Magnitude (a.u.)       :      0.72510
Magnitude (Debye)      :      1.84305

Rotational constants in cm-1:     1.245689     0.305293     0.269541
Rotational constants in MHz : 37344.801915  9152.442838  8080.640229

                             ****ORCA TERMINATED NORMALLY****
TOTAL RUN TIME: 0 days 0 hours 0 minutes 14 seconds 302 msec
