                         Program Version 5.0.0 -  RELEASE  -
|  1> !PBE0 D3BJ RIJCOSX def2-TZVPD def2/J TightSCF
|  2> *xyz 0 1
|  3> C          1.63556       -1.67040       -5.29211
|  4> C          0.33848       -1.50091       -4.50540
|  5> C          2.48451       -0.50741       -5.14039
|  6> H          1.39834       -1.82924       -6.35259
|  7> H          2.15586       -2.56540       -4.93209
|  8> C          3.45115       -0.14953       -5.95259
|  9> N          3.92267        1.08956       -5.85071
| 10> N          3.96616       -1.00618       -6.86788
| 11> H          3.52139       -1.90647       -6.99527
| 12> H          4.44482       -0.62347       -7.67035
| 13> H          2.25200        0.24080       -4.49879
| 14> H          3.46428        1.64078       -5.13639
| 15> H          4.83447        1.31375       -6.22465
| 16> H         -0.17658       -0.62881       -4.85045
| 17> H          0.56384       -1.39374       -3.46490
| 18> H         -0.28102       -2.36136       -4.64938
| 19> *
| 20>
| 21> %MaxCore 64000
| 22>
| 23> %pal nprocs 4
| 24> end
| 25>
| 26> %scf
| 27>   MaxIter 150
| 28> end
| 29>
| 30>
| 31>                          ****END OF INPUT****

CARTESIAN COORDINATES (ANGSTROEM)
---------------------------------
  C      1.635560   -1.670400   -5.292110
  C      0.338480   -1.500910   -4.505400
  C      2.484510   -0.507410   -5.140390
  H      1.398340   -1.829240   -6.352590
  H      2.155860   -2.565400   -4.932090
  C      3.451150   -0.149530   -5.952590
  N      3.922670    1.089560   -5.850710
  N      3.966160   -1.006180   -6.867880
  H      3.521390   -1.906470   -6.995270
  H      4.444820   -0.623470   -7.670350
  H      2.252000    0.240800   -4.498790
  H      3.464280    1.640780   -5.136390
  H      4.834470    1.313750   -6.224650
  H     -0.176580   -0.628810   -4.850450
  H      0.563840   -1.393740   -3.464900
  H     -0.281020   -2.361360   -4.649380

 Total Charge           Charge          ....    0
 Multiplicity           Mult            ....    1
 Number of Electrons    NEL             ....   48
 Basis Dimension        Dim             ....  312

ORBITAL ENERGIES
----------------

  NO   OCC          E(Eh)            E(eV)
   0   2.0000     -14.384780      -391.4298
   1   2.0000     -14.379837      -391.2953
   2   2.0000     -10.259249      -279.1684
   3   2.0000     -10.198793      -277.5233
   4   2.0000     -10.187370      -277.2124
   5   2.0000     -10.144290      -276.0402
   6   2.0000      -0.985234       -26.8096
   7   2.0000      -0.895897       -24.3786
   8   2.0000      -0.800496       -21.7826
   9   2.0000      -0.720166       -19.5967
  10   2.0000      -0.630842       -17.1661
  11   2.0000      -0.597435       -16.2570
  12   2.0000      -0.549566       -14.9545
  13   2.0000      -0.528870       -14.3913
  14   2.0000      -0.480863       -13.0849
  15   2.0000      -0.454660       -12.3719
  16   2.0000      -0.442110       -12.0304
  17   2.0000      -0.409158       -11.1338
  18   2.0000      -0.391702       -10.6588
  19   2.0000      -0.353766        -9.6265
  20   2.0000      -0.343025        -9.3342
  21   2.0000      -0.341924        -9.3042
  22   2.0000      -0.276910        -7.5351
  23   2.0000      -0.174079        -4.7369
  24   0.0000       0.006994         0.1903
  25   0.0000       0.029855         0.8124
  26   0.0000       0.034907         0.9499
  27   0.0000       0.056092         1.5263
  28   0.0000       0.062385         1.6976

MULLIKEN ATOMIC CHARGES
-----------------------
   0 C :    0.067449
   1 C :   -1.104042
   2 C :   -0.577518
   3 H :    0.186557
   4 H :    0.164976
   5 C :    0.204164
   6 N :   -0.294285
   7 N :   -0.325760
   8 H :    0.182326
   9 H :    0.157008
  10 H :    0.281286
  11 H :    0.167795
  12 H :    0.155466
  13 H :    0.282020
  14 H :    0.242277
  15 H :    0.210281
Sum of atomic charges:    0.0000000

LOEWDIN ATOMIC CHARGES
----------------------
   0 C :   -0.296149
   1 C :   -0.114365
   2 C :   -0.152324
   3 H :    0.108170
   4 H :    0.108918
   5 C :   -0.549633
   6 N :    0.101759
   7 N :    0.129041
   8 H :    0.094233
   9 H :    0.095944
  10 H :    0.069808
  11 H :    0.108322
  12 H :    0.100392
  13 H :    0.068238
  14 H :    0.067517
  15 H :    0.060129

  Mayer bond orders larger than 0.100000
B(  0-C ,  1-C ) :   0.8124 B(  0-C ,  2-C ) :   0.8850 B(  0-C ,  3-H ) :   0.8591
B(  0-C ,  4-H ) :   0.8978 B(  0-C ,  5-C ) :   0.2208 B(  1-C ,  2-C ) :   0.2878
B(  1-C , 13-H ) :   0.9696 B(  1-C , 14-H ) :   0.9939 B(  1-C , 15-H ) :   1.0108
B(  2-C ,  5-C ) :   1.2372 B(  2-C , 10-H ) :   0.9179 B(  5-C ,  6-N ) :   1.1680
B(  5-C ,  7-N ) :   1.0428 B(  5-C , 10-H ) :  -0.2083 B(  6-N , 11-H ) :   0.9697
B(  6-N , 12-H ) :   1.0244 B(  7-N ,  8-H ) :   0.9494 B(  7-N ,  9-H ) :   1.0155

Dispersion correction           -0.010530562
FINAL SINGLE POINT ENERGY      -267.708747256502

DIPOLE MOMENT
-------------
                                X             Y             Z
Electronic contribution:      4.51638       2.15713      -1.89705
Nuclear contribution   :     -3.99655      -1.83277       1.34879
                        -----------------------------------------
Total Dipole Moment    :      0.51983       0.32436      -0.54827
                        -----------------------------------------
Magnitude (a.u.)       :      0.82221
Magnitude (Debye)      :      2.08990

Rotational constants in cm-1:     0.262971     0.067064     0.055026
Rotational constants in MHz :  7883.664566  2010.513309  1649.636654

                             ****ORCA TERMINATED NORMALLY****
TOTAL RUN TIME: 0 days 0 hours 0 minutes 51 seconds 414 msec
