                         Program Version 5.0.0 -  RELEASE  -
|  1> !PBE0 D3BJ RIJCOSX def2-TZVPD def2/J TightSCF
|  2> *xyz 0 1
|  3> C          1.63556       -1.67040       -5.29211
|  4> C          0.33848       -1.50091       -4.50540
|  5> N          2.48451       -0.50741       -5.14039
|  6> H          1.39834       -1.82924       -6.35259
|  7> H          2.15586       -2.56540       -4.93209
|  8> C          3.45115       -0.14953       -5.95259
|  9> C          3.92267        1.08956       -5.85071
| 10> N          3.96616       -1.00618       -6.86788
| 11> H          3.52139       -1.90647       -6.99527
| 12> H          4.44482       -0.62347       -7.67035
| 13> H          2.25200        0.24080       -4.49879
| 14> H          3.46428        1.64078       -5.13639
| 15> H          4.83447        1.31375       -6.22465
| 16> H         -0.17658       -0.62881       -4.85045
| 17> H          0.56384       -1.39374       -3.46490
| 18> H         -0.28102       -2.36136       -4.64938
| 19> *
| 20>
| 21> %MaxCore 64000
| 22>
| 23> %pal nprocs 4
| 24> end
| 25>
| 26> %scf
| 27>   MaxIter 150
| 28> end
| 29>
| 30>
| 31>                          ****END OF INPUT****

CARTESIAN COORDINATES (ANGSTROEM)
---------------------------------
  C      1.635560   -1.670400   -5.292110
  C      0.338480   -1.500910   -4.505400
  N      2.484510   -0.507410   -5.140390
  H      1.398340   -1.829240   -6.352590
  H      2.155860   -2.565400   -4.932090
  C      3.451150   -0.149530   -5.952590
  C      3.922670    1.089560   -5.850710
  N      3.966160   -1.006180   -6.867880
  H      3.521390   -1.906470   -6.995270
  H      4.444820   -0.623470   -7.670350
  H      2.252000    0.240800   -4.498790
  H      3.464280    1.640780   -5.136390
  H      4.834470    1.313750   -6.224650
  H     -0.176580   -0.628810   -4.850450
  H      0.563840   -1.393740   -3.464900
  H     -0.281020   -2.361360   -4.649380

 Total Charge           Charge          ....    0
 Multiplicity           Mult            ....    1
 Number of Electrons    NEL             ....   48
 Basis Dimension        Dim             ....  312

ORBITAL ENERGIES
----------------

  NO   OCC          E(Eh)            E(eV)
   0   2.0000     -14.386113      -391.4660
   1   2.0000     -14.383032      -391.3822
   2   2.0000     -10.264058      -279.2992
   3   2.0000     -10.263708      -279.2897
   4   2.0000     -10.219545      -278.0879
   5   2.0000     -10.129271      -275.6315
   6   2.0000      -0.998001       -27.1570
   7   2.0000      -0.909309       -24.7436
   8   2.0000      -0.802153       -21.8277
   9   2.0000      -0.725119       -19.7315
  10   2.0000      -0.648738       -17.6531
  11   2.0000      -0.614607       -16.7243
  12   2.0000      -0.550512       -14.9802
  13   2.0000      -0.512795       -13.9539
  14   2.0000      -0.495442       -13.4817
  15   2.0000      -0.477937       -13.0053
  16   2.0000      -0.433166       -11.7870
  17   2.0000      -0.410011       -11.1570
  18   2.0000      -0.393522       -10.7083
  19   2.0000      -0.388917       -10.5830
  20   2.0000      -0.388167       -10.5626
  21   2.0000      -0.361817        -9.8455
  22   2.0000      -0.270625        -7.3641
  23   2.0000      -0.171951        -4.6790
  24   0.0000       0.005748         0.1564
  25   0.0000       0.024333         0.6621
  26   0.0000       0.032753         0.8913
  27   0.0000       0.055958         1.5227
  28   0.0000       0.065404         1.7797

MULLIKEN ATOMIC CHARGES
-----------------------
   0 C :   -0.219344
   1 C :   -1.018091
   2 N :   -0.018687
   3 H :    0.251969
   4 H :    0.208323
   5 C :    0.621217
   6 C :   -1.170986
   7 N :   -0.321428
   8 H :    0.163459
   9 H :    0.199580
  10 H :    0.139241
  11 H :    0.220479
  12 H :    0.233092
  13 H :    0.268322
  14 H :    0.241284
  15 H :    0.201572
Sum of atomic charges:   -0.0000000

LOEWDIN ATOMIC CHARGES
----------------------
   0 C :   -0.256366
   1 C :   -0.088975
   2 N :    0.011414
   3 H :    0.114958
   4 H :    0.114137
   5 C :   -0.567960
   6 C :   -0.008355
   7 N :    0.122815
   8 H :    0.085838
   9 H :    0.107693
  10 H :    0.142975
  11 H :    0.006655
  12 H :    0.008079
  13 H :    0.071005
  14 H :    0.068898
  15 H :    0.067188

  Mayer bond orders larger than 0.100000
B(  0-C ,  1-C ) :   0.9064 B(  0-C ,  2-N ) :   0.9648 B(  0-C ,  3-H ) :   0.8597
B(  0-C ,  4-H ) :   0.9050 B(  1-C , 13-H ) :   0.9831 B(  1-C , 14-H ) :   0.9768
B(  1-C , 15-H ) :   1.0222 B(  2-N ,  5-C ) :   1.1353 B(  2-N , 10-H ) :   0.9145
B(  5-C ,  6-C ) :   1.1744 B(  5-C ,  7-N ) :   1.1130 B(  6-C , 11-H ) :   1.0062
B(  6-C , 12-H ) :   1.0420 B(  7-N ,  8-H ) :   0.9882 B(  7-N ,  9-H ) :   0.9647

Dispersion correction           -0.010433951
FINAL SINGLE POINT ENERGY      -267.696687963163

DIPOLE MOMENT
-------------
                                X             Y             Z
Electronic contribution:      2.95992       0.55210      -1.27957
Nuclear contribution   :     -3.69145      -1.49398       1.19810
                        -----------------------------------------
Total Dipole Moment    :     -0.73153      -0.94188      -0.08147
                        -----------------------------------------
Magnitude (a.u.)       :      1.19537
Magnitude (Debye)      :      3.03840

Rotational constants in cm-1:     0.270790     0.068966     0.056679
Rotational constants in MHz :  8118.084803  2067.559423  1699.196934

                             ****ORCA TERMINATED NORMALLY****
TOTAL RUN TIME: 0 days 0 hours 0 minutes 54 seconds 844 msec
