                         Program Version 5.0.0 -  RELEASE  -
|  1> !PBE0 D3BJ RIJCOSX def2-TZVPD def2/J TightSCF
|  2> *xyz 0 1
|  3> C          1.63556       -1.67040       -5.29211
|  4> C          0.33848       -1.50091       -4.50540
|  5> N          2.48451       -0.50741       -5.14039
|  6> H          1.39834       -1.82924       -6.35259
|  7> H          2.15586       -2.56540       -4.93209
|  8> C          3.45115       -0.14953       -5.95259
|  9> N          3.92267        1.08956       -5.85071
| 10> C          3.96616       -1.00618       -6.86788
| 11> H          3.52139       -1.90647       -6.99527
| 12> H          4.44482       -0.62347       -7.67035
| 13> H          2.25200        0.24080       -4.49879
| 14> H          3.46428        1.64078       -5.13639
| 15> H          4.83447        1.31375       -6.22465
| 16> H         -0.17658       -0.62881       -4.85045
| 17> H          0.56384       -1.39374       -3.46490
| 18> H         -0.28102       -2.36136       -4.64938
| 19> *
| 20>
| 21> %MaxCore 64000
| 22>
| 23> %pal nprocs 4
| 24> end
| 25>
| 26> %scf
| 27>   MaxIter 150
| 28> end
| 29>
| 30>
| 31>                          ****END OF INPUT****

CARTESIAN COORDINATES (ANGSTROEM)
---------------------------------
  C      1.635560   -1.670400   -5.292110
  C      0.338480   -1.500910   -4.505400
  N      2.484510   -0.507410   -5.140390
  H      1.398340   -1.829240   -6.352590
  H      2.155860   -2.565400   -4.932090
  C      3.451150   -0.149530   -5.952590
  N      3.922670    1.089560   -5.850710
  C      3.966160   -1.006180   -6.867880
  H      3.521390   -1.906470   -6.995270
  H      4.444820   -0.623470   -7.670350
  H      2.252000    0.240800   -4.498790
  H      3.464280    1.640780   -5.136390
  H      4.834470    1.313750   -6.224650
  H     -0.176580   -0.628810   -4.850450
  H      0.563840   -1.393740   -3.464900
  H     -0.281020   -2.361360   -4.649380

 Total Charge           Charge          ....    0
 Multiplicity           Mult            ....    1
 Number of Electrons    NEL             ....   48
 Basis Dimension        Dim             ....  312

ORBITAL ENERGIES
----------------

  NO   OCC          E(Eh)            E(eV)
   0   2.0000     -14.392619      -391.6431
   1   2.0000     -14.385385      -391.4462
   2   2.0000     -10.265306      -279.3332
   3   2.0000     -10.257540      -279.1219
   4   2.0000     -10.215777      -277.9854
   5   2.0000     -10.131600      -275.6949
   6   2.0000      -1.006667       -27.3928
   7   2.0000      -0.914569       -24.8867
   8   2.0000      -0.788230       -21.4488
   9   2.0000      -0.725839       -19.7511
  10   2.0000      -0.665588       -18.1116
  11   2.0000      -0.586251       -15.9527
  12   2.0000      -0.552608       -15.0372
  13   2.0000      -0.541099       -14.7241
  14   2.0000      -0.489827       -13.3289
  15   2.0000      -0.481435       -13.1005
  16   2.0000      -0.415470       -11.3055
  17   2.0000      -0.409069       -11.1313
  18   2.0000      -0.406334       -11.0569
  19   2.0000      -0.383934       -10.4474
  20   2.0000      -0.375127       -10.2077
  21   2.0000      -0.362921        -9.8756
  22   2.0000      -0.264663        -7.2019
  23   2.0000      -0.176578        -4.8049
  24   0.0000       0.004387         0.1194
  25   0.0000       0.021546         0.5863
  26   0.0000       0.035989         0.9793
  27   0.0000       0.055362         1.5065
  28   0.0000       0.061971         1.6863

MULLIKEN ATOMIC CHARGES
-----------------------
   0 C :   -0.316631
   1 C :   -0.966959
   2 N :   -0.058796
   3 H :    0.246764
   4 H :    0.268750
   5 C :    0.618958
   6 N :   -0.295464
   7 C :   -1.163555
   8 H :    0.277079
   9 H :    0.215718
  10 H :    0.155908
  11 H :    0.123263
  12 H :    0.189906
  13 H :    0.264929
  14 H :    0.239654
  15 H :    0.200476
Sum of atomic charges:    0.0000000

LOEWDIN ATOMIC CHARGES
----------------------
   0 C :   -0.248027
   1 C :   -0.090947
   2 N :    0.011098
   3 H :    0.120301
   4 H :    0.120751
   5 C :   -0.578173
   6 N :    0.113647
   7 C :    0.005368
   8 H :   -0.008914
   9 H :    0.002905
  10 H :    0.136630
  11 H :    0.098409
  12 H :    0.114572
  13 H :    0.068350
  14 H :    0.066328
  15 H :    0.067701

  Mayer bond orders larger than 0.100000
B(  0-C ,  1-C ) :   0.8506 B(  0-C ,  2-N ) :   1.0228 B(  0-C ,  3-H ) :   0.8930
B(  0-C ,  4-H ) :   0.8781 B(  0-C ,  7-C ) :   0.1536 B(  1-C , 13-H ) :   0.9858
B(  1-C , 14-H ) :   0.9736 B(  1-C , 15-H ) :   1.0253 B(  2-N ,  5-C ) :   1.0796
B(  2-N , 10-H ) :   0.9673 B(  5-C ,  6-N ) :   1.0709 B(  5-C ,  7-C ) :   1.3441
B(  6-N , 11-H ) :   1.0303 B(  6-N , 12-H ) :   0.9768 B(  7-C ,  8-H ) :   0.9354
B(  7-C ,  9-H ) :   1.0846

Dispersion correction           -0.010470985
FINAL SINGLE POINT ENERGY      -267.697424315120

DIPOLE MOMENT
-------------
                                X             Y             Z
Electronic contribution:      3.02018       2.61321      -0.21373
Nuclear contribution   :     -3.68222      -1.93858       0.98231
                        -----------------------------------------
Total Dipole Moment    :     -0.66205       0.67463       0.76858
                        -----------------------------------------
Magnitude (a.u.)       :      1.21826
Magnitude (Debye)      :      3.09657

Rotational constants in cm-1:     0.275407     0.068040     0.056255
Rotational constants in MHz :  8256.498401  2039.796466  1686.484500

                             ****ORCA TERMINATED NORMALLY****
TOTAL RUN TIME: 0 days 0 hours 0 minutes 56 seconds 20 msec
