                         Program Version 5.0.0 -  RELEASE  -
|  1> !PBE0 D3BJ RIJCOSX def2-TZVPD def2/J TightSCF xyzfile
|  2>
|  3> *xyzfile 0 1 D1.xyz
|  4>
|  5> %MaxCore 64000
|  6>
|  7> %pal nprocs 4
|  8> end
|  9>
| 10> %scf
| 11>   MaxIter 150
| 12> end
| 13>
| 14>
| 15>                          ****END OF INPUT****

CARTESIAN COORDINATES (ANGSTROEM)
---------------------------------
  C      1.635557   -1.670396   -5.292109
  C      0.338484   -1.500907   -4.505398
  C      2.484511   -0.507410   -5.140392
  C     -0.684873   -0.528026   -5.099889
  C     -0.290406    0.951335   -5.153423
  H      0.607991    1.070692   -5.764412
  C     -0.055168    1.619420   -3.788577
  H     -1.080912    1.483775   -5.689436
  H      0.045006    0.862302   -3.003015
  H     -0.922936    2.230329   -3.517028
  C      1.223022    2.469865   -3.756911
  H      1.114701    3.258074   -4.532999
  H      1.237732    3.011242   -2.792157
  F      2.353815    1.712032   -3.934477
  H      1.398337   -1.829239   -6.352591
  H      2.155864   -2.565398   -4.932091
  C      3.451149   -0.149530   -5.952589
  N      3.922667    1.089559   -5.850711
  N      3.966162   -1.006183   -6.867880
  H      3.521391   -1.906467   -6.995270
  H      4.444824   -0.623472   -7.670348
  H      2.251995    0.240804   -4.498792
  H      3.464277    1.640782   -5.136392
  H      4.834470    1.313745   -6.224653
  H     -0.937999   -0.869056   -6.110838
  H     -1.604638   -0.622496   -4.513132
  H      0.594887   -1.211578   -3.482312
  H     -0.126530   -2.487656   -4.434176

 Total Charge           Charge          ....    0
 Multiplicity           Mult            ....    1
 Number of Electrons    NEL             ....   88
 Basis Dimension        Dim             ....  563

ORBITAL ENERGIES
----------------

  NO   OCC          E(Eh)            E(eV)
   0   2.0000     -24.786152      -674.4655
   1   2.0000     -14.370460      -391.0401
   2   2.0000     -14.354973      -390.6187
   3   2.0000     -10.308725      -280.5147
   4   2.0000     -10.241016      -278.6722
   5   2.0000     -10.227727      -278.3106
   6   2.0000     -10.210443      -277.8403
   7   2.0000     -10.207778      -277.7678
   8   2.0000     -10.198333      -277.5107
   9   2.0000     -10.188058      -277.2311
  10   2.0000     -10.117008      -275.2978
  11   2.0000      -1.267797       -34.4985
  12   2.0000      -0.967705       -26.3326
  13   2.0000      -0.879343       -23.9281
  14   2.0000      -0.832924       -22.6650
  15   2.0000      -0.799548       -21.7568
  16   2.0000      -0.749669       -20.3995
  17   2.0000      -0.713353       -19.4113
  18   2.0000      -0.661062       -17.9884
  19   2.0000      -0.626419       -17.0457
  20   2.0000      -0.595222       -16.1968
  21   2.0000      -0.571958       -15.5638
  22   2.0000      -0.552724       -15.0404
  23   2.0000      -0.537903       -14.6371
  24   2.0000      -0.521810       -14.1992
  25   2.0000      -0.519221       -14.1287
  26   2.0000      -0.500153       -13.6099
  27   2.0000      -0.471138       -12.8203
  28   2.0000      -0.453581       -12.3426
  29   2.0000      -0.452983       -12.3263
  30   2.0000      -0.430632       -11.7181
  31   2.0000      -0.415530       -11.3071
  32   2.0000      -0.404396       -11.0042
  33   2.0000      -0.391316       -10.6482
  34   2.0000      -0.374354       -10.1867
  35   2.0000      -0.370537       -10.0828
  36   2.0000      -0.361359        -9.8331
  37   2.0000      -0.348150        -9.4736
  38   2.0000      -0.331015        -9.0074
  39   2.0000      -0.319584        -8.6963
  40   2.0000      -0.313830        -8.5398
  41   2.0000      -0.302520        -8.2320
  42   2.0000      -0.260307        -7.0833
  43   2.0000      -0.156175        -4.2497
  44   0.0000       0.010823         0.2945
  45   0.0000       0.018482         0.5029
  46   0.0000       0.026674         0.7258
  47   0.0000       0.034141         0.9290
  48   0.0000       0.043674         1.1884

MULLIKEN ATOMIC CHARGES
-----------------------
   0 C :   -0.046301
   1 C :   -0.457610
   2 C :   -0.778190
   3 C :   -0.360356
   4 C :   -0.275335
   5 H :    0.344055
   6 C :   -0.364204
   7 H :    0.151829
   8 H :    0.194391
   9 H :    0.149758
  10 C :   -0.057138
  11 H :    0.171231
  12 H :    0.120285
  13 F :   -0.382569
  14 H :    0.223540
  15 H :    0.202791
  16 C :   -0.861998
  17 N :   -0.263520
  18 N :   -0.304556
  19 H :    0.188605
  20 H :    0.154413
  21 H :    1.403669
  22 H :    0.316427
  23 H :    0.090529
  24 H :    0.156826
  25 H :    0.059063
  26 H :    0.120023
  27 H :    0.104342
Sum of atomic charges:    0.0000000

LOEWDIN ATOMIC CHARGES
----------------------
   0 C :   -0.231178
   1 C :   -0.214704
   2 C :   -0.142582
   3 C :   -0.205363
   4 C :   -0.209155
   5 H :    0.106497
   6 C :   -0.173447
   7 H :    0.107917
   8 H :    0.109586
   9 H :    0.116750
  10 C :   -0.194020
  11 H :    0.131386
  12 H :    0.121097
  13 F :   -0.080460
  14 H :    0.112731
  15 H :    0.110855
  16 C :   -0.534007
  17 N :    0.114106
  18 N :    0.127746
  19 H :    0.091562
  20 H :    0.092507
  21 H :    0.036269
  22 H :    0.073181
  23 H :    0.100815
  24 H :    0.111559
  25 H :    0.108482
  26 H :    0.106412
  27 H :    0.105458

  Mayer bond orders larger than 0.100000
B(  0-C ,  1-C ) :   1.1945 B(  0-C ,  2-C ) :   0.4016 B(  0-C ,  3-C ) :   0.1642
B(  0-C , 14-H ) :   0.8641 B(  0-C , 15-H ) :   1.0048 B(  1-C ,  2-C ) :   0.3850
B(  1-C ,  3-C ) :   1.0830 B(  1-C , 21-H ) :  -0.1160 B(  1-C , 26-H ) :   0.9354
B(  1-C , 27-H ) :   1.0297 B(  2-C ,  4-C ) :   0.2087 B(  2-C , 13-F ) :   0.2553
B(  2-C , 14-H ) :  -0.2308 B(  2-C , 15-H ) :  -0.1108 B(  2-C , 16-C ) :   2.0069
B(  2-C , 17-N ) :  -0.1379 B(  2-C , 21-H ) :  -0.5107 B(  3-C ,  4-C ) :   1.0136
B(  3-C ,  6-C ) :   0.2765 B(  3-C , 24-H ) :   0.9319 B(  3-C , 25-H ) :   1.0295
B(  4-C ,  5-H ) :   0.9522 B(  4-C ,  6-C ) :   0.7998 B(  4-C ,  7-H ) :   0.9030
B(  4-C , 10-C ) :   0.2541 B(  4-C , 21-H ) :  -0.1270 B(  6-C ,  8-H ) :   0.9795
B(  6-C ,  9-H ) :   0.9778 B(  6-C , 10-C ) :   0.9646 B( 10-C , 11-H ) :   0.9856
B( 10-C , 12-H ) :   0.9694 B( 10-C , 13-F ) :   0.8266 B( 13-F , 16-C ) :   0.1054
B( 13-F , 21-H ) :  -0.4456 B( 14-H , 21-H ) :   0.1195 B( 16-C , 17-N ) :   1.2585
B( 16-C , 18-N ) :   1.0642 B( 16-C , 21-H ) :  -0.7574 B( 17-N , 22-H ) :   0.8415
B( 17-N , 23-H ) :   1.0636 B( 18-N , 19-H ) :   0.9526 B( 18-N , 20-H ) :   1.0077

Dispersion correction           -0.025097612
FINAL SINGLE POINT ENERGY      -523.988004273980

DIPOLE MOMENT
-------------
                                X             Y             Z
Electronic contribution:      7.83667       3.82735       1.15044
Nuclear contribution   :     -8.11591      -2.99033      -1.35383
                        -----------------------------------------
Total Dipole Moment    :     -0.27924       0.83703      -0.20339
                        -----------------------------------------
Magnitude (a.u.)       :      0.90551
Magnitude (Debye)      :      2.30164

Rotational constants in cm-1:     0.043530     0.028984     0.019589
Rotational constants in MHz :  1305.007140   868.923804   587.262638

                             ****ORCA TERMINATED NORMALLY****
TOTAL RUN TIME: 0 days 0 hours 3 minutes 48 seconds 574 msec
