                         Program Version 5.0.0 -  RELEASE  -
|  1> !PBE0 D3BJ RIJCOSX def2-TZVPD def2/J TightSCF xyzfile
|  2>
|  3> *xyzfile 0 1 D2.xyz
|  4>
|  5> %MaxCore 64000
|  6>
|  7> %pal nprocs 4
|  8> end
|  9>
| 10> %scf
| 11>   MaxIter 150
| 12> end
| 13>
| 14>
| 15>                          ****END OF INPUT****

CARTESIAN COORDINATES (ANGSTROEM)
---------------------------------
  C      1.635557   -1.670396   -5.292109
  C      0.338484   -1.500907   -4.505398
  N      2.484511   -0.507410   -5.140392
  C     -0.684873   -0.528026   -5.099889
  C     -0.290406    0.951335   -5.153423
  H      0.607991    1.070692   -5.764412
  C     -0.055168    1.619420   -3.788577
  H     -1.080912    1.483775   -5.689436
  H      0.045006    0.862302   -3.003015
  H     -0.922936    2.230329   -3.517028
  C      1.223022    2.469865   -3.756911
  H      1.114701    3.258074   -4.532999
  H      1.237732    3.011242   -2.792157
  F      2.353815    1.712032   -3.934477
  H      1.398337   -1.829239   -6.352591
  H      2.155864   -2.565398   -4.932091
  C      3.451149   -0.149530   -5.952589
  C      3.922667    1.089559   -5.850711
  N      3.966162   -1.006183   -6.867880
  H      3.521391   -1.906467   -6.995270
  H      4.444824   -0.623472   -7.670348
  H      2.251995    0.240804   -4.498792
  H      3.464277    1.640782   -5.136392
  H      4.834470    1.313745   -6.224653
  H     -0.937999   -0.869056   -6.110838
  H     -1.604638   -0.622496   -4.513132
  H      0.594887   -1.211578   -3.482312
  H     -0.126530   -2.487656   -4.434176

 Total Charge           Charge          ....    0
 Multiplicity           Mult            ....    1
 Number of Electrons    NEL             ....   88
 Basis Dimension        Dim             ....  563

ORBITAL ENERGIES
----------------

  NO   OCC          E(Eh)            E(eV)
   0   2.0000     -24.787621      -674.5055
   1   2.0000     -14.368441      -390.9852
   2   2.0000     -14.359059      -390.7299
   3   2.0000     -10.310445      -280.5615
   4   2.0000     -10.250582      -278.9325
   5   2.0000     -10.245773      -278.8017
   6   2.0000     -10.236400      -278.5466
   7   2.0000     -10.225684      -278.2550
   8   2.0000     -10.225224      -278.2425
   9   2.0000     -10.223104      -278.1848
  10   2.0000     -10.104423      -274.9553
  11   2.0000      -1.268666       -34.5222
  12   2.0000      -0.980514       -26.6812
  13   2.0000      -0.894974       -24.3535
  14   2.0000      -0.843127       -22.9426
  15   2.0000      -0.800855       -21.7924
  16   2.0000      -0.760147       -20.6846
  17   2.0000      -0.707477       -19.2514
  18   2.0000      -0.672347       -18.2955
  19   2.0000      -0.641671       -17.4608
  20   2.0000      -0.602402       -16.3922
  21   2.0000      -0.586370       -15.9560
  22   2.0000      -0.559992       -15.2382
  23   2.0000      -0.533567       -14.5191
  24   2.0000      -0.526484       -14.3264
  25   2.0000      -0.519042       -14.1239
  26   2.0000      -0.500976       -13.6322
  27   2.0000      -0.487090       -13.2544
  28   2.0000      -0.464888       -12.6503
  29   2.0000      -0.456473       -12.4213
  30   2.0000      -0.436997       -11.8913
  31   2.0000      -0.424893       -11.5619
  32   2.0000      -0.413258       -11.2453
  33   2.0000      -0.394730       -10.7412
  34   2.0000      -0.382906       -10.4194
  35   2.0000      -0.375727       -10.2240
  36   2.0000      -0.364713        -9.9243
  37   2.0000      -0.361293        -9.8313
  38   2.0000      -0.345214        -9.3938
  39   2.0000      -0.335882        -9.1398
  40   2.0000      -0.334359        -9.0984
  41   2.0000      -0.330309        -8.9882
  42   2.0000      -0.252599        -6.8736
  43   2.0000      -0.154480        -4.2036
  44   0.0000       0.006644         0.1808
  45   0.0000       0.016264         0.4426
  46   0.0000       0.024444         0.6651
  47   0.0000       0.027703         0.7538
  48   0.0000       0.043953         1.1960

MULLIKEN ATOMIC CHARGES
-----------------------
   0 C :   -0.542427
   1 C :   -0.457828
   2 N :   -0.057764
   3 C :   -0.216228
   4 C :   -0.426409
   5 H :    0.329230
   6 C :   -0.299497
   7 H :    0.135526
   8 H :    0.184270
   9 H :    0.148381
  10 C :   -0.095612
  11 H :    0.171682
  12 H :    0.127010
  13 F :   -0.419731
  14 H :    0.285634
  15 H :    0.242209
  16 C :    0.534723
  17 C :   -1.404187
  18 N :   -0.337593
  19 H :    0.170785
  20 H :    0.193877
  21 H :    0.341726
  22 H :    0.671948
  23 H :    0.226047
  24 H :    0.169944
  25 H :    0.061909
  26 H :    0.194902
  27 H :    0.067472
Sum of atomic charges:   -0.0000000

LOEWDIN ATOMIC CHARGES
----------------------
   0 C :   -0.199015
   1 C :   -0.196390
   2 N :    0.027998
   3 C :   -0.205986
   4 C :   -0.207311
   5 H :    0.107471
   6 C :   -0.174526
   7 H :    0.110995
   8 H :    0.107786
   9 H :    0.117837
  10 C :   -0.192600
  11 H :    0.134377
  12 H :    0.122628
  13 F :   -0.078729
  14 H :    0.119099
  15 H :    0.115661
  16 C :   -0.552518
  17 C :    0.004119
  18 N :    0.121573
  19 H :    0.083372
  20 H :    0.104770
  21 H :    0.089128
  22 H :   -0.011883
  23 H :    0.010798
  24 H :    0.112459
  25 H :    0.110835
  26 H :    0.107475
  27 H :    0.110574

  Mayer bond orders larger than 0.100000
B(  0-C ,  1-C ) :   1.1899 B(  0-C ,  2-N ) :   1.0874 B(  0-C ,  3-C ) :   0.1132
B(  0-C , 14-H ) :   0.8435 B(  0-C , 15-H ) :   0.8783 B(  0-C , 16-C ) :  -0.1795
B(  0-C , 18-N ) :   0.1045 B(  1-C ,  3-C ) :   1.0093 B(  1-C ,  6-C ) :   0.1085
B(  1-C , 26-H ) :   0.9117 B(  1-C , 27-H ) :   1.0422 B(  2-N ,  4-C ) :   0.1095
B(  2-N , 16-C ) :   1.0599 B(  2-N , 21-H ) :   0.7417 B(  3-C ,  4-C ) :   1.0029
B(  3-C ,  6-C ) :   0.2181 B(  3-C , 24-H ) :   0.9171 B(  3-C , 25-H ) :   1.0287
B(  4-C ,  5-H ) :   0.9468 B(  4-C ,  6-C ) :   0.8286 B(  4-C ,  7-H ) :   0.9457
B(  4-C , 10-C ) :   0.2847 B(  6-C ,  8-H ) :   0.9854 B(  6-C ,  9-H ) :   0.9797
B(  6-C , 10-C ) :   0.9597 B( 10-C , 11-H ) :   0.9885 B( 10-C , 12-H ) :   0.9679
B( 10-C , 13-F ) :   0.8118 B( 13-F , 17-C ) :   0.1333 B( 13-F , 22-H ) :  -0.1340
B( 16-C , 17-C ) :   1.4218 B( 16-C , 18-N ) :   1.1044 B( 16-C , 23-H ) :  -0.1086
B( 17-C , 22-H ) :   0.5734 B( 17-C , 23-H ) :   1.0842 B( 18-N , 19-H ) :   0.9836
B( 18-N , 20-H ) :   0.9679 B( 22-H , 23-H ) :   0.1119

Dispersion correction           -0.024923447
FINAL SINGLE POINT ENERGY      -523.978286628395

DIPOLE MOMENT
-------------
                                X             Y             Z
Electronic contribution:      6.35592       2.43719       1.71977
Nuclear contribution   :     -7.85451      -2.70006      -1.48294
                        -----------------------------------------
Total Dipole Moment    :     -1.49859      -0.26287       0.23682
                        -----------------------------------------
Magnitude (a.u.)       :      1.53979
Magnitude (Debye)      :      3.91384

Rotational constants in cm-1:     0.044065     0.029250     0.019826
Rotational constants in MHz :  1321.026981   876.903192   594.367265

                             ****ORCA TERMINATED NORMALLY****
TOTAL RUN TIME: 0 days 0 hours 4 minutes 10 seconds 336 msec
