                         Program Version 5.0.0 -  RELEASE  -
|  1> !PBE0 D3BJ RIJCOSX def2-TZVPD def2/J TightSCF xyzfile
|  2>
|  3> *xyzfile 0 1 D3.xyz
|  4>
|  5> %MaxCore 64000
|  6>
|  7> %pal nprocs 4
|  8> end
|  9>
| 10> %scf
| 11>   MaxIter 150
| 12> end
| 13>
| 14>
| 15>                          ****END OF INPUT****

CARTESIAN COORDINATES (ANGSTROEM)
---------------------------------
  C      1.635557   -1.670396   -5.292109
  C      0.338484   -1.500907   -4.505398
  N      2.484511   -0.507410   -5.140392
  C     -0.684873   -0.528026   -5.099889
  C     -0.290406    0.951335   -5.153423
  H      0.607991    1.070692   -5.764412
  C     -0.055168    1.619420   -3.788577
  H     -1.080912    1.483775   -5.689436
  H      0.045006    0.862302   -3.003015
  H     -0.922936    2.230329   -3.517028
  C      1.223022    2.469865   -3.756911
  H      1.114701    3.258074   -4.532999
  H      1.237732    3.011242   -2.792157
  F      2.353815    1.712032   -3.934477
  H      1.398337   -1.829239   -6.352591
  H      2.155864   -2.565398   -4.932091
  C      3.451149   -0.149530   -5.952589
  N      3.922667    1.089559   -5.850711
  C      3.966162   -1.006183   -6.867880
  H      3.521391   -1.906467   -6.995270
  H      4.444824   -0.623472   -7.670348
  H      2.251995    0.240804   -4.498792
  H      3.464277    1.640782   -5.136392
  H      4.834470    1.313745   -6.224653
  H     -0.937999   -0.869056   -6.110838
  H     -1.604638   -0.622496   -4.513132
  H      0.594887   -1.211578   -3.482312
  H     -0.126530   -2.487656   -4.434176

 Total Charge           Charge          ....    0
 Multiplicity           Mult            ....    1
 Number of Electrons    NEL             ....   88
 Basis Dimension        Dim             ....  563

ORBITAL ENERGIES
----------------

  NO   OCC          E(Eh)            E(eV)
   0   2.0000     -24.815584      -675.2664
   1   2.0000     -14.362802      -390.8317
   2   2.0000     -14.357448      -390.6860
   3   2.0000     -10.327614      -281.0287
   4   2.0000     -10.246381      -278.8182
   5   2.0000     -10.246225      -278.8140
   6   2.0000     -10.243636      -278.7435
   7   2.0000     -10.229243      -278.3519
   8   2.0000     -10.226318      -278.2723
   9   2.0000     -10.223278      -278.1895
  10   2.0000     -10.114427      -275.2275
  11   2.0000      -1.295733       -35.2587
  12   2.0000      -0.985648       -26.8208
  13   2.0000      -0.895559       -24.3694
  14   2.0000      -0.848160       -23.0796
  15   2.0000      -0.804448       -21.8902
  16   2.0000      -0.752199       -20.4684
  17   2.0000      -0.716285       -19.4911
  18   2.0000      -0.681802       -18.5528
  19   2.0000      -0.654392       -17.8069
  20   2.0000      -0.597477       -16.2582
  21   2.0000      -0.586753       -15.9664
  22   2.0000      -0.576684       -15.6924
  23   2.0000      -0.549829       -14.9616
  24   2.0000      -0.545913       -14.8550
  25   2.0000      -0.513827       -13.9819
  26   2.0000      -0.505726       -13.7615
  27   2.0000      -0.489285       -13.3141
  28   2.0000      -0.477740       -13.0000
  29   2.0000      -0.450740       -12.2653
  30   2.0000      -0.442522       -12.0416
  31   2.0000      -0.433387       -11.7931
  32   2.0000      -0.415182       -11.2977
  33   2.0000      -0.391156       -10.6439
  34   2.0000      -0.389174       -10.5900
  35   2.0000      -0.376417       -10.2428
  36   2.0000      -0.372686       -10.1413
  37   2.0000      -0.367246        -9.9933
  38   2.0000      -0.355650        -9.6777
  39   2.0000      -0.344921        -9.3858
  40   2.0000      -0.335912        -9.1406
  41   2.0000      -0.332927        -9.0594
  42   2.0000      -0.242536        -6.5997
  43   2.0000      -0.158948        -4.3252
  44   0.0000       0.001796         0.0489
  45   0.0000       0.016903         0.4600
  46   0.0000       0.021494         0.5849
  47   0.0000       0.026496         0.7210
  48   0.0000       0.037871         1.0305

MULLIKEN ATOMIC CHARGES
-----------------------
   0 C :   -0.676901
   1 C :   -0.440111
   2 N :   -0.004256
   3 C :   -0.225850
   4 C :   -0.388553
   5 H :    0.299299
   6 C :   -0.296380
   7 H :    0.129883
   8 H :    0.184010
   9 H :    0.153906
  10 C :   -0.073493
  11 H :    0.176956
  12 H :    0.120849
  13 F :   -0.437974
  14 H :    0.288585
  15 H :    0.309456
  16 C :    0.422261
  17 N :   -0.232502
  18 C :   -1.238286
  19 H :    0.327562
  20 H :    0.227487
  21 H :    0.413877
  22 H :    0.295429
  23 H :    0.148915
  24 H :    0.181686
  25 H :    0.062660
  26 H :    0.205839
  27 H :    0.065646
Sum of atomic charges:   -0.0000000

LOEWDIN ATOMIC CHARGES
----------------------
   0 C :   -0.191518
   1 C :   -0.196078
   2 N :    0.027628
   3 C :   -0.204821
   4 C :   -0.208038
   5 H :    0.107449
   6 C :   -0.173231
   7 H :    0.111262
   8 H :    0.109179
   9 H :    0.119660
  10 C :   -0.189421
  11 H :    0.134800
  12 H :    0.124588
  13 F :   -0.069336
  14 H :    0.123675
  15 H :    0.122043
  16 C :   -0.567998
  17 N :    0.122611
  18 C :    0.002457
  19 H :   -0.012625
  20 H :   -0.001447
  21 H :    0.085747
  22 H :    0.066400
  23 H :    0.114766
  24 H :    0.114242
  25 H :    0.110832
  26 H :    0.105582
  27 H :    0.111592

  Mayer bond orders larger than 0.100000
B(  0-C ,  1-C ) :   1.1324 B(  0-C ,  2-N ) :   1.1505 B(  0-C ,  3-C ) :   0.1256
B(  0-C , 14-H ) :   0.8865 B(  0-C , 15-H ) :   0.8433 B(  0-C , 18-C ) :   0.2625
B(  1-C ,  3-C ) :   0.9963 B(  1-C ,  6-C ) :   0.1108 B(  1-C , 26-H ) :   0.9049
B(  1-C , 27-H ) :   1.0573 B(  2-N , 16-C ) :   1.1299 B(  2-N , 21-H ) :   0.7015
B(  3-C ,  4-C ) :   1.0056 B(  3-C ,  6-C ) :   0.2165 B(  3-C , 24-H ) :   0.9108
B(  3-C , 25-H ) :   1.0298 B(  4-C ,  5-H ) :   0.9799 B(  4-C ,  6-C ) :   0.8169
B(  4-C ,  7-H ) :   0.9465 B(  4-C , 10-C ) :   0.2934 B(  6-C ,  8-H ) :   0.9907
B(  6-C ,  9-H ) :   0.9773 B(  6-C , 10-C ) :   0.9596 B( 10-C , 11-H ) :   0.9849
B( 10-C , 12-H ) :   0.9673 B( 10-C , 13-F ) :   0.7975 B( 16-C , 17-N ) :   1.1591
B( 16-C , 18-C ) :   1.3702 B( 16-C , 20-H ) :  -0.1215 B( 17-N , 22-H ) :   0.8686
B( 17-N , 23-H ) :   0.9885 B( 18-C , 19-H ) :   0.8833 B( 18-C , 20-H ) :   1.1076

Dispersion correction           -0.024873866
FINAL SINGLE POINT ENERGY      -523.989556668586

DIPOLE MOMENT
-------------
                                X             Y             Z
Electronic contribution:      6.25700       4.44258       2.80867
Nuclear contribution   :     -7.84660      -3.08098      -1.66782
                        -----------------------------------------
Total Dipole Moment    :     -1.58961       1.36160       1.14085
                        -----------------------------------------
Magnitude (a.u.)       :      2.38377
Magnitude (Debye)      :      6.05905

Rotational constants in cm-1:     0.043547     0.029898     0.020008
Rotational constants in MHz :  1305.520367   896.323854   599.829375

                             ****ORCA TERMINATED NORMALLY****
TOTAL RUN TIME: 0 days 0 hours 3 minutes 26 seconds 798 msec
