                         Program Version 5.0.0 -  RELEASE  -
|  1> !wB97X-D3 RIJCOSX def2-SVPD def2/J TightSCF
|  2> *xyz -1 1
|  3> C          0.84888        2.66797       -4.30235
|  4> C          2.09343        1.86104       -4.65684
|  5> H          2.44481        2.04157       -5.67499
|  6> H          2.90175        2.13786       -3.98034
|  7> S          1.87964        0.07859       -4.46297
|  8> O          3.20757       -0.46611       -4.42026
|  9> O          1.07506       -0.05616       -3.26876
| 10> O          1.13166       -0.31996       -5.67903
| 11> H          0.05064        2.40112       -4.96303
| 12> H          1.06043        3.71210       -4.40203
| 13> H          0.56237        2.45684       -3.29327
| 14> *
| 15>
| 16> %MaxCore 64000
| 17>
| 18> %pal nprocs 18
| 19> end
| 20>
| 21> %scf
| 22>   MaxIter 150
| 23> end
| 24>
| 25>
| 26>                          ****END OF INPUT****

CARTESIAN COORDINATES (ANGSTROEM)
---------------------------------
  C      0.848880    2.667970   -4.302350
  C      2.093430    1.861040   -4.656840
  H      2.444810    2.041570   -5.674990
  H      2.901750    2.137860   -3.980340
  S      1.879640    0.078590   -4.462970
  O      3.207570   -0.466110   -4.420260
  O      1.075060   -0.056160   -3.268760
  O      1.131660   -0.319960   -5.679030
  H      0.050640    2.401120   -4.963030
  H      1.060430    3.712100   -4.402030
  H      0.562370    2.456840   -3.293270

 Total Charge           Charge          ....   -1
 Multiplicity           Mult            ....    1
 Number of Electrons    NEL             ....   58
 Basis Dimension        Dim             ....  176

ORBITAL ENERGIES
----------------

  NO   OCC          E(Eh)            E(eV)
   0   2.0000     -88.976164     -2421.1645
   1   2.0000     -19.029690      -517.8242
   2   2.0000     -19.026221      -517.7298
   3   2.0000     -19.013563      -517.3854
   4   2.0000     -10.150721      -276.2152
   5   2.0000     -10.144587      -276.0482
   6   2.0000      -8.049892      -219.0487
   7   2.0000      -6.009438      -163.5251
   8   2.0000      -6.009306      -163.5215
   9   2.0000      -6.008954      -163.5119
  10   2.0000      -1.050879       -28.5959
  11   2.0000      -0.910848       -24.7854
  12   2.0000      -0.884145       -24.0588
  13   2.0000      -0.743387       -20.2286
  14   2.0000      -0.613125       -16.6840
  15   2.0000      -0.487652       -13.2697
  16   2.0000      -0.424662       -11.5556
  17   2.0000      -0.419869       -11.4252
  18   2.0000      -0.380691       -10.3591
  19   2.0000      -0.368155       -10.0180
  20   2.0000      -0.357310        -9.7229
  21   2.0000      -0.327456        -8.9105
  22   2.0000      -0.309828        -8.4309
  23   2.0000      -0.252979        -6.8839
  24   2.0000      -0.252339        -6.8665
  25   2.0000      -0.215824        -5.8729
  26   2.0000      -0.204280        -5.5587
  27   2.0000      -0.193774        -5.2729
  28   2.0000      -0.161965        -4.4073
  29   0.0000       0.209012         5.6875
  30   0.0000       0.229920         6.2564
  31   0.0000       0.232721         6.3327
  32   0.0000       0.237768         6.4700
  33   0.0000       0.261103         7.1050

MULLIKEN ATOMIC CHARGES
-----------------------
   0 C :    0.683982
   1 C :   -0.360186
   2 H :   -0.059436
   3 H :   -0.016170
   4 S :    1.361037
   5 O :   -0.792050
   6 O :   -0.808729
   7 O :   -0.842536
   8 H :   -0.041600
   9 H :   -0.096596
  10 H :   -0.027716
Sum of atomic charges:   -1.0000000

LOEWDIN ATOMIC CHARGES
----------------------
   0 C :    0.094477
   1 C :   -0.134272
   2 H :    0.006030
   3 H :   -0.001119
   4 S :    0.862824
   5 O :   -0.576670
   6 O :   -0.576389
   7 O :   -0.603516
   8 H :   -0.013760
   9 H :   -0.032833
  10 H :   -0.024772

  Mayer bond orders larger than 0.100000
B(  0-C ,  1-C ) :   1.2546 B(  0-C ,  8-H ) :   0.8326 B(  0-C ,  9-H ) :   0.7826
B(  0-C , 10-H ) :   0.8352 B(  1-C ,  2-H ) :   1.0028 B(  1-C ,  3-H ) :   0.9946
B(  1-C ,  4-S ) :   0.9269 B(  1-C ,  8-H ) :   0.1710 B(  1-C ,  9-H ) :   0.1892
B(  1-C , 10-H ) :   0.1890 B(  4-S ,  5-O ) :   1.3614 B(  4-S ,  6-O ) :   1.3215
B(  4-S ,  7-O ) :   1.2851

Dispersion correction           -0.002879580
FINAL SINGLE POINT ENERGY      -702.692681261276

DIPOLE MOMENT
-------------
                                X             Y             Z
Electronic contribution:      1.61667      -7.59415       0.05785
Nuclear contribution   :     -1.55288       9.51857       0.00420
                        -----------------------------------------
Total Dipole Moment    :      0.06379       1.92442       0.06206
                        -----------------------------------------
Magnitude (a.u.)       :      1.92648
Magnitude (Debye)      :      4.89672

Rotational constants in cm-1:     0.163401     0.083833     0.082462
Rotational constants in MHz :  4898.624208  2513.264548  2472.149188

                             ****ORCA TERMINATED NORMALLY****
TOTAL RUN TIME: 0 days 0 hours 0 minutes 10 seconds 444 msec
