                         Program Version 5.0.0 -  RELEASE  -
|  1> !wB97X-D3 RIJCOSX def2-SVPD def2/J TightSCF
|  2> *xyz 1 1
|  3> C         -0.46129        2.23469       -4.98962
|  4> C          0.84888        2.66797       -4.30235
|  5> C         -0.42384        2.39877       -6.47432
|  6> N         -0.95947        3.49265       -7.00740
|  7> N          0.14558        1.48689       -7.20399
|  8> H          0.56537        0.69681       -6.72386
|  9> H          0.22068        1.58177       -8.20752
| 10> H         -1.40624        4.18151       -6.40326
| 11> H         -0.93421        3.68160       -7.99947
| 12> H         -1.28888        2.82674       -4.59500
| 13> H         -0.65170        1.18634       -4.75655
| 14> H          1.66208        2.08894       -4.68750
| 15> H          0.76716        2.51042       -3.24717
| 16> H          1.02677        3.70527       -4.49537
| 17> *
| 18>
| 19> %MaxCore 64000
| 20>
| 21> %pal nprocs 18
| 22> end
| 23>
| 24> %scf
| 25>   MaxIter 150
| 26> end
| 27>
| 28>
| 29>                          ****END OF INPUT****

CARTESIAN COORDINATES (ANGSTROEM)
---------------------------------
  C     -0.461290    2.234690   -4.989620
  C      0.848880    2.667970   -4.302350
  C     -0.423840    2.398770   -6.474320
  N     -0.959470    3.492650   -7.007400
  N      0.145580    1.486890   -7.203990
  H      0.565370    0.696810   -6.723860
  H      0.220680    1.581770   -8.207520
  H     -1.406240    4.181510   -6.403260
  H     -0.934210    3.681600   -7.999470
  H     -1.288880    2.826740   -4.595000
  H     -0.651700    1.186340   -4.756550
  H      1.662080    2.088940   -4.687500
  H      0.767160    2.510420   -3.247170
  H      1.026770    3.705270   -4.495370

 Total Charge           Charge          ....    1
 Multiplicity           Mult            ....    1
 Number of Electrons    NEL             ....   40
 Basis Dimension        Dim             ....  172

ORBITAL ENERGIES
----------------

  NO   OCC          E(Eh)            E(eV)
   0   2.0000     -14.686857      -399.6497
   1   2.0000     -14.682793      -399.5391
   2   2.0000     -10.616759      -288.8967
   3   2.0000     -10.489460      -285.4327
   4   2.0000     -10.446209      -284.2558
   5   2.0000      -1.316562       -35.8255
   6   2.0000      -1.218199       -33.1489
   7   2.0000      -1.080615       -29.4050
   8   2.0000      -0.968470       -26.3534
   9   2.0000      -0.923396       -25.1269
  10   2.0000      -0.883979       -24.0543
  11   2.0000      -0.855369       -23.2758
  12   2.0000      -0.802582       -21.8394
  13   2.0000      -0.753939       -20.5157
  14   2.0000      -0.724706       -19.7203
  15   2.0000      -0.715919       -19.4812
  16   2.0000      -0.641621       -17.4594
  17   2.0000      -0.631509       -17.1842
  18   2.0000      -0.624650       -16.9976
  19   2.0000      -0.587829       -15.9956
  20   0.0000      -0.128843        -3.5060
  21   0.0000      -0.081767        -2.2250
  22   0.0000      -0.037505        -1.0206
  23   0.0000      -0.035746        -0.9727
  24   0.0000      -0.010602        -0.2885

MULLIKEN ATOMIC CHARGES
-----------------------
   0 C :   -0.402271
   1 C :    0.526282
   2 C :    0.749106
   3 N :   -0.079496
   4 N :    0.056731
   5 H :    0.106304
   6 H :   -0.118671
   7 H :    0.088619
   8 H :   -0.099688
   9 H :    0.044827
  10 H :    0.061943
  11 H :   -0.001055
  12 H :    0.068762
  13 H :   -0.001393
Sum of atomic charges:    1.0000000

LOEWDIN ATOMIC CHARGES
----------------------
   0 C :    0.007762
   1 C :    0.169851
   2 C :   -0.038200
   3 N :    0.273644
   4 N :    0.278917
   5 H :    0.061525
   6 H :    0.056055
   7 H :    0.056931
   8 H :    0.046569
   9 H :    0.040138
  10 H :    0.045577
  11 H :   -0.006691
  12 H :    0.009180
  13 H :   -0.001260

  Mayer bond orders larger than 0.100000
B(  0-C ,  1-C ) :   1.2504 B(  0-C ,  2-C ) :   1.1405 B(  0-C ,  9-H ) :   0.9148
B(  0-C , 10-H ) :   0.9186 B(  0-C , 11-H ) :   0.1672 B(  0-C , 12-H ) :   0.1308
B(  0-C , 13-H ) :   0.1479 B(  1-C , 11-H ) :   0.8283 B(  1-C , 12-H ) :   0.8549
B(  1-C , 13-H ) :   0.8684 B(  2-C ,  3-N ) :   1.0155 B(  2-C ,  4-N ) :   1.1876
B(  2-C ,  6-H ) :  -0.1492 B(  2-C ,  8-H ) :  -0.1855 B(  2-C ,  9-H ) :   0.1043
B(  3-N ,  4-N ) :   0.1476 B(  3-N ,  7-H ) :   1.0605 B(  3-N ,  8-H ) :   1.3096
B(  4-N ,  5-H ) :   1.0363 B(  4-N ,  6-H ) :   1.2948 B(  5-H ,  6-H ) :  -0.1583
B(  7-H ,  8-H ) :  -0.1673

Dispersion correction           -0.003018431
FINAL SINGLE POINT ENERGY      -228.822029133957

DIPOLE MOMENT
-------------
                                X             Y             Z
Electronic contribution:     -1.55744      -0.27106      -3.88222
Nuclear contribution   :      1.33202       0.27544       2.83701
                        -----------------------------------------
Total Dipole Moment    :     -0.22542       0.00438      -1.04521
                        -----------------------------------------
Magnitude (a.u.)       :      1.06925
Magnitude (Debye)      :      2.71783

Rotational constants in cm-1:     0.258570     0.126296     0.098869
Rotational constants in MHz :  7751.748523  3786.267300  2964.011691

                             ****ORCA TERMINATED NORMALLY****
TOTAL RUN TIME: 0 days 0 hours 0 minutes 9 seconds 353 msec
