                         Program Version 5.0.0 -  RELEASE  -
|  1> !wB97X-D3 RIJCOSX def2-SVPD def2/J TightSCF xyzfile
|  2>
|  3> *xyzfile 0 1 B.xyz
|  4>
|  5> %MaxCore 64000
|  6>
|  7> %pal nprocs 18
|  8> end
|  9>
| 10> %scf
| 11>   MaxIter 150
| 12> end
| 13>
| 14>
| 15>                          ****END OF INPUT****

CARTESIAN COORDINATES (ANGSTROEM)
---------------------------------
  C     -0.461293    2.234686   -4.989619
  C      0.848883    2.667967   -4.302351
  C      2.093434    1.861037   -4.656845
  H      2.444814    2.041567   -5.674990
  H      2.901748    2.137864   -3.980338
  S      1.879644    0.078594   -4.462965
  C     -0.423841    2.398772   -6.474317
  N     -0.959467    3.492647   -7.007401
  N      0.145585    1.486891   -7.203987
  H      0.565371    0.696807   -6.723858
  H      0.220682    1.581768   -8.207520
  H     -1.406243    4.181507   -6.403261
  H     -0.934215    3.681601   -7.999468
  O      3.207574   -0.466111   -4.420259
  O      1.075064   -0.056160   -3.268758
  O      1.131661   -0.319960   -5.679031
  H      0.668432    2.559427   -3.232850
  H      1.034074    3.729426   -4.497081
  H     -1.288884    2.826737   -4.594997
  H     -0.651696    1.186343   -4.756552

 Total Charge           Charge          ....    0
 Multiplicity           Mult            ....    1
 Number of Electrons    NEL             ....   88
 Basis Dimension        Dim             ....  296

ORBITAL ENERGIES
----------------

  NO   OCC          E(Eh)            E(eV)
   0   2.0000     -89.129656     -2425.3412
   1   2.0000     -19.184304      -522.0314
   2   2.0000     -19.170895      -521.6666
   3   2.0000     -19.169177      -521.6198
   4   2.0000     -14.550217      -395.9315
   5   2.0000     -14.517020      -395.0282
   6   2.0000     -10.470369      -284.9132
   7   2.0000     -10.343321      -281.4561
   8   2.0000     -10.324007      -280.9305
   9   2.0000     -10.299811      -280.2721
  10   2.0000      -8.202482      -223.2009
  11   2.0000      -6.162655      -167.6944
  12   2.0000      -6.161750      -167.6697
  13   2.0000      -6.161238      -167.6558
  14   2.0000      -1.202782       -32.7294
  15   2.0000      -1.170986       -31.8641
  16   2.0000      -1.075010       -29.2525
  17   2.0000      -1.053077       -28.6557
  18   2.0000      -1.049636       -28.5620
  19   2.0000      -0.948935       -25.8218
  20   2.0000      -0.869176       -23.6515
  21   2.0000      -0.802923       -21.8487
  22   2.0000      -0.760291       -20.6886
  23   2.0000      -0.739761       -20.1299
  24   2.0000      -0.712010       -19.3748
  25   2.0000      -0.668327       -18.1861
  26   2.0000      -0.628194       -17.0940
  27   2.0000      -0.621385       -16.9088
  28   2.0000      -0.589527       -16.0419
  29   2.0000      -0.576804       -15.6956
  30   2.0000      -0.550666       -14.9844
  31   2.0000      -0.542455       -14.7610
  32   2.0000      -0.519659       -14.1406
  33   2.0000      -0.511602       -13.9214
  34   2.0000      -0.490248       -13.3403
  35   2.0000      -0.474528       -12.9126
  36   2.0000      -0.457172       -12.4403
  37   2.0000      -0.442940       -12.0530
  38   2.0000      -0.405305       -11.0289
  39   2.0000      -0.399981       -10.8840
  40   2.0000      -0.367350        -9.9961
  41   2.0000      -0.357393        -9.7251
  42   2.0000      -0.345787        -9.4094
  43   2.0000      -0.316407        -8.6099
  44   0.0000       0.012989         0.3534
  45   0.0000       0.035241         0.9589
  46   0.0000       0.073308         1.9948
  47   0.0000       0.091134         2.4799
  48   0.0000       0.101370         2.7584

MULLIKEN ATOMIC CHARGES
-----------------------
   0 C :    0.063270
   1 C :    0.129140
   2 C :    0.087082
   3 H :    0.100600
   4 H :   -0.100403
   5 S :    1.444211
   6 C :    0.776783
   7 N :   -0.061719
   8 N :    0.324125
   9 H :   -0.157074
  10 H :   -0.140445
  11 H :    0.024599
  12 H :   -0.145381
  13 O :   -0.783957
  14 O :   -0.795776
  15 O :   -0.880751
  16 H :    0.172713
  17 H :   -0.167642
  18 H :   -0.057286
  19 H :    0.167911
Sum of atomic charges:    0.0000000

LOEWDIN ATOMIC CHARGES
----------------------
   0 C :    0.054968
   1 C :   -0.014963
   2 C :   -0.067440
   3 H :    0.009756
   4 H :    0.020030
   5 S :    0.942745
   6 C :   -0.028657
   7 N :    0.241643
   8 N :    0.304502
   9 H :   -0.117942
  10 H :    0.047082
  11 H :    0.038602
  12 H :    0.029027
  13 O :   -0.517800
  14 O :   -0.528773
  15 O :   -0.534295
  16 H :    0.034475
  17 H :    0.023906
  18 H :    0.031601
  19 H :    0.031531

  Mayer bond orders larger than 0.100000
B(  0-C ,  1-C ) :   1.1984 B(  0-C ,  6-C ) :   1.1050 B(  0-C , 16-H ) :   0.1298
B(  0-C , 18-H ) :   0.8210 B(  0-C , 19-H ) :   0.8440 B(  1-C ,  2-C ) :   1.3053
B(  1-C ,  3-H ) :   0.1177 B(  1-C ,  4-H ) :   0.1647 B(  1-C , 16-H ) :   0.8050
B(  1-C , 17-H ) :   0.8934 B(  1-C , 18-H ) :   0.1562 B(  1-C , 19-H ) :   0.1256
B(  2-C ,  3-H ) :   0.8903 B(  2-C ,  4-H ) :   0.8694 B(  2-C ,  5-S ) :   0.9073
B(  2-C , 15-O ) :   0.1248 B(  2-C , 16-H ) :   0.1341 B(  2-C , 17-H ) :   0.1165
B(  5-S , 13-O ) :   1.4147 B(  5-S , 14-O ) :   1.3466 B(  5-S , 15-O ) :   1.1508
B(  6-C ,  7-N ) :   0.9544 B(  6-C ,  8-N ) :   1.1284 B(  6-C , 10-H ) :  -0.2227
B(  6-C , 11-H ) :  -0.1046 B(  6-C , 12-H ) :  -0.1562 B(  6-C , 18-H ) :   0.1047
B(  7-N ,  8-N ) :   0.1411 B(  7-N , 11-H ) :   1.1393 B(  7-N , 12-H ) :   1.3153
B(  8-N ,  9-H ) :   1.0965 B(  8-N , 10-H ) :   1.3131 B(  9-H , 10-H ) :  -0.2299
B(  9-H , 15-O ) :   0.2153 B( 11-H , 12-H ) :  -0.1721

Dispersion correction           -0.008674276
FINAL SINGLE POINT ENERGY      -891.190935959481

DIPOLE MOMENT
-------------
                                X             Y             Z
Electronic contribution:      3.06488      -7.55523       1.04948
Nuclear contribution   :     -5.91573      12.15027      -4.18945
                        -----------------------------------------
Total Dipole Moment    :     -2.85085       4.59504      -3.13998
                        -----------------------------------------
Magnitude (a.u.)       :      6.25310
Magnitude (Debye)      :     15.89411

Rotational constants in cm-1:     0.082044     0.024757     0.022371
Rotational constants in MHz :  2459.631375   742.181961   670.660570

                             ****ORCA TERMINATED NORMALLY****
TOTAL RUN TIME: 0 days 0 hours 0 minutes 28 seconds 68 msec
