                         Program Version 5.0.0 -  RELEASE  -
|  1> !wB97X-D3 RIJCOSX def2-SVPD def2/J TightSCF
|  2> *xyz 0 1
|  3> C          0.84888        2.66797       -4.30235
|  4> C          2.09343        1.86104       -4.65684
|  5> H          2.44481        2.04157       -5.67499
|  6> H          2.90175        2.13786       -3.98034
|  7> S          1.87964        0.07859       -4.46297
|  8> F          3.20757       -0.46611       -4.42026
|  9> O          1.07506       -0.05616       -3.26876
| 10> O          1.13166       -0.31996       -5.67903
| 11> H          0.05064        2.40112       -4.96303
| 12> H          1.06043        3.71210       -4.40203
| 13> H          0.56237        2.45684       -3.29327
| 14> *
| 15>
| 16> %MaxCore 64000
| 17>
| 18> %pal nprocs 18
| 19> end
| 20>
| 21> %scf
| 22>   MaxIter 150
| 23> end
| 24>
| 25>
| 26>                          ****END OF INPUT****

CARTESIAN COORDINATES (ANGSTROEM)
---------------------------------
  C      0.848880    2.667970   -4.302350
  C      2.093430    1.861040   -4.656840
  H      2.444810    2.041570   -5.674990
  H      2.901750    2.137860   -3.980340
  S      1.879640    0.078590   -4.462970
  F      3.207570   -0.466110   -4.420260
  O      1.075060   -0.056160   -3.268760
  O      1.131660   -0.319960   -5.679030
  H      0.050640    2.401120   -4.963030
  H      1.060430    3.712100   -4.402030
  H      0.562370    2.456840   -3.293270

 Total Charge           Charge          ....    0
 Multiplicity           Mult            ....    1
 Number of Electrons    NEL             ....   58
 Basis Dimension        Dim             ....  176

ORBITAL ENERGIES
----------------

  NO   OCC          E(Eh)            E(eV)
   0   2.0000     -89.237301     -2428.2704
   1   2.0000     -24.928447      -678.3375
   2   2.0000     -19.260997      -524.1184
   3   2.0000     -19.248287      -523.7725
   4   2.0000     -10.353854      -281.7427
   5   2.0000     -10.308024      -280.4956
   6   2.0000      -8.311890      -226.1780
   7   2.0000      -6.275615      -170.7682
   8   2.0000      -6.269071      -170.5901
   9   2.0000      -6.267772      -170.5548
  10   2.0000      -1.503419       -40.9101
  11   2.0000      -1.226209       -33.3668
  12   2.0000      -1.119235       -30.4559
  13   2.0000      -0.935355       -25.4523
  14   2.0000      -0.852941       -23.2097
  15   2.0000      -0.787338       -21.4246
  16   2.0000      -0.703536       -19.1442
  17   2.0000      -0.701556       -19.0903
  18   2.0000      -0.664672       -18.0866
  19   2.0000      -0.598333       -16.2815
  20   2.0000      -0.590948       -16.0805
  21   2.0000      -0.547223       -14.8907
  22   2.0000      -0.531393       -14.4599
  23   2.0000      -0.506867       -13.7926
  24   2.0000      -0.487607       -13.2685
  25   2.0000      -0.483379       -13.1534
  26   2.0000      -0.433492       -11.7959
  27   2.0000      -0.417071       -11.3491
  28   2.0000      -0.404513       -11.0074
  29   0.0000       0.063446         1.7265
  30   0.0000       0.088828         2.4171
  31   0.0000       0.095913         2.6099
  32   0.0000       0.098259         2.6738
  33   0.0000       0.120453         3.2777

MULLIKEN ATOMIC CHARGES
-----------------------
   0 C :    0.635859
   1 C :   -0.424553
   2 H :    0.011464
   3 H :    0.055047
   4 S :    1.547814
   5 F :   -0.404844
   6 O :   -0.670626
   7 O :   -0.702430
   8 H :   -0.011192
   9 H :   -0.042477
  10 H :    0.005937
Sum of atomic charges:    0.0000000

LOEWDIN ATOMIC CHARGES
----------------------
   0 C :    0.137777
   1 C :   -0.096731
   2 H :    0.025610
   3 H :    0.016248
   4 S :    1.132625
   5 F :   -0.253042
   6 O :   -0.467752
   7 O :   -0.488744
   8 H :    0.003409
   9 H :   -0.002087
  10 H :   -0.007311

  Mayer bond orders larger than 0.100000
B(  0-C ,  1-C ) :   1.3182 B(  0-C ,  8-H ) :   0.8400 B(  0-C ,  9-H ) :   0.8024
B(  0-C , 10-H ) :   0.8369 B(  1-C ,  2-H ) :   0.9966 B(  1-C ,  3-H ) :   0.9646
B(  1-C ,  4-S ) :   0.9681 B(  1-C ,  8-H ) :   0.1621 B(  1-C ,  9-H ) :   0.1756
B(  1-C , 10-H ) :   0.1801 B(  4-S ,  5-F ) :   0.6908 B(  4-S ,  6-O ) :   1.5328
B(  4-S ,  7-O ) :   1.4895

Dispersion correction           -0.002877013
FINAL SINGLE POINT ENERGY      -727.171768528035

DIPOLE MOMENT
-------------
                                X             Y             Z
Electronic contribution:      4.18549      -9.26404       0.10539
Nuclear contribution   :     -3.08754      10.54185      -0.04092
                        -----------------------------------------
Total Dipole Moment    :      1.09795       1.27781       0.06447
                        -----------------------------------------
Magnitude (a.u.)       :      1.68596
Magnitude (Debye)      :      4.28537

Rotational constants in cm-1:     0.158925     0.081210     0.079022
Rotational constants in MHz :  4764.450166  2434.603461  2369.014434

                             ****ORCA TERMINATED NORMALLY****
TOTAL RUN TIME: 0 days 0 hours 0 minutes 9 seconds 919 msec
