                         Program Version 5.0.0 -  RELEASE  -
|  1> !wB97X-D3 RIJCOSX def2-SVPD def2/J TightSCF
|  2> *xyz 0 1
|  3> C         -0.46129        2.23469       -4.98962
|  4> C          0.84888        2.66797       -4.30235
|  5> C         -0.42384        2.39877       -6.47432
|  6> C         -0.95947        3.49265       -7.00740
|  7> N          0.14558        1.48689       -7.20399
|  8> H          0.56537        0.69681       -6.72386
|  9> H          0.22068        1.58177       -8.20752
| 10> H         -1.40624        4.18151       -6.40326
| 11> H         -0.93421        3.68160       -7.99947
| 12> H         -1.28888        2.82674       -4.59500
| 13> H         -0.65170        1.18634       -4.75655
| 14> H          1.66208        2.08894       -4.68750
| 15> H          0.76716        2.51042       -3.24717
| 16> H          1.02677        3.70527       -4.49537
| 17> *
| 18>
| 19> %MaxCore 64000
| 20>
| 21> %pal nprocs 18
| 22> end
| 23>
| 24> %scf
| 25>   MaxIter 150
| 26> end
| 27>
| 28>
| 29>                          ****END OF INPUT****

CARTESIAN COORDINATES (ANGSTROEM)
---------------------------------
  C     -0.461290    2.234690   -4.989620
  C      0.848880    2.667970   -4.302350
  C     -0.423840    2.398770   -6.474320
  C     -0.959470    3.492650   -7.007400
  N      0.145580    1.486890   -7.203990
  H      0.565370    0.696810   -6.723860
  H      0.220680    1.581770   -8.207520
  H     -1.406240    4.181510   -6.403260
  H     -0.934210    3.681600   -7.999470
  H     -1.288880    2.826740   -4.595000
  H     -0.651700    1.186340   -4.756550
  H      1.662080    2.088940   -4.687500
  H      0.767160    2.510420   -3.247170
  H      1.026770    3.705270   -4.495370

 Total Charge           Charge          ....    0
 Multiplicity           Mult            ....    1
 Number of Electrons    NEL             ....   40
 Basis Dimension        Dim             ....  172

ORBITAL ENERGIES
----------------

  NO   OCC          E(Eh)            E(eV)
   0   2.0000     -14.440431      -392.9441
   1   2.0000     -10.310307      -280.5577
   2   2.0000     -10.289562      -279.9932
   3   2.0000     -10.276027      -279.6249
   4   2.0000     -10.219639      -278.0905
   5   2.0000      -1.045864       -28.4594
   6   2.0000      -0.889046       -24.1922
   7   2.0000      -0.822164       -22.3722
   8   2.0000      -0.742957       -20.2169
   9   2.0000      -0.674568       -18.3559
  10   2.0000      -0.633274       -17.2323
  11   2.0000      -0.583265       -15.8714
  12   2.0000      -0.538498       -14.6533
  13   2.0000      -0.520457       -14.1623
  14   2.0000      -0.490943       -13.3592
  15   2.0000      -0.479875       -13.0581
  16   2.0000      -0.447729       -12.1833
  17   2.0000      -0.430368       -11.7109
  18   2.0000      -0.428120       -11.6497
  19   2.0000      -0.275470        -7.4959
  20   0.0000       0.087500         2.3810
  21   0.0000       0.117058         3.1853
  22   0.0000       0.125160         3.4058
  23   0.0000       0.128545         3.4979
  24   0.0000       0.140327         3.8185

MULLIKEN ATOMIC CHARGES
-----------------------
   0 C :   -0.207550
   1 C :    0.559672
   2 C :   -0.068675
   3 C :    0.424068
   4 N :    0.205681
   5 H :   -0.070270
   6 H :   -0.182856
   7 H :   -0.140757
   8 H :   -0.476841
   9 H :    0.079882
  10 H :   -0.050737
  11 H :   -0.039838
  12 H :    0.017207
  13 H :   -0.048984
Sum of atomic charges:    0.0000000

LOEWDIN ATOMIC CHARGES
----------------------
   0 C :   -0.033658
   1 C :    0.131732
   2 C :   -0.270596
   3 C :    0.169533
   4 N :    0.162840
   5 H :    0.008779
   6 H :    0.016078
   7 H :   -0.080566
   8 H :   -0.089288
   9 H :    0.022910
  10 H :    0.017895
  11 H :   -0.022695
  12 H :   -0.018895
  13 H :   -0.014069

  Mayer bond orders larger than 0.100000
B(  0-C ,  1-C ) :   1.2405 B(  0-C ,  2-C ) :   1.1612 B(  0-C ,  3-C ) :   0.1611
B(  0-C ,  9-H ) :   0.8557 B(  0-C , 10-H ) :   0.8785 B(  0-C , 11-H ) :   0.1941
B(  0-C , 12-H ) :   0.1477 B(  0-C , 13-H ) :   0.1645 B(  1-C , 11-H ) :   0.8268
B(  1-C , 12-H ) :   0.8312 B(  1-C , 13-H ) :   0.8807 B(  2-C ,  3-C ) :   1.7460
B(  2-C ,  4-N ) :   1.2440 B(  2-C ,  8-H ) :   0.1413 B(  2-C ,  9-H ) :   0.1423
B(  2-C , 10-H ) :   0.1524 B(  3-C ,  4-N ) :   0.2298 B(  3-C ,  7-H ) :   0.9345
B(  3-C ,  8-H ) :   0.7727 B(  4-N ,  5-H ) :   1.0820 B(  4-N ,  6-H ) :   1.2444
B(  5-H ,  6-H ) :  -0.1307

Dispersion correction           -0.003017054
FINAL SINGLE POINT ENERGY      -212.363768966208

DIPOLE MOMENT
-------------
                                X             Y             Z
Electronic contribution:     -0.71913      -1.16820      -2.57943
Nuclear contribution   :      1.14741       0.51394       2.60761
                        -----------------------------------------
Total Dipole Moment    :      0.42828      -0.65426       0.02818
                        -----------------------------------------
Magnitude (a.u.)       :      0.78248
Magnitude (Debye)      :      1.98891

Rotational constants in cm-1:     0.269157     0.129188     0.102123
Rotational constants in MHz :  8069.118715  3872.945231  3061.580645

                             ****ORCA TERMINATED NORMALLY****
TOTAL RUN TIME: 0 days 0 hours 0 minutes 9 seconds 268 msec
