                         Program Version 5.0.0 -  RELEASE  -
|  1> !wB97X-D3 RIJCOSX def2-SVPD def2/J TightSCF
|  2> *xyz 0 1
|  3> C          0.84888        2.66797       -4.30235
|  4> C          2.09343        1.86104       -4.65684
|  5> H          2.44481        2.04157       -5.67499
|  6> H          2.90175        2.13786       -3.98034
|  7> S          1.87964        0.07859       -4.46297
|  8> O          3.20757       -0.46611       -4.42026
|  9> F          1.07506       -0.05616       -3.26876
| 10> O          1.13166       -0.31996       -5.67903
| 11> H          0.05064        2.40112       -4.96303
| 12> H          1.06043        3.71210       -4.40203
| 13> H          0.56237        2.45684       -3.29327
| 14> *
| 15>
| 16> %MaxCore 64000
| 17>
| 18> %pal nprocs 18
| 19> end
| 20>
| 21> %scf
| 22>   MaxIter 150
| 23> end
| 24>
| 25>
| 26>                          ****END OF INPUT****

CARTESIAN COORDINATES (ANGSTROEM)
---------------------------------
  C      0.848880    2.667970   -4.302350
  C      2.093430    1.861040   -4.656840
  H      2.444810    2.041570   -5.674990
  H      2.901750    2.137860   -3.980340
  S      1.879640    0.078590   -4.462970
  O      3.207570   -0.466110   -4.420260
  F      1.075060   -0.056160   -3.268760
  O      1.131660   -0.319960   -5.679030
  H      0.050640    2.401120   -4.963030
  H      1.060430    3.712100   -4.402030
  H      0.562370    2.456840   -3.293270

 Total Charge           Charge          ....    0
 Multiplicity           Mult            ....    1
 Number of Electrons    NEL             ....   58
 Basis Dimension        Dim             ....  176

ORBITAL ENERGIES
----------------

  NO   OCC          E(Eh)            E(eV)
   0   2.0000     -89.236712     -2428.2544
   1   2.0000     -24.922865      -678.1856
   2   2.0000     -19.264709      -524.2194
   3   2.0000     -19.248274      -523.7722
   4   2.0000     -10.353704      -281.7386
   5   2.0000     -10.315079      -280.6876
   6   2.0000      -8.311263      -226.1610
   7   2.0000      -6.275086      -170.7538
   8   2.0000      -6.268434      -170.5728
   9   2.0000      -6.267131      -170.5373
  10   2.0000      -1.494498       -40.6674
  11   2.0000      -1.230300       -33.4782
  12   2.0000      -1.122494       -30.5446
  13   2.0000      -0.940698       -25.5977
  14   2.0000      -0.845857       -23.0169
  15   2.0000      -0.790473       -21.5099
  16   2.0000      -0.710393       -19.3308
  17   2.0000      -0.696487       -18.9524
  18   2.0000      -0.654843       -17.8192
  19   2.0000      -0.600469       -16.3396
  20   2.0000      -0.583180       -15.8691
  21   2.0000      -0.556758       -15.1502
  22   2.0000      -0.542063       -14.7503
  23   2.0000      -0.512974       -13.9587
  24   2.0000      -0.496571       -13.5124
  25   2.0000      -0.484473       -13.1832
  26   2.0000      -0.434257       -11.8167
  27   2.0000      -0.417895       -11.3715
  28   2.0000      -0.407634       -11.0923
  29   0.0000       0.062117         1.6903
  30   0.0000       0.090525         2.4633
  31   0.0000       0.096619         2.6291
  32   0.0000       0.098763         2.6875
  33   0.0000       0.123358         3.3567

MULLIKEN ATOMIC CHARGES
-----------------------
   0 C :    0.643481
   1 C :   -0.392167
   2 H :    0.010744
   3 H :    0.045656
   4 S :    1.517178
   5 O :   -0.651658
   6 F :   -0.404634
   7 O :   -0.705223
   8 H :   -0.009558
   9 H :   -0.043212
  10 H :   -0.010605
Sum of atomic charges:    0.0000000

LOEWDIN ATOMIC CHARGES
----------------------
   0 C :    0.123162
   1 C :   -0.084599
   2 H :    0.037850
   3 H :    0.020298
   4 S :    1.127461
   5 O :   -0.462856
   6 F :   -0.256984
   7 O :   -0.488166
   8 H :   -0.000606
   9 H :   -0.003348
  10 H :   -0.012211

  Mayer bond orders larger than 0.100000
B(  0-C ,  1-C ) :   1.2672 B(  0-C ,  8-H ) :   0.8490 B(  0-C ,  9-H ) :   0.8017
B(  0-C , 10-H ) :   0.8391 B(  1-C ,  2-H ) :   1.0015 B(  1-C ,  3-H ) :   0.9982
B(  1-C ,  4-S ) :   0.9967 B(  1-C ,  8-H ) :   0.1600 B(  1-C ,  9-H ) :   0.1781
B(  1-C , 10-H ) :   0.1663 B(  4-S ,  5-O ) :   1.5712 B(  4-S ,  6-F ) :   0.6792
B(  4-S ,  7-O ) :   1.5033

Dispersion correction           -0.002881376
FINAL SINGLE POINT ENERGY      -727.176434651619

DIPOLE MOMENT
-------------
                                X             Y             Z
Electronic contribution:      0.56178      -8.54071       2.04675
Nuclear contribution   :     -0.86540      10.11467      -1.24082
                        -----------------------------------------
Total Dipole Moment    :     -0.30362       1.57396       0.80593
                        -----------------------------------------
Magnitude (a.u.)       :      1.79418
Magnitude (Debye)      :      4.56043

Rotational constants in cm-1:     0.154065     0.083345     0.080357
Rotational constants in MHz :  4618.752213  2498.631937  2409.037217

                             ****ORCA TERMINATED NORMALLY****
TOTAL RUN TIME: 0 days 0 hours 0 minutes 10 seconds 118 msec
