                         Program Version 5.0.0 -  RELEASE  -
|  1> !wB97X-D3 RIJCOSX def2-SVPD def2/J TightSCF
|  2> *xyz 0 1
|  3> C         -0.46129        2.23469       -4.98962
|  4> C          0.84888        2.66797       -4.30235
|  5> C         -0.42384        2.39877       -6.47432
|  6> N         -0.95947        3.49265       -7.00740
|  7> C          0.14558        1.48689       -7.20399
|  8> H          0.56537        0.69681       -6.72386
|  9> H          0.22068        1.58177       -8.20752
| 10> H         -1.40624        4.18151       -6.40326
| 11> H         -0.93421        3.68160       -7.99947
| 12> H         -1.28888        2.82674       -4.59500
| 13> H         -0.65170        1.18634       -4.75655
| 14> H          1.66208        2.08894       -4.68750
| 15> H          0.76716        2.51042       -3.24717
| 16> H          1.02677        3.70527       -4.49537
| 17> *
| 18>
| 19> %MaxCore 64000
| 20>
| 21> %pal nprocs 18
| 22> end
| 23>
| 24> %scf
| 25>   MaxIter 150
| 26> end
| 27>
| 28>
| 29>                          ****END OF INPUT****

CARTESIAN COORDINATES (ANGSTROEM)
---------------------------------
  C     -0.461290    2.234690   -4.989620
  C      0.848880    2.667970   -4.302350
  C     -0.423840    2.398770   -6.474320
  N     -0.959470    3.492650   -7.007400
  C      0.145580    1.486890   -7.203990
  H      0.565370    0.696810   -6.723860
  H      0.220680    1.581770   -8.207520
  H     -1.406240    4.181510   -6.403260
  H     -0.934210    3.681600   -7.999470
  H     -1.288880    2.826740   -4.595000
  H     -0.651700    1.186340   -4.756550
  H      1.662080    2.088940   -4.687500
  H      0.767160    2.510420   -3.247170
  H      1.026770    3.705270   -4.495370

 Total Charge           Charge          ....    0
 Multiplicity           Mult            ....    1
 Number of Electrons    NEL             ....   40
 Basis Dimension        Dim             ....  172

ORBITAL ENERGIES
----------------

  NO   OCC          E(Eh)            E(eV)
   0   2.0000     -14.437238      -392.8572
   1   2.0000     -10.307987      -280.4946
   2   2.0000     -10.289207      -279.9836
   3   2.0000     -10.274574      -279.5854
   4   2.0000     -10.218617      -278.0627
   5   2.0000      -1.033382       -28.1198
   6   2.0000      -0.890530       -24.2326
   7   2.0000      -0.825940       -22.4750
   8   2.0000      -0.743893       -20.2423
   9   2.0000      -0.668871       -18.2009
  10   2.0000      -0.623263       -16.9598
  11   2.0000      -0.585600       -15.9350
  12   2.0000      -0.540329       -14.7031
  13   2.0000      -0.515004       -14.0140
  14   2.0000      -0.491554       -13.3759
  15   2.0000      -0.480876       -13.0853
  16   2.0000      -0.445048       -12.1104
  17   2.0000      -0.432406       -11.7664
  18   2.0000      -0.425218       -11.5708
  19   2.0000      -0.280181        -7.6241
  20   0.0000       0.088960         2.4207
  21   0.0000       0.117374         3.1939
  22   0.0000       0.124535         3.3888
  23   0.0000       0.129500         3.5239
  24   0.0000       0.141030         3.8376

MULLIKEN ATOMIC CHARGES
-----------------------
   0 C :   -0.200685
   1 C :    0.532990
   2 C :    0.075988
   3 N :    0.052756
   4 C :    0.392917
   5 H :   -0.122443
   6 H :   -0.429181
   7 H :   -0.066081
   8 H :   -0.165752
   9 H :   -0.074972
  10 H :    0.077060
  11 H :   -0.046699
  12 H :    0.019669
  13 H :   -0.045567
Sum of atomic charges:   -0.0000000

LOEWDIN ATOMIC CHARGES
----------------------
   0 C :   -0.033751
   1 C :    0.132588
   2 C :   -0.263751
   3 N :    0.160800
   4 C :    0.162950
   5 H :   -0.071748
   6 H :   -0.078910
   7 H :    0.002063
   8 H :    0.005484
   9 H :    0.013262
  10 H :    0.025316
  11 H :   -0.017931
  12 H :   -0.019363
  13 H :   -0.017008

  Mayer bond orders larger than 0.100000
B(  0-C ,  1-C ) :   1.2536 B(  0-C ,  2-C ) :   1.1001 B(  0-C ,  3-N ) :   0.1090
B(  0-C ,  4-C ) :   0.1629 B(  0-C ,  9-H ) :   0.8819 B(  0-C , 10-H ) :   0.8602
B(  0-C , 11-H ) :   0.1764 B(  0-C , 12-H ) :   0.1383 B(  0-C , 13-H ) :   0.1771
B(  1-C , 11-H ) :   0.8653 B(  1-C , 12-H ) :   0.8312 B(  1-C , 13-H ) :   0.8604
B(  2-C ,  3-N ) :   1.0931 B(  2-C ,  4-C ) :   1.8366 B(  2-C ,  5-H ) :   0.1450
B(  2-C ,  6-H ) :   0.1859 B(  2-C ,  8-H ) :  -0.1162 B(  2-C ,  9-H ) :   0.1380
B(  2-C , 10-H ) :   0.1094 B(  3-N ,  4-C ) :   0.2486 B(  3-N ,  7-H ) :   1.0970
B(  3-N ,  8-H ) :   1.2763 B(  4-C ,  5-H ) :   0.8208 B(  4-C ,  6-H ) :   0.7650
B(  7-H ,  8-H ) :  -0.1538

Dispersion correction           -0.003006437
FINAL SINGLE POINT ENERGY      -212.363940762927

DIPOLE MOMENT
-------------
                                X             Y             Z
Electronic contribution:     -1.69349       0.57296      -2.40874
Nuclear contribution   :      1.40335       0.04939       2.56207
                        -----------------------------------------
Total Dipole Moment    :     -0.29014       0.62235       0.15333
                        -----------------------------------------
Magnitude (a.u.)       :      0.70357
Magnitude (Debye)      :      1.78833

Rotational constants in cm-1:     0.271383     0.128194     0.101873
Rotational constants in MHz :  8135.853259  3843.152748  3054.074278

                             ****ORCA TERMINATED NORMALLY****
TOTAL RUN TIME: 0 days 0 hours 0 minutes 9 seconds 902 msec
