                         Program Version 5.0.0 -  RELEASE  -
|  1> !wB97X-D3 RIJCOSX def2-SVPD def2/J TightSCF
|  2> *xyz 0 1
|  3> C          0.84888        2.66797       -4.30235
|  4> C          2.09343        1.86104       -4.65684
|  5> H          2.44481        2.04157       -5.67499
|  6> H          2.90175        2.13786       -3.98034
|  7> S          1.87964        0.07859       -4.46297
|  8> O          3.20757       -0.46611       -4.42026
|  9> O          1.07506       -0.05616       -3.26876
| 10> F          1.13166       -0.31996       -5.67903
| 11> H          0.05064        2.40112       -4.96303
| 12> H          1.06043        3.71210       -4.40203
| 13> H          0.56237        2.45684       -3.29327
| 14> *
| 15>
| 16> %MaxCore 64000
| 17>
| 18> %pal nprocs 18
| 19> end
| 20>
| 21> %scf
| 22>   MaxIter 150
| 23> end
| 24>
| 25>
| 26>                          ****END OF INPUT****

CARTESIAN COORDINATES (ANGSTROEM)
---------------------------------
  C      0.848880    2.667970   -4.302350
  C      2.093430    1.861040   -4.656840
  H      2.444810    2.041570   -5.674990
  H      2.901750    2.137860   -3.980340
  S      1.879640    0.078590   -4.462970
  O      3.207570   -0.466110   -4.420260
  O      1.075060   -0.056160   -3.268760
  F      1.131660   -0.319960   -5.679030
  H      0.050640    2.401120   -4.963030
  H      1.060430    3.712100   -4.402030
  H      0.562370    2.456840   -3.293270

 Total Charge           Charge          ....    0
 Multiplicity           Mult            ....    1
 Number of Electrons    NEL             ....   58
 Basis Dimension        Dim             ....  176

ORBITAL ENERGIES
----------------

  NO   OCC          E(Eh)            E(eV)
   0   2.0000     -89.235033     -2428.2087
   1   2.0000     -24.904447      -677.6845
   2   2.0000     -19.264362      -524.2099
   3   2.0000     -19.260793      -524.1128
   4   2.0000     -10.352758      -281.7129
   5   2.0000     -10.309362      -280.5320
   6   2.0000      -8.309506      -226.1131
   7   2.0000      -6.273079      -170.6992
   8   2.0000      -6.266892      -170.5308
   9   2.0000      -6.265593      -170.4954
  10   2.0000      -1.463660       -39.8282
  11   2.0000      -1.238539       -33.7024
  12   2.0000      -1.142060       -31.0770
  13   2.0000      -0.936513       -25.4838
  14   2.0000      -0.834754       -22.7148
  15   2.0000      -0.782003       -21.2794
  16   2.0000      -0.690450       -18.7881
  17   2.0000      -0.674895       -18.3648
  18   2.0000      -0.657090       -17.8803
  19   2.0000      -0.600703       -16.3460
  20   2.0000      -0.584592       -15.9076
  21   2.0000      -0.562948       -15.3186
  22   2.0000      -0.535078       -14.5602
  23   2.0000      -0.506062       -13.7706
  24   2.0000      -0.502389       -13.6707
  25   2.0000      -0.481285       -13.0964
  26   2.0000      -0.441794       -12.0218
  27   2.0000      -0.427845       -11.6422
  28   2.0000      -0.421277       -11.4635
  29   0.0000       0.064427         1.7532
  30   0.0000       0.091808         2.4982
  31   0.0000       0.096605         2.6288
  32   0.0000       0.098497         2.6802
  33   0.0000       0.121738         3.3127

MULLIKEN ATOMIC CHARGES
-----------------------
   0 C :    0.673454
   1 C :   -0.419843
   2 H :    0.002717
   3 H :    0.055269
   4 S :    1.531643
   5 O :   -0.662851
   6 O :   -0.684421
   7 F :   -0.422757
   8 H :   -0.036484
   9 H :   -0.044290
  10 H :    0.007564
Sum of atomic charges:    0.0000000

LOEWDIN ATOMIC CHARGES
----------------------
   0 C :    0.124899
   1 C :   -0.087416
   2 H :    0.023951
   3 H :    0.030660
   4 S :    1.127993
   5 O :   -0.463819
   6 O :   -0.465864
   7 F :   -0.273731
   8 H :   -0.004118
   9 H :   -0.004284
  10 H :   -0.008271

  Mayer bond orders larger than 0.100000
B(  0-C ,  1-C ) :   1.2830 B(  0-C ,  8-H ) :   0.8309 B(  0-C ,  9-H ) :   0.7972
B(  0-C , 10-H ) :   0.8435 B(  1-C ,  2-H ) :   0.9947 B(  1-C ,  3-H ) :   0.9924
B(  1-C ,  4-S ) :   0.9931 B(  1-C ,  8-H ) :   0.1638 B(  1-C ,  9-H ) :   0.1752
B(  1-C , 10-H ) :   0.1811 B(  4-S ,  5-O ) :   1.5656 B(  4-S ,  6-O ) :   1.5398
B(  4-S ,  7-F ) :   0.6274

Dispersion correction           -0.002844617
FINAL SINGLE POINT ENERGY      -727.192590282909

DIPOLE MOMENT
-------------
                                X             Y             Z
Electronic contribution:      0.64169      -9.01997      -2.06199
Nuclear contribution   :     -0.92438      10.38956       1.27076
                        -----------------------------------------
Total Dipole Moment    :     -0.28269       1.36959      -0.79123
                        -----------------------------------------
Magnitude (a.u.)       :      1.60678
Magnitude (Debye)      :      4.08411

Rotational constants in cm-1:     0.154243     0.082247     0.080562
Rotational constants in MHz :  4624.087322  2465.703680  2415.175852

                             ****ORCA TERMINATED NORMALLY****
TOTAL RUN TIME: 0 days 0 hours 0 minutes 10 seconds 366 msec
