                         Program Version 5.0.0 -  RELEASE  -
|  1> !wB97X-D3 RIJCOSX def2-SVPD def2/J TightSCF xyzfile
|  2>
|  3> *xyzfile 0 1 D1.xyz
|  4>
|  5> %MaxCore 64000
|  6>
|  7> %pal nprocs 18
|  8> end
|  9>
| 10> %scf
| 11>   MaxIter 150
| 12> end
| 13>
| 14>
| 15>                          ****END OF INPUT****

CARTESIAN COORDINATES (ANGSTROEM)
---------------------------------
  C     -0.461293    2.234686   -4.989619
  C      0.848883    2.667967   -4.302351
  C      2.093434    1.861037   -4.656845
  H      2.444814    2.041567   -5.674990
  H      2.901748    2.137864   -3.980338
  S      1.879644    0.078594   -4.462965
  C     -0.423841    2.398772   -6.474317
  C     -0.959467    3.492647   -7.007401
  N      0.145585    1.486891   -7.203987
  H      0.565371    0.696807   -6.723858
  H      0.220682    1.581768   -8.207520
  H     -1.406243    4.181507   -6.403261
  H     -0.934215    3.681601   -7.999468
  F      3.207574   -0.466111   -4.420259
  O      1.075064   -0.056160   -3.268758
  O      1.131661   -0.319960   -5.679031
  H      0.668432    2.559427   -3.232850
  H      1.034074    3.729426   -4.497081
  H     -1.288884    2.826737   -4.594997
  H     -0.651696    1.186343   -4.756552

 Total Charge           Charge          ....    0
 Multiplicity           Mult            ....    1
 Number of Electrons    NEL             ....   88
 Basis Dimension        Dim             ....  296

ORBITAL ENERGIES
----------------

  NO   OCC          E(Eh)            E(eV)
   0   2.0000     -89.257908     -2428.8312
   1   2.0000     -24.944207      -678.7664
   2   2.0000     -19.278092      -524.5835
   3   2.0000     -19.273660      -524.4630
   4   2.0000     -14.411079      -392.1454
   5   2.0000     -10.360304      -281.9182
   6   2.0000     -10.320829      -280.8440
   7   2.0000     -10.303966      -280.3852
   8   2.0000     -10.292123      -280.0629
   9   2.0000     -10.212841      -277.9055
  10   2.0000      -8.331757      -226.7186
  11   2.0000      -6.295362      -171.3055
  12   2.0000      -6.289308      -171.1408
  13   2.0000      -6.287556      -171.0931
  14   2.0000      -1.518872       -41.3306
  15   2.0000      -1.247875       -33.9564
  16   2.0000      -1.146141       -31.1881
  17   2.0000      -1.030522       -28.0419
  18   2.0000      -0.950756       -25.8714
  19   2.0000      -0.884116       -24.0580
  20   2.0000      -0.850714       -23.1491
  21   2.0000      -0.804971       -21.9044
  22   2.0000      -0.758101       -20.6290
  23   2.0000      -0.721804       -19.6413
  24   2.0000      -0.708464       -19.2783
  25   2.0000      -0.688434       -18.7332
  26   2.0000      -0.662916       -18.0389
  27   2.0000      -0.631831       -17.1930
  28   2.0000      -0.608988       -16.5714
  29   2.0000      -0.596797       -16.2397
  30   2.0000      -0.578715       -15.7476
  31   2.0000      -0.559580       -15.2269
  32   2.0000      -0.549800       -14.9608
  33   2.0000      -0.516208       -14.0467
  34   2.0000      -0.498812       -13.5734
  35   2.0000      -0.493652       -13.4329
  36   2.0000      -0.479520       -13.0484
  37   2.0000      -0.461665       -12.5626
  38   2.0000      -0.449568       -12.2334
  39   2.0000      -0.442452       -12.0397
  40   2.0000      -0.428897       -11.6709
  41   2.0000      -0.424109       -11.5406
  42   2.0000      -0.415240       -11.2993
  43   2.0000      -0.265658        -7.2289
  44   0.0000       0.055828         1.5192
  45   0.0000       0.081229         2.2104
  46   0.0000       0.084853         2.3090
  47   0.0000       0.096323         2.6211
  48   0.0000       0.105652         2.8749

MULLIKEN ATOMIC CHARGES
-----------------------
   0 C :    0.381141
   1 C :    0.081844
   2 C :    0.020505
   3 H :    0.184313
   4 H :   -0.064774
   5 S :    1.648213
   6 C :   -0.077803
   7 C :    0.326905
   8 N :    0.606190
   9 H :   -0.403830
  10 H :   -0.204304
  11 H :   -0.122616
  12 H :   -0.424210
  13 F :   -0.464957
  14 O :   -0.678680
  15 O :   -0.816352
  16 H :    0.173172
  17 H :   -0.160006
  18 H :    0.032991
  19 H :   -0.037741
Sum of atomic charges:   -0.0000000

LOEWDIN ATOMIC CHARGES
----------------------
   0 C :    0.029663
   1 C :   -0.004638
   2 C :   -0.039106
   3 H :    0.026086
   4 H :    0.018910
   5 S :    1.183195
   6 C :   -0.245625
   7 C :    0.163533
   8 N :    0.194592
   9 H :   -0.136638
  10 H :    0.020608
  11 H :   -0.085934
  12 H :   -0.090334
  13 F :   -0.241448
  14 O :   -0.447951
  15 O :   -0.459264
  16 H :    0.027072
  17 H :    0.040631
  18 H :    0.032714
  19 H :    0.013934

  Mayer bond orders larger than 0.100000
B(  0-C ,  1-C ) :   1.1679 B(  0-C ,  6-C ) :   1.1462 B(  0-C ,  8-N ) :   0.1125
B(  0-C , 16-H ) :   0.1358 B(  0-C , 17-H ) :   0.1071 B(  0-C , 18-H ) :   0.7448
B(  0-C , 19-H ) :   0.7507 B(  1-C ,  2-C ) :   1.3555 B(  1-C ,  3-H ) :   0.1204
B(  1-C ,  4-H ) :   0.2023 B(  1-C , 16-H ) :   0.7795 B(  1-C , 17-H ) :   0.9335
B(  1-C , 18-H ) :   0.1407 B(  1-C , 19-H ) :   0.1478 B(  2-C ,  3-H ) :   0.8750
B(  2-C ,  4-H ) :   0.8205 B(  2-C ,  5-S ) :   0.9468 B(  2-C , 15-O ) :   0.1211
B(  2-C , 16-H ) :   0.1205 B(  5-S , 13-F ) :   0.6475 B(  5-S , 14-O ) :   1.5415
B(  5-S , 15-O ) :   1.3746 B(  6-C ,  7-C ) :   1.7240 B(  6-C ,  8-N ) :   1.1227
B(  6-C , 10-H ) :  -0.1180 B(  6-C , 12-H ) :   0.1573 B(  6-C , 18-H ) :   0.1519
B(  6-C , 19-H ) :   0.1761 B(  7-C ,  8-N ) :   0.1690 B(  7-C , 11-H ) :   0.9362
B(  7-C , 12-H ) :   0.7020 B(  8-N ,  9-H ) :   0.9585 B(  8-N , 10-H ) :   1.2220
B(  9-H , 10-H ) :  -0.2060 B(  9-H , 15-O ) :   0.1637

Dispersion correction           -0.008655788
FINAL SINGLE POINT ENERGY      -899.064560234793

DIPOLE MOMENT
-------------
                                X             Y             Z
Electronic contribution:     10.17948     -13.87775       5.46612
Nuclear contribution   :     -8.53047      14.15581      -5.17613
                        -----------------------------------------
Total Dipole Moment    :      1.64901       0.27806       0.28999
                        -----------------------------------------
Magnitude (a.u.)       :      1.69724
Magnitude (Debye)      :      4.31405

Rotational constants in cm-1:     0.081196     0.024861     0.022477
Rotational constants in MHz :  2434.181666   745.320670   673.846846

                             ****ORCA TERMINATED NORMALLY****
TOTAL RUN TIME: 0 days 0 hours 0 minutes 35 seconds 345 msec
