                         Program Version 5.0.0 -  RELEASE  -
|  1> !wB97X-D3 RIJCOSX def2-SVPD def2/J TightSCF xyzfile
|  2>
|  3> *xyzfile 0 1 D4.xyz
|  4>
|  5> %MaxCore 64000
|  6>
|  7> %pal nprocs 18
|  8> end
|  9>
| 10> %scf
| 11>   MaxIter 150
| 12> end
| 13>
| 14>
| 15>                          ****END OF INPUT****

CARTESIAN COORDINATES (ANGSTROEM)
---------------------------------
  C     -0.461293    2.234686   -4.989619
  C      0.848883    2.667967   -4.302351
  C      2.093434    1.861037   -4.656845
  H      2.444814    2.041567   -5.674990
  H      2.901748    2.137864   -3.980338
  S      1.879644    0.078594   -4.462965
  C     -0.423841    2.398772   -6.474317
  N     -0.959467    3.492647   -7.007401
  C      0.145585    1.486891   -7.203987
  H      0.565371    0.696807   -6.723858
  H      0.220682    1.581768   -8.207520
  H     -1.406243    4.181507   -6.403261
  H     -0.934215    3.681601   -7.999468
  O      3.207574   -0.466111   -4.420259
  F      1.075064   -0.056160   -3.268758
  O      1.131661   -0.319960   -5.679031
  H      0.668432    2.559427   -3.232850
  H      1.034074    3.729426   -4.497081
  H     -1.288884    2.826737   -4.594997
  H     -0.651696    1.186343   -4.756552

 Total Charge           Charge          ....    0
 Multiplicity           Mult            ....    1
 Number of Electrons    NEL             ....   88
 Basis Dimension        Dim             ....  296

ORBITAL ENERGIES
----------------

  NO   OCC          E(Eh)            E(eV)
   0   2.0000     -89.239487     -2428.3299
   1   2.0000     -24.924290      -678.2244
   2   2.0000     -19.265254      -524.2342
   3   2.0000     -19.249549      -523.8069
   4   2.0000     -14.435809      -392.8183
   5   2.0000     -10.348937      -281.6089
   6   2.0000     -10.324244      -280.9370
   7   2.0000     -10.304381      -280.3965
   8   2.0000     -10.302984      -280.3584
   9   2.0000     -10.199729      -277.5487
  10   2.0000      -8.313220      -226.2142
  11   2.0000      -6.277160      -170.8102
  12   2.0000      -6.270594      -170.6315
  13   2.0000      -6.268942      -170.5866
  14   2.0000      -1.495589       -40.6971
  15   2.0000      -1.232748       -33.5448
  16   2.0000      -1.129222       -30.7277
  17   2.0000      -1.033192       -28.1146
  18   2.0000      -0.950030       -25.8516
  19   2.0000      -0.880267       -23.9533
  20   2.0000      -0.835762       -22.7422
  21   2.0000      -0.816172       -22.2092
  22   2.0000      -0.751561       -20.4510
  23   2.0000      -0.709695       -19.3118
  24   2.0000      -0.700926       -19.0732
  25   2.0000      -0.672826       -18.3085
  26   2.0000      -0.661620       -18.0036
  27   2.0000      -0.620400       -16.8819
  28   2.0000      -0.602024       -16.3819
  29   2.0000      -0.585747       -15.9390
  30   2.0000      -0.582809       -15.8590
  31   2.0000      -0.565766       -15.3953
  32   2.0000      -0.546777       -14.8785
  33   2.0000      -0.513594       -13.9756
  34   2.0000      -0.502824       -13.6825
  35   2.0000      -0.495465       -13.4823
  36   2.0000      -0.477888       -13.0040
  37   2.0000      -0.471676       -12.8349
  38   2.0000      -0.440185       -11.9780
  39   2.0000      -0.431345       -11.7375
  40   2.0000      -0.423101       -11.5132
  41   2.0000      -0.418747       -11.3947
  42   2.0000      -0.386112       -10.5066
  43   2.0000      -0.275809        -7.5051
  44   0.0000       0.063838         1.7371
  45   0.0000       0.086016         2.3406
  46   0.0000       0.091570         2.4918
  47   0.0000       0.097175         2.6443
  48   0.0000       0.111365         3.0304

MULLIKEN ATOMIC CHARGES
-----------------------
   0 C :    0.319476
   1 C :    0.148064
   2 C :    0.007246
   3 H :    0.234999
   4 H :   -0.122499
   5 S :    1.550179
   6 C :    0.119740
   7 N :   -0.019740
   8 C :    0.814504
   9 H :   -0.131624
  10 H :   -0.655384
  11 H :   -0.092742
  12 H :   -0.178349
  13 O :   -0.679798
  14 F :   -0.433863
  15 O :   -0.785876
  16 H :    0.127001
  17 H :   -0.172210
  18 H :   -0.164563
  19 H :    0.115441
Sum of atomic charges:    0.0000000

LOEWDIN ATOMIC CHARGES
----------------------
   0 C :    0.022354
   1 C :   -0.023330
   2 C :   -0.026425
   3 H :    0.036800
   4 H :    0.020961
   5 S :    1.169247
   6 C :   -0.234887
   7 N :    0.155420
   8 C :    0.200145
   9 H :   -0.183762
  10 H :   -0.066068
  11 H :   -0.002422
  12 H :    0.005179
  13 O :   -0.452522
  14 F :   -0.249472
  15 O :   -0.464195
  16 H :    0.021179
  17 H :    0.035461
  18 H :    0.022201
  19 H :    0.014135

  Mayer bond orders larger than 0.100000
B(  0-C ,  1-C ) :   1.1615 B(  0-C ,  6-C ) :   1.0857 B(  0-C ,  7-N ) :   0.1131
B(  0-C ,  8-C ) :   0.1841 B(  0-C , 16-H ) :   0.1141 B(  0-C , 18-H ) :   0.7813
B(  0-C , 19-H ) :   0.8329 B(  1-C ,  2-C ) :   1.3117 B(  1-C ,  3-H ) :   0.1126
B(  1-C ,  4-H ) :   0.1748 B(  1-C , 16-H ) :   0.7778 B(  1-C , 17-H ) :   0.9046
B(  1-C , 18-H ) :   0.1600 B(  1-C , 19-H ) :   0.1239 B(  2-C ,  3-H ) :   0.8559
B(  2-C ,  4-H ) :   0.9047 B(  2-C ,  5-S ) :   0.9962 B(  2-C , 15-O ) :   0.1131
B(  2-C , 16-H ) :   0.1105 B(  4-H ,  9-H ) :  -0.1014 B(  5-S , 13-O ) :   1.5653
B(  5-S , 14-F ) :   0.6440 B(  5-S , 15-O ) :   1.4496 B(  6-C ,  7-N ) :   0.9471
B(  6-C ,  8-C ) :   1.8956 B(  6-C ,  9-H ) :   0.3253 B(  6-C , 10-H ) :   0.2080
B(  6-C , 12-H ) :  -0.1201 B(  6-C , 18-H ) :   0.1449 B(  7-N ,  8-C ) :   0.2899
B(  7-N , 11-H ) :   1.1632 B(  7-N , 12-H ) :   1.3305 B(  8-C ,  9-H ) :   0.6017
B(  8-C , 10-H ) :   0.7308 B(  9-H , 10-H ) :  -0.2397 B( 11-H , 12-H ) :  -0.1520

Dispersion correction           -0.008575530
FINAL SINGLE POINT ENERGY      -899.047695596422

DIPOLE MOMENT
-------------
                                X             Y             Z
Electronic contribution:      5.55475     -11.65188       7.33774
Nuclear contribution   :     -6.09390      13.51614      -6.45360
                        -----------------------------------------
Total Dipole Moment    :     -0.53914       1.86426       0.88414
                        -----------------------------------------
Magnitude (a.u.)       :      2.13256
Magnitude (Debye)      :      5.42055

Rotational constants in cm-1:     0.081469     0.024519     0.022336
Rotational constants in MHz :  2442.393231   735.066768   669.628729

                             ****ORCA TERMINATED NORMALLY****
TOTAL RUN TIME: 0 days 0 hours 0 minutes 36 seconds 8 msec
