                         Program Version 5.0.0 -  RELEASE  -
|  1> !BLYP D3BJ RIJCOSX def2-SVP def2/J TightSCF
|  2> *xyz -1 1
|  3> C         -1.10433        0.25137       -2.86006
|  4> C         -0.71189        0.84252       -4.21834
|  5> H          0.15463        1.49980       -4.13091
|  6> H         -1.53813        1.45922       -4.58267
|  7> C         -0.39762       -0.20587       -5.28802
|  8> O          0.61717       -0.00535       -5.99827
|  9> O         -1.13317       -1.22138       -5.34147
| 10> H         -1.95489       -0.38644       -2.98099
| 11> H         -1.34603        1.04362       -2.18269
| 12> H         -0.28606       -0.31581       -2.46809
| 13> *
| 14>
| 15> %MaxCore 64000
| 16>
| 17> %pal nprocs 4
| 18> end
| 19>
| 20> %scf
| 21>   MaxIter 150
| 22> end
| 23>
| 24>
| 25>                          ****END OF INPUT****

CARTESIAN COORDINATES (ANGSTROEM)
---------------------------------
  C     -1.104330    0.251370   -2.860060
  C     -0.711890    0.842520   -4.218340
  H      0.154630    1.499800   -4.130910
  H     -1.538130    1.459220   -4.582670
  C     -0.397620   -0.205870   -5.288020
  O      0.617170   -0.005350   -5.998270
  O     -1.133170   -1.221380   -5.341470
  H     -1.954890   -0.386440   -2.980990
  H     -1.346030    1.043620   -2.182690
  H     -0.286060   -0.315810   -2.468090

 Total Charge           Charge          ....   -1
 Multiplicity           Mult            ....    1
 Number of Electrons    NEL             ....   40
 Basis Dimension        Dim             ....   95

ORBITAL ENERGIES
----------------

  NO   OCC          E(Eh)            E(eV)
   0   2.0000     -18.482240      -502.9273
   1   2.0000     -18.479081      -502.8413
   2   2.0000      -9.762218      -265.6435
   3   2.0000      -9.745759      -265.1956
   4   2.0000      -9.725254      -264.6376
   5   2.0000      -0.673940       -18.3388
   6   2.0000      -0.585497       -15.9322
   7   2.0000      -0.499862       -13.6019
   8   2.0000      -0.378656       -10.3037
   9   2.0000      -0.234887        -6.3916
  10   2.0000      -0.220550        -6.0015
  11   2.0000      -0.176397        -4.8000
  12   2.0000      -0.153132        -4.1669
  13   2.0000      -0.140944        -3.8353
  14   2.0000      -0.119076        -3.2402
  15   2.0000      -0.089874        -2.4456
  16   2.0000      -0.081235        -2.2105
  17   2.0000       0.035715         0.9719
  18   2.0000       0.045492         1.2379
  19   2.0000       0.065086         1.7711
  20   0.0000       0.196925         5.3586
  21   0.0000       0.243836         6.6351
  22   0.0000       0.251652         6.8478
  23   0.0000       0.261780         7.1234
  24   0.0000       0.266455         7.2506

MULLIKEN ATOMIC CHARGES
-----------------------
   0 C :    0.116703
   1 C :    0.103597
   2 H :   -0.103192
   3 H :   -0.083609
   4 C :   -0.098892
   5 O :   -0.367370
   6 O :   -0.369163
   7 H :   -0.051848
   8 H :   -0.094561
   9 H :   -0.051665
Sum of atomic charges:   -1.0000000

LOEWDIN ATOMIC CHARGES
----------------------
   0 C :   -0.052543
   1 C :   -0.082651
   2 H :   -0.015353
   3 H :   -0.005118
   4 C :   -0.095045
   5 O :   -0.364208
   6 O :   -0.365427
   7 H :   -0.002833
   8 H :   -0.017993
   9 H :    0.001172

  Mayer bond orders larger than 0.100000
B(  0-C ,  1-C ) :   1.1044 B(  0-C ,  7-H ) :   0.9425 B(  0-C ,  8-H ) :   0.9375
B(  0-C ,  9-H ) :   0.9647 B(  1-C ,  2-H ) :   0.9079 B(  1-C ,  3-H ) :   0.9086
B(  1-C ,  4-C ) :   0.9104 B(  4-C ,  5-O ) :   1.9058 B(  4-C ,  6-O ) :   1.8694
B(  5-O ,  6-O ) :   0.1383

Dispersion correction           -0.013520014
FINAL SINGLE POINT ENERGY      -267.537938103550

DIPOLE MOMENT
-------------
                                X             Y             Z
Electronic contribution:      1.65372      -2.60518      -5.55881
Nuclear contribution   :     -2.09607       3.44215       6.87744
                        -----------------------------------------
Total Dipole Moment    :     -0.44235       0.83697       1.31863
                        -----------------------------------------
Magnitude (a.u.)       :      1.62326
Magnitude (Debye)      :      4.12600

Rotational constants in cm-1:     0.324698     0.133739     0.103466
Rotational constants in MHz :  9734.203431  4009.406827  3101.846422

                             ****ORCA TERMINATED NORMALLY****
TOTAL RUN TIME: 0 days 0 hours 0 minutes 6 seconds 812 msec
