                         Program Version 5.0.0 -  RELEASE  -
|  1> !BLYP D3BJ RIJCOSX def2-SVP def2/J TightSCF
|  2> *xyz 1 1
|  3> C          2.23447       -2.98975       -2.39762
|  4> N          2.75680       -2.94555       -3.76503
|  5> C          1.98721       -2.59045       -4.81898
|  6> N          0.74322       -3.01749       -4.91352
|  7> N          2.49964       -1.84860       -5.80324
|  8> H          3.30978       -1.29282       -5.55895
|  9> H          1.80103       -1.30430       -6.28913
| 10> H          3.71612       -2.62880       -3.82953
| 11> H          0.39583       -3.62775       -4.18502
| 12> H          0.03920       -2.45438       -5.37137
| 13> C          2.19120       -1.61950       -1.71549
| 14> H          2.87278       -3.66637       -1.82801
| 15> H          1.24619       -3.44744       -2.40784
| 16> H          1.56387       -0.96046       -2.27853
| 17> H          3.18033       -1.21449       -1.66568
| 18> H          1.79916       -1.72608       -0.72562
| 19> *
| 20>
| 21> %MaxCore 64000
| 22>
| 23> %pal nprocs 4
| 24> end
| 25>
| 26> %scf
| 27>   MaxIter 150
| 28> end
| 29>
| 30>
| 31>                          ****END OF INPUT****

CARTESIAN COORDINATES (ANGSTROEM)
---------------------------------
  C      2.234470   -2.989750   -2.397620
  N      2.756800   -2.945550   -3.765030
  C      1.987210   -2.590450   -4.818980
  N      0.743220   -3.017490   -4.913520
  N      2.499640   -1.848600   -5.803240
  H      3.309780   -1.292820   -5.558950
  H      1.801030   -1.304300   -6.289130
  H      3.716120   -2.628800   -3.829530
  H      0.395830   -3.627750   -4.185020
  H      0.039200   -2.454380   -5.371370
  C      2.191200   -1.619500   -1.715490
  H      2.872780   -3.666370   -1.828010
  H      1.246190   -3.447440   -2.407840
  H      1.563870   -0.960460   -2.278530
  H      3.180330   -1.214490   -1.665680
  H      1.799160   -1.726080   -0.725620

 Total Charge           Charge          ....    1
 Multiplicity           Mult            ....    1
 Number of Electrons    NEL             ....   48
 Basis Dimension        Dim             ....  134

ORBITAL ENERGIES
----------------

  NO   OCC          E(Eh)            E(eV)
   0   2.0000     -14.248891      -387.7320
   1   2.0000     -14.245148      -387.6302
   2   2.0000     -14.239946      -387.4886
   3   2.0000     -10.247429      -278.8467
   4   2.0000     -10.129324      -275.6329
   5   2.0000     -10.065399      -273.8934
   6   2.0000      -1.116239       -30.3744
   7   2.0000      -1.010357       -27.4932
   8   2.0000      -1.006443       -27.3867
   9   2.0000      -0.845054       -22.9951
  10   2.0000      -0.770774       -20.9738
  11   2.0000      -0.734652       -19.9909
  12   2.0000      -0.722550       -19.6616
  13   2.0000      -0.679255       -18.4835
  14   2.0000      -0.644722       -17.5438
  15   2.0000      -0.630692       -17.1620
  16   2.0000      -0.595152       -16.1949
  17   2.0000      -0.565432       -15.3862
  18   2.0000      -0.548860       -14.9352
  19   2.0000      -0.517110       -14.0713
  20   2.0000      -0.486374       -13.2349
  21   2.0000      -0.469216       -12.7680
  22   2.0000      -0.437365       -11.9013
  23   2.0000      -0.405129       -11.0241
  24   0.0000      -0.214301        -5.8314
  25   0.0000      -0.164409        -4.4738
  26   0.0000      -0.134173        -3.6510
  27   0.0000      -0.119935        -3.2636
  28   0.0000      -0.104036        -2.8310

MULLIKEN ATOMIC CHARGES
-----------------------
   0 C :    0.062362
   1 N :   -0.029683
   2 C :   -0.123876
   3 N :    0.073331
   4 N :    0.091525
   5 H :    0.142598
   6 H :    0.144796
   7 H :    0.134383
   8 H :    0.146866
   9 H :    0.154705
  10 C :    0.072599
  11 H :    0.047625
  12 H :    0.015770
  13 H :    0.001719
  14 H :    0.020127
  15 H :    0.045154
Sum of atomic charges:    1.0000000

LOEWDIN ATOMIC CHARGES
----------------------
   0 C :    0.047854
   1 N :    0.040864
   2 C :    0.107656
   3 N :    0.085481
   4 N :    0.071403
   5 H :    0.101516
   6 H :    0.104364
   7 H :    0.095907
   8 H :    0.103356
   9 H :    0.108451
  10 C :   -0.035348
  11 H :    0.044048
  12 H :    0.025824
  13 H :    0.020943
  14 H :    0.029915
  15 H :    0.047765

  Mayer bond orders larger than 0.100000
B(  0-C ,  1-N ) :   0.9747 B(  0-C , 10-C ) :   1.1203 B(  0-C , 11-H ) :   0.9390
B(  0-C , 12-H ) :   0.9410 B(  1-N ,  2-C ) :   1.3573 B(  1-N ,  7-H ) :   0.9083
B(  2-C ,  3-N ) :   1.4191 B(  2-C ,  4-N ) :   1.3844 B(  3-N ,  8-H ) :   0.9246
B(  3-N ,  9-H ) :   0.9269 B(  4-N ,  5-H ) :   0.9279 B(  4-N ,  6-H ) :   0.9292
B( 10-C , 13-H ) :   0.9612 B( 10-C , 14-H ) :   0.9638 B( 10-C , 15-H ) :   0.9515

Dispersion correction           -0.025052832
FINAL SINGLE POINT ENERGY      -284.068803263701

DIPOLE MOMENT
-------------
                                X             Y             Z
Electronic contribution:      0.18308      -1.67198      -5.26402
Nuclear contribution   :     -0.59121       2.30298       4.63196
                        -----------------------------------------
Total Dipole Moment    :     -0.40812       0.63100      -0.63206
                        -----------------------------------------
Magnitude (a.u.)       :      0.98195
Magnitude (Debye)      :      2.49592

Rotational constants in cm-1:     0.205874     0.074757     0.066901
Rotational constants in MHz :  6171.937773  2241.151057  2005.629823

                             ****ORCA TERMINATED NORMALLY****
TOTAL RUN TIME: 0 days 0 hours 0 minutes 8 seconds 365 msec
