                         Program Version 5.0.0 -  RELEASE  -
|  1> !BLYP D3BJ RIJCOSX def2-SVP def2/J TightSCF
|  2> *xyz 0 1
|  3> C         -1.10433        0.25137       -2.86006
|  4> C         -0.71189        0.84252       -4.21834
|  5> H          0.15463        1.49980       -4.13091
|  6> H         -1.53813        1.45922       -4.58267
|  7> C         -0.39762       -0.20587       -5.28802
|  8> F          0.61717       -0.00535       -5.99827
|  9> O         -1.13317       -1.22138       -5.34147
| 10> H         -1.95489       -0.38644       -2.98099
| 11> H         -1.34603        1.04362       -2.18269
| 12> H         -0.28606       -0.31581       -2.46809
| 13> *
| 14>
| 15> %MaxCore 64000
| 16>
| 17> %pal nprocs 4
| 18> end
| 19>
| 20> %scf
| 21>   MaxIter 150
| 22> end
| 23>
| 24>
| 25>                          ****END OF INPUT****

CARTESIAN COORDINATES (ANGSTROEM)
---------------------------------
  C     -1.104330    0.251370   -2.860060
  C     -0.711890    0.842520   -4.218340
  H      0.154630    1.499800   -4.130910
  H     -1.538130    1.459220   -4.582670
  C     -0.397620   -0.205870   -5.288020
  F      0.617170   -0.005350   -5.998270
  O     -1.133170   -1.221380   -5.341470
  H     -1.954890   -0.386440   -2.980990
  H     -1.346030    1.043620   -2.182690
  H     -0.286060   -0.315810   -2.468090

 Total Charge           Charge          ....    0
 Multiplicity           Mult            ....    1
 Number of Electrons    NEL             ....   40
 Basis Dimension        Dim             ....   95

ORBITAL ENERGIES
----------------

  NO   OCC          E(Eh)            E(eV)
   0   2.0000     -24.352943      -662.6773
   1   2.0000     -18.778607      -510.9919
   2   2.0000     -10.080052      -274.2922
   3   2.0000      -9.946700      -270.6635
   4   2.0000      -9.922897      -270.0158
   5   2.0000      -1.179958       -32.1083
   6   2.0000      -0.915701       -24.9175
   7   2.0000      -0.705756       -19.2046
   8   2.0000      -0.603776       -16.4296
   9   2.0000      -0.555206       -15.1079
  10   2.0000      -0.473426       -12.8826
  11   2.0000      -0.459440       -12.5020
  12   2.0000      -0.429740       -11.6938
  13   2.0000      -0.403538       -10.9808
  14   2.0000      -0.369163       -10.0454
  15   2.0000      -0.340379        -9.2622
  16   2.0000      -0.321648        -8.7525
  17   2.0000      -0.316527        -8.6131
  18   2.0000      -0.292504        -7.9594
  19   2.0000      -0.227832        -6.1996
  20   0.0000      -0.050287        -1.3684
  21   0.0000       0.038306         1.0424
  22   0.0000       0.080869         2.2005
  23   0.0000       0.087772         2.3884
  24   0.0000       0.103231         2.8091

MULLIKEN ATOMIC CHARGES
-----------------------
   0 C :    0.089973
   1 C :    0.009599
   2 H :   -0.012754
   3 H :    0.022897
   4 C :    0.124460
   5 F :   -0.026812
   6 O :   -0.204826
   7 H :    0.012675
   8 H :   -0.010758
   9 H :   -0.004453
Sum of atomic charges:    0.0000000

LOEWDIN ATOMIC CHARGES
----------------------
   0 C :   -0.025989
   1 C :   -0.062765
   2 H :    0.020943
   3 H :    0.044375
   4 C :    0.061008
   5 F :    0.066333
   6 O :   -0.171185
   7 H :    0.025002
   8 H :    0.021383
   9 H :    0.020894

  Mayer bond orders larger than 0.100000
B(  0-C ,  1-C ) :   1.1218 B(  0-C ,  7-H ) :   0.9619 B(  0-C ,  8-H ) :   0.9550
B(  0-C ,  9-H ) :   0.9736 B(  1-C ,  2-H ) :   0.9231 B(  1-C ,  3-H ) :   0.9116
B(  1-C ,  4-C ) :   1.0032 B(  4-C ,  5-F ) :   1.2480 B(  4-C ,  6-O ) :   2.0997

Dispersion correction           -0.012837990
FINAL SINGLE POINT ENERGY      -292.101309430062

DIPOLE MOMENT
-------------
                                X             Y             Z
Electronic contribution:      3.60190      -2.48530      -7.83047
Nuclear contribution   :     -3.36368       3.36392       8.24820
                        -----------------------------------------
Total Dipole Moment    :      0.23821       0.87862       0.41773
                        -----------------------------------------
Magnitude (a.u.)       :      1.00161
Magnitude (Debye)      :      2.54588

Rotational constants in cm-1:     0.315013     0.126712     0.098430
Rotational constants in MHz :  9443.861322  3798.734540  2950.846388

                             ****ORCA TERMINATED NORMALLY****
TOTAL RUN TIME: 0 days 0 hours 0 minutes 5 seconds 992 msec
