                         Program Version 5.0.0 -  RELEASE  -
|  1> !BLYP D3BJ RIJCOSX def2-SVP def2/J TightSCF
|  2> *xyz 0 1
|  3> C          2.23447       -2.98975       -2.39762
|  4> C          2.75680       -2.94555       -3.76503
|  5> C          1.98721       -2.59045       -4.81898
|  6> N          0.74322       -3.01749       -4.91352
|  7> N          2.49964       -1.84860       -5.80324
|  8> H          3.30978       -1.29282       -5.55895
|  9> H          1.80103       -1.30430       -6.28913
| 10> H          3.71612       -2.62880       -3.82953
| 11> H          0.39583       -3.62775       -4.18502
| 12> H          0.03920       -2.45438       -5.37137
| 13> C          2.19120       -1.61950       -1.71549
| 14> H          2.87278       -3.66637       -1.82801
| 15> H          1.24619       -3.44744       -2.40784
| 16> H          1.56387       -0.96046       -2.27853
| 17> H          3.18033       -1.21449       -1.66568
| 18> H          1.79916       -1.72608       -0.72562
| 19> *
| 20>
| 21> %MaxCore 64000
| 22>
| 23> %pal nprocs 4
| 24> end
| 25>
| 26> %scf
| 27>   MaxIter 150
| 28> end
| 29>
| 30>
| 31>                          ****END OF INPUT****

CARTESIAN COORDINATES (ANGSTROEM)
---------------------------------
  C      2.234470   -2.989750   -2.397620
  C      2.756800   -2.945550   -3.765030
  C      1.987210   -2.590450   -4.818980
  N      0.743220   -3.017490   -4.913520
  N      2.499640   -1.848600   -5.803240
  H      3.309780   -1.292820   -5.558950
  H      1.801030   -1.304300   -6.289130
  H      3.716120   -2.628800   -3.829530
  H      0.395830   -3.627750   -4.185020
  H      0.039200   -2.454380   -5.371370
  C      2.191200   -1.619500   -1.715490
  H      2.872780   -3.666370   -1.828010
  H      1.246190   -3.447440   -2.407840
  H      1.563870   -0.960460   -2.278530
  H      3.180330   -1.214490   -1.665680
  H      1.799160   -1.726080   -0.725620

 Total Charge           Charge          ....    0
 Multiplicity           Mult            ....    1
 Number of Electrons    NEL             ....   48
 Basis Dimension        Dim             ....  134

ORBITAL ENERGIES
----------------

  NO   OCC          E(Eh)            E(eV)
   0   2.0000     -14.020003      -381.5037
   1   2.0000     -14.014879      -381.3643
   2   2.0000      -9.955048      -270.8906
   3   2.0000      -9.893077      -269.2043
   4   2.0000      -9.888217      -269.0721
   5   2.0000      -9.837231      -267.6847
   6   2.0000      -0.862213       -23.4620
   7   2.0000      -0.778005       -21.1706
   8   2.0000      -0.678044       -18.4505
   9   2.0000      -0.603916       -16.4334
  10   2.0000      -0.541071       -14.7233
  11   2.0000      -0.506623       -13.7859
  12   2.0000      -0.477117       -12.9830
  13   2.0000      -0.441004       -12.0003
  14   2.0000      -0.410175       -11.1614
  15   2.0000      -0.387860       -10.5542
  16   2.0000      -0.354482        -9.6459
  17   2.0000      -0.332461        -9.0467
  18   2.0000      -0.314073        -8.5464
  19   2.0000      -0.303690        -8.2638
  20   2.0000      -0.274196        -7.4613
  21   2.0000      -0.268628        -7.3097
  22   2.0000      -0.214862        -5.8467
  23   2.0000      -0.112728        -3.0675
  24   0.0000       0.011931         0.3247
  25   0.0000       0.044379         1.2076
  26   0.0000       0.060973         1.6592
  27   0.0000       0.065619         1.7856
  28   0.0000       0.079945         2.1754

MULLIKEN ATOMIC CHARGES
-----------------------
   0 C :    0.100468
   1 C :   -0.058136
   2 C :   -0.221484
   3 N :    0.041910
   4 N :    0.047612
   5 H :    0.091584
   6 H :    0.070673
   7 H :   -0.142714
   8 H :    0.091661
   9 H :    0.074891
  10 C :    0.131868
  11 H :   -0.045093
  12 H :   -0.070743
  13 H :   -0.041424
  14 H :   -0.035032
  15 H :   -0.036042
Sum of atomic charges:    0.0000000

LOEWDIN ATOMIC CHARGES
----------------------
   0 C :   -0.026318
   1 C :   -0.210951
   2 C :   -0.004293
   3 N :    0.012832
   4 N :    0.000207
   5 H :    0.071573
   6 H :    0.056652
   7 H :   -0.020480
   8 H :    0.073871
   9 H :    0.055777
  10 C :   -0.043364
  11 H :    0.011630
  12 H :   -0.001017
  13 H :    0.005792
  14 H :    0.010825
  15 H :    0.007264

  Mayer bond orders larger than 0.100000
B(  0-C ,  1-C ) :   1.1131 B(  0-C , 10-C ) :   1.1070 B(  0-C , 11-H ) :   0.9064
B(  0-C , 12-H ) :   0.9201 B(  1-C ,  2-C ) :   1.6373 B(  1-C ,  7-H ) :   0.8862
B(  2-C ,  3-N ) :   1.2968 B(  2-C ,  4-N ) :   1.2285 B(  3-N ,  8-H ) :   0.9424
B(  3-N ,  9-H ) :   0.9363 B(  4-N ,  5-H ) :   0.9413 B(  4-N ,  6-H ) :   0.9503
B( 10-C , 13-H ) :   0.9610 B( 10-C , 14-H ) :   0.9572 B( 10-C , 15-H ) :   0.9456

Dispersion correction           -0.026197423
FINAL SINGLE POINT ENERGY      -267.584506867618

DIPOLE MOMENT
-------------
                                X             Y             Z
Electronic contribution:     -0.37764      -1.39905      -5.17641
Nuclear contribution   :     -0.44240       2.20379       4.66256
                        -----------------------------------------
Total Dipole Moment    :     -0.82003       0.80474      -0.51385
                        -----------------------------------------
Magnitude (a.u.)       :      1.25861
Magnitude (Debye)      :      3.19913

Rotational constants in cm-1:     0.209447     0.075194     0.066975
Rotational constants in MHz :  6279.068019  2254.272519  2007.845458

                             ****ORCA TERMINATED NORMALLY****
TOTAL RUN TIME: 0 days 0 hours 0 minutes 7 seconds 910 msec
