                         Program Version 5.0.0 -  RELEASE  -
|  1> !BLYP D3BJ RIJCOSX def2-SVP def2/J TightSCF
|  2> *xyz 0 1
|  3> C         -1.10433        0.25137       -2.86006
|  4> C         -0.71189        0.84252       -4.21834
|  5> H          0.15463        1.49980       -4.13091
|  6> H         -1.53813        1.45922       -4.58267
|  7> C         -0.39762       -0.20587       -5.28802
|  8> O          0.61717       -0.00535       -5.99827
|  9> F         -1.13317       -1.22138       -5.34147
| 10> H         -1.95489       -0.38644       -2.98099
| 11> H         -1.34603        1.04362       -2.18269
| 12> H         -0.28606       -0.31581       -2.46809
| 13> *
| 14>
| 15> %MaxCore 64000
| 16>
| 17> %pal nprocs 4
| 18> end
| 19>
| 20> %scf
| 21>   MaxIter 150
| 22> end
| 23>
| 24>
| 25>                          ****END OF INPUT****

CARTESIAN COORDINATES (ANGSTROEM)
---------------------------------
  C     -1.104330    0.251370   -2.860060
  C     -0.711890    0.842520   -4.218340
  H      0.154630    1.499800   -4.130910
  H     -1.538130    1.459220   -4.582670
  C     -0.397620   -0.205870   -5.288020
  O      0.617170   -0.005350   -5.998270
  F     -1.133170   -1.221380   -5.341470
  H     -1.954890   -0.386440   -2.980990
  H     -1.346030    1.043620   -2.182690
  H     -0.286060   -0.315810   -2.468090

 Total Charge           Charge          ....    0
 Multiplicity           Mult            ....    1
 Number of Electrons    NEL             ....   40
 Basis Dimension        Dim             ....   95

ORBITAL ENERGIES
----------------

  NO   OCC          E(Eh)            E(eV)
   0   2.0000     -24.354423      -662.7175
   1   2.0000     -18.776431      -510.9327
   2   2.0000     -10.078943      -274.2620
   3   2.0000      -9.945570      -270.6327
   4   2.0000      -9.928412      -270.1658
   5   2.0000      -1.180899       -32.1339
   6   2.0000      -0.913729       -24.8638
   7   2.0000      -0.709746       -19.3132
   8   2.0000      -0.599331       -16.3086
   9   2.0000      -0.561808       -15.2876
  10   2.0000      -0.475610       -12.9420
  11   2.0000      -0.465265       -12.6605
  12   2.0000      -0.422729       -11.5030
  13   2.0000      -0.403038       -10.9672
  14   2.0000      -0.372347       -10.1321
  15   2.0000      -0.343198        -9.3389
  16   2.0000      -0.327743        -8.9183
  17   2.0000      -0.320894        -8.7320
  18   2.0000      -0.292529        -7.9601
  19   2.0000      -0.222571        -6.0565
  20   0.0000      -0.047858        -1.3023
  21   0.0000       0.032946         0.8965
  22   0.0000       0.079260         2.1568
  23   0.0000       0.088901         2.4191
  24   0.0000       0.104414         2.8412

MULLIKEN ATOMIC CHARGES
-----------------------
   0 C :    0.065033
   1 C :    0.016973
   2 H :    0.013298
   3 H :    0.015069
   4 C :    0.122236
   5 O :   -0.199253
   6 F :   -0.030829
   7 H :   -0.001258
   8 H :   -0.003758
   9 H :    0.002488
Sum of atomic charges:   -0.0000000

LOEWDIN ATOMIC CHARGES
----------------------
   0 C :   -0.037251
   1 C :   -0.059090
   2 H :    0.037416
   3 H :    0.038705
   4 C :    0.059984
   5 O :   -0.168410
   6 F :    0.064866
   7 H :    0.018162
   8 H :    0.024242
   9 H :    0.021376

  Mayer bond orders larger than 0.100000
B(  0-C ,  1-C ) :   1.0961 B(  0-C ,  7-H ) :   0.9658 B(  0-C ,  8-H ) :   0.9557
B(  0-C ,  9-H ) :   0.9744 B(  1-C ,  2-H ) :   0.9371 B(  1-C ,  3-H ) :   0.9129
B(  1-C ,  4-C ) :   1.0118 B(  4-C ,  5-O ) :   2.1163 B(  4-C ,  6-F ) :   1.2360

Dispersion correction           -0.012728483
FINAL SINGLE POINT ENERGY      -292.100002736117

DIPOLE MOMENT
-------------
                                X             Y             Z
Electronic contribution:      0.75299      -4.45334      -6.73807
Nuclear contribution   :     -1.45527       4.68977       7.53208
                        -----------------------------------------
Total Dipole Moment    :     -0.70227       0.23643       0.79401
                        -----------------------------------------
Magnitude (a.u.)       :      1.08607
Magnitude (Debye)      :      2.76056

Rotational constants in cm-1:     0.298240     0.132464     0.099915
Rotational constants in MHz :  8940.998095  3971.171647  2995.369122

                             ****ORCA TERMINATED NORMALLY****
TOTAL RUN TIME: 0 days 0 hours 0 minutes 8 seconds 164 msec
