                         Program Version 5.0.0 -  RELEASE  -
|  1> !BLYP D3BJ RIJCOSX def2-SVP def2/J TightSCF
|  2> *xyz 0 1
|  3> C          2.23447       -2.98975       -2.39762
|  4> N          2.75680       -2.94555       -3.76503
|  5> C          1.98721       -2.59045       -4.81898
|  6> C          0.74322       -3.01749       -4.91352
|  7> N          2.49964       -1.84860       -5.80324
|  8> H          3.30978       -1.29282       -5.55895
|  9> H          1.80103       -1.30430       -6.28913
| 10> H          3.71612       -2.62880       -3.82953
| 11> H          0.39583       -3.62775       -4.18502
| 12> H          0.03920       -2.45438       -5.37137
| 13> C          2.19120       -1.61950       -1.71549
| 14> H          2.87278       -3.66637       -1.82801
| 15> H          1.24619       -3.44744       -2.40784
| 16> H          1.56387       -0.96046       -2.27853
| 17> H          3.18033       -1.21449       -1.66568
| 18> H          1.79916       -1.72608       -0.72562
| 19> *
| 20>
| 21> %MaxCore 64000
| 22>
| 23> %pal nprocs 4
| 24> end
| 25>
| 26> %scf
| 27>   MaxIter 150
| 28> end
| 29>
| 30>
| 31>                          ****END OF INPUT****

CARTESIAN COORDINATES (ANGSTROEM)
---------------------------------
  C      2.234470   -2.989750   -2.397620
  N      2.756800   -2.945550   -3.765030
  C      1.987210   -2.590450   -4.818980
  C      0.743220   -3.017490   -4.913520
  N      2.499640   -1.848600   -5.803240
  H      3.309780   -1.292820   -5.558950
  H      1.801030   -1.304300   -6.289130
  H      3.716120   -2.628800   -3.829530
  H      0.395830   -3.627750   -4.185020
  H      0.039200   -2.454380   -5.371370
  C      2.191200   -1.619500   -1.715490
  H      2.872780   -3.666370   -1.828010
  H      1.246190   -3.447440   -2.407840
  H      1.563870   -0.960460   -2.278530
  H      3.180330   -1.214490   -1.665680
  H      1.799160   -1.726080   -0.725620

 Total Charge           Charge          ....    0
 Multiplicity           Mult            ....    1
 Number of Electrons    NEL             ....   48
 Basis Dimension        Dim             ....  134

ORBITAL ENERGIES
----------------

  NO   OCC          E(Eh)            E(eV)
   0   2.0000     -14.014229      -381.3466
   1   2.0000     -14.013595      -381.3293
   2   2.0000      -9.952754      -270.8282
   3   2.0000      -9.949357      -270.7358
   4   2.0000      -9.911009      -269.6923
   5   2.0000      -9.833699      -267.5885
   6   2.0000      -0.860260       -23.4089
   7   2.0000      -0.787111       -21.4184
   8   2.0000      -0.666986       -18.1496
   9   2.0000      -0.623813       -16.9748
  10   2.0000      -0.562857       -15.3161
  11   2.0000      -0.491108       -13.3637
  12   2.0000      -0.477429       -12.9915
  13   2.0000      -0.447509       -12.1773
  14   2.0000      -0.402706       -10.9582
  15   2.0000      -0.388626       -10.5751
  16   2.0000      -0.358426        -9.7533
  17   2.0000      -0.340417        -9.2632
  18   2.0000      -0.337346        -9.1796
  19   2.0000      -0.316892        -8.6231
  20   2.0000      -0.302177        -8.2227
  21   2.0000      -0.294043        -8.0013
  22   2.0000      -0.196148        -5.3375
  23   2.0000      -0.127795        -3.4775
  24   0.0000       0.018529         0.5042
  25   0.0000       0.043864         1.1936
  26   0.0000       0.057094         1.5536
  27   0.0000       0.069305         1.8859
  28   0.0000       0.087691         2.3862

MULLIKEN ATOMIC CHARGES
-----------------------
   0 C :    0.125726
   1 N :   -0.073148
   2 C :   -0.119369
   3 C :   -0.028137
   4 N :    0.034541
   5 H :    0.058946
   6 H :    0.092015
   7 H :    0.065586
   8 H :   -0.081060
   9 H :   -0.082645
  10 C :    0.078725
  11 H :   -0.024333
  12 H :    0.000735
  13 H :   -0.005820
  14 H :   -0.025898
  15 H :   -0.015864
Sum of atomic charges:   -0.0000000

LOEWDIN ATOMIC CHARGES
----------------------
   0 C :    0.045674
   1 N :   -0.015734
   2 C :    0.008170
   3 C :   -0.215342
   4 N :   -0.004291
   5 H :    0.047503
   6 H :    0.074531
   7 H :    0.052959
   8 H :   -0.011971
   9 H :   -0.013128
  10 C :   -0.052495
  11 H :    0.012080
  12 H :    0.023956
  13 H :    0.018451
  14 H :    0.010077
  15 H :    0.019559

  Mayer bond orders larger than 0.100000
B(  0-C ,  1-N ) :   1.0387 B(  0-C , 10-C ) :   1.1228 B(  0-C , 11-H ) :   0.9407
B(  0-C , 12-H ) :   0.9361 B(  1-N ,  2-C ) :   1.1801 B(  1-N ,  7-H ) :   0.9295
B(  2-C ,  3-C ) :   1.7469 B(  2-C ,  4-N ) :   1.2363 B(  3-C ,  8-H ) :   0.9216
B(  3-C ,  9-H ) :   0.9285 B(  4-N ,  5-H ) :   0.9390 B(  4-N ,  6-H ) :   0.9432
B( 10-C , 13-H ) :   0.9617 B( 10-C , 14-H ) :   0.9614 B( 10-C , 15-H ) :   0.9497

Dispersion correction           -0.026016214
FINAL SINGLE POINT ENERGY      -267.580342946265

DIPOLE MOMENT
-------------
                                X             Y             Z
Electronic contribution:      1.57331      -1.25446      -3.94260
Nuclear contribution   :     -0.86957       2.18853       4.41892
                        -----------------------------------------
Total Dipole Moment    :      0.70375       0.93406       0.47632
                        -----------------------------------------
Magnitude (a.u.)       :      1.26278
Magnitude (Debye)      :      3.20974

Rotational constants in cm-1:     0.214718     0.075736     0.068547
Rotational constants in MHz :  6437.075121  2270.519635  2054.974198

                             ****ORCA TERMINATED NORMALLY****
TOTAL RUN TIME: 0 days 0 hours 0 minutes 9 seconds 652 msec
