                         Program Version 5.0.0 -  RELEASE  -
|  1> !BLYP D3BJ RIJCOSX def2-SVP def2/J TightSCF
|  2> *xyz 0 1
|  3> C          2.23447       -2.98975       -2.39762
|  4> N          2.75680       -2.94555       -3.76503
|  5> C          1.98721       -2.59045       -4.81898
|  6> N          0.74322       -3.01749       -4.91352
|  7> C          2.49964       -1.84860       -5.80324
|  8> H          3.30978       -1.29282       -5.55895
|  9> H          1.80103       -1.30430       -6.28913
| 10> H          3.71612       -2.62880       -3.82953
| 11> H          0.39583       -3.62775       -4.18502
| 12> H          0.03920       -2.45438       -5.37137
| 13> C          2.19120       -1.61950       -1.71549
| 14> H          2.87278       -3.66637       -1.82801
| 15> H          1.24619       -3.44744       -2.40784
| 16> H          1.56387       -0.96046       -2.27853
| 17> H          3.18033       -1.21449       -1.66568
| 18> H          1.79916       -1.72608       -0.72562
| 19> *
| 20>
| 21> %MaxCore 64000
| 22>
| 23> %pal nprocs 4
| 24> end
| 25>
| 26> %scf
| 27>   MaxIter 150
| 28> end
| 29>
| 30>
| 31>                          ****END OF INPUT****

CARTESIAN COORDINATES (ANGSTROEM)
---------------------------------
  C      2.234470   -2.989750   -2.397620
  N      2.756800   -2.945550   -3.765030
  C      1.987210   -2.590450   -4.818980
  N      0.743220   -3.017490   -4.913520
  C      2.499640   -1.848600   -5.803240
  H      3.309780   -1.292820   -5.558950
  H      1.801030   -1.304300   -6.289130
  H      3.716120   -2.628800   -3.829530
  H      0.395830   -3.627750   -4.185020
  H      0.039200   -2.454380   -5.371370
  C      2.191200   -1.619500   -1.715490
  H      2.872780   -3.666370   -1.828010
  H      1.246190   -3.447440   -2.407840
  H      1.563870   -0.960460   -2.278530
  H      3.180330   -1.214490   -1.665680
  H      1.799160   -1.726080   -0.725620

 Total Charge           Charge          ....    0
 Multiplicity           Mult            ....    1
 Number of Electrons    NEL             ....   48
 Basis Dimension        Dim             ....  134

ORBITAL ENERGIES
----------------

  NO   OCC          E(Eh)            E(eV)
   0   2.0000     -14.017060      -381.4236
   1   2.0000     -14.012272      -381.2933
   2   2.0000      -9.957892      -270.9680
   3   2.0000      -9.954905      -270.8867
   4   2.0000      -9.914726      -269.7934
   5   2.0000      -9.828812      -267.4556
   6   2.0000      -0.861371       -23.4391
   7   2.0000      -0.786737       -21.4082
   8   2.0000      -0.677887       -18.4463
   9   2.0000      -0.618141       -16.8205
  10   2.0000      -0.552002       -15.0207
  11   2.0000      -0.528994       -14.3947
  12   2.0000      -0.472666       -12.8619
  13   2.0000      -0.430139       -11.7047
  14   2.0000      -0.427640       -11.6367
  15   2.0000      -0.382530       -10.4092
  16   2.0000      -0.369393       -10.0517
  17   2.0000      -0.344517        -9.3748
  18   2.0000      -0.322708        -8.7813
  19   2.0000      -0.314007        -8.5446
  20   2.0000      -0.307065        -8.3557
  21   2.0000      -0.298725        -8.1287
  22   2.0000      -0.198239        -5.3944
  23   2.0000      -0.123085        -3.3493
  24   0.0000       0.018290         0.4977
  25   0.0000       0.041321         1.1244
  26   0.0000       0.047454         1.2913
  27   0.0000       0.066308         1.8043
  28   0.0000       0.079724         2.1694

MULLIKEN ATOMIC CHARGES
-----------------------
   0 C :    0.096451
   1 N :   -0.057587
   2 C :   -0.151650
   3 N :    0.015585
   4 C :    0.022539
   5 H :   -0.099504
   6 H :   -0.095003
   7 H :    0.087465
   8 H :    0.073261
   9 H :    0.102575
  10 C :    0.091571
  11 H :   -0.018211
  12 H :   -0.030259
  13 H :   -0.005264
  14 H :   -0.014032
  15 H :   -0.017938
Sum of atomic charges:   -0.0000000

LOEWDIN ATOMIC CHARGES
----------------------
   0 C :    0.034050
   1 N :   -0.017994
   2 C :    0.012104
   3 N :    0.012511
   4 C :   -0.237558
   5 H :   -0.019349
   6 H :   -0.014687
   7 H :    0.072828
   8 H :    0.056426
   9 H :    0.076753
  10 C :   -0.051447
  11 H :    0.014307
  12 H :    0.008519
  13 H :    0.019380
  14 H :    0.016073
  15 H :    0.018086

  Mayer bond orders larger than 0.100000
B(  0-C ,  1-N ) :   1.0565 B(  0-C , 10-C ) :   1.1058 B(  0-C , 11-H ) :   0.9410
B(  0-C , 12-H ) :   0.9359 B(  1-N ,  2-C ) :   1.2002 B(  1-N ,  7-H ) :   0.9245
B(  2-C ,  3-N ) :   1.2372 B(  2-C ,  4-C ) :   1.7516 B(  3-N ,  8-H ) :   0.9502
B(  3-N ,  9-H ) :   0.9453 B(  4-C ,  5-H ) :   0.9165 B(  4-C ,  6-H ) :   0.9235
B( 10-C , 13-H ) :   0.9629 B( 10-C , 14-H ) :   0.9626 B( 10-C , 15-H ) :   0.9488

Dispersion correction           -0.025912518
FINAL SINGLE POINT ENERGY      -267.576106659223

DIPOLE MOMENT
-------------
                                X             Y             Z
Electronic contribution:     -0.14824      -2.47082      -3.04020
Nuclear contribution   :     -0.49695       2.43650       4.23017
                        -----------------------------------------
Total Dipole Moment    :     -0.64519      -0.03432       1.18997
                        -----------------------------------------
Magnitude (a.u.)       :      1.35406
Magnitude (Debye)      :      3.44174

Rotational constants in cm-1:     0.211102     0.077011     0.069221
Rotational constants in MHz :  6328.667765  2308.731604  2075.192956

                             ****ORCA TERMINATED NORMALLY****
TOTAL RUN TIME: 0 days 0 hours 0 minutes 9 seconds 633 msec
