                         Program Version 5.0.0 -  RELEASE  -
|  1> !BLYP D3BJ RIJCOSX def2-TZVP def2/J TightSCF xyzfile
|  2>
|  3> *xyzfile 0 1 D1.xyz
|  4>
|  5> %MaxCore 64000
|  6>
|  7> %pal nprocs 18
|  8> end
|  9>
| 10> %scf
| 11>   MaxIter 150
| 12> end
| 13>
| 14>
| 15>                          ****END OF INPUT****

CARTESIAN COORDINATES (ANGSTROEM)
---------------------------------
  C      2.234473   -2.989754   -2.397622
  C      2.756799   -2.945553   -3.765029
  C     -1.104325    0.251374   -2.860056
  C     -0.711893    0.842517   -4.218344
  H      0.154626    1.499800   -4.130909
  H     -1.538134    1.459222   -4.582671
  C     -0.397624   -0.205875   -5.288018
  C      1.987208   -2.590451   -4.818975
  N      0.743221   -3.017493   -4.913524
  N      2.499636   -1.848598   -5.803241
  H      3.309780   -1.292818   -5.558947
  H      1.801025   -1.304298   -6.289129
  H      3.716116   -2.628797   -3.829533
  H      0.395828   -3.627747   -4.185024
  H      0.039201   -2.454383   -5.371367
  F      0.617165   -0.005348   -5.998273
  O     -1.133173   -1.221380   -5.341465
  C      2.191199   -1.619503   -1.715492
  H      2.872783   -3.666368   -1.828014
  H      1.246188   -3.447444   -2.407842
  C      1.298729   -0.554314   -2.359773
  H      1.872917   -1.787955   -0.681310
  H      3.216809   -1.238432   -1.654428
  C     -0.196255   -0.863365   -2.325763
  H      1.612531   -0.371346   -3.393065
  H      1.480944    0.388638   -1.834444
  H     -0.404105   -1.761825   -2.909448
  H     -0.490439   -1.087880   -1.294131
  H     -1.143842    1.066711   -2.129680
  H     -2.114401   -0.156834   -2.930323

 Total Charge           Charge          ....    0
 Multiplicity           Mult            ....    1
 Number of Electrons    NEL             ....  102
 Basis Dimension        Dim             ....  505

ORBITAL ENERGIES
----------------

  NO   OCC          E(Eh)            E(eV)
   0   2.0000     -24.381295      -663.4488
   1   2.0000     -18.801571      -511.6168
   2   2.0000     -13.993886      -380.7930
   3   2.0000     -13.984258      -380.5310
   4   2.0000     -10.093479      -274.6575
   5   2.0000      -9.943753      -270.5833
   6   2.0000      -9.936634      -270.3895
   7   2.0000      -9.920026      -269.9376
   8   2.0000      -9.901123      -269.4233
   9   2.0000      -9.898070      -269.3402
  10   2.0000      -9.887175      -269.0437
  11   2.0000      -9.877517      -268.7809
  12   2.0000      -9.823597      -267.3137
  13   2.0000      -1.239606       -33.7314
  14   2.0000      -0.969441       -26.3798
  15   2.0000      -0.868522       -23.6337
  16   2.0000      -0.783187       -21.3116
  17   2.0000      -0.745936       -20.2980
  18   2.0000      -0.709376       -19.3031
  19   2.0000      -0.675499       -18.3813
  20   2.0000      -0.635155       -17.2834
  21   2.0000      -0.616090       -16.7647
  22   2.0000      -0.582983       -15.8638
  23   2.0000      -0.547057       -14.8862
  24   2.0000      -0.522770       -14.2253
  25   2.0000      -0.517335       -14.0774
  26   2.0000      -0.501729       -13.6528
  27   2.0000      -0.487533       -13.2664
  28   2.0000      -0.479644       -13.0518
  29   2.0000      -0.457742       -12.4558
  30   2.0000      -0.439053       -11.9472
  31   2.0000      -0.424923       -11.5627
  32   2.0000      -0.419802       -11.4234
  33   2.0000      -0.406668       -11.0660
  34   2.0000      -0.389527       -10.5996
  35   2.0000      -0.385554       -10.4914
  36   2.0000      -0.370258       -10.0752
  37   2.0000      -0.356832        -9.7099
  38   2.0000      -0.344821        -9.3831
  39   2.0000      -0.339289        -9.2325
  40   2.0000      -0.327873        -8.9219
  41   2.0000      -0.317060        -8.6276
  42   2.0000      -0.311934        -8.4881
  43   2.0000      -0.302120        -8.2211
  44   2.0000      -0.292637        -7.9630
  45   2.0000      -0.281274        -7.6539
  46   2.0000      -0.270900        -7.3716
  47   2.0000      -0.265322        -7.2198
  48   2.0000      -0.262799        -7.1511
  49   2.0000      -0.212434        -5.7806
  50   2.0000      -0.119492        -3.2516
  51   0.0000      -0.086356        -2.3499
  52   0.0000       0.000602         0.0164
  53   0.0000       0.022136         0.6024
  54   0.0000       0.025768         0.7012
  55   0.0000       0.029863         0.8126

MULLIKEN ATOMIC CHARGES
-----------------------
   0 C :   -0.172835
   1 C :   -0.246352
   2 C :   -0.121681
   3 C :   -0.189199
   4 H :    0.101820
   5 H :    0.120061
   6 C :    0.342388
   7 C :    0.099458
   8 N :   -0.340298
   9 N :   -0.332951
  10 H :    0.207537
  11 H :    0.186402
  12 H :    0.037774
  13 H :    0.201405
  14 H :    0.211022
  15 F :   -0.105550
  16 O :   -0.315987
  17 C :   -0.081421
  18 H :    0.072454
  19 H :    0.049152
  20 C :   -0.106145
  21 H :    0.055381
  22 H :    0.057618
  23 C :   -0.185899
  24 H :    0.067731
  25 H :    0.060957
  26 H :    0.079357
  27 H :    0.072704
  28 H :    0.086872
  29 H :    0.088223
Sum of atomic charges:   -0.0000000

LOEWDIN ATOMIC CHARGES
----------------------
   0 C :   -0.286795
   1 C :   -0.267306
   2 C :   -0.248696
   3 C :   -0.232428
   4 H :    0.141650
   5 H :    0.156406
   6 C :   -0.526412
   7 C :   -0.486142
   8 N :    0.030222
   9 N :   -0.003880
  10 H :    0.166256
  11 H :    0.145851
  12 H :    0.113083
  13 H :    0.167240
  14 H :    0.139320
  15 F :    0.346883
  16 O :    0.092295
  17 C :   -0.251749
  18 H :    0.135467
  19 H :    0.124679
  20 C :   -0.261292
  21 H :    0.128614
  22 H :    0.131155
  23 C :   -0.262649
  24 H :    0.131189
  25 H :    0.132185
  26 H :    0.130947
  27 H :    0.135610
  28 H :    0.137682
  29 H :    0.140614

  Mayer bond orders larger than 0.100000
B(  0-C ,  1-C ) :   1.0174 B(  0-C , 17-C ) :   0.9366 B(  0-C , 18-H ) :   0.9688
B(  0-C , 19-H ) :   0.9707 B(  1-C ,  7-C ) :   1.6512 B(  1-C , 12-H ) :   1.0080
B(  2-C ,  3-C ) :   0.9568 B(  2-C , 23-C ) :   0.9707 B(  2-C , 28-H ) :   0.9541
B(  2-C , 29-H ) :   0.9552 B(  3-C ,  4-H ) :   0.9449 B(  3-C ,  5-H ) :   0.9309
B(  3-C ,  6-C ) :   1.0015 B(  6-C , 15-F ) :   1.1104 B(  6-C , 16-O ) :   1.9613
B(  7-C ,  8-N ) :   1.2276 B(  7-C ,  9-N ) :   1.1552 B(  8-N , 13-H ) :   0.9309
B(  8-N , 14-H ) :   0.8715 B(  9-N , 10-H ) :   0.9315 B(  9-N , 11-H ) :   0.9305
B( 14-H , 16-O ) :   0.1047 B( 17-C , 20-C ) :   0.9908 B( 17-C , 21-H ) :   0.9468
B( 17-C , 22-H ) :   0.9569 B( 20-C , 23-C ) :   0.9397 B( 20-C , 24-H ) :   0.9510
B( 20-C , 25-H ) :   0.9616 B( 23-C , 26-H ) :   0.9613 B( 23-C , 27-H ) :   0.9640

Dispersion correction           -0.070184665
FINAL SINGLE POINT ENERGY      -637.770925816297

DIPOLE MOMENT
-------------
                                X             Y             Z
Electronic contribution:     -2.95464       2.05451     -14.57729
Nuclear contribution   :      2.31842      -0.27661      14.74721
                        -----------------------------------------
Total Dipole Moment    :     -0.63622       1.77790       0.16992
                        -----------------------------------------
Magnitude (a.u.)       :      1.89594
Magnitude (Debye)      :      4.81909

Rotational constants in cm-1:     0.032691     0.023990     0.017099
Rotational constants in MHz :   980.050971   719.190545   512.606858

                             ****ORCA TERMINATED NORMALLY****
TOTAL RUN TIME: 0 days 0 hours 0 minutes 24 seconds 330 msec
