                         Program Version 5.0.0 -  RELEASE  -
|  1> !BLYP D3BJ RIJCOSX def2-TZVP def2/J TightSCF xyzfile
|  2>
|  3> *xyzfile 0 1 D3.xyz
|  4>
|  5> %MaxCore 64000
|  6>
|  7> %pal nprocs 18
|  8> end
|  9>
| 10> %scf
| 11>   MaxIter 150
| 12> end
| 13>
| 14>
| 15>                          ****END OF INPUT****

CARTESIAN COORDINATES (ANGSTROEM)
---------------------------------
  C      2.234473   -2.989754   -2.397622
  N      2.756799   -2.945553   -3.765029
  C     -1.104325    0.251374   -2.860056
  C     -0.711893    0.842517   -4.218344
  H      0.154626    1.499800   -4.130909
  H     -1.538134    1.459222   -4.582671
  C     -0.397624   -0.205875   -5.288018
  C      1.987208   -2.590451   -4.818975
  N      0.743221   -3.017493   -4.913524
  C      2.499636   -1.848598   -5.803241
  H      3.309780   -1.292818   -5.558947
  H      1.801025   -1.304298   -6.289129
  H      3.716116   -2.628797   -3.829533
  H      0.395828   -3.627747   -4.185024
  H      0.039201   -2.454383   -5.371367
  F      0.617165   -0.005348   -5.998273
  O     -1.133173   -1.221380   -5.341465
  C      2.191199   -1.619503   -1.715492
  H      2.872783   -3.666368   -1.828014
  H      1.246188   -3.447444   -2.407842
  C      1.298729   -0.554314   -2.359773
  H      1.872917   -1.787955   -0.681310
  H      3.216809   -1.238432   -1.654428
  C     -0.196255   -0.863365   -2.325763
  H      1.612531   -0.371346   -3.393065
  H      1.480944    0.388638   -1.834444
  H     -0.404105   -1.761825   -2.909448
  H     -0.490439   -1.087880   -1.294131
  H     -1.143842    1.066711   -2.129680
  H     -2.114401   -0.156834   -2.930323

 Total Charge           Charge          ....    0
 Multiplicity           Mult            ....    1
 Number of Electrons    NEL             ....  102
 Basis Dimension        Dim             ....  505

ORBITAL ENERGIES
----------------

  NO   OCC          E(Eh)            E(eV)
   0   2.0000     -24.362573      -662.9393
   1   2.0000     -18.795428      -511.4496
   2   2.0000     -13.996754      -380.8711
   3   2.0000     -13.979777      -380.4091
   4   2.0000     -10.090800      -274.5846
   5   2.0000      -9.941702      -270.5275
   6   2.0000      -9.936967      -270.3986
   7   2.0000      -9.933279      -270.2983
   8   2.0000      -9.922248      -269.9981
   9   2.0000      -9.907271      -269.5906
  10   2.0000      -9.907159      -269.5875
  11   2.0000      -9.906588      -269.5720
  12   2.0000      -9.803030      -266.7540
  13   2.0000      -1.222098       -33.2550
  14   2.0000      -0.963864       -26.2281
  15   2.0000      -0.866376       -23.5753
  16   2.0000      -0.790678       -21.5155
  17   2.0000      -0.747141       -20.3307
  18   2.0000      -0.710651       -19.3378
  19   2.0000      -0.668281       -18.1848
  20   2.0000      -0.634763       -17.2728
  21   2.0000      -0.615831       -16.7576
  22   2.0000      -0.583715       -15.8837
  23   2.0000      -0.551324       -15.0023
  24   2.0000      -0.531540       -14.4639
  25   2.0000      -0.516737       -14.0611
  26   2.0000      -0.495229       -13.4759
  27   2.0000      -0.475502       -12.9391
  28   2.0000      -0.470228       -12.7956
  29   2.0000      -0.467619       -12.7246
  30   2.0000      -0.436725       -11.8839
  31   2.0000      -0.426304       -11.6003
  32   2.0000      -0.419894       -11.4259
  33   2.0000      -0.409511       -11.1434
  34   2.0000      -0.395051       -10.7499
  35   2.0000      -0.384354       -10.4588
  36   2.0000      -0.362873        -9.8743
  37   2.0000      -0.359930        -9.7942
  38   2.0000      -0.342829        -9.3289
  39   2.0000      -0.333365        -9.0713
  40   2.0000      -0.329977        -8.9791
  41   2.0000      -0.323545        -8.8041
  42   2.0000      -0.315661        -8.5896
  43   2.0000      -0.308976        -8.4077
  44   2.0000      -0.299022        -8.1368
  45   2.0000      -0.292357        -7.9554
  46   2.0000      -0.285916        -7.7802
  47   2.0000      -0.283231        -7.7071
  48   2.0000      -0.260056        -7.0765
  49   2.0000      -0.195711        -5.3256
  50   2.0000      -0.124682        -3.3928
  51   0.0000      -0.080959        -2.2030
  52   0.0000       0.001483         0.0403
  53   0.0000       0.016382         0.4458
  54   0.0000       0.019125         0.5204
  55   0.0000       0.032358         0.8805

MULLIKEN ATOMIC CHARGES
-----------------------
   0 C :   -0.134173
   1 N :   -0.221995
   2 C :   -0.123427
   3 C :   -0.194788
   4 H :    0.105885
   5 H :    0.119570
   6 C :    0.362283
   7 C :    0.154812
   8 N :   -0.359424
   9 C :   -0.369258
  10 H :    0.038036
  11 H :    0.037777
  12 H :    0.181803
  13 H :    0.180760
  14 H :    0.227998
  15 F :   -0.068687
  16 O :   -0.324444
  17 C :   -0.136250
  18 H :    0.104689
  19 H :    0.084450
  20 C :   -0.130480
  21 H :    0.061718
  22 H :    0.077480
  23 C :   -0.176998
  24 H :    0.110662
  25 H :    0.067585
  26 H :    0.078167
  27 H :    0.069956
  28 H :    0.087558
  29 H :    0.088736
Sum of atomic charges:   -0.0000000

LOEWDIN ATOMIC CHARGES
----------------------
   0 C :   -0.290827
   1 N :    0.118665
   2 C :   -0.248108
   3 C :   -0.229498
   4 H :    0.143090
   5 H :    0.156780
   6 C :   -0.509981
   7 C :   -0.488591
   8 N :    0.029538
   9 C :   -0.352292
  10 H :    0.088975
  11 H :    0.091353
  12 H :    0.183301
  13 H :    0.151704
  14 H :    0.150798
  15 F :    0.368298
  16 O :    0.089961
  17 C :   -0.263822
  18 H :    0.129513
  19 H :    0.123980
  20 C :   -0.261096
  21 H :    0.133604
  22 H :    0.132766
  23 C :   -0.264494
  24 H :    0.139249
  25 H :    0.134035
  26 H :    0.130115
  27 H :    0.134151
  28 H :    0.137593
  29 H :    0.141241

  Mayer bond orders larger than 0.100000
B(  0-C ,  1-N ) :   0.9758 B(  0-C , 17-C ) :   0.9526 B(  0-C , 18-H ) :   0.9751
B(  0-C , 19-H ) :   0.9777 B(  1-N ,  7-C ) :   1.1975 B(  1-N , 12-H ) :   0.9260
B(  2-C ,  3-C ) :   0.9579 B(  2-C , 23-C ) :   0.9779 B(  2-C , 28-H ) :   0.9552
B(  2-C , 29-H ) :   0.9545 B(  3-C ,  4-H ) :   0.9476 B(  3-C ,  5-H ) :   0.9306
B(  3-C ,  6-C ) :   0.9979 B(  6-C , 15-F ) :   1.1711 B(  6-C , 16-O ) :   1.9577
B(  7-C ,  8-N ) :   1.1668 B(  7-C ,  9-C ) :   1.6462 B(  8-N , 13-H ) :   0.9367
B(  8-N , 14-H ) :   0.8681 B(  9-C , 10-H ) :   1.0039 B(  9-C , 11-H ) :   1.0118
B( 14-H , 16-O ) :   0.1060 B( 17-C , 20-C ) :   0.9624 B( 17-C , 21-H ) :   0.9467
B( 17-C , 22-H ) :   0.9620 B( 20-C , 23-C ) :   0.9362 B( 20-C , 24-H ) :   0.9549
B( 20-C , 25-H ) :   0.9597 B( 23-C , 26-H ) :   0.9608 B( 23-C , 27-H ) :   0.9608

Dispersion correction           -0.070003327
FINAL SINGLE POINT ENERGY      -637.756770455711

DIPOLE MOMENT
-------------
                                X             Y             Z
Electronic contribution:     -2.85484       1.27142     -12.83607
Nuclear contribution   :      2.27881      -0.10762      14.43322
                        -----------------------------------------
Total Dipole Moment    :     -0.57603       1.16380       1.59715
                        -----------------------------------------
Magnitude (a.u.)       :      2.05843
Magnitude (Debye)      :      5.23211

Rotational constants in cm-1:     0.033336     0.023673     0.017062
Rotational constants in MHz :   999.388459   709.685364   511.514310

                             ****ORCA TERMINATED NORMALLY****
TOTAL RUN TIME: 0 days 0 hours 0 minutes 20 seconds 895 msec
