                         Program Version 5.0.0 -  RELEASE  -
|  1> !wB97X-D3 RIJCOSX def2-SVP def2/J TightSCF
|  2> *xyz -1 1
|  3> C          1.36401        0.46874       -2.81376
|  4> C          0.96805        1.63064       -3.71575
|  5> C         -0.50835        1.72268       -4.12430
|  6> S         -1.32861        0.14674       -4.43578
|  7> H         -0.59151        2.29496       -5.04722
|  8> H         -1.11411        2.23561       -3.37436
|  9> O         -2.57135        0.47573       -5.06834
| 10> O         -1.51496       -0.40051       -3.06342
| 11> H          1.57869        1.52065       -4.61273
| 12> H          1.26665        2.57599       -3.25045
| 13> O         -0.37793       -0.62756       -5.20114
| 14> H          1.07115       -0.45339       -3.27071
| 15> H          0.87480        0.56905       -1.86745
| 16> H          2.42423        0.47442       -2.66954
| 17> *
| 18> %MaxCore 64000
| 19>
| 20> %pal nprocs 18
| 21> end
| 22>
| 23> %scf
| 24>   MaxIter 150
| 25> end
| 26>
| 27>
| 28>                          ****END OF INPUT****

CARTESIAN COORDINATES (ANGSTROEM)
---------------------------------
  C      1.364010    0.468740   -2.813760
  C      0.968050    1.630640   -3.715750
  C     -0.508350    1.722680   -4.124300
  S     -1.328610    0.146740   -4.435780
  H     -0.591510    2.294960   -5.047220
  H     -1.114110    2.235610   -3.374360
  O     -2.571350    0.475730   -5.068340
  O     -1.514960   -0.400510   -3.063420
  H      1.578690    1.520650   -4.612730
  H      1.266650    2.575990   -3.250450
  O     -0.377930   -0.627560   -5.201140
  H      1.071150   -0.453390   -3.270710
  H      0.874800    0.569050   -1.867450
  H      2.424230    0.474420   -2.669540

 Total Charge           Charge          ....   -1
 Multiplicity           Mult            ....    1
 Number of Electrons    NEL             ....   66
 Basis Dimension        Dim             ....  137

ORBITAL ENERGIES
----------------

  NO   OCC          E(Eh)            E(eV)
   0   2.0000     -88.943975     -2420.2886
   1   2.0000     -18.999870      -517.0127
   2   2.0000     -18.998405      -516.9729
   3   2.0000     -18.979108      -516.4478
   4   2.0000     -10.149871      -276.1920
   5   2.0000     -10.134787      -275.7816
   6   2.0000     -10.124429      -275.4997
   7   2.0000      -8.024540      -218.3588
   8   2.0000      -5.983635      -162.8230
   9   2.0000      -5.983394      -162.8164
  10   2.0000      -5.983146      -162.8097
  11   2.0000      -1.029092       -28.0030
  12   2.0000      -0.889597       -24.2072
  13   2.0000      -0.856814       -23.3151
  14   2.0000      -0.754462       -20.5300
  15   2.0000      -0.661559       -18.0019
  16   2.0000      -0.562937       -15.3183
  17   2.0000      -0.466589       -12.6965
  18   2.0000      -0.422901       -11.5077
  19   2.0000      -0.408674       -11.1206
  20   2.0000      -0.382332       -10.4038
  21   2.0000      -0.366303        -9.9676
  22   2.0000      -0.341005        -9.2792
  23   2.0000      -0.329280        -8.9602
  24   2.0000      -0.308596        -8.3973
  25   2.0000      -0.300248        -8.1702
  26   2.0000      -0.280694        -7.6381
  27   2.0000      -0.227897        -6.2014
  28   2.0000      -0.224870        -6.1190
  29   2.0000      -0.193957        -5.2778
  30   2.0000      -0.181190        -4.9304
  31   2.0000      -0.167345        -4.5537
  32   2.0000      -0.137202        -3.7334
  33   0.0000       0.276461         7.5229
  34   0.0000       0.320520         8.7218
  35   0.0000       0.328967         8.9516
  36   0.0000       0.348689         9.4883
  37   0.0000       0.366980         9.9860

MULLIKEN ATOMIC CHARGES
-----------------------
   0 C :   -0.001383
   1 C :   -0.077234
   2 C :   -0.072214
   3 S :    0.873918
   4 H :    0.007945
   5 H :    0.018482
   6 O :   -0.562133
   7 O :   -0.626352
   8 H :    0.005155
   9 H :   -0.019740
  10 O :   -0.575879
  11 H :    0.055038
  12 H :    0.007589
  13 H :   -0.033191
Sum of atomic charges:   -1.0000000

LOEWDIN ATOMIC CHARGES
----------------------
   0 C :   -0.067116
   1 C :   -0.056602
   2 C :   -0.188310
   3 S :    1.104818
   4 H :    0.007023
   5 H :    0.010952
   6 O :   -0.598418
   7 O :   -0.657121
   8 H :    0.014423
   9 H :    0.003615
  10 O :   -0.608404
  11 H :    0.023898
  12 H :    0.013380
  13 H :   -0.002138

  Mayer bond orders larger than 0.100000
B(  0-C ,  1-C ) :   1.0975 B(  0-C , 11-H ) :   0.9517 B(  0-C , 12-H ) :   0.9727
B(  0-C , 13-H ) :   0.9639 B(  1-C ,  2-C ) :   1.0398 B(  1-C ,  8-H ) :   0.9536
B(  1-C ,  9-H ) :   0.9539 B(  2-C ,  3-S ) :   0.9079 B(  2-C ,  4-H ) :   0.9456
B(  2-C ,  5-H ) :   0.9443 B(  3-S ,  6-O ) :   1.6598 B(  3-S ,  7-O ) :   1.5498
B(  3-S , 10-O ) :   1.6063

Dispersion correction           -0.004643711
FINAL SINGLE POINT ENERGY      -741.913543269596

DIPOLE MOMENT
-------------
                                X             Y             Z
Electronic contribution:     -8.46572      -4.54919      -4.14032
Nuclear contribution   :      9.76868       5.90538       4.47074
                        -----------------------------------------
Total Dipole Moment    :      1.30296       1.35619       0.33042
                        -----------------------------------------
Magnitude (a.u.)       :      1.90948
Magnitude (Debye)      :      4.85352

Rotational constants in cm-1:     0.135183     0.058485     0.054837
Rotational constants in MHz :  4052.676901  1753.343161  1643.972690

                             ****ORCA TERMINATED NORMALLY****
TOTAL RUN TIME: 0 days 0 hours 0 minutes 9 seconds 450 msec
