                         Program Version 5.0.0 -  RELEASE  -
|  1> !wB97X-D3 RIJCOSX def2-SVP def2/J TightSCF
|  2> *xyz 1 1
|  3> C          1.36401        0.46874       -2.81376
|  4> N          0.42884        0.32140       -1.65531
|  5> C          0.96805        1.63064       -3.71575
|  6> C         -0.50835        1.72268       -4.12430
|  7> H          0.74858       -0.40054       -1.00134
|  8> H         -0.46105        0.02333       -2.07773
|  9> H          0.31026        1.20137       -1.13495
| 10> H          1.29485       -0.46874       -3.36468
| 11> H          2.37622        0.59740       -2.43149
| 12> H          1.57869        1.52065       -4.61273
| 13> H          1.26665        2.57599       -3.25045
| 14> H         -0.65192        2.57663       -4.75283
| 15> H         -1.11549        1.81835       -3.24844
| 16> H         -0.78702        0.83723       -4.65648
| 17> *
| 18> %MaxCore 64000
| 19>
| 20> %pal nprocs 18
| 21> end
| 22>
| 23> %scf
| 24>   MaxIter 150
| 25> end
| 26>
| 27>
| 28>                          ****END OF INPUT****

CARTESIAN COORDINATES (ANGSTROEM)
---------------------------------
  C      1.364010    0.468740   -2.813760
  N      0.428840    0.321400   -1.655310
  C      0.968050    1.630640   -3.715750
  C     -0.508350    1.722680   -4.124300
  H      0.748580   -0.400540   -1.001340
  H     -0.461050    0.023330   -2.077730
  H      0.310260    1.201370   -1.134950
  H      1.294850   -0.468740   -3.364680
  H      2.376220    0.597400   -2.431490
  H      1.578690    1.520650   -4.612730
  H      1.266650    2.575990   -3.250450
  H     -0.651920    2.576630   -4.752830
  H     -1.115490    1.818350   -3.248440
  H     -0.787020    0.837230   -4.656480

 Total Charge           Charge          ....    1
 Multiplicity           Mult            ....    1
 Number of Electrons    NEL             ....   34
 Basis Dimension        Dim             ....  106

ORBITAL ENERGIES
----------------

  NO   OCC          E(Eh)            E(eV)
   0   2.0000     -14.770539      -401.9268
   1   2.0000     -10.537924      -286.7515
   2   2.0000     -10.466480      -284.8074
   3   2.0000     -10.440061      -284.0885
   4   2.0000      -1.321565       -35.9616
   5   2.0000      -1.083587       -29.4859
   6   2.0000      -0.993870       -27.0446
   7   2.0000      -0.910666       -24.7805
   8   2.0000      -0.898561       -24.4511
   9   2.0000      -0.875906       -23.8346
  10   2.0000      -0.785929       -21.3862
  11   2.0000      -0.738572       -20.0976
  12   2.0000      -0.707619       -19.2553
  13   2.0000      -0.684341       -18.6219
  14   2.0000      -0.627014       -17.0619
  15   2.0000      -0.617678       -16.8079
  16   2.0000      -0.604914       -16.4606
  17   0.0000      -0.090100        -2.4517
  18   0.0000      -0.028959        -0.7880
  19   0.0000      -0.024283        -0.6608
  20   0.0000      -0.000518        -0.0141
  21   0.0000       0.029402         0.8001

MULLIKEN ATOMIC CHARGES
-----------------------
   0 C :   -0.021215
   1 N :   -0.033426
   2 C :   -0.148733
   3 C :   -0.068610
   4 H :    0.226299
   5 H :    0.224151
   6 H :    0.225966
   7 H :    0.108113
   8 H :    0.119624
   9 H :    0.102717
  10 H :    0.080608
  11 H :    0.099576
  12 H :    0.021220
  13 H :    0.063710
Sum of atomic charges:    1.0000000

LOEWDIN ATOMIC CHARGES
----------------------
   0 C :    0.053617
   1 N :    0.290313
   2 C :   -0.050545
   3 C :   -0.052110
   4 H :    0.147284
   5 H :    0.144614
   6 H :    0.146274
   7 H :    0.052497
   8 H :    0.057111
   9 H :    0.061202
  10 H :    0.042238
  11 H :    0.057675
  12 H :    0.014661
  13 H :    0.035170

  Mayer bond orders larger than 0.100000
B(  0-C ,  1-N ) :   0.9059 B(  0-C ,  2-C ) :   1.0641 B(  0-C ,  7-H ) :   0.9546
B(  0-C ,  8-H ) :   0.9544 B(  1-N ,  4-H ) :   0.9296 B(  1-N ,  5-H ) :   0.9290
B(  1-N ,  6-H ) :   0.9285 B(  2-C ,  3-C ) :   1.0698 B(  2-C ,  9-H ) :   0.9433
B(  2-C , 10-H ) :   0.9522 B(  3-C , 11-H ) :   0.9635 B(  3-C , 12-H ) :   0.9697
B(  3-C , 13-H ) :   0.9764

Dispersion correction           -0.002841244
FINAL SINGLE POINT ENERGY      -174.677784715283

DIPOLE MOMENT
-------------
                                X             Y             Z
Electronic contribution:      0.75161      -1.12104       2.02214
Nuclear contribution   :     -0.79558       0.15863      -0.24664
                        -----------------------------------------
Total Dipole Moment    :     -0.04397      -0.96240       1.77550
                        -----------------------------------------
Magnitude (a.u.)       :      2.02004
Magnitude (Debye)      :      5.13452

Rotational constants in cm-1:     0.425244     0.165801     0.135024
Rotational constants in MHz : 12748.492920  4970.589839  4047.903558

                             ****ORCA TERMINATED NORMALLY****
TOTAL RUN TIME: 0 days 0 hours 0 minutes 7 seconds 144 msec
