                         Program Version 5.0.0 -  RELEASE  -
|  1> !wB97X-D3 RIJCOSX def2-SVP def2/J TightSCF
|  2> *xyz 0 1
|  3> C          1.36401        0.46874       -2.81376
|  4> C          0.96805        1.63064       -3.71575
|  5> C         -0.50835        1.72268       -4.12430
|  6> S         -1.32861        0.14674       -4.43578
|  7> H         -0.59151        2.29496       -5.04722
|  8> H         -1.11411        2.23561       -3.37436
|  9> F         -2.57135        0.47573       -5.06834
| 10> O         -1.51496       -0.40051       -3.06342
| 11> H          1.57869        1.52065       -4.61273
| 12> H          1.26665        2.57599       -3.25045
| 13> O         -0.37793       -0.62756       -5.20114
| 14> H          1.07115       -0.45339       -3.27071
| 15> H          0.87480        0.56905       -1.86745
| 16> H          2.42423        0.47442       -2.66954
| 17> *
| 18> %MaxCore 64000
| 19>
| 20> %pal nprocs 18
| 21> end
| 22>
| 23> %scf
| 24>   MaxIter 150
| 25> end
| 26>
| 27>
| 28>                          ****END OF INPUT****

CARTESIAN COORDINATES (ANGSTROEM)
---------------------------------
  C      1.364010    0.468740   -2.813760
  C      0.968050    1.630640   -3.715750
  C     -0.508350    1.722680   -4.124300
  S     -1.328610    0.146740   -4.435780
  H     -0.591510    2.294960   -5.047220
  H     -1.114110    2.235610   -3.374360
  F     -2.571350    0.475730   -5.068340
  O     -1.514960   -0.400510   -3.063420
  H      1.578690    1.520650   -4.612730
  H      1.266650    2.575990   -3.250450
  O     -0.377930   -0.627560   -5.201140
  H      1.071150   -0.453390   -3.270710
  H      0.874800    0.569050   -1.867450
  H      2.424230    0.474420   -2.669540

 Total Charge           Charge          ....    0
 Multiplicity           Mult            ....    1
 Number of Electrons    NEL             ....   66
 Basis Dimension        Dim             ....  137

ORBITAL ENERGIES
----------------

  NO   OCC          E(Eh)            E(eV)
   0   2.0000     -89.215211     -2427.6693
   1   2.0000     -24.914901      -677.9689
   2   2.0000     -19.245798      -523.7048
   3   2.0000     -19.227929      -523.2185
   4   2.0000     -10.343677      -281.4658
   5   2.0000     -10.312675      -280.6222
   6   2.0000     -10.271502      -279.5018
   7   2.0000      -8.298151      -225.8042
   8   2.0000      -6.261150      -170.3746
   9   2.0000      -6.254655      -170.1978
  10   2.0000      -6.253566      -170.1682
  11   2.0000      -1.498707       -40.7819
  12   2.0000      -1.216078       -33.0912
  13   2.0000      -1.106285       -30.1036
  14   2.0000      -0.936363       -25.4797
  15   2.0000      -0.863812       -23.5055
  16   2.0000      -0.813761       -22.1436
  17   2.0000      -0.741003       -20.1637
  18   2.0000      -0.697019       -18.9668
  19   2.0000      -0.682887       -18.5823
  20   2.0000      -0.651317       -17.7232
  21   2.0000      -0.593913       -16.1612
  22   2.0000      -0.579627       -15.7724
  23   2.0000      -0.552245       -15.0273
  24   2.0000      -0.541631       -14.7385
  25   2.0000      -0.512759       -13.9529
  26   2.0000      -0.481143       -13.0926
  27   2.0000      -0.467152       -12.7118
  28   2.0000      -0.455916       -12.4061
  29   2.0000      -0.439986       -11.9726
  30   2.0000      -0.418835       -11.3971
  31   2.0000      -0.401106       -10.9146
  32   2.0000      -0.390955       -10.6384
  33   0.0000       0.123386         3.3575
  34   0.0000       0.125868         3.4250
  35   0.0000       0.158194         4.3047
  36   0.0000       0.164733         4.4826
  37   0.0000       0.187254         5.0954

MULLIKEN ATOMIC CHARGES
-----------------------
   0 C :   -0.027689
   1 C :   -0.105354
   2 C :   -0.103790
   3 S :    0.942961
   4 H :    0.071930
   5 H :    0.083837
   6 F :   -0.160227
   7 O :   -0.489101
   8 H :    0.050802
   9 H :    0.051084
  10 O :   -0.441780
  11 H :    0.060472
  12 H :    0.037977
  13 H :    0.028879
Sum of atomic charges:    0.0000000

LOEWDIN ATOMIC CHARGES
----------------------
   0 C :   -0.058893
   1 C :   -0.044234
   2 C :   -0.152716
   3 S :    1.161448
   4 H :    0.031953
   5 H :    0.037950
   6 F :   -0.106347
   7 O :   -0.529999
   8 H :    0.033029
   9 H :    0.036904
  10 O :   -0.483232
  11 H :    0.024395
  12 H :    0.024432
  13 H :    0.025309

  Mayer bond orders larger than 0.100000
B(  0-C ,  1-C ) :   1.0959 B(  0-C , 11-H ) :   0.9584 B(  0-C , 12-H ) :   0.9758
B(  0-C , 13-H ) :   0.9688 B(  1-C ,  2-C ) :   1.0424 B(  1-C ,  8-H ) :   0.9557
B(  1-C ,  9-H ) :   0.9537 B(  2-C ,  3-S ) :   0.9256 B(  2-C ,  4-H ) :   0.9369
B(  2-C ,  5-H ) :   0.9323 B(  3-S ,  6-F ) :   1.0412 B(  3-S ,  7-O ) :   1.7094
B(  3-S , 10-O ) :   1.7636

Dispersion correction           -0.004621743
FINAL SINGLE POINT ENERGY      -766.404089787367

DIPOLE MOMENT
-------------
                                X             Y             Z
Electronic contribution:    -11.86093      -4.34670      -5.86317
Nuclear contribution   :     11.77809       5.83971       5.48704
                        -----------------------------------------
Total Dipole Moment    :     -0.08285       1.49301      -0.37614
                        -----------------------------------------
Magnitude (a.u.)       :      1.54189
Magnitude (Debye)      :      3.91917

Rotational constants in cm-1:     0.133968     0.056186     0.052650
Rotational constants in MHz :  4016.256208  1684.422248  1578.415210

                             ****ORCA TERMINATED NORMALLY****
TOTAL RUN TIME: 0 days 0 hours 0 minutes 9 seconds 372 msec
