                         Program Version 5.0.0 -  RELEASE  -
|  1> !wB97X-D3 RIJCOSX def2-SVP def2/J TightSCF
|  2> *xyz 0 1
|  3> C          1.36401        0.46874       -2.81376
|  4> C          0.42884        0.32140       -1.65531
|  5> C          0.96805        1.63064       -3.71575
|  6> C         -0.50835        1.72268       -4.12430
|  7> H          0.74858       -0.40054       -1.00134
|  8> H         -0.46105        0.02333       -2.07773
|  9> H          0.31026        1.20137       -1.13495
| 10> H          1.29485       -0.46874       -3.36468
| 11> H          2.37622        0.59740       -2.43149
| 12> H          1.57869        1.52065       -4.61273
| 13> H          1.26665        2.57599       -3.25045
| 14> H         -0.65192        2.57663       -4.75283
| 15> H         -1.11549        1.81835       -3.24844
| 16> H         -0.78702        0.83723       -4.65648
| 17> *
| 18> %MaxCore 64000
| 19>
| 20> %pal nprocs 18
| 21> end
| 22>
| 23> %scf
| 24>   MaxIter 150
| 25> end
| 26>
| 27>
| 28>                          ****END OF INPUT****

CARTESIAN COORDINATES (ANGSTROEM)
---------------------------------
  C      1.364010    0.468740   -2.813760
  C      0.428840    0.321400   -1.655310
  C      0.968050    1.630640   -3.715750
  C     -0.508350    1.722680   -4.124300
  H      0.748580   -0.400540   -1.001340
  H     -0.461050    0.023330   -2.077730
  H      0.310260    1.201370   -1.134950
  H      1.294850   -0.468740   -3.364680
  H      2.376220    0.597400   -2.431490
  H      1.578690    1.520650   -4.612730
  H      1.266650    2.575990   -3.250450
  H     -0.651920    2.576630   -4.752830
  H     -1.115490    1.818350   -3.248440
  H     -0.787020    0.837230   -4.656480

 Total Charge           Charge          ....    0
 Multiplicity           Mult            ....    1
 Number of Electrons    NEL             ....   34
 Basis Dimension        Dim             ....  106

ORBITAL ENERGIES
----------------

  NO   OCC          E(Eh)            E(eV)
   0   2.0000     -10.276408      -279.6353
   1   2.0000     -10.272904      -279.5399
   2   2.0000     -10.269456      -279.4461
   3   2.0000     -10.249541      -278.9042
   4   2.0000      -0.911771       -24.8105
   5   2.0000      -0.834452       -22.7066
   6   2.0000      -0.752633       -20.4802
   7   2.0000      -0.663903       -18.0657
   8   2.0000      -0.570728       -15.5303
   9   2.0000      -0.562251       -15.2996
  10   2.0000      -0.522849       -14.2275
  11   2.0000      -0.483831       -13.1657
  12   2.0000      -0.479147       -13.0382
  13   2.0000      -0.459780       -12.5113
  14   2.0000      -0.418529       -11.3888
  15   2.0000      -0.410545       -11.1715
  16   2.0000      -0.406818       -11.0701
  17   0.0000       0.144936         3.9439
  18   0.0000       0.188297         5.1238
  19   0.0000       0.189708         5.1622
  20   0.0000       0.197385         5.3711
  21   0.0000       0.225168         6.1271

MULLIKEN ATOMIC CHARGES
-----------------------
   0 C :   -0.083285
   1 C :    0.023682
   2 C :   -0.092965
   3 C :   -0.036097
   4 H :    0.005282
   5 H :    0.008305
   6 H :    0.007088
   7 H :    0.017829
   8 H :    0.023863
   9 H :    0.021230
  10 H :    0.022917
  11 H :    0.029213
  12 H :    0.028571
  13 H :    0.024366
Sum of atomic charges:   -0.0000000

LOEWDIN ATOMIC CHARGES
----------------------
   0 C :   -0.040864
   1 C :   -0.046401
   2 C :   -0.045829
   3 C :   -0.057548
   4 H :    0.015091
   5 H :    0.015179
   6 H :    0.013232
   7 H :    0.019680
   8 H :    0.020796
   9 H :    0.020753
  10 H :    0.019883
  11 H :    0.024997
  12 H :    0.020163
  13 H :    0.020867

  Mayer bond orders larger than 0.100000
B(  0-C ,  1-C ) :   1.0875 B(  0-C ,  2-C ) :   1.0731 B(  0-C ,  7-H ) :   0.9579
B(  0-C ,  8-H ) :   0.9585 B(  1-C ,  4-H ) :   0.9667 B(  1-C ,  5-H ) :   0.9687
B(  1-C ,  6-H ) :   0.9751 B(  2-C ,  3-C ) :   1.0822 B(  2-C ,  9-H ) :   0.9588
B(  2-C , 10-H ) :   0.9571 B(  3-C , 11-H ) :   0.9719 B(  3-C , 12-H ) :   0.9715
B(  3-C , 13-H ) :   0.9767

Dispersion correction           -0.002747771
FINAL SINGLE POINT ENERGY      -158.281118698778

DIPOLE MOMENT
-------------
                                X             Y             Z
Electronic contribution:      0.82219       0.05298      -0.18241
Nuclear contribution   :     -0.83100      -0.05970       0.18742
                        -----------------------------------------
Total Dipole Moment    :     -0.00881      -0.00672       0.00500
                        -----------------------------------------
Magnitude (a.u.)       :      0.01216
Magnitude (Debye)      :      0.03090

Rotational constants in cm-1:     0.433656     0.172838     0.140497
Rotational constants in MHz : 13000.688694  5181.547473  4211.992439

                             ****ORCA TERMINATED NORMALLY****
TOTAL RUN TIME: 0 days 0 hours 0 minutes 5 seconds 400 msec
