                         Program Version 5.0.0 -  RELEASE  -
|  1> !wB97X-D3 RIJCOSX def2-SVP def2/J TightSCF
|  2> *xyz 0 1
|  3> C          1.36401        0.46874       -2.81376
|  4> C          0.96805        1.63064       -3.71575
|  5> C         -0.50835        1.72268       -4.12430
|  6> S         -1.32861        0.14674       -4.43578
|  7> H         -0.59151        2.29496       -5.04722
|  8> H         -1.11411        2.23561       -3.37436
|  9> O         -2.57135        0.47573       -5.06834
| 10> F         -1.51496       -0.40051       -3.06342
| 11> H          1.57869        1.52065       -4.61273
| 12> H          1.26665        2.57599       -3.25045
| 13> O         -0.37793       -0.62756       -5.20114
| 14> H          1.07115       -0.45339       -3.27071
| 15> H          0.87480        0.56905       -1.86745
| 16> H          2.42423        0.47442       -2.66954
| 17> *
| 18> %MaxCore 64000
| 19>
| 20> %pal nprocs 18
| 21> end
| 22>
| 23> %scf
| 24>   MaxIter 150
| 25> end
| 26>
| 27>
| 28>                          ****END OF INPUT****

CARTESIAN COORDINATES (ANGSTROEM)
---------------------------------
  C      1.364010    0.468740   -2.813760
  C      0.968050    1.630640   -3.715750
  C     -0.508350    1.722680   -4.124300
  S     -1.328610    0.146740   -4.435780
  H     -0.591510    2.294960   -5.047220
  H     -1.114110    2.235610   -3.374360
  O     -2.571350    0.475730   -5.068340
  F     -1.514960   -0.400510   -3.063420
  H      1.578690    1.520650   -4.612730
  H      1.266650    2.575990   -3.250450
  O     -0.377930   -0.627560   -5.201140
  H      1.071150   -0.453390   -3.270710
  H      0.874800    0.569050   -1.867450
  H      2.424230    0.474420   -2.669540

 Total Charge           Charge          ....    0
 Multiplicity           Mult            ....    1
 Number of Electrons    NEL             ....   66
 Basis Dimension        Dim             ....  137

ORBITAL ENERGIES
----------------

  NO   OCC          E(Eh)            E(eV)
   0   2.0000     -89.213153     -2427.6133
   1   2.0000     -24.885344      -677.1646
   2   2.0000     -19.248459      -523.7772
   3   2.0000     -19.245774      -523.7041
   4   2.0000     -10.342829      -281.4427
   5   2.0000     -10.314764      -280.6790
   6   2.0000     -10.286935      -279.9217
   7   2.0000      -8.295798      -225.7401
   8   2.0000      -6.258777      -170.3100
   9   2.0000      -6.252517      -170.1396
  10   2.0000      -6.251353      -170.1080
  11   2.0000      -1.449900       -39.4538
  12   2.0000      -1.230860       -33.4934
  13   2.0000      -1.134091       -30.8602
  14   2.0000      -0.941543       -25.6207
  15   2.0000      -0.858013       -23.3477
  16   2.0000      -0.801146       -21.8003
  17   2.0000      -0.739536       -20.1238
  18   2.0000      -0.668488       -18.1905
  19   2.0000      -0.663273       -18.0486
  20   2.0000      -0.646997       -17.6057
  21   2.0000      -0.599698       -16.3186
  22   2.0000      -0.575348       -15.6560
  23   2.0000      -0.558562       -15.1993
  24   2.0000      -0.545163       -14.8346
  25   2.0000      -0.530802       -14.4439
  26   2.0000      -0.491369       -13.3708
  27   2.0000      -0.475860       -12.9488
  28   2.0000      -0.471808       -12.8385
  29   2.0000      -0.447482       -12.1766
  30   2.0000      -0.431419       -11.7395
  31   2.0000      -0.415142       -11.2966
  32   2.0000      -0.409144       -11.1334
  33   0.0000       0.118600         3.2273
  34   0.0000       0.133344         3.6285
  35   0.0000       0.158704         4.3186
  36   0.0000       0.166716         4.5366
  37   0.0000       0.186019         5.0618

MULLIKEN ATOMIC CHARGES
-----------------------
   0 C :   -0.052193
   1 C :   -0.101980
   2 C :   -0.114633
   3 S :    0.950492
   4 H :    0.103870
   5 H :    0.079980
   6 O :   -0.427943
   7 F :   -0.218639
   8 H :    0.055653
   9 H :    0.048580
  10 O :   -0.444294
  11 H :    0.049930
  12 H :    0.029654
  13 H :    0.041523
Sum of atomic charges:    0.0000000

LOEWDIN ATOMIC CHARGES
----------------------
   0 C :   -0.066213
   1 C :   -0.053718
   2 C :   -0.152940
   3 S :    1.169243
   4 H :    0.052501
   5 H :    0.035445
   6 O :   -0.475128
   7 F :   -0.161254
   8 H :    0.034714
   9 H :    0.034836
  10 O :   -0.485523
  11 H :    0.017370
  12 H :    0.019174
  13 H :    0.031492

  Mayer bond orders larger than 0.100000
B(  0-C ,  1-C ) :   1.0915 B(  0-C , 11-H ) :   0.9586 B(  0-C , 12-H ) :   0.9781
B(  0-C , 13-H ) :   0.9698 B(  1-C ,  2-C ) :   1.0293 B(  1-C ,  8-H ) :   0.9541
B(  1-C ,  9-H ) :   0.9526 B(  2-C ,  3-S ) :   0.9218 B(  2-C ,  4-H ) :   0.9416
B(  2-C ,  5-H ) :   0.9360 B(  3-S ,  6-O ) :   1.8103 B(  3-S ,  7-F ) :   0.9569
B(  3-S , 10-O ) :   1.7633

Dispersion correction           -0.004614094
FINAL SINGLE POINT ENERGY      -766.430653019850

DIPOLE MOMENT
-------------
                                X             Y             Z
Electronic contribution:     -9.98480      -5.83863      -2.37769
Nuclear contribution   :     10.64200       6.78206       3.33086
                        -----------------------------------------
Total Dipole Moment    :      0.65720       0.94342       0.95317
                        -----------------------------------------
Magnitude (a.u.)       :      1.49348
Magnitude (Debye)      :      3.79613

Rotational constants in cm-1:     0.128573     0.057881     0.053975
Rotational constants in MHz :  3854.523324  1735.233387  1618.120420

                             ****ORCA TERMINATED NORMALLY****
TOTAL RUN TIME: 0 days 0 hours 0 minutes 10 seconds 272 msec
