                         Program Version 5.0.0 -  RELEASE  -
|  1> !wB97X-D3 RIJCOSX def2-SVP def2/J TightSCF
|  2> *xyz 0 1
|  3> C          1.36401        0.46874       -2.81376
|  4> C          0.96805        1.63064       -3.71575
|  5> C         -0.50835        1.72268       -4.12430
|  6> S         -1.32861        0.14674       -4.43578
|  7> H         -0.59151        2.29496       -5.04722
|  8> H         -1.11411        2.23561       -3.37436
|  9> O         -2.57135        0.47573       -5.06834
| 10> O         -1.51496       -0.40051       -3.06342
| 11> H          1.57869        1.52065       -4.61273
| 12> H          1.26665        2.57599       -3.25045
| 13> F         -0.37793       -0.62756       -5.20114
| 14> H          1.07115       -0.45339       -3.27071
| 15> H          0.87480        0.56905       -1.86745
| 16> H          2.42423        0.47442       -2.66954
| 17> *
| 18> %MaxCore 64000
| 19>
| 20> %pal nprocs 18
| 21> end
| 22>
| 23> %scf
| 24>   MaxIter 150
| 25> end
| 26>
| 27>
| 28>                          ****END OF INPUT****

CARTESIAN COORDINATES (ANGSTROEM)
---------------------------------
  C      1.364010    0.468740   -2.813760
  C      0.968050    1.630640   -3.715750
  C     -0.508350    1.722680   -4.124300
  S     -1.328610    0.146740   -4.435780
  H     -0.591510    2.294960   -5.047220
  H     -1.114110    2.235610   -3.374360
  O     -2.571350    0.475730   -5.068340
  O     -1.514960   -0.400510   -3.063420
  H      1.578690    1.520650   -4.612730
  H      1.266650    2.575990   -3.250450
  F     -0.377930   -0.627560   -5.201140
  H      1.071150   -0.453390   -3.270710
  H      0.874800    0.569050   -1.867450
  H      2.424230    0.474420   -2.669540

 Total Charge           Charge          ....    0
 Multiplicity           Mult            ....    1
 Number of Electrons    NEL             ....   66
 Basis Dimension        Dim             ....  137

ORBITAL ENERGIES
----------------

  NO   OCC          E(Eh)            E(eV)
   0   2.0000     -89.213837     -2427.6319
   1   2.0000     -24.909210      -677.8141
   2   2.0000     -19.248157      -523.7690
   3   2.0000     -19.227118      -523.1965
   4   2.0000     -10.343167      -281.4519
   5   2.0000     -10.317856      -280.7631
   6   2.0000     -10.285589      -279.8851
   7   2.0000      -8.296750      -225.7661
   8   2.0000      -6.260022      -170.3438
   9   2.0000      -6.253110      -170.1558
  10   2.0000      -6.252078      -170.1277
  11   2.0000      -1.488048       -40.4918
  12   2.0000      -1.220633       -33.2151
  13   2.0000      -1.108537       -30.1648
  14   2.0000      -0.942872       -25.6568
  15   2.0000      -0.861093       -23.4315
  16   2.0000      -0.816444       -22.2166
  17   2.0000      -0.743868       -20.2417
  18   2.0000      -0.692923       -18.8554
  19   2.0000      -0.690014       -18.7762
  20   2.0000      -0.640701       -17.4344
  21   2.0000      -0.595982       -16.2175
  22   2.0000      -0.579036       -15.7564
  23   2.0000      -0.561055       -15.2671
  24   2.0000      -0.538990       -14.6667
  25   2.0000      -0.524804       -14.2806
  26   2.0000      -0.483157       -13.1474
  27   2.0000      -0.478520       -13.0212
  28   2.0000      -0.471862       -12.8400
  29   2.0000      -0.447366       -12.1735
  30   2.0000      -0.420209       -11.4345
  31   2.0000      -0.402547       -10.9539
  32   2.0000      -0.390522       -10.6266
  33   0.0000       0.111488         3.0338
  34   0.0000       0.139134         3.7860
  35   0.0000       0.155336         4.2269
  36   0.0000       0.166748         4.5375
  37   0.0000       0.183265         4.9869

MULLIKEN ATOMIC CHARGES
-----------------------
   0 C :   -0.023711
   1 C :   -0.130093
   2 C :   -0.103206
   3 S :    0.940126
   4 H :    0.081291
   5 H :    0.109039
   6 O :   -0.422189
   7 O :   -0.488260
   8 H :    0.041509
   9 H :    0.054083
  10 F :   -0.176146
  11 H :    0.032640
  12 H :    0.050341
  13 H :    0.034574
Sum of atomic charges:    0.0000000

LOEWDIN ATOMIC CHARGES
----------------------
   0 C :   -0.060106
   1 C :   -0.058822
   2 C :   -0.148473
   3 S :    1.162423
   4 H :    0.036303
   5 H :    0.054414
   6 O :   -0.470844
   7 O :   -0.530032
   8 H :    0.026390
   9 H :    0.037392
  10 F :   -0.117400
  11 H :    0.012015
  12 H :    0.029750
  13 H :    0.026990

  Mayer bond orders larger than 0.100000
B(  0-C ,  1-C ) :   1.0908 B(  0-C , 11-H ) :   0.9613 B(  0-C , 12-H ) :   0.9757
B(  0-C , 13-H ) :   0.9689 B(  1-C ,  2-C ) :   1.0242 B(  1-C ,  8-H ) :   0.9599
B(  1-C ,  9-H ) :   0.9513 B(  2-C ,  3-S ) :   0.9305 B(  2-C ,  4-H ) :   0.9415
B(  2-C ,  5-H ) :   0.9357 B(  3-S ,  6-O ) :   1.8064 B(  3-S ,  7-O ) :   1.7044
B(  3-S , 10-F ) :   1.0080

Dispersion correction           -0.004616749
FINAL SINGLE POINT ENERGY      -766.408770587171

DIPOLE MOMENT
-------------
                                X             Y             Z
Electronic contribution:     -8.03611      -6.21477      -6.03958
Nuclear contribution   :      9.41919       7.02624       5.62986
                        -----------------------------------------
Total Dipole Moment    :      1.38308       0.81147      -0.40973
                        -----------------------------------------
Magnitude (a.u.)       :      1.65507
Magnitude (Debye)      :      4.20686

Rotational constants in cm-1:     0.128702     0.057313     0.054552
Rotational constants in MHz :  3858.395793  1718.208003  1635.420361

                             ****ORCA TERMINATED NORMALLY****
TOTAL RUN TIME: 0 days 0 hours 0 minutes 8 seconds 140 msec
