                         Program Version 5.0.0 -  RELEASE  -
|  1> !CAM-B3LYP RIJCOSX def2-SVPD def2/J TightSCF
|  2> *xyz -1 1
|  3> C          4.90646       -3.10282       -5.95484
|  4> C          3.51177       -2.80621       -6.49228
|  5> H          2.73604       -3.37345       -5.97374
|  6> H          3.44490       -3.04083       -7.55528
|  7> S          3.00462       -1.09621       -6.38926
|  8> O          4.12886       -0.32965       -6.95372
|  9> O          1.78128       -1.00078       -7.13640
| 10> C          5.02498       -3.02568       -4.43762
| 11> H          5.20153       -4.10021       -6.29691
| 12> H          5.60592       -2.39782       -6.41337
| 13> O          2.85155       -0.78368       -4.95679
| 14> H          4.73604       -2.05011       -4.10644
| 15> H          6.03776       -3.21492       -4.14890
| 16> H          4.38436       -3.75784       -3.99214
| 17> *
| 18>
| 19> %MaxCore 64000
| 20>
| 21> %pal nprocs 8
| 22> end
| 23>
| 24> %scf
| 25>   MaxIter 150
| 26> end
| 27>
| 28>
| 29>                          ****END OF INPUT****

CARTESIAN COORDINATES (ANGSTROEM)
---------------------------------
  C      4.906460   -3.102820   -5.954840
  C      3.511770   -2.806210   -6.492280
  H      2.736040   -3.373450   -5.973740
  H      3.444900   -3.040830   -7.555280
  S      3.004620   -1.096210   -6.389260
  O      4.128860   -0.329650   -6.953720
  O      1.781280   -1.000780   -7.136400
  C      5.024980   -3.025680   -4.437620
  H      5.201530   -4.100210   -6.296910
  H      5.605920   -2.397820   -6.413370
  O      2.851550   -0.783680   -4.956790
  H      4.736040   -2.050110   -4.106440
  H      6.037760   -3.214920   -4.148900
  H      4.384360   -3.757840   -3.992140

 Total Charge           Charge          ....   -1
 Multiplicity           Mult            ....    1
 Number of Electrons    NEL             ....   66
 Basis Dimension        Dim             ....  212

ORBITAL ENERGIES
----------------

  NO   OCC          E(Eh)            E(eV)
   0   2.0000     -88.964792     -2420.8551
   1   2.0000     -19.000864      -517.0398
   2   2.0000     -18.989709      -516.7362
   3   2.0000     -18.989237      -516.7234
   4   2.0000     -10.129655      -275.6419
   5   2.0000     -10.126354      -275.5521
   6   2.0000     -10.112722      -275.1812
   7   2.0000      -8.017924      -218.1788
   8   2.0000      -5.987879      -162.9385
   9   2.0000      -5.987806      -162.9365
  10   2.0000      -5.987200      -162.9200
  11   2.0000      -1.018226       -27.7073
  12   2.0000      -0.873009       -23.7558
  13   2.0000      -0.852442       -23.1961
  14   2.0000      -0.739862       -20.1327
  15   2.0000      -0.648343       -17.6423
  16   2.0000      -0.548679       -14.9303
  17   2.0000      -0.459516       -12.5041
  18   2.0000      -0.407151       -11.0791
  19   2.0000      -0.396090       -10.7782
  20   2.0000      -0.367642       -10.0040
  21   2.0000      -0.354056        -9.6344
  22   2.0000      -0.337006        -9.1704
  23   2.0000      -0.326511        -8.8848
  24   2.0000      -0.292786        -7.9671
  25   2.0000      -0.283767        -7.7217
  26   2.0000      -0.272526        -7.4158
  27   2.0000      -0.223337        -6.0773
  28   2.0000      -0.222917        -6.0659
  29   2.0000      -0.185350        -5.0436
  30   2.0000      -0.175160        -4.7663
  31   2.0000      -0.171135        -4.6568
  32   2.0000      -0.134066        -3.6481
  33   0.0000       0.163998         4.4626
  34   0.0000       0.186826         5.0838
  35   0.0000       0.191149         5.2014
  36   0.0000       0.203103         5.5267
  37   0.0000       0.218864         5.9556

MULLIKEN ATOMIC CHARGES
-----------------------
   0 C :   -0.067180
   1 C :    0.129456
   2 H :   -0.085850
   3 H :   -0.105537
   4 S :    1.344779
   5 O :   -0.828721
   6 O :   -0.799728
   7 C :    1.022015
   8 H :   -0.220584
   9 H :   -0.082401
  10 O :   -0.838987
  11 H :   -0.242073
  12 H :   -0.142734
  13 H :   -0.082455
Sum of atomic charges:   -1.0000000

LOEWDIN ATOMIC CHARGES
----------------------
   0 C :   -0.090075
   1 C :   -0.098392
   2 H :    0.010655
   3 H :    0.005732
   4 S :    0.863000
   5 O :   -0.587370
   6 O :   -0.571582
   7 C :    0.120379
   8 H :    0.007147
   9 H :    0.014835
  10 O :   -0.585700
  11 H :   -0.035442
  12 H :   -0.031285
  13 H :   -0.021901

  Mayer bond orders larger than 0.100000
B(  0-C ,  1-C ) :   1.1935 B(  0-C ,  2-H ) :   0.1168 B(  0-C ,  3-H ) :   0.1350
B(  0-C ,  7-C ) :   1.2184 B(  0-C ,  8-H ) :   0.8562 B(  0-C ,  9-H ) :   0.8859
B(  0-C , 11-H ) :   0.2694 B(  0-C , 12-H ) :   0.2380 B(  0-C , 13-H ) :   0.2287
B(  1-C ,  2-H ) :   0.9120 B(  1-C ,  3-H ) :   0.9263 B(  1-C ,  4-S ) :   0.9338
B(  1-C ,  8-H ) :   0.1403 B(  1-C ,  9-H ) :   0.1555 B(  4-S ,  5-O ) :   1.2533
B(  4-S ,  6-O ) :   1.3466 B(  4-S , 10-O ) :   1.2458 B(  7-C , 11-H ) :   0.7466
B(  7-C , 12-H ) :   0.6875 B(  7-C , 13-H ) :   0.6997 B( 11-H , 13-H ) :   0.1170

FINAL SINGLE POINT ENERGY      -741.934941140199

DIPOLE MOMENT
-------------
                                X             Y             Z
Electronic contribution:     -6.15979       7.82885      -3.68271
Nuclear contribution   :      7.19636      -9.97366       3.94889
                        -----------------------------------------
Total Dipole Moment    :      1.03657      -2.14481       0.26618
                        -----------------------------------------
Magnitude (a.u.)       :      2.39698
Magnitude (Debye)      :      6.09265

Rotational constants in cm-1:     0.137066     0.054570     0.051980
Rotational constants in MHz :  4109.139955  1635.961703  1558.315282

                             ****ORCA TERMINATED NORMALLY****
TOTAL RUN TIME: 0 days 0 hours 0 minutes 20 seconds 162 msec
