                         Program Version 5.0.0 -  RELEASE  -
|  1> !CAM-B3LYP RIJCOSX def2-SVPD def2/J TightSCF
|  2> *xyz 1 1
|  3> C          4.49059        1.15590       -2.46929
|  4> N          4.30539        1.22276       -3.90832
|  5> C          4.63192        2.24637       -4.67096
|  6> N          4.54169        2.14399       -5.98714
|  7> N          5.08409        3.39358       -4.11855
|  8> H          4.92067        3.57050       -3.13587
|  9> H          5.25465        4.19739       -4.70696
| 10> H          3.82453        0.44911       -4.35093
| 11> H          4.34337        1.24932       -6.41665
| 12> H          4.67671        2.95662       -6.57411
| 13> C          5.94213        0.93950       -2.03689
| 14> H          3.86431        0.32853       -2.13661
| 15> H          4.07623        2.04999       -1.98901
| 16> C          6.55996       -0.35629       -2.55909
| 17> H          5.96798        0.95257       -0.94244
| 18> H          6.54718        1.78833       -2.36885
| 19> H          6.53022       -0.35990       -3.62867
| 20> H          6.00654       -1.19175       -2.18407
| 21> H          7.57588       -0.42487       -2.23029
| 22> *
| 23>
| 24> %MaxCore 64000
| 25>
| 26> %pal nprocs 8
| 27> end
| 28>
| 29> %scf
| 30>   MaxIter 150
| 31> end
| 32>
| 33>
| 34>                          ****END OF INPUT****

CARTESIAN COORDINATES (ANGSTROEM)
---------------------------------
  C      4.490590    1.155900   -2.469290
  N      4.305390    1.222760   -3.908320
  C      4.631920    2.246370   -4.670960
  N      4.541690    2.143990   -5.987140
  N      5.084090    3.393580   -4.118550
  H      4.920670    3.570500   -3.135870
  H      5.254650    4.197390   -4.706960
  H      3.824530    0.449110   -4.350930
  H      4.343370    1.249320   -6.416650
  H      4.676710    2.956620   -6.574110
  C      5.942130    0.939500   -2.036890
  H      3.864310    0.328530   -2.136610
  H      4.076230    2.049990   -1.989010
  C      6.559960   -0.356290   -2.559090
  H      5.967980    0.952570   -0.942440
  H      6.547180    1.788330   -2.368850
  H      6.530220   -0.359900   -3.628670
  H      6.006540   -1.191750   -2.184070
  H      7.575880   -0.424870   -2.230290

 Total Charge           Charge          ....    1
 Multiplicity           Mult            ....    1
 Number of Electrons    NEL             ....   56
 Basis Dimension        Dim             ....  236

ORBITAL ENERGIES
----------------

  NO   OCC          E(Eh)            E(eV)
   0   2.0000     -14.628900      -398.0726
   1   2.0000     -14.627467      -398.0336
   2   2.0000     -14.625676      -397.9849
   3   2.0000     -10.597700      -288.3781
   4   2.0000     -10.460993      -284.6581
   5   2.0000     -10.398626      -282.9610
   6   2.0000     -10.369222      -282.1609
   7   2.0000      -1.292158       -35.1614
   8   2.0000      -1.179881       -32.1062
   9   2.0000      -1.163592       -31.6629
  10   2.0000      -1.015198       -27.6249
  11   2.0000      -0.939082       -25.5537
  12   2.0000      -0.895826       -24.3767
  13   2.0000      -0.862302       -23.4644
  14   2.0000      -0.838607       -22.8197
  15   2.0000      -0.795885       -21.6571
  16   2.0000      -0.762001       -20.7351
  17   2.0000      -0.758321       -20.6350
  18   2.0000      -0.731951       -19.9174
  19   2.0000      -0.698025       -18.9942
  20   2.0000      -0.667999       -18.1772
  21   2.0000      -0.646101       -17.5813
  22   2.0000      -0.615399       -16.7459
  23   2.0000      -0.569643       -15.5008
  24   2.0000      -0.551395       -15.0042
  25   2.0000      -0.550263       -14.9734
  26   2.0000      -0.535036       -14.5591
  27   2.0000      -0.509439       -13.8625
  28   0.0000      -0.122409        -3.3309
  29   0.0000      -0.118443        -3.2230
  30   0.0000      -0.086804        -2.3621
  31   0.0000      -0.078347        -2.1319
  32   0.0000      -0.054116        -1.4726

MULLIKEN ATOMIC CHARGES
-----------------------
   0 C :    0.849854
   1 N :   -0.474999
   2 C :    1.297911
   3 N :    0.064431
   4 N :    0.117882
   5 H :   -0.043524
   6 H :   -0.201709
   7 H :   -0.172372
   8 H :   -0.085991
   9 H :   -0.080564
  10 C :   -0.198162
  11 H :   -0.358831
  12 H :   -0.094996
  13 C :    0.915969
  14 H :   -0.184864
  15 H :   -0.045776
  16 H :   -0.162061
  17 H :   -0.011331
  18 H :   -0.130867
Sum of atomic charges:    1.0000000

LOEWDIN ATOMIC CHARGES
----------------------
   0 C :    0.066544
   1 N :    0.048767
   2 C :   -0.033993
   3 N :    0.265046
   4 N :    0.285227
   5 H :    0.016500
   6 H :    0.035345
   7 H :    0.063717
   8 H :    0.041714
   9 H :    0.040799
  10 C :   -0.054732
  11 H :    0.043510
  12 H :    0.028575
  13 C :    0.137688
  14 H :    0.037565
  15 H :    0.013671
  16 H :   -0.024878
  17 H :   -0.007751
  18 H :   -0.003314

  Mayer bond orders larger than 0.100000
B(  0-C ,  1-N ) :   0.9112 B(  0-C ,  2-C ) :  -0.1108 B(  0-C ,  7-H ) :  -0.1617
B(  0-C , 10-C ) :   1.1273 B(  0-C , 11-H ) :   0.7042 B(  0-C , 12-H ) :   0.8859
B(  0-C , 15-H ) :   0.1180 B(  1-N ,  2-C ) :   0.9949 B(  1-N ,  3-N ) :   0.3006
B(  1-N ,  4-N ) :   0.2471 B(  1-N ,  7-H ) :   1.2840 B(  1-N , 11-H ) :   0.2472
B(  2-C ,  3-N ) :   0.8588 B(  2-C ,  4-N ) :   0.9616 B(  2-C ,  5-H ) :  -0.1204
B(  2-C ,  6-H ) :  -0.1605 B(  2-C ,  7-H ) :  -0.2496 B(  2-C ,  8-H ) :  -0.1959
B(  2-C ,  9-H ) :  -0.1369 B(  3-N ,  4-N ) :   0.1400 B(  3-N ,  8-H ) :   1.2135
B(  3-N ,  9-H ) :   1.2390 B(  4-N ,  5-H ) :   1.0920 B(  4-N ,  6-H ) :   1.2757
B(  5-H ,  6-H ) :  -0.2113 B(  8-H ,  9-H ) :  -0.1847 B( 10-C , 11-H ) :   0.1281
B( 10-C , 13-C ) :   1.3080 B( 10-C , 14-H ) :   0.9937 B( 10-C , 15-H ) :   0.8728
B( 10-C , 16-H ) :   0.2173 B( 10-C , 17-H ) :   0.2097 B( 10-C , 18-H ) :   0.2438
B( 11-H , 12-H ) :  -0.1251 B( 13-C , 16-H ) :   0.7800 B( 13-C , 17-H ) :   0.7539
B( 13-C , 18-H ) :   0.7521

FINAL SINGLE POINT ENERGY      -323.331533931045

DIPOLE MOMENT
-------------
                                X             Y             Z
Electronic contribution:     -3.26727       3.79566      -4.83633
Nuclear contribution   :      2.46011      -2.82418       3.51638
                        -----------------------------------------
Total Dipole Moment    :     -0.80716       0.97148      -1.31995
                        -----------------------------------------
Magnitude (a.u.)       :      1.82689
Magnitude (Debye)      :      4.64359

Rotational constants in cm-1:     0.152406     0.050160     0.046480
Rotational constants in MHz :  4569.006375  1503.763011  1393.441650

                             ****ORCA TERMINATED NORMALLY****
TOTAL RUN TIME: 0 days 0 hours 0 minutes 27 seconds 267 msec
