                         Program Version 5.0.0 -  RELEASE  -
|  1> !CAM-B3LYP RIJCOSX def2-SVPD def2/J TightSCF
|  2> *xyz 0 1
|  3> C          4.90646       -3.10282       -5.95484
|  4> C          3.51177       -2.80621       -6.49228
|  5> H          2.73604       -3.37345       -5.97374
|  6> H          3.44490       -3.04083       -7.55528
|  7> S          3.00462       -1.09621       -6.38926
|  8> F          4.12886       -0.32965       -6.95372
|  9> O          1.78128       -1.00078       -7.13640
| 10> C          5.02498       -3.02568       -4.43762
| 11> H          5.20153       -4.10021       -6.29691
| 12> H          5.60592       -2.39782       -6.41337
| 13> O          2.85155       -0.78368       -4.95679
| 14> H          4.73604       -2.05011       -4.10644
| 15> H          6.03776       -3.21492       -4.14890
| 16> H          4.38436       -3.75784       -3.99214
| 17> *
| 18>
| 19> %MaxCore 64000
| 20>
| 21> %pal nprocs 8
| 22> end
| 23>
| 24> %scf
| 25>   MaxIter 150
| 26> end
| 27>
| 28>
| 29>                          ****END OF INPUT****

CARTESIAN COORDINATES (ANGSTROEM)
---------------------------------
  C      4.906460   -3.102820   -5.954840
  C      3.511770   -2.806210   -6.492280
  H      2.736040   -3.373450   -5.973740
  H      3.444900   -3.040830   -7.555280
  S      3.004620   -1.096210   -6.389260
  F      4.128860   -0.329650   -6.953720
  O      1.781280   -1.000780   -7.136400
  C      5.024980   -3.025680   -4.437620
  H      5.201530   -4.100210   -6.296910
  H      5.605920   -2.397820   -6.413370
  O      2.851550   -0.783680   -4.956790
  H      4.736040   -2.050110   -4.106440
  H      6.037760   -3.214920   -4.148900
  H      4.384360   -3.757840   -3.992140

 Total Charge           Charge          ....    0
 Multiplicity           Mult            ....    1
 Number of Electrons    NEL             ....   66
 Basis Dimension        Dim             ....  212

ORBITAL ENERGIES
----------------

  NO   OCC          E(Eh)            E(eV)
   0   2.0000     -89.220564     -2427.8150
   1   2.0000     -24.881705      -677.0656
   2   2.0000     -19.232476      -523.3423
   3   2.0000     -19.220351      -523.0123
   4   2.0000     -10.325079      -280.9597
   5   2.0000     -10.293632      -280.1040
   6   2.0000     -10.256660      -279.0979
   7   2.0000      -8.274468      -225.1597
   8   2.0000      -6.248565      -170.0321
   9   2.0000      -6.242200      -169.8589
  10   2.0000      -6.240705      -169.8182
  11   2.0000      -1.438573       -39.1456
  12   2.0000      -1.199021       -32.6270
  13   2.0000      -1.094305       -29.7775
  14   2.0000      -0.921007       -25.0619
  15   2.0000      -0.834512       -22.7082
  16   2.0000      -0.781894       -21.2764
  17   2.0000      -0.713388       -19.4123
  18   2.0000      -0.665536       -18.1102
  19   2.0000      -0.650937       -17.7129
  20   2.0000      -0.620811       -16.8931
  21   2.0000      -0.566757       -15.4222
  22   2.0000      -0.563217       -15.3259
  23   2.0000      -0.534295       -14.5389
  24   2.0000      -0.519178       -14.1276
  25   2.0000      -0.508931       -13.8487
  26   2.0000      -0.463152       -12.6030
  27   2.0000      -0.453496       -12.3403
  28   2.0000      -0.447231       -12.1698
  29   2.0000      -0.434124       -11.8131
  30   2.0000      -0.406488       -11.0611
  31   2.0000      -0.391738       -10.6597
  32   2.0000      -0.379700       -10.3322
  33   0.0000       0.024291         0.6610
  34   0.0000       0.054611         1.4860
  35   0.0000       0.058319         1.5869
  36   0.0000       0.060569         1.6482
  37   0.0000       0.078373         2.1326

MULLIKEN ATOMIC CHARGES
-----------------------
   0 C :   -0.029358
   1 C :    0.113585
   2 H :   -0.040079
   3 H :   -0.063369
   4 S :    1.482952
   5 F :   -0.415476
   6 O :   -0.654688
   7 C :    1.045887
   8 H :   -0.198481
   9 H :   -0.100950
  10 O :   -0.701712
  11 H :   -0.257749
  12 H :   -0.117135
  13 H :   -0.063427
Sum of atomic charges:    0.0000000

LOEWDIN ATOMIC CHARGES
----------------------
   0 C :   -0.075756
   1 C :   -0.052318
   2 H :    0.041523
   3 H :    0.024579
   4 S :    1.121354
   5 F :   -0.266033
   6 O :   -0.459455
   7 C :    0.139754
   8 H :    0.031118
   9 H :    0.022718
  10 O :   -0.475945
  11 H :   -0.033743
  12 H :   -0.011230
  13 H :   -0.006568

  Mayer bond orders larger than 0.100000
B(  0-C ,  1-C ) :   1.1809 B(  0-C ,  2-H ) :   0.1097 B(  0-C ,  3-H ) :   0.1268
B(  0-C ,  7-C ) :   1.2475 B(  0-C ,  8-H ) :   0.8652 B(  0-C ,  9-H ) :   0.8704
B(  0-C , 11-H ) :   0.2614 B(  0-C , 12-H ) :   0.2280 B(  0-C , 13-H ) :   0.2284
B(  1-C ,  2-H ) :   0.9123 B(  1-C ,  3-H ) :   0.9334 B(  1-C ,  4-S ) :   0.9971
B(  1-C ,  8-H ) :   0.1266 B(  1-C ,  9-H ) :   0.1381 B(  4-S ,  5-F ) :   0.6299
B(  4-S ,  6-O ) :   1.5696 B(  4-S , 10-O ) :   1.4759 B(  7-C , 11-H ) :   0.7464
B(  7-C , 12-H ) :   0.6959 B(  7-C , 13-H ) :   0.6996 B( 11-H , 13-H ) :   0.1166

FINAL SINGLE POINT ENERGY      -766.431191532969

DIPOLE MOMENT
-------------
                                X             Y             Z
Electronic contribution:     -5.25792      10.13673      -5.32055
Nuclear contribution   :      6.51452     -11.35172       4.86721
                        -----------------------------------------
Total Dipole Moment    :      1.25660      -1.21499      -0.45334
                        -----------------------------------------
Magnitude (a.u.)       :      1.80576
Magnitude (Debye)      :      4.58987

Rotational constants in cm-1:     0.130386     0.053203     0.051661
Rotational constants in MHz :  3908.886819  1594.983443  1548.763987

                             ****ORCA TERMINATED NORMALLY****
TOTAL RUN TIME: 0 days 0 hours 0 minutes 20 seconds 501 msec
