                         Program Version 5.0.0 -  RELEASE  -
|  1> !CAM-B3LYP RIJCOSX def2-SVPD def2/J TightSCF
|  2> *xyz 0 1
|  3> C          4.49059        1.15590       -2.46929
|  4> C          4.30539        1.22276       -3.90832
|  5> C          4.63192        2.24637       -4.67096
|  6> N          4.54169        2.14399       -5.98714
|  7> N          5.08409        3.39358       -4.11855
|  8> H          4.92067        3.57050       -3.13587
|  9> H          5.25465        4.19739       -4.70696
| 10> H          3.82453        0.44911       -4.35093
| 11> H          4.34337        1.24932       -6.41665
| 12> H          4.67671        2.95662       -6.57411
| 13> C          5.94213        0.93950       -2.03689
| 14> H          3.86431        0.32853       -2.13661
| 15> H          4.07623        2.04999       -1.98901
| 16> C          6.55996       -0.35629       -2.55909
| 17> H          5.96798        0.95257       -0.94244
| 18> H          6.54718        1.78833       -2.36885
| 19> H          6.53022       -0.35990       -3.62867
| 20> H          6.00654       -1.19175       -2.18407
| 21> H          7.57588       -0.42487       -2.23029
| 22> *
| 23>
| 24> %MaxCore 64000
| 25>
| 26> %pal nprocs 8
| 27> end
| 28>
| 29> %scf
| 30>   MaxIter 150
| 31> end
| 32>
| 33>
| 34>                          ****END OF INPUT****

CARTESIAN COORDINATES (ANGSTROEM)
---------------------------------
  C      4.490590    1.155900   -2.469290
  C      4.305390    1.222760   -3.908320
  C      4.631920    2.246370   -4.670960
  N      4.541690    2.143990   -5.987140
  N      5.084090    3.393580   -4.118550
  H      4.920670    3.570500   -3.135870
  H      5.254650    4.197390   -4.706960
  H      3.824530    0.449110   -4.350930
  H      4.343370    1.249320   -6.416650
  H      4.676710    2.956620   -6.574110
  C      5.942130    0.939500   -2.036890
  H      3.864310    0.328530   -2.136610
  H      4.076230    2.049990   -1.989010
  C      6.559960   -0.356290   -2.559090
  H      5.967980    0.952570   -0.942440
  H      6.547180    1.788330   -2.368850
  H      6.530220   -0.359900   -3.628670
  H      6.006540   -1.191750   -2.184070
  H      7.575880   -0.424870   -2.230290

 Total Charge           Charge          ....    0
 Multiplicity           Mult            ....    1
 Number of Electrons    NEL             ....   56
 Basis Dimension        Dim             ....  236

ORBITAL ENERGIES
----------------

  NO   OCC          E(Eh)            E(eV)
   0   2.0000     -14.406776      -392.0283
   1   2.0000     -14.404845      -391.9757
   2   2.0000     -10.303908      -280.3836
   3   2.0000     -10.232120      -278.4301
   4   2.0000     -10.230221      -278.3785
   5   2.0000     -10.222334      -278.1638
   6   2.0000     -10.179018      -276.9852
   7   2.0000      -1.036199       -28.1964
   8   2.0000      -0.943382       -25.6707
   9   2.0000      -0.860457       -23.4142
  10   2.0000      -0.795768       -21.6540
  11   2.0000      -0.731554       -19.9066
  12   2.0000      -0.668429       -18.1889
  13   2.0000      -0.641678       -17.4609
  14   2.0000      -0.614469       -16.7205
  15   2.0000      -0.574772       -15.6403
  16   2.0000      -0.545275       -14.8377
  17   2.0000      -0.512749       -13.9526
  18   2.0000      -0.502843       -13.6831
  19   2.0000      -0.483042       -13.1442
  20   2.0000      -0.458057       -12.4644
  21   2.0000      -0.435639       -11.8543
  22   2.0000      -0.425571       -11.5804
  23   2.0000      -0.393829       -10.7166
  24   2.0000      -0.375855       -10.2275
  25   2.0000      -0.373199       -10.1553
  26   2.0000      -0.331115        -9.0101
  27   2.0000      -0.219180        -5.9642
  28   0.0000       0.045495         1.2380
  29   0.0000       0.069933         1.9030
  30   0.0000       0.075259         2.0479
  31   0.0000       0.089339         2.4310
  32   0.0000       0.098692         2.6855

MULLIKEN ATOMIC CHARGES
-----------------------
   0 C :    0.381711
   1 C :   -0.218039
   2 C :    0.920801
   3 N :    0.100030
   4 N :    0.085446
   5 H :   -0.063167
   6 H :   -0.296537
   7 H :   -0.509268
   8 H :   -0.076074
   9 H :   -0.207257
  10 C :   -0.213093
  11 H :   -0.075787
  12 H :   -0.155341
  13 C :    0.946107
  14 H :   -0.172132
  15 H :   -0.127921
  16 H :   -0.152815
  17 H :   -0.037750
  18 H :   -0.128913
Sum of atomic charges:   -0.0000000

LOEWDIN ATOMIC CHARGES
----------------------
   0 C :   -0.068337
   1 C :   -0.039791
   2 C :   -0.216921
   3 N :    0.179981
   4 N :    0.208251
   5 H :   -0.013236
   6 H :   -0.012930
   7 H :   -0.048057
   8 H :    0.008593
   9 H :   -0.009292
  10 C :   -0.080151
  11 H :    0.017544
  12 H :    0.004961
  13 C :    0.118799
  14 H :    0.012602
  15 H :    0.007226
  16 H :   -0.025949
  17 H :   -0.019794
  18 H :   -0.023500

  Mayer bond orders larger than 0.100000
B(  0-C ,  1-C ) :   1.1581 B(  0-C ,  7-H ) :   0.3150 B(  0-C , 10-C ) :   1.1377
B(  0-C , 11-H ) :   0.6544 B(  0-C , 12-H ) :   0.8706 B(  0-C , 14-H ) :   0.1376
B(  0-C , 15-H ) :   0.1526 B(  1-C ,  2-C ) :   1.6080 B(  1-C ,  3-N ) :   0.3897
B(  1-C ,  4-N ) :   0.2542 B(  1-C ,  7-H ) :   0.8124 B(  1-C , 11-H ) :   0.3623
B(  1-C , 12-H ) :   0.1722 B(  2-C ,  3-N ) :   0.8513 B(  2-C ,  4-N ) :   0.9269
B(  2-C ,  6-H ) :  -0.1708 B(  2-C ,  8-H ) :  -0.1100 B(  3-N ,  4-N ) :   0.1030
B(  3-N ,  8-H ) :   1.1892 B(  3-N ,  9-H ) :   1.2429 B(  4-N ,  5-H ) :   1.0772
B(  4-N ,  6-H ) :   1.3194 B(  5-H ,  6-H ) :  -0.1954 B(  8-H ,  9-H ) :  -0.1752
B( 10-C , 11-H ) :   0.1281 B( 10-C , 13-C ) :   1.3075 B( 10-C , 14-H ) :   0.9196
B( 10-C , 15-H ) :   0.8950 B( 10-C , 16-H ) :   0.2575 B( 10-C , 17-H ) :   0.2450
B( 10-C , 18-H ) :   0.2675 B( 13-C , 16-H ) :   0.7656 B( 13-C , 17-H ) :   0.7365
B( 13-C , 18-H ) :   0.6936

FINAL SINGLE POINT ENERGY      -306.858384256379

DIPOLE MOMENT
-------------
                                X             Y             Z
Electronic contribution:     -2.33008       3.66186      -4.16731
Nuclear contribution   :      2.29046      -2.89565       3.47129
                        -----------------------------------------
Total Dipole Moment    :     -0.03962       0.76621      -0.69603
                        -----------------------------------------
Magnitude (a.u.)       :      1.03590
Magnitude (Debye)      :      2.63306

Rotational constants in cm-1:     0.154384     0.050352     0.046525
Rotational constants in MHz :  4628.320816  1509.522910  1394.780903

                             ****ORCA TERMINATED NORMALLY****
TOTAL RUN TIME: 0 days 0 hours 0 minutes 27 seconds 597 msec
