                         Program Version 5.0.0 -  RELEASE  -
|  1> !CAM-B3LYP RIJCOSX def2-SVPD def2/J TightSCF
|  2> *xyz 0 1
|  3> C          4.90646       -3.10282       -5.95484
|  4> C          3.51177       -2.80621       -6.49228
|  5> H          2.73604       -3.37345       -5.97374
|  6> H          3.44490       -3.04083       -7.55528
|  7> S          3.00462       -1.09621       -6.38926
|  8> O          4.12886       -0.32965       -6.95372
|  9> F          1.78128       -1.00078       -7.13640
| 10> C          5.02498       -3.02568       -4.43762
| 11> H          5.20153       -4.10021       -6.29691
| 12> H          5.60592       -2.39782       -6.41337
| 13> O          2.85155       -0.78368       -4.95679
| 14> H          4.73604       -2.05011       -4.10644
| 15> H          6.03776       -3.21492       -4.14890
| 16> H          4.38436       -3.75784       -3.99214
| 17> *
| 18>
| 19> %MaxCore 64000
| 20>
| 21> %pal nprocs 8
| 22> end
| 23>
| 24> %scf
| 25>   MaxIter 150
| 26> end
| 27>
| 28>
| 29>                          ****END OF INPUT****

CARTESIAN COORDINATES (ANGSTROEM)
---------------------------------
  C      4.906460   -3.102820   -5.954840
  C      3.511770   -2.806210   -6.492280
  H      2.736040   -3.373450   -5.973740
  H      3.444900   -3.040830   -7.555280
  S      3.004620   -1.096210   -6.389260
  O      4.128860   -0.329650   -6.953720
  F      1.781280   -1.000780   -7.136400
  C      5.024980   -3.025680   -4.437620
  H      5.201530   -4.100210   -6.296910
  H      5.605920   -2.397820   -6.413370
  O      2.851550   -0.783680   -4.956790
  H      4.736040   -2.050110   -4.106440
  H      6.037760   -3.214920   -4.148900
  H      4.384360   -3.757840   -3.992140

 Total Charge           Charge          ....    0
 Multiplicity           Mult            ....    1
 Number of Electrons    NEL             ....   66
 Basis Dimension        Dim             ....  212

ORBITAL ENERGIES
----------------

  NO   OCC          E(Eh)            E(eV)
   0   2.0000     -89.222339     -2427.8633
   1   2.0000     -24.899834      -677.5589
   2   2.0000     -19.220967      -523.0291
   3   2.0000     -19.220843      -523.0257
   4   2.0000     -10.326039      -280.9858
   5   2.0000     -10.288445      -279.9628
   6   2.0000     -10.251296      -278.9519
   7   2.0000      -8.276381      -225.2118
   8   2.0000      -6.250522      -170.0853
   9   2.0000      -6.243936      -169.9061
  10   2.0000      -6.242529      -169.8679
  11   2.0000      -1.469612       -39.9902
  12   2.0000      -1.186208       -32.2784
  13   2.0000      -1.080461       -29.4008
  14   2.0000      -0.916970       -24.9520
  15   2.0000      -0.841421       -22.8962
  16   2.0000      -0.790049       -21.4983
  17   2.0000      -0.715304       -19.4644
  18   2.0000      -0.673514       -18.3272
  19   2.0000      -0.661666       -18.0048
  20   2.0000      -0.633893       -17.2491
  21   2.0000      -0.567662       -15.4469
  22   2.0000      -0.562248       -15.2995
  23   2.0000      -0.528324       -14.3764
  24   2.0000      -0.514496       -14.0002
  25   2.0000      -0.500402       -13.6166
  26   2.0000      -0.456652       -12.4261
  27   2.0000      -0.443548       -12.0696
  28   2.0000      -0.441621       -12.0171
  29   2.0000      -0.428078       -11.6486
  30   2.0000      -0.397039       -10.8040
  31   2.0000      -0.387877       -10.5547
  32   2.0000      -0.371446       -10.1076
  33   0.0000       0.025889         0.7045
  34   0.0000       0.048260         1.3132
  35   0.0000       0.060076         1.6347
  36   0.0000       0.063457         1.7267
  37   0.0000       0.084929         2.3110

MULLIKEN ATOMIC CHARGES
-----------------------
   0 C :   -0.071325
   1 C :    0.090421
   2 H :   -0.029892
   3 H :   -0.043865
   4 S :    1.525180
   5 O :   -0.680635
   6 F :   -0.425998
   7 C :    1.037936
   8 H :   -0.190218
   9 H :   -0.069127
  10 O :   -0.700629
  11 H :   -0.256160
  12 H :   -0.117209
  13 H :   -0.068478
Sum of atomic charges:    0.0000000

LOEWDIN ATOMIC CHARGES
----------------------
   0 C :   -0.060895
   1 C :   -0.063824
   2 H :    0.027978
   3 H :    0.022228
   4 S :    1.127439
   5 O :   -0.477908
   6 F :   -0.251094
   7 C :    0.142324
   8 H :    0.033482
   9 H :    0.028388
  10 O :   -0.478949
  11 H :   -0.029546
  12 H :   -0.010440
  13 H :   -0.009183

  Mayer bond orders larger than 0.100000
B(  0-C ,  1-C ) :   1.2348 B(  0-C ,  2-H ) :   0.1132 B(  0-C ,  3-H ) :   0.1440
B(  0-C ,  7-C ) :   1.2380 B(  0-C ,  8-H ) :   0.8632 B(  0-C ,  9-H ) :   0.8834
B(  0-C , 11-H ) :   0.2556 B(  0-C , 12-H ) :   0.2302 B(  0-C , 13-H ) :   0.2231
B(  1-C ,  2-H ) :   0.9086 B(  1-C ,  3-H ) :   0.8858 B(  1-C ,  4-S ) :   0.9623
B(  1-C ,  8-H ) :   0.1340 B(  1-C ,  9-H ) :   0.1476 B(  4-S ,  5-O ) :   1.4704
B(  4-S ,  6-F ) :   0.6883 B(  4-S , 10-O ) :   1.4476 B(  7-C , 11-H ) :   0.7508
B(  7-C , 12-H ) :   0.6933 B(  7-C , 13-H ) :   0.6968 B( 11-H , 13-H ) :   0.1180

FINAL SINGLE POINT ENERGY      -766.415931689718

DIPOLE MOMENT
-------------
                                X             Y             Z
Electronic contribution:     -9.32742       9.00399      -5.65060
Nuclear contribution   :      9.03920     -10.62996       5.06367
                        -----------------------------------------
Total Dipole Moment    :     -0.28821      -1.62597      -0.58693
                        -----------------------------------------
Magnitude (a.u.)       :      1.75253
Magnitude (Debye)      :      4.45457

Rotational constants in cm-1:     0.135071     0.052485     0.050188
Rotational constants in MHz :  4049.321380  1573.451279  1504.609887

                             ****ORCA TERMINATED NORMALLY****
TOTAL RUN TIME: 0 days 0 hours 0 minutes 22 seconds 225 msec
