                         Program Version 5.0.0 -  RELEASE  -
|  1> !CAM-B3LYP RIJCOSX def2-SVPD def2/J TightSCF
|  2> *xyz 0 1
|  3> C          4.49059        1.15590       -2.46929
|  4> N          4.30539        1.22276       -3.90832
|  5> C          4.63192        2.24637       -4.67096
|  6> C          4.54169        2.14399       -5.98714
|  7> N          5.08409        3.39358       -4.11855
|  8> H          4.92067        3.57050       -3.13587
|  9> H          5.25465        4.19739       -4.70696
| 10> H          3.82453        0.44911       -4.35093
| 11> H          4.34337        1.24932       -6.41665
| 12> H          4.67671        2.95662       -6.57411
| 13> C          5.94213        0.93950       -2.03689
| 14> H          3.86431        0.32853       -2.13661
| 15> H          4.07623        2.04999       -1.98901
| 16> C          6.55996       -0.35629       -2.55909
| 17> H          5.96798        0.95257       -0.94244
| 18> H          6.54718        1.78833       -2.36885
| 19> H          6.53022       -0.35990       -3.62867
| 20> H          6.00654       -1.19175       -2.18407
| 21> H          7.57588       -0.42487       -2.23029
| 22> *
| 23>
| 24> %MaxCore 64000
| 25>
| 26> %pal nprocs 8
| 27> end
| 28>
| 29> %scf
| 30>   MaxIter 150
| 31> end
| 32>
| 33>
| 34>                          ****END OF INPUT****

CARTESIAN COORDINATES (ANGSTROEM)
---------------------------------
  C      4.490590    1.155900   -2.469290
  N      4.305390    1.222760   -3.908320
  C      4.631920    2.246370   -4.670960
  C      4.541690    2.143990   -5.987140
  N      5.084090    3.393580   -4.118550
  H      4.920670    3.570500   -3.135870
  H      5.254650    4.197390   -4.706960
  H      3.824530    0.449110   -4.350930
  H      4.343370    1.249320   -6.416650
  H      4.676710    2.956620   -6.574110
  C      5.942130    0.939500   -2.036890
  H      3.864310    0.328530   -2.136610
  H      4.076230    2.049990   -1.989010
  C      6.559960   -0.356290   -2.559090
  H      5.967980    0.952570   -0.942440
  H      6.547180    1.788330   -2.368850
  H      6.530220   -0.359900   -3.628670
  H      6.006540   -1.191750   -2.184070
  H      7.575880   -0.424870   -2.230290

 Total Charge           Charge          ....    0
 Multiplicity           Mult            ....    1
 Number of Electrons    NEL             ....   56
 Basis Dimension        Dim             ....  236

ORBITAL ENERGIES
----------------

  NO   OCC          E(Eh)            E(eV)
   0   2.0000     -14.404008      -391.9530
   1   2.0000     -14.403942      -391.9512
   2   2.0000     -10.305460      -280.4258
   3   2.0000     -10.296972      -280.1949
   4   2.0000     -10.256149      -279.0840
   5   2.0000     -10.241963      -278.6980
   6   2.0000     -10.168714      -276.7048
   7   2.0000      -1.044354       -28.4183
   8   2.0000      -0.955302       -25.9951
   9   2.0000      -0.864068       -23.5125
  10   2.0000      -0.799831       -21.7645
  11   2.0000      -0.742933       -20.2162
  12   2.0000      -0.686681       -18.6855
  13   2.0000      -0.656831       -17.8733
  14   2.0000      -0.605017       -16.4634
  15   2.0000      -0.570758       -15.5311
  16   2.0000      -0.550070       -14.9682
  17   2.0000      -0.531548       -14.4642
  18   2.0000      -0.509598       -13.8669
  19   2.0000      -0.472806       -12.8657
  20   2.0000      -0.464484       -12.6393
  21   2.0000      -0.459790       -12.5115
  22   2.0000      -0.436777       -11.8853
  23   2.0000      -0.416276       -11.3274
  24   2.0000      -0.411644       -11.2014
  25   2.0000      -0.403522       -10.9804
  26   2.0000      -0.319262        -8.6876
  27   2.0000      -0.220966        -6.0128
  28   0.0000       0.043554         1.1852
  29   0.0000       0.064578         1.7573
  30   0.0000       0.072842         1.9821
  31   0.0000       0.077118         2.0985
  32   0.0000       0.104726         2.8497

MULLIKEN ATOMIC CHARGES
-----------------------
   0 C :    0.861877
   1 N :   -0.376969
   2 C :    0.700678
   3 C :    0.469899
   4 N :    0.253954
   5 H :   -0.144064
   6 H :   -0.232558
   7 H :   -0.219189
   8 H :   -0.361229
   9 H :   -0.477660
  10 C :   -0.212625
  11 H :   -0.420969
  12 H :   -0.137921
  13 C :    0.918642
  14 H :   -0.237127
  15 H :   -0.051997
  16 H :   -0.156956
  17 H :   -0.022278
  18 H :   -0.153508
Sum of atomic charges:   -0.0000000

LOEWDIN ATOMIC CHARGES
----------------------
   0 C :    0.038173
   1 N :   -0.011985
   2 C :   -0.235278
   3 C :    0.140255
   4 N :    0.204554
   5 H :   -0.026549
   6 H :    0.003844
   7 H :    0.038653
   8 H :   -0.100503
   9 H :   -0.102958
  10 C :   -0.070216
  11 H :    0.023048
  12 H :    0.009360
  13 C :    0.122758
  14 H :    0.017855
  15 H :    0.009507
  16 H :   -0.021373
  17 H :   -0.019807
  18 H :   -0.019339

  Mayer bond orders larger than 0.100000
B(  0-C ,  1-N ) :   0.9202 B(  0-C ,  7-H ) :  -0.1779 B(  0-C , 10-C ) :   1.1229
B(  0-C , 11-H ) :   0.6865 B(  0-C , 12-H ) :   0.8858 B(  0-C , 15-H ) :   0.1254
B(  1-N ,  2-C ) :   1.0297 B(  1-N ,  3-C ) :   0.2412 B(  1-N ,  4-N ) :   0.1887
B(  1-N ,  7-H ) :   1.2629 B(  1-N , 11-H ) :   0.2674 B(  2-C ,  3-C ) :   1.3305
B(  2-C ,  4-N ) :   0.9718 B(  2-C ,  6-H ) :  -0.1025 B(  2-C ,  7-H ) :  -0.1949
B(  2-C ,  9-H ) :   0.1481 B(  3-C ,  4-N ) :   0.1937 B(  3-C ,  8-H ) :   0.8253
B(  3-C ,  9-H ) :   0.7027 B(  4-N ,  5-H ) :   1.0615 B(  4-N ,  6-H ) :   1.2166
B(  5-H ,  6-H ) :  -0.1982 B( 10-C , 11-H ) :   0.1371 B( 10-C , 13-C ) :   1.2795
B( 10-C , 14-H ) :   1.0026 B( 10-C , 15-H ) :   0.8833 B( 10-C , 16-H ) :   0.2320
B( 10-C , 17-H ) :   0.2134 B( 10-C , 18-H ) :   0.2488 B( 11-H , 12-H ) :  -0.1338
B( 13-C , 16-H ) :   0.7838 B( 13-C , 17-H ) :   0.7552 B( 13-C , 18-H ) :   0.7385

FINAL SINGLE POINT ENERGY      -306.851105297928

DIPOLE MOMENT
-------------
                                X             Y             Z
Electronic contribution:     -2.45229       2.74144      -1.98383
Nuclear contribution   :      2.34222      -2.69386       3.01591
                        -----------------------------------------
Total Dipole Moment    :     -0.11007       0.04759       1.03209
                        -----------------------------------------
Magnitude (a.u.)       :      1.03903
Magnitude (Debye)      :      2.64100

Rotational constants in cm-1:     0.155143     0.051710     0.048050
Rotational constants in MHz :  4651.080391  1550.217078  1440.507386

                             ****ORCA TERMINATED NORMALLY****
TOTAL RUN TIME: 0 days 0 hours 0 minutes 28 seconds 550 msec
