                         Program Version 5.0.0 -  RELEASE  -
|  1> !CAM-B3LYP RIJCOSX def2-SVPD def2/J TightSCF
|  2> *xyz 0 1
|  3> C          4.90646       -3.10282       -5.95484
|  4> C          3.51177       -2.80621       -6.49228
|  5> H          2.73604       -3.37345       -5.97374
|  6> H          3.44490       -3.04083       -7.55528
|  7> S          3.00462       -1.09621       -6.38926
|  8> O          4.12886       -0.32965       -6.95372
|  9> O          1.78128       -1.00078       -7.13640
| 10> C          5.02498       -3.02568       -4.43762
| 11> H          5.20153       -4.10021       -6.29691
| 12> H          5.60592       -2.39782       -6.41337
| 13> F          2.85155       -0.78368       -4.95679
| 14> H          4.73604       -2.05011       -4.10644
| 15> H          6.03776       -3.21492       -4.14890
| 16> H          4.38436       -3.75784       -3.99214
| 17> *
| 18>
| 19> %MaxCore 64000
| 20>
| 21> %pal nprocs 8
| 22> end
| 23>
| 24> %scf
| 25>   MaxIter 150
| 26> end
| 27>
| 28>
| 29>                          ****END OF INPUT****

CARTESIAN COORDINATES (ANGSTROEM)
---------------------------------
  C      4.906460   -3.102820   -5.954840
  C      3.511770   -2.806210   -6.492280
  H      2.736040   -3.373450   -5.973740
  H      3.444900   -3.040830   -7.555280
  S      3.004620   -1.096210   -6.389260
  O      4.128860   -0.329650   -6.953720
  O      1.781280   -1.000780   -7.136400
  C      5.024980   -3.025680   -4.437620
  H      5.201530   -4.100210   -6.296910
  H      5.605920   -2.397820   -6.413370
  F      2.851550   -0.783680   -4.956790
  H      4.736040   -2.050110   -4.106440
  H      6.037760   -3.214920   -4.148900
  H      4.384360   -3.757840   -3.992140

 Total Charge           Charge          ....    0
 Multiplicity           Mult            ....    1
 Number of Electrons    NEL             ....   66
 Basis Dimension        Dim             ....  212

ORBITAL ENERGIES
----------------

  NO   OCC          E(Eh)            E(eV)
   0   2.0000     -89.220117     -2427.8028
   1   2.0000     -24.880689      -677.0380
   2   2.0000     -19.232417      -523.3407
   3   2.0000     -19.220576      -523.0185
   4   2.0000     -10.324920      -280.9554
   5   2.0000     -10.290253      -280.0120
   6   2.0000     -10.266742      -279.3723
   7   2.0000      -8.274032      -225.1479
   8   2.0000      -6.248101      -170.0195
   9   2.0000      -6.241723      -169.8459
  10   2.0000      -6.240334      -169.8081
  11   2.0000      -1.437398       -39.1136
  12   2.0000      -1.198674       -32.6176
  13   2.0000      -1.095225       -29.8026
  14   2.0000      -0.920200       -25.0399
  15   2.0000      -0.836333       -22.7578
  16   2.0000      -0.783428       -21.3182
  17   2.0000      -0.718070       -19.5397
  18   2.0000      -0.657681       -17.8964
  19   2.0000      -0.649152       -17.6643
  20   2.0000      -0.626378       -17.0446
  21   2.0000      -0.569052       -15.4847
  22   2.0000      -0.559275       -15.2187
  23   2.0000      -0.538372       -14.6498
  24   2.0000      -0.525622       -14.3029
  25   2.0000      -0.507549       -13.8111
  26   2.0000      -0.468199       -12.7403
  27   2.0000      -0.456598       -12.4247
  28   2.0000      -0.439704       -11.9650
  29   2.0000      -0.433928       -11.8078
  30   2.0000      -0.405552       -11.0356
  31   2.0000      -0.396357       -10.7854
  32   2.0000      -0.383075       -10.4240
  33   0.0000       0.027383         0.7451
  34   0.0000       0.052710         1.4343
  35   0.0000       0.058198         1.5837
  36   0.0000       0.060614         1.6494
  37   0.0000       0.083966         2.2848

MULLIKEN ATOMIC CHARGES
-----------------------
   0 C :   -0.020402
   1 C :    0.096751
   2 H :   -0.033227
   3 H :   -0.051666
   4 S :    1.472971
   5 O :   -0.691841
   6 O :   -0.651789
   7 C :    1.027165
   8 H :   -0.184636
   9 H :   -0.072570
  10 F :   -0.424358
  11 H :   -0.282342
  12 H :   -0.120281
  13 H :   -0.063774
Sum of atomic charges:    0.0000000

LOEWDIN ATOMIC CHARGES
----------------------
   0 C :   -0.072850
   1 C :   -0.053391
   2 H :    0.028209
   3 H :    0.036744
   4 S :    1.117351
   5 O :   -0.476072
   6 O :   -0.459892
   7 C :    0.137607
   8 H :    0.032592
   9 H :    0.026581
  10 F :   -0.269307
  11 H :   -0.029888
  12 H :   -0.008333
  13 H :   -0.009351

  Mayer bond orders larger than 0.100000
B(  0-C ,  1-C ) :   1.2107 B(  0-C ,  2-H ) :   0.1169 B(  0-C ,  3-H ) :   0.1259
B(  0-C ,  7-C ) :   1.2363 B(  0-C ,  8-H ) :   0.8498 B(  0-C ,  9-H ) :   0.8897
B(  0-C , 11-H ) :   0.2491 B(  0-C , 12-H ) :   0.2289 B(  0-C , 13-H ) :   0.2214
B(  1-C ,  2-H ) :   0.9140 B(  1-C ,  3-H ) :   0.9103 B(  1-C ,  4-S ) :   1.0024
B(  1-C ,  8-H ) :   0.1394 B(  1-C ,  9-H ) :   0.1520 B(  4-S ,  5-O ) :   1.4903
B(  4-S ,  6-O ) :   1.5628 B(  4-S , 10-F ) :   0.6239 B(  7-C , 11-H ) :   0.7399
B(  7-C , 12-H ) :   0.7039 B(  7-C , 13-H ) :   0.7094 B( 11-H , 13-H ) :   0.1098

FINAL SINGLE POINT ENERGY      -766.431979649740

DIPOLE MOMENT
-------------
                                X             Y             Z
Electronic contribution:     -7.43594       9.32407      -1.86578
Nuclear contribution   :      7.88819     -10.86344       2.71963
                        -----------------------------------------
Total Dipole Moment    :      0.45225      -1.53937       0.85385
                        -----------------------------------------
Magnitude (a.u.)       :      1.81748
Magnitude (Debye)      :      4.61967

Rotational constants in cm-1:     0.130261     0.054435     0.050898
Rotational constants in MHz :  3905.114465  1631.935083  1525.880669

                             ****ORCA TERMINATED NORMALLY****
TOTAL RUN TIME: 0 days 0 hours 0 minutes 22 seconds 77 msec
