                         Program Version 5.0.0 -  RELEASE  -
|  1> !CAM-B3LYP RIJCOSX def2-SVPD def2/J TightSCF
|  2> *xyz 0 1
|  3> C          4.49059        1.15590       -2.46929
|  4> N          4.30539        1.22276       -3.90832
|  5> C          4.63192        2.24637       -4.67096
|  6> N          4.54169        2.14399       -5.98714
|  7> C          5.08409        3.39358       -4.11855
|  8> H          4.92067        3.57050       -3.13587
|  9> H          5.25465        4.19739       -4.70696
| 10> H          3.82453        0.44911       -4.35093
| 11> H          4.34337        1.24932       -6.41665
| 12> H          4.67671        2.95662       -6.57411
| 13> C          5.94213        0.93950       -2.03689
| 14> H          3.86431        0.32853       -2.13661
| 15> H          4.07623        2.04999       -1.98901
| 16> C          6.55996       -0.35629       -2.55909
| 17> H          5.96798        0.95257       -0.94244
| 18> H          6.54718        1.78833       -2.36885
| 19> H          6.53022       -0.35990       -3.62867
| 20> H          6.00654       -1.19175       -2.18407
| 21> H          7.57588       -0.42487       -2.23029
| 22> *
| 23>
| 24> %MaxCore 64000
| 25>
| 26> %pal nprocs 8
| 27> end
| 28>
| 29> %scf
| 30>   MaxIter 150
| 31> end
| 32>
| 33>
| 34>                          ****END OF INPUT****

CARTESIAN COORDINATES (ANGSTROEM)
---------------------------------
  C      4.490590    1.155900   -2.469290
  N      4.305390    1.222760   -3.908320
  C      4.631920    2.246370   -4.670960
  N      4.541690    2.143990   -5.987140
  C      5.084090    3.393580   -4.118550
  H      4.920670    3.570500   -3.135870
  H      5.254650    4.197390   -4.706960
  H      3.824530    0.449110   -4.350930
  H      4.343370    1.249320   -6.416650
  H      4.676710    2.956620   -6.574110
  C      5.942130    0.939500   -2.036890
  H      3.864310    0.328530   -2.136610
  H      4.076230    2.049990   -1.989010
  C      6.559960   -0.356290   -2.559090
  H      5.967980    0.952570   -0.942440
  H      6.547180    1.788330   -2.368850
  H      6.530220   -0.359900   -3.628670
  H      6.006540   -1.191750   -2.184070
  H      7.575880   -0.424870   -2.230290

 Total Charge           Charge          ....    0
 Multiplicity           Mult            ....    1
 Number of Electrons    NEL             ....   56
 Basis Dimension        Dim             ....  236

ORBITAL ENERGIES
----------------

  NO   OCC          E(Eh)            E(eV)
   0   2.0000     -14.408565      -392.0770
   1   2.0000     -14.407127      -392.0379
   2   2.0000     -10.308763      -280.5157
   3   2.0000     -10.289076      -279.9800
   4   2.0000     -10.246484      -278.8210
   5   2.0000     -10.237265      -278.5701
   6   2.0000     -10.169838      -276.7354
   7   2.0000      -1.048565       -28.5329
   8   2.0000      -0.963105       -26.2074
   9   2.0000      -0.851339       -23.1661
  10   2.0000      -0.785674       -21.3793
  11   2.0000      -0.762465       -20.7477
  12   2.0000      -0.679631       -18.4937
  13   2.0000      -0.628594       -17.1049
  14   2.0000      -0.622622       -16.9424
  15   2.0000      -0.592478       -16.1221
  16   2.0000      -0.545941       -14.8558
  17   2.0000      -0.521498       -14.1907
  18   2.0000      -0.499014       -13.5789
  19   2.0000      -0.470762       -12.8101
  20   2.0000      -0.461936       -12.5699
  21   2.0000      -0.453873       -12.3505
  22   2.0000      -0.435342       -11.8462
  23   2.0000      -0.413171       -11.2430
  24   2.0000      -0.404643       -11.0109
  25   2.0000      -0.395175       -10.7533
  26   2.0000      -0.315194        -8.5769
  27   2.0000      -0.222256        -6.0479
  28   0.0000       0.042929         1.1682
  29   0.0000       0.066475         1.8089
  30   0.0000       0.074628         2.0307
  31   0.0000       0.079985         2.1765
  32   0.0000       0.100360         2.7309

MULLIKEN ATOMIC CHARGES
-----------------------
   0 C :    0.841571
   1 N :   -0.467653
   2 C :    0.643781
   3 N :    0.192859
   4 C :    0.555921
   5 H :   -0.104147
   6 H :   -0.684639
   7 H :   -0.299243
   8 H :   -0.194286
   9 H :   -0.115394
  10 C :   -0.197189
  11 H :   -0.433309
  12 H :   -0.017994
  13 C :    0.906078
  14 H :   -0.214068
  15 H :   -0.061019
  16 H :   -0.160496
  17 H :   -0.035487
  18 H :   -0.155285
Sum of atomic charges:   -0.0000000

LOEWDIN ATOMIC CHARGES
----------------------
   0 C :    0.045457
   1 N :   -0.016616
   2 C :   -0.234595
   3 N :    0.185583
   4 C :    0.160180
   5 H :   -0.115864
   6 H :   -0.107613
   7 H :    0.024754
   8 H :   -0.007132
   9 H :    0.009267
  10 C :   -0.062504
  11 H :    0.021754
  12 H :    0.017207
  13 C :    0.118939
  14 H :    0.019923
  15 H :    0.010060
  16 H :   -0.026538
  17 H :   -0.022142
  18 H :   -0.020119

  Mayer bond orders larger than 0.100000
B(  0-C ,  1-N ) :   0.9229 B(  0-C ,  2-C ) :  -0.1011 B(  0-C ,  5-H ) :   0.1057
B(  0-C ,  7-H ) :  -0.1771 B(  0-C , 10-C ) :   1.1012 B(  0-C , 11-H ) :   0.7559
B(  0-C , 12-H ) :   0.8674 B(  0-C , 15-H ) :   0.1407 B(  1-N ,  2-C ) :   0.8988
B(  1-N ,  3-N ) :   0.2013 B(  1-N ,  4-C ) :   0.3700 B(  1-N ,  7-H ) :   1.4145
B(  1-N ,  8-H ) :   0.1050 B(  1-N , 11-H ) :   0.1991 B(  2-C ,  3-N ) :   0.9376
B(  2-C ,  4-C ) :   1.6471 B(  2-C ,  5-H ) :   0.2897 B(  2-C ,  6-H ) :   0.1949
B(  2-C ,  7-H ) :  -0.3288 B(  2-C , 11-H ) :   0.1072 B(  3-N ,  4-C ) :   0.2272
B(  3-N ,  8-H ) :   1.1869 B(  3-N ,  9-H ) :   1.2158 B(  4-C ,  5-H ) :   0.6179
B(  4-C ,  6-H ) :   0.7394 B(  5-H , 11-H ) :  -0.1135 B(  5-H , 12-H ) :   0.1023
B(  8-H ,  9-H ) :  -0.1758 B( 10-C , 11-H ) :   0.1452 B( 10-C , 13-C ) :   1.2710
B( 10-C , 14-H ) :   0.9928 B( 10-C , 15-H ) :   0.8979 B( 10-C , 16-H ) :   0.2244
B( 10-C , 17-H ) :   0.2122 B( 10-C , 18-H ) :   0.2473 B( 11-H , 12-H ) :  -0.1713
B( 13-C , 16-H ) :   0.7944 B( 13-C , 17-H ) :   0.7564 B( 13-C , 18-H ) :   0.7428

FINAL SINGLE POINT ENERGY      -306.850296201039

DIPOLE MOMENT
-------------
                                X             Y             Z
Electronic contribution:     -2.93458       1.55834      -3.86744
Nuclear contribution   :      2.46104      -2.42013       3.42523
                        -----------------------------------------
Total Dipole Moment    :     -0.47354      -0.86179      -0.44221
                        -----------------------------------------
Magnitude (a.u.)       :      1.07817
Magnitude (Debye)      :      2.74050

Rotational constants in cm-1:     0.157414     0.050835     0.047338
Rotational constants in MHz :  4719.163414  1524.007825  1419.164399

                             ****ORCA TERMINATED NORMALLY****
TOTAL RUN TIME: 0 days 0 hours 0 minutes 28 seconds 129 msec
