                         Program Version 5.0.0 -  RELEASE  -
|  1> !CAM-B3LYP RIJCOSX def2-SVPD def2/J TightSCF xyzfile
|  2>
|  3> *xyzfile 0 1 D1.xyz
|  4>
|  5> %MaxCore 64000
|  6>
|  7> %pal nprocs 4
|  8> end
|  9>
| 10> %scf
| 11>   MaxIter 150
| 12> end
| 13>
| 14>
| 15>                          ****END OF INPUT****

CARTESIAN COORDINATES (ANGSTROEM)
---------------------------------
  C      4.490588    1.155899   -2.469290
  C      4.305394    1.222762   -3.908317
  C      4.906458   -3.102816   -5.954844
  C      3.511771   -2.806215   -6.492283
  H      2.736044   -3.373445   -5.973736
  H      3.444904   -3.040831   -7.555281
  S      3.004618   -1.096206   -6.389259
  C      4.631918    2.246365   -4.670958
  N      4.541686    2.143990   -5.987139
  N      5.084086    3.393584   -4.118545
  H      4.920675    3.570501   -3.135870
  H      5.254652    4.197390   -4.706956
  H      3.824530    0.449113   -4.350926
  H      4.343373    1.249318   -6.416646
  H      4.676712    2.956624   -6.574113
  F      4.128856   -0.329647   -6.953717
  O      1.781285   -1.000779   -7.136399
  C      5.942129    0.939500   -2.036893
  H      3.864305    0.328532   -2.136611
  H      4.076233    2.049994   -1.989010
  C      6.462677   -3.117775   -3.944671
  C      5.024977   -3.025679   -4.437625
  H      4.423321   -3.818693   -3.977648
  H      4.579350   -2.087131   -4.108727
  H      5.201533   -4.100207   -6.296905
  H      5.605922   -2.397822   -6.413368
  C      6.559957   -0.356290   -2.559086
  H      5.967976    0.952567   -0.942444
  H      6.547184    1.788331   -2.368849
  C      6.006283   -1.615917   -1.899301
  H      7.642360   -0.318000   -2.402059
  H      6.414855   -0.403433   -3.642587
  C      6.608718   -2.917014   -2.435655
  H      6.190324   -1.561115   -0.820948
  H      4.919250   -1.651245   -2.016586
  H      7.066975   -2.374258   -4.475514
  H      6.887808   -4.089747   -4.215332
  H      6.135197   -3.755573   -1.915159
  H      7.671142   -2.955503   -2.172291
  O      2.851546   -0.783683   -4.956789

 Total Charge           Charge          ....    0
 Multiplicity           Mult            ....    1
 Number of Electrons    NEL             ....  144
 Basis Dimension        Dim             ....  540

ORBITAL ENERGIES
----------------

  NO   OCC          E(Eh)            E(eV)
   0   2.0000     -89.230701     -2428.0908
   1   2.0000     -24.901004      -677.5908
   2   2.0000     -19.240716      -523.5665
   3   2.0000     -19.226785      -523.1874
   4   2.0000     -14.394152      -391.6848
   5   2.0000     -14.389554      -391.5597
   6   2.0000     -10.328723      -281.0588
   7   2.0000     -10.290798      -280.0269
   8   2.0000     -10.286789      -279.9178
   9   2.0000     -10.258781      -279.1556
  10   2.0000     -10.253848      -279.0214
  11   2.0000     -10.246990      -278.8348
  12   2.0000     -10.237832      -278.5856
  13   2.0000     -10.230865      -278.3960
  14   2.0000     -10.225484      -278.2496
  15   2.0000     -10.218561      -278.0612
  16   2.0000     -10.151614      -276.2395
  17   2.0000      -8.283647      -225.4095
  18   2.0000      -6.257972      -170.2881
  19   2.0000      -6.251393      -170.1091
  20   2.0000      -6.249735      -170.0639
  21   2.0000      -1.459280       -39.7090
  22   2.0000      -1.208505       -32.8851
  23   2.0000      -1.104595       -30.0576
  24   2.0000      -1.023095       -27.8398
  25   2.0000      -0.933063       -25.3899
  26   2.0000      -0.926377       -25.2080
  27   2.0000      -0.886069       -24.1112
  28   2.0000      -0.856858       -23.3163
  29   2.0000      -0.832418       -22.6512
  30   2.0000      -0.806872       -21.9561
  31   2.0000      -0.780271       -21.2323
  32   2.0000      -0.748249       -20.3609
  33   2.0000      -0.717488       -19.5239
  34   2.0000      -0.692555       -18.8454
  35   2.0000      -0.688391       -18.7321
  36   2.0000      -0.674469       -18.3532
  37   2.0000      -0.657166       -17.8824
  38   2.0000      -0.638965       -17.3871
  39   2.0000      -0.634315       -17.2606
  40   2.0000      -0.615106       -16.7379
  41   2.0000      -0.600553       -16.3419
  42   2.0000      -0.576275       -15.6812
  43   2.0000      -0.566526       -15.4160
  44   2.0000      -0.559662       -15.2292
  45   2.0000      -0.547995       -14.9117
  46   2.0000      -0.535814       -14.5802
  47   2.0000      -0.526051       -14.3146
  48   2.0000      -0.523226       -14.2377
  49   2.0000      -0.520421       -14.1614
  50   2.0000      -0.498303       -13.5595
  51   2.0000      -0.489959       -13.3325
  52   2.0000      -0.487788       -13.2734
  53   2.0000      -0.477315       -12.9884
  54   2.0000      -0.462568       -12.5871
  55   2.0000      -0.451636       -12.2896
  56   2.0000      -0.450407       -12.2562
  57   2.0000      -0.438970       -11.9450
  58   2.0000      -0.435629       -11.8541
  59   2.0000      -0.421995       -11.4831
  60   2.0000      -0.418612       -11.3910
  61   2.0000      -0.410761       -11.1774
  62   2.0000      -0.404682       -11.0120
  63   2.0000      -0.389984       -10.6120
  64   2.0000      -0.387909       -10.5556
  65   2.0000      -0.381474       -10.3804
  66   2.0000      -0.373500       -10.1634
  67   2.0000      -0.364463        -9.9175
  68   2.0000      -0.357391        -9.7251
  69   2.0000      -0.341983        -9.3058
  70   2.0000      -0.319335        -8.6895
  71   2.0000      -0.203333        -5.5330
  72   0.0000       0.021648         0.5891
  73   0.0000       0.047875         1.3027
  74   0.0000       0.051833         1.4104
  75   0.0000       0.055727         1.5164
  76   0.0000       0.065122         1.7721

MULLIKEN ATOMIC CHARGES
-----------------------
   0 C :    0.291452
   1 C :    0.357497
   2 C :    0.447086
   3 C :    0.425407
   4 H :   -0.026236
   5 H :   -0.105661
   6 S :    1.438262
   7 C :    0.824509
   8 N :    0.458868
   9 N :    0.131599
  10 H :   -0.078304
  11 H :   -0.308436
  12 H :   -0.895624
  13 H :   -0.379369
  14 H :   -0.246870
  15 F :   -0.429141
  16 O :   -0.675434
  17 C :    0.569591
  18 H :    0.056161
  19 H :   -0.258721
  20 C :    0.182730
  21 C :    0.519227
  22 H :   -0.021899
  23 H :   -0.708055
  24 H :   -0.185089
  25 H :   -0.054932
  26 C :    0.248050
  27 H :   -0.147856
  28 H :   -0.208359
  29 C :    0.072946
  30 H :   -0.201784
  31 H :   -0.159322
  32 C :    0.799511
  33 H :   -0.422635
  34 H :    0.030613
  35 H :    0.056405
  36 H :   -0.430501
  37 H :   -0.117651
  38 H :   -0.072800
  39 O :   -0.775238
Sum of atomic charges:    0.0000000

LOEWDIN ATOMIC CHARGES
----------------------
   0 C :   -0.040335
   1 C :   -0.016050
   2 C :   -0.033283
   3 C :   -0.036324
   4 H :    0.045452
   5 H :    0.026241
   6 S :    1.161342
   7 C :   -0.194527
   8 N :    0.203481
   9 N :    0.204986
  10 H :   -0.015349
  11 H :   -0.016444
  12 H :   -0.147710
  13 H :   -0.082289
  14 H :   -0.004995
  15 F :   -0.258095
  16 O :   -0.441266
  17 C :   -0.029332
  18 H :    0.012460
  19 H :    0.007024
  20 C :   -0.036323
  21 C :   -0.026000
  22 H :    0.043040
  23 H :   -0.013685
  24 H :    0.037351
  25 H :    0.027043
  26 C :   -0.032093
  27 H :    0.015625
  28 H :    0.009739
  29 C :   -0.035308
  30 H :    0.023764
  31 H :    0.005281
  32 C :   -0.030607
  33 H :    0.023793
  34 H :    0.008171
  35 H :    0.017305
  36 H :    0.022440
  37 H :    0.020869
  38 H :    0.022047
  39 O :   -0.447440

  Mayer bond orders larger than 0.100000
B(  0-C ,  1-C ) :   1.1624 B(  0-C , 12-H ) :   0.9092 B(  0-C , 17-C ) :   1.0897
B(  0-C , 18-H ) :   0.6766 B(  0-C , 19-H ) :   0.8302 B(  0-C , 26-C ) :   0.1374
B(  0-C , 27-H ) :   0.2040 B(  0-C , 28-H ) :   0.1278 B(  0-C , 30-H ) :  -0.1197
B(  1-C ,  7-C ) :   1.7318 B(  1-C ,  8-N ) :   0.2947 B(  1-C ,  9-N ) :   0.3090
B(  1-C , 12-H ) :  -0.5790 B(  1-C , 17-C ) :   0.1081 B(  1-C , 18-H ) :   0.4381
B(  1-C , 19-H ) :   0.1790 B(  2-C ,  3-C ) :   1.1611 B(  2-C ,  5-H ) :   0.2689
B(  2-C , 20-C ) :   0.1330 B(  2-C , 21-C ) :   1.0979 B(  2-C , 22-H ) :   0.1103
B(  2-C , 24-H ) :   0.7726 B(  2-C , 25-H ) :   0.8086 B(  3-C ,  4-H ) :   0.8789
B(  3-C ,  5-H ) :   0.7069 B(  3-C ,  6-S ) :   1.0228 B(  3-C , 21-C ) :   0.1244
B(  5-H ,  6-S ) :   0.1005 B(  6-S , 15-F ) :   0.5785 B(  6-S , 16-O ) :   1.4929
B(  6-S , 39-O ) :   1.5223 B(  7-C ,  8-N ) :   0.8672 B(  7-C ,  9-N ) :   0.8364
B(  7-C , 11-H ) :  -0.1695 B(  7-C , 12-H ) :  -0.1929 B(  7-C , 13-H ) :  -0.2483
B(  7-C , 14-H ) :  -0.1481 B(  8-N , 13-H ) :   1.2025 B(  8-N , 14-H ) :   1.2961
B(  9-N , 10-H ) :   1.0849 B(  9-N , 11-H ) :   1.3130 B( 10-H , 11-H ) :  -0.1995
B( 12-H , 18-H ) :  -0.2340 B( 12-H , 39-O ) :   0.2071 B( 13-H , 14-H ) :  -0.2211
B( 13-H , 15-F ) :   0.1480 B( 16-O , 39-O ) :   0.1357 B( 17-C , 18-H ) :   0.1194
B( 17-C , 26-C ) :   1.2591 B( 17-C , 27-H ) :   0.7396 B( 17-C , 28-H ) :   0.6560
B( 17-C , 30-H ) :   0.1124 B( 17-C , 31-H ) :   0.1681 B( 18-H , 19-H ) :  -0.1118
B( 20-C , 21-C ) :   1.1921 B( 20-C , 22-H ) :   0.1193 B( 20-C , 23-H ) :   0.1359
B( 20-C , 29-C ) :   0.1443 B( 20-C , 32-C ) :   1.1178 B( 20-C , 35-H ) :   0.8365
B( 20-C , 36-H ) :   0.8814 B( 20-C , 37-H ) :   0.1084 B( 20-C , 38-H ) :   0.2541
B( 21-C , 22-H ) :   0.6649 B( 21-C , 23-H ) :   0.5577 B( 21-C , 24-H ) :   0.1934
B( 21-C , 25-H ) :   0.1130 B( 21-C , 35-H ) :   0.1091 B( 21-C , 36-H ) :   0.2008
B( 22-H , 23-H ) :   0.2244 B( 23-H , 34-H ) :   0.1239 B( 26-C , 27-H ) :   0.1276
B( 26-C , 28-H ) :   0.2578 B( 26-C , 29-C ) :   1.2016 B( 26-C , 30-H ) :   0.7776
B( 26-C , 31-H ) :   0.8494 B( 26-C , 33-H ) :   0.1412 B( 26-C , 34-H ) :   0.1142
B( 27-H , 28-H ) :  -0.1454 B( 29-C , 30-H ) :   0.1417 B( 29-C , 31-H ) :   0.1229
B( 29-C , 32-C ) :   1.1059 B( 29-C , 33-H ) :   0.9469 B( 29-C , 34-H ) :   0.8411
B( 29-C , 37-H ) :   0.3266 B( 29-C , 38-H ) :   0.1418 B( 32-C , 37-H ) :   0.6143
B( 32-C , 38-H ) :   0.6425 B( 37-H , 38-H ) :  -0.1264

FINAL SINGLE POINT ENERGY     -1189.861520305344

DIPOLE MOMENT
-------------
                                X             Y             Z
Electronic contribution:    -16.28396       4.77055     -21.40557
Nuclear contribution   :     17.24138      -5.45913      20.34076
                        -----------------------------------------
Total Dipole Moment    :      0.95742      -0.68858      -1.06481
                        -----------------------------------------
Magnitude (a.u.)       :      1.58891
Magnitude (Debye)      :      4.03869

Rotational constants in cm-1:     0.014201     0.012275     0.007453
Rotational constants in MHz :   425.728191   368.008875   223.435232

                             ****ORCA TERMINATED NORMALLY****
TOTAL RUN TIME: 0 days 0 hours 8 minutes 6 seconds 682 msec
