                         Program Version 5.0.0 -  RELEASE  -
|  1> !CAM-B3LYP RIJCOSX def2-SVPD def2/J TightSCF xyzfile
|  2>
|  3> *xyzfile 0 1 D3.xyz
|  4>
|  5> %MaxCore 64000
|  6>
|  7> %pal nprocs 4
|  8> end
|  9>
| 10> %scf
| 11>   MaxIter 150
| 12> end
| 13>
| 14>
| 15>                          ****END OF INPUT****

CARTESIAN COORDINATES (ANGSTROEM)
---------------------------------
  C      4.490588    1.155899   -2.469290
  N      4.305394    1.222762   -3.908317
  C      4.906458   -3.102816   -5.954844
  C      3.511771   -2.806215   -6.492283
  H      2.736044   -3.373445   -5.973736
  H      3.444904   -3.040831   -7.555281
  S      3.004618   -1.096206   -6.389259
  C      4.631918    2.246365   -4.670958
  N      4.541686    2.143990   -5.987139
  C      5.084086    3.393584   -4.118545
  H      4.920675    3.570501   -3.135870
  H      5.254652    4.197390   -4.706956
  H      3.824530    0.449113   -4.350926
  H      4.343373    1.249318   -6.416646
  H      4.676712    2.956624   -6.574113
  F      4.128856   -0.329647   -6.953717
  O      1.781285   -1.000779   -7.136399
  C      5.942129    0.939500   -2.036893
  H      3.864305    0.328532   -2.136611
  H      4.076233    2.049994   -1.989010
  C      6.462677   -3.117775   -3.944671
  C      5.024977   -3.025679   -4.437625
  H      4.423321   -3.818693   -3.977648
  H      4.579350   -2.087131   -4.108727
  H      5.201533   -4.100207   -6.296905
  H      5.605922   -2.397822   -6.413368
  C      6.559957   -0.356290   -2.559086
  H      5.967976    0.952567   -0.942444
  H      6.547184    1.788331   -2.368849
  C      6.006283   -1.615917   -1.899301
  H      7.642360   -0.318000   -2.402059
  H      6.414855   -0.403433   -3.642587
  C      6.608718   -2.917014   -2.435655
  H      6.190324   -1.561115   -0.820948
  H      4.919250   -1.651245   -2.016586
  H      7.066975   -2.374258   -4.475514
  H      6.887808   -4.089747   -4.215332
  H      6.135197   -3.755573   -1.915159
  H      7.671142   -2.955503   -2.172291
  O      2.851546   -0.783683   -4.956789

 Total Charge           Charge          ....    0
 Multiplicity           Mult            ....    1
 Number of Electrons    NEL             ....  144
 Basis Dimension        Dim             ....  540

ORBITAL ENERGIES
----------------

  NO   OCC          E(Eh)            E(eV)
   0   2.0000     -89.249147     -2428.5927
   1   2.0000     -24.915602      -677.9880
   2   2.0000     -19.256684      -524.0010
   3   2.0000     -19.252125      -523.8770
   4   2.0000     -14.390468      -391.5845
   5   2.0000     -14.375855      -391.1869
   6   2.0000     -10.342326      -281.4290
   7   2.0000     -10.302387      -280.3422
   8   2.0000     -10.291082      -280.0346
   9   2.0000     -10.272959      -279.5414
  10   2.0000     -10.271179      -279.4930
  11   2.0000     -10.263820      -279.2927
  12   2.0000     -10.256555      -279.0950
  13   2.0000     -10.249198      -278.8948
  14   2.0000     -10.243017      -278.7267
  15   2.0000     -10.236627      -278.5528
  16   2.0000     -10.153706      -276.2964
  17   2.0000      -8.302181      -225.9138
  18   2.0000      -6.276507      -170.7924
  19   2.0000      -6.270053      -170.6168
  20   2.0000      -6.268148      -170.5650
  21   2.0000      -1.474376       -40.1198
  22   2.0000      -1.227089       -33.3908
  23   2.0000      -1.125887       -30.6369
  24   2.0000      -1.029742       -28.0207
  25   2.0000      -0.946903       -25.7665
  26   2.0000      -0.940449       -25.5909
  27   2.0000      -0.896112       -24.3845
  28   2.0000      -0.861747       -23.4493
  29   2.0000      -0.836762       -22.7695
  30   2.0000      -0.807855       -21.9829
  31   2.0000      -0.776193       -21.1213
  32   2.0000      -0.765343       -20.8261
  33   2.0000      -0.734473       -19.9860
  34   2.0000      -0.708962       -19.2918
  35   2.0000      -0.697281       -18.9740
  36   2.0000      -0.689617       -18.7654
  37   2.0000      -0.668539       -18.1919
  38   2.0000      -0.657890       -17.9021
  39   2.0000      -0.634945       -17.2777
  40   2.0000      -0.613641       -16.6980
  41   2.0000      -0.601409       -16.3652
  42   2.0000      -0.593248       -16.1431
  43   2.0000      -0.577514       -15.7150
  44   2.0000      -0.570023       -15.5111
  45   2.0000      -0.557676       -15.1751
  46   2.0000      -0.549253       -14.9459
  47   2.0000      -0.540269       -14.7015
  48   2.0000      -0.529487       -14.4081
  49   2.0000      -0.517877       -14.0922
  50   2.0000      -0.508264       -13.8306
  51   2.0000      -0.504162       -13.7189
  52   2.0000      -0.492606       -13.4045
  53   2.0000      -0.480128       -13.0649
  54   2.0000      -0.465083       -12.6556
  55   2.0000      -0.459433       -12.5018
  56   2.0000      -0.456190       -12.4136
  57   2.0000      -0.447814       -12.1856
  58   2.0000      -0.437803       -11.9132
  59   2.0000      -0.436199       -11.8696
  60   2.0000      -0.428594       -11.6626
  61   2.0000      -0.419691       -11.4204
  62   2.0000      -0.418398       -11.3852
  63   2.0000      -0.411254       -11.1908
  64   2.0000      -0.403825       -10.9886
  65   2.0000      -0.400319       -10.8932
  66   2.0000      -0.395458       -10.7610
  67   2.0000      -0.378745       -10.3062
  68   2.0000      -0.377060       -10.2603
  69   2.0000      -0.368248       -10.0205
  70   2.0000      -0.296955        -8.0806
  71   2.0000      -0.206299        -5.6137
  72   0.0000       0.012064         0.3283
  73   0.0000       0.041352         1.1252
  74   0.0000       0.043719         1.1896
  75   0.0000       0.050351         1.3701
  76   0.0000       0.058379         1.5886

MULLIKEN ATOMIC CHARGES
-----------------------
   0 C :    1.113188
   1 N :    0.514754
   2 C :    0.431995
   3 C :    0.426258
   4 H :   -0.026420
   5 H :   -0.085384
   6 S :    1.382976
   7 C :    0.501143
   8 N :    0.802663
   9 C :    0.608058
  10 H :    0.033242
  11 H :   -0.776122
  12 H :   -1.329385
  13 H :   -0.530771
  14 H :   -0.230057
  15 F :   -0.464841
  16 O :   -0.669576
  17 C :    0.509000
  18 H :   -0.428091
  19 H :   -0.171686
  20 C :    0.167690
  21 C :    0.470946
  22 H :   -0.019420
  23 H :   -0.658643
  24 H :   -0.182907
  25 H :   -0.045467
  26 C :    0.279471
  27 H :   -0.207923
  28 H :   -0.132771
  29 C :   -0.001126
  30 H :   -0.247241
  31 H :   -0.219293
  32 C :    0.809792
  33 H :   -0.423243
  34 H :    0.065788
  35 H :    0.062096
  36 H :   -0.427490
  37 H :   -0.117069
  38 H :   -0.066948
  39 O :   -0.717188
Sum of atomic charges:    0.0000000

LOEWDIN ATOMIC CHARGES
----------------------
   0 C :    0.067562
   1 N :    0.012451
   2 C :   -0.031944
   3 C :   -0.033454
   4 H :    0.046825
   5 H :    0.029104
   6 S :    1.165590
   7 C :   -0.214494
   8 N :    0.213024
   9 C :    0.154659
  10 H :   -0.118148
  11 H :   -0.112481
  12 H :   -0.103188
  13 H :   -0.092528
  14 H :    0.013585
  15 F :   -0.258840
  16 O :   -0.431815
  17 C :   -0.013431
  18 H :    0.016674
  19 H :    0.018147
  20 C :   -0.035059
  21 C :   -0.027601
  22 H :    0.043937
  23 H :   -0.017263
  24 H :    0.039471
  25 H :    0.028099
  26 C :   -0.032831
  27 H :    0.022207
  28 H :    0.011466
  29 C :   -0.038033
  30 H :    0.026443
  31 H :    0.004397
  32 C :   -0.028836
  33 H :    0.025190
  34 H :    0.005667
  35 H :    0.018046
  36 H :    0.024098
  37 H :    0.021940
  38 H :    0.023844
  39 O :   -0.442480

  Mayer bond orders larger than 0.100000
B(  0-C ,  1-N ) :   1.0671 B(  0-C , 10-H ) :   0.1212 B(  0-C , 12-H ) :  -0.5612
B(  0-C , 17-C ) :   1.0713 B(  0-C , 18-H ) :   0.6381 B(  0-C , 19-H ) :   0.8212
B(  0-C , 26-C ) :   0.1546 B(  0-C , 27-H ) :   0.1059 B(  1-N ,  7-C ) :   1.0636
B(  1-N ,  9-C ) :   0.2656 B(  1-N , 11-H ) :   0.1280 B(  1-N , 12-H ) :   0.5443
B(  1-N , 13-H ) :   0.1562 B(  1-N , 14-H ) :  -0.1135 B(  1-N , 18-H ) :   0.3066
B(  2-C ,  3-C ) :   1.1641 B(  2-C ,  5-H ) :   0.2717 B(  2-C , 20-C ) :   0.1361
B(  2-C , 21-C ) :   1.1023 B(  2-C , 22-H ) :   0.1113 B(  2-C , 24-H ) :   0.7822
B(  2-C , 25-H ) :   0.8095 B(  3-C ,  4-H ) :   0.8802 B(  3-C ,  5-H ) :   0.7026
B(  3-C ,  6-S ) :   1.0307 B(  3-C , 21-C ) :   0.1247 B(  3-C , 25-H ) :   0.1016
B(  5-H ,  6-S ) :   0.1090 B(  6-S , 15-F ) :   0.5919 B(  6-S , 16-O ) :   1.5197
B(  6-S , 39-O ) :   1.4244 B(  7-C ,  8-N ) :   0.9950 B(  7-C ,  9-C ) :   1.6290
B(  7-C , 10-H ) :   0.3837 B(  7-C , 11-H ) :   0.3911 B(  7-C , 12-H ) :  -0.7615
B(  7-C , 13-H ) :  -0.1715 B(  7-C , 18-H ) :   0.1390 B(  8-N ,  9-C ) :   0.1875
B(  8-N , 13-H ) :   0.8478 B(  8-N , 14-H ) :   1.2197 B(  9-C , 10-H ) :   0.5237
B(  9-C , 11-H ) :   0.5362 B( 10-H , 13-H ) :   0.1557 B( 10-H , 18-H ) :  -0.1210
B( 10-H , 19-H ) :   0.1251 B( 11-H , 12-H ) :  -0.1151 B( 12-H , 39-O ) :   0.2096
B( 13-H , 14-H ) :  -0.2319 B( 13-H , 15-F ) :   0.1902 B( 16-O , 39-O ) :   0.1315
B( 17-C , 18-H ) :   0.1156 B( 17-C , 19-H ) :   0.1015 B( 17-C , 26-C ) :   1.1659
B( 17-C , 27-H ) :   0.8623 B( 17-C , 28-H ) :   0.7179 B( 17-C , 31-H ) :   0.1293
B( 18-H , 19-H ) :  -0.2470 B( 20-C , 21-C ) :   1.2039 B( 20-C , 22-H ) :   0.1195
B( 20-C , 23-H ) :   0.1313 B( 20-C , 29-C ) :   0.1495 B( 20-C , 32-C ) :   1.1212
B( 20-C , 35-H ) :   0.8385 B( 20-C , 36-H ) :   0.8824 B( 20-C , 37-H ) :   0.1130
B( 20-C , 38-H ) :   0.2520 B( 21-C , 22-H ) :   0.6734 B( 21-C , 23-H ) :   0.6185
B( 21-C , 24-H ) :   0.1931 B( 21-C , 25-H ) :   0.1092 B( 21-C , 35-H ) :   0.1076
B( 21-C , 36-H ) :   0.2002 B( 22-H , 23-H ) :   0.2108 B( 23-H , 34-H ) :   0.1250
B( 26-C , 28-H ) :   0.2485 B( 26-C , 29-C ) :   1.2038 B( 26-C , 30-H ) :   0.8244
B( 26-C , 31-H ) :   0.8723 B( 26-C , 33-H ) :   0.1480 B( 26-C , 34-H ) :   0.1179
B( 27-H , 28-H ) :  -0.1552 B( 29-C , 30-H ) :   0.1608 B( 29-C , 31-H ) :   0.1432
B( 29-C , 32-C ) :   1.1135 B( 29-C , 33-H ) :   0.9594 B( 29-C , 34-H ) :   0.8441
B( 29-C , 37-H ) :   0.3292 B( 29-C , 38-H ) :   0.1418 B( 32-C , 37-H ) :   0.6069
B( 32-C , 38-H ) :   0.6467 B( 37-H , 38-H ) :  -0.1294

FINAL SINGLE POINT ENERGY     -1189.869238425577

DIPOLE MOMENT
-------------
                                X             Y             Z
Electronic contribution:    -16.84265       2.62171     -21.31112
Nuclear contribution   :     17.35766      -5.13497      20.30937
                        -----------------------------------------
Total Dipole Moment    :      0.51501      -2.51326      -1.00175
                        -----------------------------------------
Magnitude (a.u.)       :      2.75413
Magnitude (Debye)      :      7.00043

Rotational constants in cm-1:     0.014431     0.012329     0.007535
Rotational constants in MHz :   432.628327   369.619539   225.898827

                             ****ORCA TERMINATED NORMALLY****
TOTAL RUN TIME: 0 days 0 hours 7 minutes 39 seconds 411 msec
