                         Program Version 5.0.0 -  RELEASE  -
|  1> !CAM-B3LYP RIJCOSX def2-SVPD def2/J TightSCF xyzfile
|  2>
|  3> *xyzfile 0 1 D4.xyz
|  4>
|  5> %MaxCore 64000
|  6>
|  7> %pal nprocs 4
|  8> end
|  9>
| 10> %scf
| 11>   MaxIter 150
| 12> end
| 13>
| 14>
| 15>                          ****END OF INPUT****

CARTESIAN COORDINATES (ANGSTROEM)
---------------------------------
  C      4.490588    1.155899   -2.469290
  C      4.305394    1.222762   -3.908317
  C      4.906458   -3.102816   -5.954844
  C      3.511771   -2.806215   -6.492283
  H      2.736044   -3.373445   -5.973736
  H      3.444904   -3.040831   -7.555281
  S      3.004618   -1.096206   -6.389259
  C      4.631918    2.246365   -4.670958
  N      4.541686    2.143990   -5.987139
  N      5.084086    3.393584   -4.118545
  H      4.920675    3.570501   -3.135870
  H      5.254652    4.197390   -4.706956
  H      3.824530    0.449113   -4.350926
  H      4.343373    1.249318   -6.416646
  H      4.676712    2.956624   -6.574113
  O      4.128856   -0.329647   -6.953717
  F      1.781285   -1.000779   -7.136399
  C      5.942129    0.939500   -2.036893
  H      3.864305    0.328532   -2.136611
  H      4.076233    2.049994   -1.989010
  C      6.462677   -3.117775   -3.944671
  C      5.024977   -3.025679   -4.437625
  H      4.423321   -3.818693   -3.977648
  H      4.579350   -2.087131   -4.108727
  H      5.201533   -4.100207   -6.296905
  H      5.605922   -2.397822   -6.413368
  C      6.559957   -0.356290   -2.559086
  H      5.967976    0.952567   -0.942444
  H      6.547184    1.788331   -2.368849
  C      6.006283   -1.615917   -1.899301
  H      7.642360   -0.318000   -2.402059
  H      6.414855   -0.403433   -3.642587
  C      6.608718   -2.917014   -2.435655
  H      6.190324   -1.561115   -0.820948
  H      4.919250   -1.651245   -2.016586
  H      7.066975   -2.374258   -4.475514
  H      6.887808   -4.089747   -4.215332
  H      6.135197   -3.755573   -1.915159
  H      7.671142   -2.955503   -2.172291
  O      2.851546   -0.783683   -4.956789

 Total Charge           Charge          ....    0
 Multiplicity           Mult            ....    1
 Number of Electrons    NEL             ....  144
 Basis Dimension        Dim             ....  540

ORBITAL ENERGIES
----------------

  NO   OCC          E(Eh)            E(eV)
   0   2.0000     -89.238965     -2428.3157
   1   2.0000     -24.911569      -677.8783
   2   2.0000     -19.241169      -523.5788
   3   2.0000     -19.232204      -523.3349
   4   2.0000     -14.381915      -391.3518
   5   2.0000     -14.361360      -390.7925
   6   2.0000     -10.332796      -281.1697
   7   2.0000     -10.288194      -279.9560
   8   2.0000     -10.272020      -279.5159
   9   2.0000     -10.255221      -279.0588
  10   2.0000     -10.249186      -278.8945
  11   2.0000     -10.242508      -278.7128
  12   2.0000     -10.232451      -278.4392
  13   2.0000     -10.223272      -278.1894
  14   2.0000     -10.217460      -278.0312
  15   2.0000     -10.209858      -277.8244
  16   2.0000     -10.138391      -275.8797
  17   2.0000      -8.291708      -225.6288
  18   2.0000      -6.265899      -170.5038
  19   2.0000      -6.259543      -170.3308
  20   2.0000      -6.257825      -170.2841
  21   2.0000      -1.480660       -40.2908
  22   2.0000      -1.205199       -32.7951
  23   2.0000      -1.100240       -29.9391
  24   2.0000      -1.005153       -27.3516
  25   2.0000      -0.926581       -25.2135
  26   2.0000      -0.912256       -24.8237
  27   2.0000      -0.882878       -24.0243
  28   2.0000      -0.853268       -23.2186
  29   2.0000      -0.833265       -22.6743
  30   2.0000      -0.803233       -21.8571
  31   2.0000      -0.775340       -21.0981
  32   2.0000      -0.741375       -20.1738
  33   2.0000      -0.712410       -19.3857
  34   2.0000      -0.689528       -18.7630
  35   2.0000      -0.686308       -18.6754
  36   2.0000      -0.668602       -18.1936
  37   2.0000      -0.661172       -17.9914
  38   2.0000      -0.643573       -17.5125
  39   2.0000      -0.623809       -16.9747
  40   2.0000      -0.607530       -16.5317
  41   2.0000      -0.591422       -16.0934
  42   2.0000      -0.578840       -15.7510
  43   2.0000      -0.570831       -15.5331
  44   2.0000      -0.551126       -14.9969
  45   2.0000      -0.542280       -14.7562
  46   2.0000      -0.537899       -14.6370
  47   2.0000      -0.524153       -14.2629
  48   2.0000      -0.517538       -14.0829
  49   2.0000      -0.502189       -13.6653
  50   2.0000      -0.494453       -13.4548
  51   2.0000      -0.482229       -13.1221
  52   2.0000      -0.481214       -13.0945
  53   2.0000      -0.476167       -12.9571
  54   2.0000      -0.452149       -12.3036
  55   2.0000      -0.447259       -12.1705
  56   2.0000      -0.442457       -12.0399
  57   2.0000      -0.434105       -11.8126
  58   2.0000      -0.422687       -11.5019
  59   2.0000      -0.417625       -11.3641
  60   2.0000      -0.411933       -11.2093
  61   2.0000      -0.402493       -10.9524
  62   2.0000      -0.396692       -10.7945
  63   2.0000      -0.388203       -10.5636
  64   2.0000      -0.384121       -10.4525
  65   2.0000      -0.380741       -10.3605
  66   2.0000      -0.367475        -9.9995
  67   2.0000      -0.358409        -9.7528
  68   2.0000      -0.349948        -9.5226
  69   2.0000      -0.335040        -9.1169
  70   2.0000      -0.301417        -8.2020
  71   2.0000      -0.188733        -5.1357
  72   0.0000       0.019762         0.5377
  73   0.0000       0.043955         1.1961
  74   0.0000       0.050607         1.3771
  75   0.0000       0.059445         1.6176
  76   0.0000       0.069129         1.8811

MULLIKEN ATOMIC CHARGES
-----------------------
   0 C :    0.280844
   1 C :    0.366370
   2 C :    0.363749
   3 C :    0.392827
   4 H :   -0.026151
   5 H :   -0.067557
   6 S :    1.620949
   7 C :    0.784903
   8 N :    0.422969
   9 N :    0.129318
  10 H :   -0.081780
  11 H :   -0.309606
  12 H :   -0.844735
  13 H :   -0.369241
  14 H :   -0.262100
  15 O :   -0.657679
  16 F :   -0.506710
  17 C :    0.564034
  18 H :    0.050313
  19 H :   -0.261412
  20 C :    0.178303
  21 C :    0.488883
  22 H :   -0.024273
  23 H :   -0.705624
  24 H :   -0.167595
  25 H :   -0.009216
  26 C :    0.256881
  27 H :   -0.150119
  28 H :   -0.206383
  29 C :    0.073072
  30 H :   -0.202515
  31 H :   -0.164678
  32 C :    0.800275
  33 H :   -0.426733
  34 H :    0.030911
  35 H :    0.061517
  36 H :   -0.432662
  37 H :   -0.119520
  38 H :   -0.069888
  39 O :   -0.799943
Sum of atomic charges:    0.0000000

LOEWDIN ATOMIC CHARGES
----------------------
   0 C :   -0.044853
   1 C :   -0.016323
   2 C :   -0.018165
   3 C :   -0.046307
   4 H :    0.032781
   5 H :    0.024247
   6 S :    1.199742
   7 C :   -0.194201
   8 N :    0.206696
   9 N :    0.202171
  10 H :   -0.018540
  11 H :   -0.018466
  12 H :   -0.143659
  13 H :   -0.120778
  14 H :   -0.010823
  15 O :   -0.442843
  16 F :   -0.237122
  17 C :   -0.030495
  18 H :    0.009946
  19 H :    0.004362
  20 C :   -0.034857
  21 C :   -0.023767
  22 H :    0.040907
  23 H :   -0.010818
  24 H :    0.040101
  25 H :    0.032735
  26 C :   -0.031226
  27 H :    0.013950
  28 H :    0.009746
  29 C :   -0.036278
  30 H :    0.023184
  31 H :    0.008033
  32 C :   -0.031340
  33 H :    0.022943
  34 H :    0.007315
  35 H :    0.019661
  36 H :    0.021898
  37 H :    0.019774
  38 H :    0.021809
  39 O :   -0.451141

  Mayer bond orders larger than 0.100000
B(  0-C ,  1-C ) :   1.1621 B(  0-C , 12-H ) :   0.8982 B(  0-C , 17-C ) :   1.0841
B(  0-C , 18-H ) :   0.6702 B(  0-C , 19-H ) :   0.8434 B(  0-C , 26-C ) :   0.1343
B(  0-C , 27-H ) :   0.2041 B(  0-C , 28-H ) :   0.1294 B(  0-C , 30-H ) :  -0.1186
B(  1-C ,  7-C ) :   1.7126 B(  1-C ,  8-N ) :   0.3040 B(  1-C ,  9-N ) :   0.3219
B(  1-C , 12-H ) :  -0.5731 B(  1-C , 17-C ) :   0.1106 B(  1-C , 18-H ) :   0.4313
B(  1-C , 19-H ) :   0.1748 B(  2-C ,  3-C ) :   1.2223 B(  2-C ,  5-H ) :   0.3083
B(  2-C , 20-C ) :   0.1400 B(  2-C , 21-C ) :   1.1125 B(  2-C , 22-H ) :   0.1100
B(  2-C , 24-H ) :   0.7553 B(  2-C , 25-H ) :   0.8296 B(  3-C ,  4-H ) :   0.8844
B(  3-C ,  5-H ) :   0.6324 B(  3-C ,  6-S ) :   0.9974 B(  3-C , 21-C ) :   0.1501
B(  3-C , 25-H ) :   0.1067 B(  6-S , 15-O ) :   1.3579 B(  6-S , 16-F ) :   0.5131
B(  6-S , 39-O ) :   1.4577 B(  7-C ,  8-N ) :   0.8780 B(  7-C ,  9-N ) :   0.8313
B(  7-C , 11-H ) :  -0.1623 B(  7-C , 12-H ) :  -0.1363 B(  7-C , 13-H ) :  -0.2583
B(  7-C , 14-H ) :  -0.1447 B(  8-N , 13-H ) :   1.2130 B(  8-N , 14-H ) :   1.3054
B(  9-N , 10-H ) :   1.0865 B(  9-N , 11-H ) :   1.3126 B( 10-H , 11-H ) :  -0.1992
B( 12-H , 18-H ) :  -0.2130 B( 12-H , 39-O ) :   0.2142 B( 13-H , 14-H ) :  -0.2507
B( 13-H , 15-O ) :   0.1506 B( 17-C , 18-H ) :   0.1200 B( 17-C , 26-C ) :   1.2582
B( 17-C , 27-H ) :   0.7432 B( 17-C , 28-H ) :   0.6553 B( 17-C , 30-H ) :   0.1129
B( 17-C , 31-H ) :   0.1687 B( 18-H , 19-H ) :  -0.1154 B( 20-C , 21-C ) :   1.1991
B( 20-C , 22-H ) :   0.1195 B( 20-C , 23-H ) :   0.1392 B( 20-C , 29-C ) :   0.1454
B( 20-C , 32-C ) :   1.1166 B( 20-C , 35-H ) :   0.8351 B( 20-C , 36-H ) :   0.8779
B( 20-C , 37-H ) :   0.1078 B( 20-C , 38-H ) :   0.2535 B( 21-C , 22-H ) :   0.6633
B( 21-C , 23-H ) :   0.5725 B( 21-C , 24-H ) :   0.1963 B( 21-C , 25-H ) :   0.1064
B( 21-C , 35-H ) :   0.1158 B( 21-C , 36-H ) :   0.2030 B( 22-H , 23-H ) :   0.2308
B( 23-H , 34-H ) :   0.1270 B( 26-C , 27-H ) :   0.1291 B( 26-C , 28-H ) :   0.2584
B( 26-C , 29-C ) :   1.1994 B( 26-C , 30-H ) :   0.7788 B( 26-C , 31-H ) :   0.8443
B( 26-C , 33-H ) :   0.1391 B( 26-C , 34-H ) :   0.1133 B( 27-H , 28-H ) :  -0.1451
B( 29-C , 30-H ) :   0.1429 B( 29-C , 31-H ) :   0.1212 B( 29-C , 32-C ) :   1.1047
B( 29-C , 33-H ) :   0.9493 B( 29-C , 34-H ) :   0.8410 B( 29-C , 37-H ) :   0.3272
B( 29-C , 38-H ) :   0.1426 B( 32-C , 37-H ) :   0.6134 B( 32-C , 38-H ) :   0.6429
B( 37-H , 38-H ) :  -0.1261

FINAL SINGLE POINT ENERGY     -1189.856581583032

DIPOLE MOMENT
-------------
                                X             Y             Z
Electronic contribution:    -20.57713       3.42407     -21.97962
Nuclear contribution   :     19.99734      -4.67125      20.55522
                        -----------------------------------------
Total Dipole Moment    :     -0.57979      -1.24718      -1.42440
                        -----------------------------------------
Magnitude (a.u.)       :      1.98003
Magnitude (Debye)      :      5.03284

Rotational constants in cm-1:     0.014213     0.012058     0.007367
Rotational constants in MHz :   426.102180   361.491761   220.844824

                             ****ORCA TERMINATED NORMALLY****
TOTAL RUN TIME: 0 days 0 hours 8 minutes 17 seconds 353 msec
