                         Program Version 5.0.0 -  RELEASE  -
|  1> !CAM-B3LYP RIJCOSX def2-SVPD def2/J TightSCF xyzfile
|  2>
|  3> *xyzfile 0 1 D8.xyz
|  4>
|  5> %MaxCore 64000
|  6>
|  7> %pal nprocs 4
|  8> end
|  9>
| 10> %scf
| 11>   MaxIter 150
| 12> end
| 13>
| 14>
| 15>                          ****END OF INPUT****

CARTESIAN COORDINATES (ANGSTROEM)
---------------------------------
  C      4.490588    1.155899   -2.469290
  N      4.305394    1.222762   -3.908317
  C      4.906458   -3.102816   -5.954844
  C      3.511771   -2.806215   -6.492283
  H      2.736044   -3.373445   -5.973736
  H      3.444904   -3.040831   -7.555281
  S      3.004618   -1.096206   -6.389259
  C      4.631918    2.246365   -4.670958
  C      4.541686    2.143990   -5.987139
  N      5.084086    3.393584   -4.118545
  H      4.920675    3.570501   -3.135870
  H      5.254652    4.197390   -4.706956
  H      3.824530    0.449113   -4.350926
  H      4.343373    1.249318   -6.416646
  H      4.676712    2.956624   -6.574113
  O      4.128856   -0.329647   -6.953717
  O      1.781285   -1.000779   -7.136399
  C      5.942129    0.939500   -2.036893
  H      3.864305    0.328532   -2.136611
  H      4.076233    2.049994   -1.989010
  C      6.462677   -3.117775   -3.944671
  C      5.024977   -3.025679   -4.437625
  H      4.423321   -3.818693   -3.977648
  H      4.579350   -2.087131   -4.108727
  H      5.201533   -4.100207   -6.296905
  H      5.605922   -2.397822   -6.413368
  C      6.559957   -0.356290   -2.559086
  H      5.967976    0.952567   -0.942444
  H      6.547184    1.788331   -2.368849
  C      6.006283   -1.615917   -1.899301
  H      7.642360   -0.318000   -2.402059
  H      6.414855   -0.403433   -3.642587
  C      6.608718   -2.917014   -2.435655
  H      6.190324   -1.561115   -0.820948
  H      4.919250   -1.651245   -2.016586
  H      7.066975   -2.374258   -4.475514
  H      6.887808   -4.089747   -4.215332
  H      6.135197   -3.755573   -1.915159
  H      7.671142   -2.955503   -2.172291
  F      2.851546   -0.783683   -4.956789

 Total Charge           Charge          ....    0
 Multiplicity           Mult            ....    1
 Number of Electrons    NEL             ....  144
 Basis Dimension        Dim             ....  540

ORBITAL ENERGIES
----------------

  NO   OCC          E(Eh)            E(eV)
   0   2.0000     -89.228507     -2428.0311
   1   2.0000     -24.898682      -677.5276
   2   2.0000     -19.238247      -523.4993
   3   2.0000     -19.224275      -523.1191
   4   2.0000     -14.389606      -391.5611
   5   2.0000     -14.387484      -391.5034
   6   2.0000     -10.328257      -281.0462
   7   2.0000     -10.290482      -280.0183
   8   2.0000     -10.289352      -279.9875
   9   2.0000     -10.285927      -279.8943
  10   2.0000     -10.274957      -279.5958
  11   2.0000     -10.264695      -279.3166
  12   2.0000     -10.260537      -279.2034
  13   2.0000     -10.257122      -279.1105
  14   2.0000     -10.251471      -278.9567
  15   2.0000     -10.251205      -278.9495
  16   2.0000     -10.138884      -275.8931
  17   2.0000      -8.281405      -225.3485
  18   2.0000      -6.255718      -170.2267
  19   2.0000      -6.249093      -170.0465
  20   2.0000      -6.247577      -170.0052
  21   2.0000      -1.456455       -39.6322
  22   2.0000      -1.205984       -32.8165
  23   2.0000      -1.103060       -30.0158
  24   2.0000      -1.030983       -28.0545
  25   2.0000      -0.943404       -25.6713
  26   2.0000      -0.929365       -25.2893
  27   2.0000      -0.896599       -24.3977
  28   2.0000      -0.867448       -23.6045
  29   2.0000      -0.832400       -22.6508
  30   2.0000      -0.810424       -22.0528
  31   2.0000      -0.786715       -21.4076
  32   2.0000      -0.752530       -20.4774
  33   2.0000      -0.728454       -19.8222
  34   2.0000      -0.708147       -19.2697
  35   2.0000      -0.688589       -18.7375
  36   2.0000      -0.675021       -18.3683
  37   2.0000      -0.665578       -18.1113
  38   2.0000      -0.646948       -17.6044
  39   2.0000      -0.637308       -17.3420
  40   2.0000      -0.629975       -17.1425
  41   2.0000      -0.590576       -16.0704
  42   2.0000      -0.577985       -15.7278
  43   2.0000      -0.564282       -15.3549
  44   2.0000      -0.558349       -15.1935
  45   2.0000      -0.555477       -15.1153
  46   2.0000      -0.544185       -14.8080
  47   2.0000      -0.540806       -14.7161
  48   2.0000      -0.533677       -14.5221
  49   2.0000      -0.516631       -14.0582
  50   2.0000      -0.513331       -13.9685
  51   2.0000      -0.503847       -13.7104
  52   2.0000      -0.487132       -13.2555
  53   2.0000      -0.475004       -12.9255
  54   2.0000      -0.463980       -12.6255
  55   2.0000      -0.460628       -12.5343
  56   2.0000      -0.455102       -12.3840
  57   2.0000      -0.446561       -12.1515
  58   2.0000      -0.437900       -11.9159
  59   2.0000      -0.432658       -11.7732
  60   2.0000      -0.431870       -11.7518
  61   2.0000      -0.415482       -11.3058
  62   2.0000      -0.414035       -11.2665
  63   2.0000      -0.407481       -11.0881
  64   2.0000      -0.404171       -10.9980
  65   2.0000      -0.390087       -10.6148
  66   2.0000      -0.386870       -10.5273
  67   2.0000      -0.384747       -10.4695
  68   2.0000      -0.378671       -10.3042
  69   2.0000      -0.361052        -9.8247
  70   2.0000      -0.307089        -8.3563
  71   2.0000      -0.202194        -5.5020
  72   0.0000       0.024574         0.6687
  73   0.0000       0.043398         1.1809
  74   0.0000       0.049052         1.3348
  75   0.0000       0.053294         1.4502
  76   0.0000       0.064088         1.7439

MULLIKEN ATOMIC CHARGES
-----------------------
   0 C :    1.173117
   1 N :    0.494084
   2 C :    0.404149
   3 C :    0.424187
   4 H :   -0.062270
   5 H :   -0.048348
   6 S :    1.446378
   7 C :    0.921045
   8 C :    0.684533
   9 N :    0.366200
  10 H :   -0.099770
  11 H :   -0.251072
  12 H :   -1.213797
  13 H :   -0.534017
  14 H :   -0.740808
  15 O :   -0.688118
  16 O :   -0.685279
  17 C :    0.478433
  18 H :   -0.422011
  19 H :   -0.263118
  20 C :    0.161393
  21 C :    0.432376
  22 H :   -0.018567
  23 H :   -0.698169
  24 H :   -0.158389
  25 H :    0.006638
  26 C :    0.329564
  27 H :   -0.242349
  28 H :   -0.116165
  29 C :    0.015829
  30 H :   -0.241439
  31 H :   -0.217638
  32 C :    0.799207
  33 H :   -0.429622
  34 H :    0.057066
  35 H :    0.061967
  36 H :   -0.422525
  37 H :   -0.116370
  38 H :   -0.062663
  39 F :   -0.523661
Sum of atomic charges:    0.0000000

LOEWDIN ATOMIC CHARGES
----------------------
   0 C :    0.056272
   1 N :    0.008249
   2 C :   -0.030742
   3 C :   -0.038664
   4 H :    0.030540
   5 H :    0.039610
   6 S :    1.158639
   7 C :   -0.213220
   8 C :    0.176611
   9 N :    0.200039
  10 H :   -0.030357
  11 H :    0.001701
  12 H :   -0.057579
  13 H :   -0.193984
  14 H :   -0.093401
  15 O :   -0.445802
  16 O :   -0.438975
  17 C :   -0.019707
  18 H :    0.013771
  19 H :    0.011010
  20 C :   -0.031442
  21 C :   -0.031872
  22 H :    0.041024
  23 H :   -0.015335
  24 H :    0.039192
  25 H :    0.032181
  26 C :   -0.029720
  27 H :    0.020793
  28 H :    0.012761
  29 C :   -0.039824
  30 H :    0.028248
  31 H :    0.010231
  32 C :   -0.028565
  33 H :    0.024937
  34 H :    0.002069
  35 H :    0.021776
  36 H :    0.026594
  37 H :    0.022081
  38 H :    0.024573
  39 F :   -0.263714

  Mayer bond orders larger than 0.100000
B(  0-C ,  1-N ) :   1.0139 B(  0-C , 12-H ) :  -0.5380 B(  0-C , 17-C ) :   1.0914
B(  0-C , 18-H ) :   0.5431 B(  0-C , 19-H ) :   0.8215 B(  0-C , 26-C ) :   0.1628
B(  0-C , 27-H ) :   0.1204 B(  0-C , 28-H ) :   0.1065 B(  1-N ,  7-C ) :   1.2052
B(  1-N ,  8-C ) :   0.1242 B(  1-N ,  9-N ) :   0.3144 B(  1-N , 12-H ) :   0.5611
B(  1-N , 18-H ) :   0.2712 B(  1-N , 39-F ) :  -0.1044 B(  2-C ,  3-C ) :   1.1954
B(  2-C ,  5-H ) :   0.2786 B(  2-C , 20-C ) :   0.1396 B(  2-C , 21-C ) :   1.1390
B(  2-C , 22-H ) :   0.1138 B(  2-C , 24-H ) :   0.7525 B(  2-C , 25-H ) :   0.8497
B(  3-C ,  4-H ) :   0.8975 B(  3-C ,  5-H ) :   0.6717 B(  3-C ,  6-S ) :   0.9772
B(  3-C , 21-C ) :   0.1442 B(  3-C , 25-H ) :   0.1096 B(  6-S , 15-O ) :   1.4606
B(  6-S , 16-O ) :   1.4847 B(  6-S , 39-F ) :   0.5777 B(  7-C ,  8-C ) :   1.3021
B(  7-C ,  9-N ) :   0.8401 B(  7-C , 12-H ) :  -0.7865 B(  7-C , 14-H ) :   0.1798
B(  8-C ,  9-N ) :   0.3034 B(  8-C , 13-H ) :   0.4910 B(  8-C , 14-H ) :   0.6170
B(  9-N , 10-H ) :   0.9798 B(  9-N , 11-H ) :   1.1998 B( 10-H , 11-H ) :  -0.1956
B( 12-H , 18-H ) :   0.1424 B( 12-H , 39-F ) :   0.2244 B( 13-H , 14-H ) :  -0.1826
B( 17-C , 18-H ) :   0.1197 B( 17-C , 19-H ) :   0.1221 B( 17-C , 26-C ) :   1.1970
B( 17-C , 27-H ) :   0.8905 B( 17-C , 28-H ) :   0.6770 B( 17-C , 31-H ) :   0.1278
B( 18-H , 19-H ) :  -0.2099 B( 20-C , 21-C ) :   1.2191 B( 20-C , 22-H ) :   0.1198
B( 20-C , 23-H ) :   0.1480 B( 20-C , 29-C ) :   0.1553 B( 20-C , 32-C ) :   1.1191
B( 20-C , 35-H ) :   0.8392 B( 20-C , 36-H ) :   0.8757 B( 20-C , 37-H ) :   0.1089
B( 20-C , 38-H ) :   0.2527 B( 21-C , 22-H ) :   0.6716 B( 21-C , 23-H ) :   0.5797
B( 21-C , 24-H ) :   0.1998 B( 21-C , 25-H ) :   0.1083 B( 21-C , 35-H ) :   0.1053
B( 21-C , 36-H ) :   0.2006 B( 22-H , 23-H ) :   0.2282 B( 23-H , 34-H ) :   0.1366
B( 26-C , 28-H ) :   0.2424 B( 26-C , 29-C ) :   1.1990 B( 26-C , 30-H ) :   0.8146
B( 26-C , 31-H ) :   0.8621 B( 26-C , 33-H ) :   0.1430 B( 26-C , 34-H ) :   0.1087
B( 27-H , 28-H ) :  -0.1235 B( 29-C , 30-H ) :   0.1604 B( 29-C , 31-H ) :   0.1294
B( 29-C , 32-C ) :   1.1137 B( 29-C , 33-H ) :   0.9596 B( 29-C , 34-H ) :   0.8358
B( 29-C , 37-H ) :   0.3263 B( 29-C , 38-H ) :   0.1411 B( 32-C , 37-H ) :   0.6096
B( 32-C , 38-H ) :   0.6478 B( 37-H , 38-H ) :  -0.1287

FINAL SINGLE POINT ENERGY     -1189.853075449982

DIPOLE MOMENT
-------------
                                X             Y             Z
Electronic contribution:    -18.42134       3.10732     -16.16216
Nuclear contribution   :     18.77618      -4.78855      17.68602
                        -----------------------------------------
Total Dipole Moment    :      0.35484      -1.68123       1.52386
                        -----------------------------------------
Magnitude (a.u.)       :      2.29664
Magnitude (Debye)      :      5.83761

Rotational constants in cm-1:     0.014368     0.012319     0.007509
Rotational constants in MHz :   430.738566   369.302170   225.105103

                             ****ORCA TERMINATED NORMALLY****
TOTAL RUN TIME: 0 days 0 hours 8 minutes 8 seconds 636 msec
