                         Program Version 5.0.0 -  RELEASE  -
|  1> !M062X D3Zero RIJCOSX def2-TZVP def2/J TightSCF
|  2> *xyz -1 1
|  3> C         -0.77455        2.78833       -0.54394
|  4> C          0.69721        3.22791       -0.52513
|  5> O          1.48929        2.37470        0.19919
|  6> H          0.71600        4.26403       -0.13077
|  7> H          1.03615        3.33092       -1.58367
|  8> H         -1.34746        3.48478       -1.11982
|  9> H         -1.15078        2.75876        0.45729
| 10> H         -0.85058        1.81526       -0.98241
| 11> *
| 12>
| 13> %MaxCore 64000
| 14> %pal nprocs 4
| 15> end
| 16>
| 17> %scf
| 18>   MaxIter 150
| 19> end
| 20>
| 21>
| 22>                          ****END OF INPUT****

CARTESIAN COORDINATES (ANGSTROEM)
---------------------------------
  C     -0.774550    2.788330   -0.543940
  C      0.697210    3.227910   -0.525130
  O      1.489290    2.374700    0.199190
  H      0.716000    4.264030   -0.130770
  H      1.036150    3.330920   -1.583670
  H     -1.347460    3.484780   -1.119820
  H     -1.150780    2.758760    0.457290
  H     -0.850580    1.815260   -0.982410

 Total Charge           Charge          ....   -1
 Multiplicity           Mult            ....    1
 Number of Electrons    NEL             ....   26
 Basis Dimension        Dim             ....  123

ORBITAL ENERGIES
----------------

  NO   OCC          E(Eh)            E(eV)
   0   2.0000     -19.266902      -524.2791
   1   2.0000     -10.337661      -281.3021
   2   2.0000     -10.316234      -280.7190
   3   2.0000      -0.777928       -21.1685
   4   2.0000      -0.613146       -16.6846
   5   2.0000      -0.447556       -12.1786
   6   2.0000      -0.311156        -8.4670
   7   2.0000      -0.288185        -7.8419
   8   2.0000      -0.228166        -6.2087
   9   2.0000      -0.211341        -5.7509
  10   2.0000      -0.165177        -4.4947
  11   2.0000      -0.022165        -0.6032
  12   2.0000      -0.020367        -0.5542
  13   0.0000       0.252041         6.8584
  14   0.0000       0.288742         7.8571
  15   0.0000       0.314999         8.5716
  16   0.0000       0.315355         8.5812
  17   0.0000       0.348519         9.4837

MULLIKEN ATOMIC CHARGES
-----------------------
   0 C :   -0.277073
   1 C :    0.002113
   2 O :   -0.809480
   3 H :   -0.027585
   4 H :   -0.029418
   5 H :    0.013610
   6 H :    0.064241
   7 H :    0.063593
Sum of atomic charges:   -1.0000000

LOEWDIN ATOMIC CHARGES
----------------------
   0 C :   -0.368346
   1 C :   -0.555407
   2 O :   -0.450693
   3 H :    0.058244
   4 H :    0.057696
   5 H :    0.077588
   6 H :    0.090631
   7 H :    0.090289

  Mayer bond orders larger than 0.100000
B(  0-C ,  1-C ) :   0.8835 B(  0-C ,  2-O ) :  -0.1756 B(  0-C ,  5-H ) :   0.9467
B(  0-C ,  6-H ) :   0.9749 B(  0-C ,  7-H ) :   0.9747 B(  1-C ,  2-O ) :   1.5216
B(  1-C ,  3-H ) :   0.9408 B(  1-C ,  4-H ) :   0.9420

Dispersion correction           -0.000014828
FINAL SINGLE POINT ENERGY      -154.402040147744

DIPOLE MOMENT
-------------
                                X             Y             Z
Electronic contribution:      2.43014      -1.08031       1.21382
Nuclear contribution   :     -3.69910       1.55962      -1.78699
                        -----------------------------------------
Total Dipole Moment    :     -1.26895       0.47931      -0.57317
                        -----------------------------------------
Magnitude (a.u.)       :      1.47258
Magnitude (Debye)      :      3.74301

Rotational constants in cm-1:     1.268893     0.327436     0.287754
Rotational constants in MHz : 38040.440181  9816.269339  8626.646564

                             ****ORCA TERMINATED NORMALLY****
TOTAL RUN TIME: 0 days 0 hours 0 minutes 12 seconds 29 msec
