                         Program Version 5.0.0 -  RELEASE  -
|  1> !M062X D3Zero RIJCOSX def2-TZVP def2/J TightSCF
|  2> *xyz 1 1
|  3> C          3.95643        0.50147       -0.37910
|  4> H          3.16840        0.02920        0.20738
|  5> N          3.80389        1.96157       -0.15675
|  6> C          3.84232        0.14849       -1.85406
|  7> H          4.92323        0.17798        0.00937
|  8> H          4.20643        2.24441        0.74536
|  9> H          2.80827        2.21132       -0.09610
| 10> H          4.28076        2.50155       -0.89104
| 11> H          4.62951        0.62800       -2.39748
| 12> H          2.89665        0.48102       -2.22825
| 13> H          3.92053       -0.91187       -1.97413
| 14> *
| 15>
| 16> %MaxCore 64000
| 17> %pal nprocs 4
| 18> end
| 19>
| 20> %scf
| 21>   MaxIter 150
| 22> end
| 23>
| 24>
| 25>                          ****END OF INPUT****

CARTESIAN COORDINATES (ANGSTROEM)
---------------------------------
  C      3.956430    0.501470   -0.379100
  H      3.168400    0.029200    0.207380
  N      3.803890    1.961570   -0.156750
  C      3.842320    0.148490   -1.854060
  H      4.923230    0.177980    0.009370
  H      4.206430    2.244410    0.745360
  H      2.808270    2.211320   -0.096100
  H      4.280760    2.501550   -0.891040
  H      4.629510    0.628000   -2.397480
  H      2.896650    0.481020   -2.228250
  H      3.920530   -0.911870   -1.974130

 Total Charge           Charge          ....    1
 Multiplicity           Mult            ....    1
 Number of Electrons    NEL             ....   26
 Basis Dimension        Dim             ....  141

ORBITAL ENERGIES
----------------

  NO   OCC          E(Eh)            E(eV)
   0   2.0000     -15.082004      -410.4022
   1   2.0000     -10.790269      -293.6182
   2   2.0000     -10.709030      -291.4075
   3   2.0000      -1.326694       -36.1012
   4   2.0000      -1.062972       -28.9249
   5   2.0000      -0.931289       -25.3417
   6   2.0000      -0.879341       -23.9281
   7   2.0000      -0.860690       -23.4206
   8   2.0000      -0.767236       -20.8776
   9   2.0000      -0.712374       -19.3847
  10   2.0000      -0.646880       -17.6025
  11   2.0000      -0.631430       -17.1821
  12   2.0000      -0.614687       -16.7265
  13   0.0000      -0.164254        -4.4696
  14   0.0000      -0.105195        -2.8625
  15   0.0000      -0.098840        -2.6896
  16   0.0000      -0.080089        -2.1793
  17   0.0000      -0.041647        -1.1333

MULLIKEN ATOMIC CHARGES
-----------------------
   0 C :   -0.223414
   1 H :    0.204730
   2 N :   -0.331358
   3 C :   -0.413471
   4 H :    0.206345
   5 H :    0.343008
   6 H :    0.344554
   7 H :    0.337564
   8 H :    0.171022
   9 H :    0.166777
  10 H :    0.194242
Sum of atomic charges:    1.0000000

LOEWDIN ATOMIC CHARGES
----------------------
   0 C :   -0.280053
   1 H :    0.152736
   2 N :    0.165828
   3 C :   -0.277784
   4 H :    0.154012
   5 H :    0.224737
   6 H :    0.226615
   7 H :    0.224295
   8 H :    0.130958
   9 H :    0.130892
  10 H :    0.147764

  Mayer bond orders larger than 0.100000
B(  0-C ,  1-H ) :   0.9578 B(  0-C ,  2-N ) :   0.8281 B(  0-C ,  3-C ) :   0.9658
B(  0-C ,  4-H ) :   0.9562 B(  2-N ,  5-H ) :   0.8741 B(  2-N ,  6-H ) :   0.8711
B(  2-N ,  7-H ) :   0.8683 B(  3-C ,  8-H ) :   0.9564 B(  3-C ,  9-H ) :   0.9561
B(  3-C , 10-H ) :   0.9588

Dispersion correction           -0.000053630
FINAL SINGLE POINT ENERGY      -135.507421583537

DIPOLE MOMENT
-------------
                                X             Y             Z
Electronic contribution:     -0.01078       1.33512       1.25571
Nuclear contribution   :     -0.06214      -0.04120      -0.39947
                        -----------------------------------------
Total Dipole Moment    :     -0.07292       1.29392       0.85624
                        -----------------------------------------
Magnitude (a.u.)       :      1.55328
Magnitude (Debye)      :      3.94813

Rotational constants in cm-1:     1.011771     0.281435     0.249812
Rotational constants in MHz : 30332.138762  8437.210602  7489.166323

                             ****ORCA TERMINATED NORMALLY****
TOTAL RUN TIME: 0 days 0 hours 0 minutes 13 seconds 347 msec
