                         Program Version 5.0.0 -  RELEASE  -
|  1> !M062X D3Zero RIJCOSX def2-TZVP def2/J TightSCF xyzfile
|  2>
|  3> *xyzfile 0 1 B.xyz
|  4>
|  5> %MaxCore 64000
|  6>
|  7> %pal nprocs 18
|  8> end
|  9>
| 10> %scf
| 11>   MaxIter 150
| 12> end
| 13>
| 14>
| 15>                          ****END OF INPUT****

CARTESIAN COORDINATES (ANGSTROEM)
---------------------------------
  C      3.956426    0.501466   -0.379100
  H      3.168398    0.029201    0.207383
  N      3.803893    1.961572   -0.156747
  C      3.842322    0.148490   -1.854058
  H      4.923231    0.177982    0.009371
  H      4.620021    0.694502   -2.402150
  H      4.096015   -0.910930   -1.955103
  C      2.475619    0.412708   -2.485377
  H      2.174689    1.445076   -2.287971
  C      1.383931   -0.532740   -1.995203
  H      2.575613    0.318574   -3.571460
  H      1.264698   -0.412309   -0.915491
  H      1.705223   -1.566885   -2.164984
  C      0.031398   -0.317260   -2.677791
  C     -0.587292    1.060853   -2.436460
  H     -0.662815   -1.089530   -2.329985
  H      0.149465   -0.478040   -3.755648
  H      0.104376    1.828590   -2.793130
  C     -0.951213    1.334978   -0.972500
  H     -1.478832    1.161355   -3.062484
  H     -0.317007    0.741648   -0.311389
  H     -1.980916    1.012842   -0.788958
  C     -0.774550    2.788332   -0.543943
  H     -1.352609    3.459372   -1.192585
  H     -1.171014    2.902331    0.469968
  C      0.697208    3.227911   -0.525126
  O      1.489294    2.374703    0.199189
  H      0.715998    4.264030   -0.130774
  H      1.036148    3.330920   -1.583669
  H      4.206425    2.244406    0.745359
  H      2.808269    2.211323   -0.096097
  H      4.280757    2.501552   -0.891037

 Total Charge           Charge          ....    0
 Multiplicity           Mult            ....    1
 Number of Electrons    NEL             ....   90
 Basis Dimension        Dim             ....  467

ORBITAL ENERGIES
----------------

  NO   OCC          E(Eh)            E(eV)
   0   2.0000     -19.492276      -530.4118
   1   2.0000     -14.825700      -403.4278
   2   2.0000     -10.603645      -288.5398
   3   2.0000     -10.557882      -287.2946
   4   2.0000     -10.531917      -286.5880
   5   2.0000     -10.519219      -286.2425
   6   2.0000     -10.516093      -286.1574
   7   2.0000     -10.513434      -286.0851
   8   2.0000     -10.500765      -285.7403
   9   2.0000     -10.487235      -285.3722
  10   2.0000     -10.479844      -285.1711
  11   2.0000      -1.098638       -29.8955
  12   2.0000      -1.006618       -27.3915
  13   2.0000      -0.917223       -24.9589
  14   2.0000      -0.876488       -23.8504
  15   2.0000      -0.836368       -22.7587
  16   2.0000      -0.790243       -21.5036
  17   2.0000      -0.749882       -20.4053
  18   2.0000      -0.707444       -19.2505
  19   2.0000      -0.677981       -18.4488
  20   2.0000      -0.648443       -17.6450
  21   2.0000      -0.642920       -17.4948
  22   2.0000      -0.626778       -17.0555
  23   2.0000      -0.588624       -16.0173
  24   2.0000      -0.561653       -15.2833
  25   2.0000      -0.537526       -14.6268
  26   2.0000      -0.535773       -14.5791
  27   2.0000      -0.505824       -13.7642
  28   2.0000      -0.488851       -13.3023
  29   2.0000      -0.484772       -13.1913
  30   2.0000      -0.466527       -12.6948
  31   2.0000      -0.455491       -12.3945
  32   2.0000      -0.444468       -12.0946
  33   2.0000      -0.427372       -11.6294
  34   2.0000      -0.417783       -11.3685
  35   2.0000      -0.405611       -11.0372
  36   2.0000      -0.399663       -10.8754
  37   2.0000      -0.385629       -10.4935
  38   2.0000      -0.373676       -10.1682
  39   2.0000      -0.369947       -10.0668
  40   2.0000      -0.348263        -9.4767
  41   2.0000      -0.341407        -9.2902
  42   2.0000      -0.337695        -9.1892
  43   2.0000      -0.247809        -6.7432
  44   2.0000      -0.242478        -6.5982
  45   0.0000       0.022138         0.6024
  46   0.0000       0.063284         1.7221
  47   0.0000       0.069719         1.8972
  48   0.0000       0.084340         2.2950
  49   0.0000       0.096150         2.6164

MULLIKEN ATOMIC CHARGES
-----------------------
   0 C :   -0.240349
   1 H :    0.211449
   2 N :   -0.372404
   3 C :   -0.322063
   4 H :    0.160844
   5 H :    0.163095
   6 H :    0.160383
   7 C :   -0.287697
   8 H :    0.144018
   9 C :   -0.277087
  10 H :    0.150656
  11 H :    0.160580
  12 H :    0.134987
  13 C :   -0.287595
  14 C :   -0.316645
  15 H :    0.144656
  16 H :    0.139109
  17 H :    0.149417
  18 C :   -0.223737
  19 H :    0.133546
  20 H :    0.137215
  21 H :    0.123262
  22 C :   -0.227053
  23 H :    0.108893
  24 H :    0.115368
  25 C :   -0.090029
  26 O :   -0.740826
  27 H :    0.076983
  28 H :    0.063920
  29 H :    0.285814
  30 H :    0.344562
  31 H :    0.276731
Sum of atomic charges:    0.0000000

LOEWDIN ATOMIC CHARGES
----------------------
   0 C :   -0.278971
   1 H :    0.148907
   2 N :    0.133475
   3 C :   -0.278694
   4 H :    0.131276
   5 H :    0.137597
   6 H :    0.148590
   7 C :   -0.270819
   8 H :    0.141851
   9 C :   -0.275116
  10 H :    0.140539
  11 H :    0.138868
  12 H :    0.134701
  13 C :   -0.274149
  14 C :   -0.270064
  15 H :    0.138253
  16 H :    0.134105
  17 H :    0.133456
  18 C :   -0.276603
  19 H :    0.133376
  20 H :    0.139794
  21 H :    0.129449
  22 C :   -0.288474
  23 H :    0.127580
  24 H :    0.132485
  25 C :   -0.479415
  26 O :   -0.288908
  27 H :    0.098673
  28 H :    0.084433
  29 H :    0.195385
  30 H :    0.088575
  31 H :    0.189846

  Mayer bond orders larger than 0.100000
B(  0-C ,  1-H ) :   0.9763 B(  0-C ,  2-N ) :   0.8328 B(  0-C ,  3-C ) :   0.9255
B(  0-C ,  4-H ) :   0.9794 B(  2-N , 29-H ) :   0.9086 B(  2-N , 30-H ) :   0.5988
B(  2-N , 31-H ) :   0.8978 B(  3-C ,  5-H ) :   0.9942 B(  3-C ,  6-H ) :   0.9820
B(  3-C ,  7-C ) :   0.9097 B(  7-C ,  8-H ) :   0.9865 B(  7-C ,  9-C ) :   0.8649
B(  7-C , 10-H ) :   0.9781 B(  9-C , 11-H ) :   0.9810 B(  9-C , 12-H ) :   0.9772
B(  9-C , 13-C ) :   0.9360 B( 13-C , 14-C ) :   0.9074 B( 13-C , 15-H ) :   0.9868
B( 13-C , 16-H ) :   0.9947 B( 14-C , 17-H ) :   0.9965 B( 14-C , 18-C ) :   0.8824
B( 14-C , 19-H ) :   0.9785 B( 18-C , 20-H ) :   0.9751 B( 18-C , 21-H ) :   0.9763
B( 18-C , 22-C ) :   0.9390 B( 22-C , 23-H ) :   0.9792 B( 22-C , 24-H ) :   0.9735
B( 22-C , 25-C ) :   0.9297 B( 25-C , 26-O ) :   1.1219 B( 25-C , 27-H ) :   0.9792
B( 25-C , 28-H ) :   0.9716 B( 26-O , 30-H ) :   0.3932

Dispersion correction           -0.001689203
FINAL SINGLE POINT ENERGY      -485.483651856451

DIPOLE MOMENT
-------------
                                X             Y             Z
Electronic contribution:      2.13497       0.90866       2.57368
Nuclear contribution   :      0.61785      -1.47632      -2.91844
                        -----------------------------------------
Total Dipole Moment    :      2.75281      -0.56767      -0.34476
                        -----------------------------------------
Magnitude (a.u.)       :      2.83180
Magnitude (Debye)      :      7.19787

Rotational constants in cm-1:     0.040993     0.027400     0.018162
Rotational constants in MHz :  1228.944366   821.418004   544.476857

                             ****ORCA TERMINATED NORMALLY****
TOTAL RUN TIME: 0 days 0 hours 1 minutes 5 seconds 830 msec
