                         Program Version 5.0.0 -  RELEASE  -
|  1> !M062X D3Zero RIJCOSX def2-TZVP def2/J TightSCF
|  2> *xyz 0 1
|  3> C         -0.77455        2.78833       -0.54394
|  4> C          0.69721        3.22791       -0.52513
|  5> F          1.48929        2.37470        0.19919
|  6> H          0.71600        4.26403       -0.13077
|  7> H          1.03615        3.33092       -1.58367
|  8> H         -1.34746        3.48478       -1.11982
|  9> H         -1.15078        2.75876        0.45729
| 10> H         -0.85058        1.81526       -0.98241
| 11> *
| 12>
| 13> %MaxCore 64000
| 14> %pal nprocs 4
| 15> end
| 16>
| 17> %scf
| 18>   MaxIter 150
| 19> end
| 20>
| 21>
| 22>                          ****END OF INPUT****

CARTESIAN COORDINATES (ANGSTROEM)
---------------------------------
  C     -0.774550    2.788330   -0.543940
  C      0.697210    3.227910   -0.525130
  F      1.489290    2.374700    0.199190
  H      0.716000    4.264030   -0.130770
  H      1.036150    3.330920   -1.583670
  H     -1.347460    3.484780   -1.119820
  H     -1.150780    2.758760    0.457290
  H     -0.850580    1.815260   -0.982410

 Total Charge           Charge          ....    0
 Multiplicity           Mult            ....    1
 Number of Electrons    NEL             ....   26
 Basis Dimension        Dim             ....  123

ORBITAL ENERGIES
----------------

  NO   OCC          E(Eh)            E(eV)
   0   2.0000     -25.230605      -686.5597
   1   2.0000     -10.614735      -288.8416
   2   2.0000     -10.528486      -286.4947
   3   2.0000      -1.340898       -36.4877
   4   2.0000      -0.863221       -23.4894
   5   2.0000      -0.722193       -19.6519
   6   2.0000      -0.589510       -16.0414
   7   2.0000      -0.580579       -15.7984
   8   2.0000      -0.544914       -14.8279
   9   2.0000      -0.482160       -13.1202
  10   2.0000      -0.467923       -12.7328
  11   2.0000      -0.405889       -11.0448
  12   2.0000      -0.399145       -10.8613
  13   0.0000       0.073915         2.0113
  14   0.0000       0.112925         3.0729
  15   0.0000       0.133736         3.6391
  16   0.0000       0.135675         3.6919
  17   0.0000       0.147734         4.0200

MULLIKEN ATOMIC CHARGES
-----------------------
   0 C :   -0.392257
   1 C :    0.002193
   2 F :   -0.237455
   3 H :    0.110750
   4 H :    0.111168
   5 H :    0.128217
   6 H :    0.138781
   7 H :    0.138603
Sum of atomic charges:    0.0000000

LOEWDIN ATOMIC CHARGES
----------------------
   0 C :   -0.311339
   1 C :   -0.367379
   2 F :    0.086292
   3 H :    0.117649
   4 H :    0.118587
   5 H :    0.121371
   6 H :    0.117509
   7 H :    0.117309

  Mayer bond orders larger than 0.100000
B(  0-C ,  1-C ) :   0.9712 B(  0-C ,  5-H ) :   0.9598 B(  0-C ,  6-H ) :   0.9693
B(  0-C ,  7-H ) :   0.9697 B(  1-C ,  2-F ) :   0.9699 B(  1-C ,  3-H ) :   0.9756
B(  1-C ,  4-H ) :   0.9759

Dispersion correction           -0.000018827
FINAL SINGLE POINT ENERGY      -179.051035480716

DIPOLE MOMENT
-------------
                                X             Y             Z
Electronic contribution:      4.41097      -1.64608       1.99498
Nuclear contribution   :     -4.89513       2.05627      -2.36166
                        -----------------------------------------
Total Dipole Moment    :     -0.48416       0.41019      -0.36669
                        -----------------------------------------
Magnitude (a.u.)       :      0.73289
Magnitude (Debye)      :      1.86287

Rotational constants in cm-1:     1.247826     0.304622     0.269019
Rotational constants in MHz : 37408.889506  9132.346906  8064.979146

                             ****ORCA TERMINATED NORMALLY****
TOTAL RUN TIME: 0 days 0 hours 0 minutes 10 seconds 592 msec
