                         Program Version 5.0.0 -  RELEASE  -
|  1> !M062X D3Zero RIJCOSX def2-TZVP def2/J TightSCF
|  2> *xyz 0 1
|  3> C          3.95643        0.50147       -0.37910
|  4> H          3.16840        0.02920        0.20738
|  5> C          3.80389        1.96157       -0.15675
|  6> C          3.84232        0.14849       -1.85406
|  7> H          4.92323        0.17798        0.00937
|  8> H          4.20643        2.24441        0.74536
|  9> H          2.80827        2.21132       -0.09610
| 10> H          4.28076        2.50155       -0.89104
| 11> H          4.62951        0.62800       -2.39748
| 12> H          2.89665        0.48102       -2.22825
| 13> H          3.92053       -0.91187       -1.97413
| 14> *
| 15>
| 16> %MaxCore 64000
| 17> %pal nprocs 4
| 18> end
| 19>
| 20> %scf
| 21>   MaxIter 150
| 22> end
| 23>
| 24>
| 25>                          ****END OF INPUT****

CARTESIAN COORDINATES (ANGSTROEM)
---------------------------------
  C      3.956430    0.501470   -0.379100
  H      3.168400    0.029200    0.207380
  C      3.803890    1.961570   -0.156750
  C      3.842320    0.148490   -1.854060
  H      4.923230    0.177980    0.009370
  H      4.206430    2.244410    0.745360
  H      2.808270    2.211320   -0.096100
  H      4.280760    2.501550   -0.891040
  H      4.629510    0.628000   -2.397480
  H      2.896650    0.481020   -2.228250
  H      3.920530   -0.911870   -1.974130

 Total Charge           Charge          ....    0
 Multiplicity           Mult            ....    1
 Number of Electrons    NEL             ....   26
 Basis Dimension        Dim             ....  141

ORBITAL ENERGIES
----------------

  NO   OCC          E(Eh)            E(eV)
   0   2.0000     -10.518833      -286.2320
   1   2.0000     -10.510290      -285.9995
   2   2.0000     -10.492152      -285.5060
   3   2.0000      -0.891409       -24.2565
   4   2.0000      -0.782547       -21.2942
   5   2.0000      -0.668836       -18.2000
   6   2.0000      -0.540093       -14.6967
   7   2.0000      -0.514443       -13.9987
   8   2.0000      -0.467164       -12.7122
   9   2.0000      -0.456124       -12.4118
  10   2.0000      -0.396330       -10.7847
  11   2.0000      -0.394443       -10.7333
  12   2.0000      -0.385706       -10.4956
  13   0.0000       0.073036         1.9874
  14   0.0000       0.115310         3.1377
  15   0.0000       0.122135         3.3235
  16   0.0000       0.127560         3.4711
  17   0.0000       0.146772         3.9939

MULLIKEN ATOMIC CHARGES
-----------------------
   0 C :   -0.206148
   1 H :    0.113863
   2 C :   -0.389835
   3 C :   -0.404953
   4 H :    0.115969
   5 H :    0.129776
   6 H :    0.130638
   7 H :    0.120298
   8 H :    0.131039
   9 H :    0.129052
  10 H :    0.130300
Sum of atomic charges:    0.0000000

LOEWDIN ATOMIC CHARGES
----------------------
   0 C :   -0.325448
   1 H :    0.133543
   2 C :   -0.306190
   3 C :   -0.308741
   4 H :    0.131447
   5 H :    0.109248
   6 H :    0.110098
   7 H :    0.109106
   8 H :    0.115640
   9 H :    0.116558
  10 H :    0.114740

  Mayer bond orders larger than 0.100000
B(  0-C ,  1-H ) :   0.9803 B(  0-C ,  2-C ) :   0.9288 B(  0-C ,  3-C ) :   0.9489
B(  0-C ,  4-H ) :   0.9821 B(  2-C ,  5-H ) :   0.9849 B(  2-C ,  6-H ) :   0.9794
B(  2-C ,  7-H ) :   0.9800 B(  3-C ,  8-H ) :   0.9760 B(  3-C ,  9-H ) :   0.9742
B(  3-C , 10-H ) :   0.9820

Dispersion correction           -0.000052251
FINAL SINGLE POINT ENERGY      -119.098382828484

DIPOLE MOMENT
-------------
                                X             Y             Z
Electronic contribution:      0.08216      -0.30013       0.23642
Nuclear contribution   :     -0.08172       0.30475      -0.19303
                        -----------------------------------------
Total Dipole Moment    :      0.00044       0.00462       0.04339
                        -----------------------------------------
Magnitude (a.u.)       :      0.04363
Magnitude (Debye)      :      0.11091

Rotational constants in cm-1:     1.020248     0.295755     0.261591
Rotational constants in MHz : 30586.266829  8866.511639  7842.297953

                             ****ORCA TERMINATED NORMALLY****
TOTAL RUN TIME: 0 days 0 hours 0 minutes 13 seconds 59 msec
