                         Program Version 5.0.0 -  RELEASE  -
|  1> !wB97X-D3 RIJCOSX def2-SVPD def2/J TightSCF
|  2> *xyz -1 1
|  3> C          0.96805        1.63064       -3.71575
|  4> C         -0.50835        1.72268       -4.12430
|  5> S         -1.32861        0.14674       -4.43578
|  6> H         -0.59151        2.29496       -5.04722
|  7> H         -1.11411        2.23561       -3.37436
|  8> O         -2.57135        0.47573       -5.06834
|  9> O         -1.51496       -0.40051       -3.06342
| 10> O         -0.37793       -0.62756       -5.20114
| 11> H          1.51840        1.12197       -4.47946
| 12> H          1.05062        1.08971       -2.79625
| 13> H          1.36450        2.61606       -3.58668
| 14> *
| 15> %MaxCore 64000
| 16>
| 17> %pal nprocs 18
| 18> end
| 19>
| 20> %scf
| 21>   MaxIter 150
| 22> end
| 23>
| 24>
| 25>                          ****END OF INPUT****

CARTESIAN COORDINATES (ANGSTROEM)
---------------------------------
  C      0.968050    1.630640   -3.715750
  C     -0.508350    1.722680   -4.124300
  S     -1.328610    0.146740   -4.435780
  H     -0.591510    2.294960   -5.047220
  H     -1.114110    2.235610   -3.374360
  O     -2.571350    0.475730   -5.068340
  O     -1.514960   -0.400510   -3.063420
  O     -0.377930   -0.627560   -5.201140
  H      1.518400    1.121970   -4.479460
  H      1.050620    1.089710   -2.796250
  H      1.364500    2.616060   -3.586680

 Total Charge           Charge          ....   -1
 Multiplicity           Mult            ....    1
 Number of Electrons    NEL             ....   58
 Basis Dimension        Dim             ....  176

ORBITAL ENERGIES
----------------

  NO   OCC          E(Eh)            E(eV)
   0   2.0000     -88.976614     -2421.1768
   1   2.0000     -19.031154      -517.8640
   2   2.0000     -19.027560      -517.7662
   3   2.0000     -19.011638      -517.3330
   4   2.0000     -10.151549      -276.2377
   5   2.0000     -10.146939      -276.1122
   6   2.0000      -8.050312      -219.0601
   7   2.0000      -6.009862      -163.5367
   8   2.0000      -6.009706      -163.5324
   9   2.0000      -6.009393      -163.5239
  10   2.0000      -1.051176       -28.6039
  11   2.0000      -0.912792       -24.8383
  12   2.0000      -0.881205       -23.9788
  13   2.0000      -0.742175       -20.1956
  14   2.0000      -0.615497       -16.7485
  15   2.0000      -0.487496       -13.2654
  16   2.0000      -0.423563       -11.5257
  17   2.0000      -0.419445       -11.4137
  18   2.0000      -0.381279       -10.3751
  19   2.0000      -0.368955       -10.0398
  20   2.0000      -0.358995        -9.7688
  21   2.0000      -0.327183        -8.9031
  22   2.0000      -0.310713        -8.4549
  23   2.0000      -0.253399        -6.8953
  24   2.0000      -0.252421        -6.8687
  25   2.0000      -0.217441        -5.9169
  26   2.0000      -0.204399        -5.5620
  27   2.0000      -0.191985        -5.2242
  28   2.0000      -0.161459        -4.3935
  29   0.0000       0.208924         5.6851
  30   0.0000       0.229475         6.2443
  31   0.0000       0.232554         6.3281
  32   0.0000       0.237868         6.4727
  33   0.0000       0.260611         7.0916

MULLIKEN ATOMIC CHARGES
-----------------------
   0 C :    0.679532
   1 C :   -0.353485
   2 S :    1.352399
   3 H :   -0.038516
   4 H :   -0.038457
   5 O :   -0.783709
   6 O :   -0.849416
   7 O :   -0.806527
   8 H :   -0.039082
   9 H :   -0.043589
  10 H :   -0.079150
Sum of atomic charges:   -1.0000000

LOEWDIN ATOMIC CHARGES
----------------------
   0 C :    0.102094
   1 C :   -0.135149
   2 S :    0.861358
   3 H :   -0.002239
   4 H :    0.004666
   5 O :   -0.573693
   6 O :   -0.607222
   7 O :   -0.577080
   8 H :   -0.023541
   9 H :   -0.015958
  10 H :   -0.033237

  Mayer bond orders larger than 0.100000
B(  0-C ,  1-C ) :   1.2502 B(  0-C ,  8-H ) :   0.8403 B(  0-C ,  9-H ) :   0.8372
B(  0-C , 10-H ) :   0.7721 B(  1-C ,  2-S ) :   0.9305 B(  1-C ,  3-H ) :   1.0002
B(  1-C ,  4-H ) :   0.9914 B(  1-C ,  8-H ) :   0.1854 B(  1-C ,  9-H ) :   0.1768
B(  1-C , 10-H ) :   0.1896 B(  2-S ,  5-O ) :   1.3643 B(  2-S ,  6-O ) :   1.2806
B(  2-S ,  7-O ) :   1.3180

Dispersion correction           -0.002915926
FINAL SINGLE POINT ENERGY      -702.692387368719

DIPOLE MOMENT
-------------
                                X             Y             Z
Electronic contribution:     -5.53474      -5.21728      -1.92544
Nuclear contribution   :      6.64523       6.80157       2.07300
                        -----------------------------------------
Total Dipole Moment    :      1.11048       1.58429       0.14756
                        -----------------------------------------
Magnitude (a.u.)       :      1.94034
Magnitude (Debye)      :      4.93196

Rotational constants in cm-1:     0.163070     0.082807     0.081541
Rotational constants in MHz :  4888.719902  2482.497026  2444.541148

                             ****ORCA TERMINATED NORMALLY****
TOTAL RUN TIME: 0 days 0 hours 0 minutes 10 seconds 5 msec
