                         Program Version 5.0.0 -  RELEASE  -
|  1> !wB97X-D3 RIJCOSX def2-SVPD def2/J TightSCF
|  2> *xyz 1 1
|  3> C          1.36401        0.46874       -2.81376
|  4> N          0.42884        0.32140       -1.65531
|  5> C          0.96805        1.63064       -3.71575
|  6> H          0.74858       -0.40054       -1.00134
|  7> H         -0.46105        0.02333       -2.07773
|  8> H          0.31026        1.20137       -1.13495
|  9> H          1.29485       -0.46874       -3.36468
| 10> H          2.37622        0.59740       -2.43149
| 11> H          1.65923        1.70213       -4.52942
| 12> H          0.98421        2.54058       -3.15304
| 13> H         -0.01744        1.46536       -4.09838
| 14> *
| 15> %MaxCore 64000
| 16>
| 17> %pal nprocs 18
| 18> end
| 19>
| 20> %scf
| 21>   MaxIter 150
| 22> end
| 23>
| 24>
| 25>                          ****END OF INPUT****

CARTESIAN COORDINATES (ANGSTROEM)
---------------------------------
  C      1.364010    0.468740   -2.813760
  N      0.428840    0.321400   -1.655310
  C      0.968050    1.630640   -3.715750
  H      0.748580   -0.400540   -1.001340
  H     -0.461050    0.023330   -2.077730
  H      0.310260    1.201370   -1.134950
  H      1.294850   -0.468740   -3.364680
  H      2.376220    0.597400   -2.431490
  H      1.659230    1.702130   -4.529420
  H      0.984210    2.540580   -3.153040
  H     -0.017440    1.465360   -4.098380

 Total Charge           Charge          ....    1
 Multiplicity           Mult            ....    1
 Number of Electrons    NEL             ....   26
 Basis Dimension        Dim             ....  124

ORBITAL ENERGIES
----------------

  NO   OCC          E(Eh)            E(eV)
   0   2.0000     -14.775118      -402.0514
   1   2.0000     -10.545625      -286.9610
   2   2.0000     -10.466206      -284.7999
   3   2.0000      -1.325183       -36.0601
   4   2.0000      -1.075984       -29.2790
   5   2.0000      -0.950526       -25.8651
   6   2.0000      -0.909341       -24.7444
   7   2.0000      -0.892452       -24.2849
   8   2.0000      -0.795203       -21.6386
   9   2.0000      -0.745406       -20.2835
  10   2.0000      -0.681997       -18.5581
  11   2.0000      -0.664589       -18.0844
  12   2.0000      -0.648812       -17.6551
  13   0.0000      -0.112939        -3.0732
  14   0.0000      -0.052481        -1.4281
  15   0.0000      -0.049681        -1.3519
  16   0.0000      -0.043015        -1.1705
  17   0.0000      -0.013289        -0.3616

MULLIKEN ATOMIC CHARGES
-----------------------
   0 C :    0.122493
   1 N :   -0.840072
   2 C :    0.480790
   3 H :    0.365134
   4 H :    0.453337
   5 H :    0.416597
   6 H :   -0.021208
   7 H :   -0.062267
   8 H :    0.042336
   9 H :    0.014737
  10 H :    0.028122
Sum of atomic charges:    1.0000000

LOEWDIN ATOMIC CHARGES
----------------------
   0 C :    0.052795
   1 N :    0.327258
   2 C :    0.167436
   3 H :    0.107715
   4 H :    0.107604
   5 H :    0.110759
   6 H :    0.053241
   7 H :    0.052559
   8 H :    0.017507
   9 H :    0.001544
  10 H :    0.001580

  Mayer bond orders larger than 0.100000
B(  0-C ,  1-N ) :   0.7605 B(  0-C ,  2-C ) :   1.2890 B(  0-C ,  6-H ) :   0.9396
B(  0-C ,  7-H ) :   0.9940 B(  0-C ,  8-H ) :   0.1685 B(  0-C ,  9-H ) :   0.1259
B(  0-C , 10-H ) :   0.1307 B(  1-N ,  3-H ) :   0.7752 B(  1-N ,  4-H ) :   0.6681
B(  1-N ,  5-H ) :   0.7155 B(  1-N ,  6-H ) :   0.1108 B(  2-C ,  8-H ) :   0.8370
B(  2-C ,  9-H ) :   0.8628 B(  2-C , 10-H ) :   0.8532

Dispersion correction           -0.001498295
FINAL SINGLE POINT ENERGY      -135.408972191652

DIPOLE MOMENT
-------------
                                X             Y             Z
Electronic contribution:     -0.35045      -0.95048       1.57944
Nuclear contribution   :     -0.20470       0.31427      -0.31587
                        -----------------------------------------
Total Dipole Moment    :     -0.55515      -0.63622       1.26357
                        -----------------------------------------
Magnitude (a.u.)       :      1.51973
Magnitude (Debye)      :      3.86284

Rotational constants in cm-1:     1.011480     0.279280     0.248378
Rotational constants in MHz : 30323.408050  8372.602834  7446.185305

                             ****ORCA TERMINATED NORMALLY****
TOTAL RUN TIME: 0 days 0 hours 0 minutes 5 seconds 258 msec
