                         Program Version 5.0.0 -  RELEASE  -
|  1> !wB97X-D3 RIJCOSX def2-SVPD def2/J TightSCF
|  2> *xyz 0 1
|  3> C          0.96805        1.63064       -3.71575
|  4> C         -0.50835        1.72268       -4.12430
|  5> S         -1.32861        0.14674       -4.43578
|  6> H         -0.59151        2.29496       -5.04722
|  7> H         -1.11411        2.23561       -3.37436
|  8> F         -2.57135        0.47573       -5.06834
|  9> O         -1.51496       -0.40051       -3.06342
| 10> O         -0.37793       -0.62756       -5.20114
| 11> H          1.51840        1.12197       -4.47946
| 12> H          1.05062        1.08971       -2.79625
| 13> H          1.36450        2.61606       -3.58668
| 14> *
| 15> %MaxCore 64000
| 16>
| 17> %pal nprocs 18
| 18> end
| 19>
| 20> %scf
| 21>   MaxIter 150
| 22> end
| 23>
| 24>
| 25>                          ****END OF INPUT****

CARTESIAN COORDINATES (ANGSTROEM)
---------------------------------
  C      0.968050    1.630640   -3.715750
  C     -0.508350    1.722680   -4.124300
  S     -1.328610    0.146740   -4.435780
  H     -0.591510    2.294960   -5.047220
  H     -1.114110    2.235610   -3.374360
  F     -2.571350    0.475730   -5.068340
  O     -1.514960   -0.400510   -3.063420
  O     -0.377930   -0.627560   -5.201140
  H      1.518400    1.121970   -4.479460
  H      1.050620    1.089710   -2.796250
  H      1.364500    2.616060   -3.586680

 Total Charge           Charge          ....    0
 Multiplicity           Mult            ....    1
 Number of Electrons    NEL             ....   58
 Basis Dimension        Dim             ....  176

ORBITAL ENERGIES
----------------

  NO   OCC          E(Eh)            E(eV)
   0   2.0000     -89.237880     -2428.2862
   1   2.0000     -24.930160      -678.3841
   2   2.0000     -19.262392      -524.1563
   3   2.0000     -19.246225      -523.7164
   4   2.0000     -10.354417      -281.7580
   5   2.0000     -10.309991      -280.5491
   6   2.0000      -8.312432      -226.1928
   7   2.0000      -6.276180      -170.7835
   8   2.0000      -6.269564      -170.6035
   9   2.0000      -6.268329      -170.5699
  10   2.0000      -1.506399       -40.9912
  11   2.0000      -1.225066       -33.3357
  12   2.0000      -1.116941       -30.3935
  13   2.0000      -0.934075       -25.4175
  14   2.0000      -0.854084       -23.2408
  15   2.0000      -0.789655       -21.4876
  16   2.0000      -0.705554       -19.1991
  17   2.0000      -0.702563       -19.1177
  18   2.0000      -0.664652       -18.0861
  19   2.0000      -0.597512       -16.2591
  20   2.0000      -0.589699       -16.0465
  21   2.0000      -0.546342       -14.8667
  22   2.0000      -0.532143       -14.4804
  23   2.0000      -0.507629       -13.8133
  24   2.0000      -0.486394       -13.2355
  25   2.0000      -0.485151       -13.2016
  26   2.0000      -0.433074       -11.7845
  27   2.0000      -0.415340       -11.3020
  28   2.0000      -0.403065       -10.9679
  29   0.0000       0.062960         1.7132
  30   0.0000       0.088694         2.4135
  31   0.0000       0.096052         2.6137
  32   0.0000       0.098087         2.6691
  33   0.0000       0.119357         3.2479

MULLIKEN ATOMIC CHARGES
-----------------------
   0 C :    0.632407
   1 C :   -0.421249
   2 S :    1.542446
   3 H :    0.034669
   4 H :    0.032724
   5 F :   -0.400962
   6 O :   -0.708209
   7 O :   -0.666659
   8 H :   -0.005590
   9 H :   -0.013775
  10 H :   -0.025802
Sum of atomic charges:    0.0000000

LOEWDIN ATOMIC CHARGES
----------------------
   0 C :    0.145862
   1 C :   -0.098452
   2 S :    1.131870
   3 H :    0.015216
   4 H :    0.023344
   5 F :   -0.250810
   6 O :   -0.492659
   7 O :   -0.467018
   8 H :   -0.005930
   9 H :    0.001348
  10 H :   -0.002771

  Mayer bond orders larger than 0.100000
B(  0-C ,  1-C ) :   1.3139 B(  0-C ,  8-H ) :   0.8423 B(  0-C ,  9-H ) :   0.8436
B(  0-C , 10-H ) :   0.7913 B(  1-C ,  2-S ) :   0.9705 B(  1-C ,  3-H ) :   0.9747
B(  1-C ,  4-H ) :   0.9808 B(  1-C ,  8-H ) :   0.1761 B(  1-C ,  9-H ) :   0.1681
B(  1-C , 10-H ) :   0.1762 B(  2-S ,  5-F ) :   0.6924 B(  2-S ,  6-O ) :   1.4866
B(  2-S ,  7-O ) :   1.5299

Dispersion correction           -0.002913711
FINAL SINGLE POINT ENERGY      -727.169836203586

DIPOLE MOMENT
-------------
                                X             Y             Z
Electronic contribution:     -8.30048      -5.08095      -3.23805
Nuclear contribution   :      8.31000       6.74109       2.87442
                        -----------------------------------------
Total Dipole Moment    :      0.00952       1.66014      -0.36363
                        -----------------------------------------
Magnitude (a.u.)       :      1.69953
Magnitude (Debye)      :      4.31985

Rotational constants in cm-1:     0.158705     0.080192     0.078179
Rotational constants in MHz :  4757.865601  2404.095079  2343.752507

                             ****ORCA TERMINATED NORMALLY****
TOTAL RUN TIME: 0 days 0 hours 0 minutes 10 seconds 209 msec
