                         Program Version 5.0.0 -  RELEASE  -
|  1> !wB97X-D3 RIJCOSX def2-SVPD def2/J TightSCF
|  2> *xyz 0 1
|  3> C          1.36401        0.46874       -2.81376
|  4> C          0.42884        0.32140       -1.65531
|  5> C          0.96805        1.63064       -3.71575
|  6> H          0.74858       -0.40054       -1.00134
|  7> H         -0.46105        0.02333       -2.07773
|  8> H          0.31026        1.20137       -1.13495
|  9> H          1.29485       -0.46874       -3.36468
| 10> H          2.37622        0.59740       -2.43149
| 11> H          1.65923        1.70213       -4.52942
| 12> H          0.98421        2.54058       -3.15304
| 13> H         -0.01744        1.46536       -4.09838
| 14> *
| 15> %MaxCore 64000
| 16>
| 17> %pal nprocs 18
| 18> end
| 19>
| 20> %scf
| 21>   MaxIter 150
| 22> end
| 23>
| 24>
| 25>                          ****END OF INPUT****

CARTESIAN COORDINATES (ANGSTROEM)
---------------------------------
  C      1.364010    0.468740   -2.813760
  C      0.428840    0.321400   -1.655310
  C      0.968050    1.630640   -3.715750
  H      0.748580   -0.400540   -1.001340
  H     -0.461050    0.023330   -2.077730
  H      0.310260    1.201370   -1.134950
  H      1.294850   -0.468740   -3.364680
  H      2.376220    0.597400   -2.431490
  H      1.659230    1.702130   -4.529420
  H      0.984210    2.540580   -3.153040
  H     -0.017440    1.465360   -4.098380

 Total Charge           Charge          ....    0
 Multiplicity           Mult            ....    1
 Number of Electrons    NEL             ....   26
 Basis Dimension        Dim             ....  124

ORBITAL ENERGIES
----------------

  NO   OCC          E(Eh)            E(eV)
   0   2.0000     -10.276417      -279.6355
   1   2.0000     -10.267952      -279.4052
   2   2.0000     -10.250648      -278.9343
   3   2.0000      -0.902398       -24.5555
   4   2.0000      -0.797477       -21.7005
   5   2.0000      -0.688492       -18.7348
   6   2.0000      -0.573596       -15.6083
   7   2.0000      -0.546097       -14.8600
   8   2.0000      -0.500662       -13.6237
   9   2.0000      -0.487833       -13.2746
  10   2.0000      -0.431329       -11.7371
  11   2.0000      -0.426450       -11.6043
  12   2.0000      -0.422225       -11.4893
  13   0.0000       0.097837         2.6623
  14   0.0000       0.124256         3.3812
  15   0.0000       0.132249         3.5987
  16   0.0000       0.162022         4.4088
  17   0.0000       0.179967         4.8971

MULLIKEN ATOMIC CHARGES
-----------------------
   0 C :   -0.646430
   1 C :    0.861838
   2 C :    0.560652
   3 H :   -0.186498
   4 H :   -0.114390
   5 H :   -0.175184
   6 H :   -0.051320
   7 H :   -0.122761
   8 H :   -0.067226
   9 H :   -0.024470
  10 H :   -0.034209
Sum of atomic charges:   -0.0000000

LOEWDIN ATOMIC CHARGES
----------------------
   0 C :   -0.122807
   1 C :    0.112471
   2 C :    0.111474
   3 H :   -0.033154
   4 H :   -0.028947
   5 H :   -0.028369
   6 H :    0.021308
   7 H :    0.019035
   8 H :   -0.020186
   9 H :   -0.015773
  10 H :   -0.015051

  Mayer bond orders larger than 0.100000
B(  0-C ,  1-C ) :   1.2444 B(  0-C ,  2-C ) :   1.2326 B(  0-C ,  3-H ) :   0.1825
B(  0-C ,  4-H ) :   0.2491 B(  0-C ,  5-H ) :   0.1845 B(  0-C ,  6-H ) :   0.9485
B(  0-C ,  7-H ) :   1.0065 B(  0-C ,  8-H ) :   0.1647 B(  0-C ,  9-H ) :   0.1520
B(  0-C , 10-H ) :   0.1749 B(  1-C ,  3-H ) :   0.7783 B(  1-C ,  4-H ) :   0.7436
B(  1-C ,  5-H ) :   0.7842 B(  1-C ,  6-H ) :   0.1050 B(  2-C ,  8-H ) :   0.8578
B(  2-C ,  9-H ) :   0.8518 B(  2-C , 10-H ) :   0.8482

Dispersion correction           -0.001445409
FINAL SINGLE POINT ENERGY      -119.013558477000

DIPOLE MOMENT
-------------
                                X             Y             Z
Electronic contribution:      0.36485      -0.18360      -0.01637
Nuclear contribution   :     -0.35842       0.15752       0.02695
                        -----------------------------------------
Total Dipole Moment    :      0.00643      -0.02608       0.01058
                        -----------------------------------------
Magnitude (a.u.)       :      0.02887
Magnitude (Debye)      :      0.07338

Rotational constants in cm-1:     1.019891     0.293671     0.260247
Rotational constants in MHz : 30575.551403  8804.039097  7802.009261

                             ****ORCA TERMINATED NORMALLY****
TOTAL RUN TIME: 0 days 0 hours 0 minutes 5 seconds 852 msec
