                         Program Version 5.0.0 -  RELEASE  -
|  1> !wB97X-D3 RIJCOSX def2-SVPD def2/J TightSCF
|  2> *xyz 0 1
|  3> C          0.96805        1.63064       -3.71575
|  4> C         -0.50835        1.72268       -4.12430
|  5> S         -1.32861        0.14674       -4.43578
|  6> H         -0.59151        2.29496       -5.04722
|  7> H         -1.11411        2.23561       -3.37436
|  8> O         -2.57135        0.47573       -5.06834
|  9> F         -1.51496       -0.40051       -3.06342
| 10> O         -0.37793       -0.62756       -5.20114
| 11> H          1.51840        1.12197       -4.47946
| 12> H          1.05062        1.08971       -2.79625
| 13> H          1.36450        2.61606       -3.58668
| 14> *
| 15> %MaxCore 64000
| 16>
| 17> %pal nprocs 18
| 18> end
| 19>
| 20> %scf
| 21>   MaxIter 150
| 22> end
| 23>
| 24>
| 25>                          ****END OF INPUT****

CARTESIAN COORDINATES (ANGSTROEM)
---------------------------------
  C      0.968050    1.630640   -3.715750
  C     -0.508350    1.722680   -4.124300
  S     -1.328610    0.146740   -4.435780
  H     -0.591510    2.294960   -5.047220
  H     -1.114110    2.235610   -3.374360
  O     -2.571350    0.475730   -5.068340
  F     -1.514960   -0.400510   -3.063420
  O     -0.377930   -0.627560   -5.201140
  H      1.518400    1.121970   -4.479460
  H      1.050620    1.089710   -2.796250
  H      1.364500    2.616060   -3.586680

 Total Charge           Charge          ....    0
 Multiplicity           Mult            ....    1
 Number of Electrons    NEL             ....   58
 Basis Dimension        Dim             ....  176

ORBITAL ENERGIES
----------------

  NO   OCC          E(Eh)            E(eV)
   0   2.0000     -89.235118     -2428.2110
   1   2.0000     -24.901280      -677.5983
   2   2.0000     -19.265639      -524.2447
   3   2.0000     -19.261979      -524.1451
   4   2.0000     -10.353279      -281.7270
   5   2.0000     -10.311650      -280.5942
   6   2.0000      -8.309530      -226.1138
   7   2.0000      -6.273071      -170.6989
   8   2.0000      -6.266955      -170.5325
   9   2.0000      -6.265650      -170.4970
  10   2.0000      -1.458329       -39.6831
  11   2.0000      -1.240087       -33.7445
  12   2.0000      -1.143866       -31.1262
  13   2.0000      -0.935621       -25.4595
  14   2.0000      -0.833769       -22.6880
  15   2.0000      -0.782143       -21.2832
  16   2.0000      -0.687961       -18.7204
  17   2.0000      -0.671565       -18.2742
  18   2.0000      -0.656357       -17.8604
  19   2.0000      -0.599573       -16.3152
  20   2.0000      -0.582862       -15.8605
  21   2.0000      -0.563323       -15.3288
  22   2.0000      -0.537400       -14.6234
  23   2.0000      -0.507763       -13.8169
  24   2.0000      -0.503035       -13.6883
  25   2.0000      -0.482007       -13.1161
  26   2.0000      -0.443729       -12.0745
  27   2.0000      -0.428767       -11.6673
  28   2.0000      -0.422875       -11.5070
  29   0.0000       0.064525         1.7558
  30   0.0000       0.092081         2.5057
  31   0.0000       0.096773         2.6333
  32   0.0000       0.098498         2.6803
  33   0.0000       0.122132         3.3234

MULLIKEN ATOMIC CHARGES
-----------------------
   0 C :    0.665644
   1 C :   -0.415566
   2 S :    1.524111
   3 H :    0.035048
   4 H :    0.021609
   5 O :   -0.656589
   6 F :   -0.426161
   7 O :   -0.681855
   8 H :   -0.002287
   9 H :   -0.036273
  10 H :   -0.027682
Sum of atomic charges:    0.0000000

LOEWDIN ATOMIC CHARGES
----------------------
   0 C :    0.132212
   1 C :   -0.088420
   2 S :    1.126060
   3 H :    0.029972
   4 H :    0.022416
   5 O :   -0.461286
   6 F :   -0.277203
   7 O :   -0.465338
   8 H :   -0.007317
   9 H :   -0.006119
  10 H :   -0.004976

  Mayer bond orders larger than 0.100000
B(  0-C ,  1-C ) :   1.2777 B(  0-C ,  8-H ) :   0.8488 B(  0-C ,  9-H ) :   0.8356
B(  0-C , 10-H ) :   0.7859 B(  1-C ,  2-S ) :   0.9952 B(  1-C ,  3-H ) :   0.9982
B(  1-C ,  4-H ) :   0.9851 B(  1-C ,  8-H ) :   0.1780 B(  1-C ,  9-H ) :   0.1680
B(  1-C , 10-H ) :   0.1762 B(  2-S ,  5-O ) :   1.5690 B(  2-S ,  6-F ) :   0.6222
B(  2-S ,  7-O ) :   1.5357

Dispersion correction           -0.002883582
FINAL SINGLE POINT ENERGY      -727.194994263321

DIPOLE MOMENT
-------------
                                X             Y             Z
Electronic contribution:     -6.51044      -6.57914       0.19745
Nuclear contribution   :      7.20921       7.65416       0.78523
                        -----------------------------------------
Total Dipole Moment    :      0.69877       1.07502       0.98269
                        -----------------------------------------
Magnitude (a.u.)       :      1.61543
Magnitude (Debye)      :      4.10610

Rotational constants in cm-1:     0.153780     0.081282     0.079816
Rotational constants in MHz :  4610.199589  2436.778679  2392.820729

                             ****ORCA TERMINATED NORMALLY****
TOTAL RUN TIME: 0 days 0 hours 0 minutes 9 seconds 612 msec
