                         Program Version 5.0.0 -  RELEASE  -
|  1> !wB97X-D3 RIJCOSX def2-SVPD def2/J TightSCF
|  2> *xyz 0 1
|  3> C          0.96805        1.63064       -3.71575
|  4> C         -0.50835        1.72268       -4.12430
|  5> S         -1.32861        0.14674       -4.43578
|  6> H         -0.59151        2.29496       -5.04722
|  7> H         -1.11411        2.23561       -3.37436
|  8> O         -2.57135        0.47573       -5.06834
|  9> O         -1.51496       -0.40051       -3.06342
| 10> F         -0.37793       -0.62756       -5.20114
| 11> H          1.51840        1.12197       -4.47946
| 12> H          1.05062        1.08971       -2.79625
| 13> H          1.36450        2.61606       -3.58668
| 14> *
| 15> %MaxCore 64000
| 16>
| 17> %pal nprocs 18
| 18> end
| 19>
| 20> %scf
| 21>   MaxIter 150
| 22> end
| 23>
| 24>
| 25>                          ****END OF INPUT****

CARTESIAN COORDINATES (ANGSTROEM)
---------------------------------
  C      0.968050    1.630640   -3.715750
  C     -0.508350    1.722680   -4.124300
  S     -1.328610    0.146740   -4.435780
  H     -0.591510    2.294960   -5.047220
  H     -1.114110    2.235610   -3.374360
  O     -2.571350    0.475730   -5.068340
  O     -1.514960   -0.400510   -3.063420
  F     -0.377930   -0.627560   -5.201140
  H      1.518400    1.121970   -4.479460
  H      1.050620    1.089710   -2.796250
  H      1.364500    2.616060   -3.586680

 Total Charge           Charge          ....    0
 Multiplicity           Mult            ....    1
 Number of Electrons    NEL             ....   58
 Basis Dimension        Dim             ....  176

ORBITAL ENERGIES
----------------

  NO   OCC          E(Eh)            E(eV)
   0   2.0000     -89.237127     -2428.2657
   1   2.0000     -24.924055      -678.2180
   2   2.0000     -19.266158      -524.2588
   3   2.0000     -19.246207      -523.7159
   4   2.0000     -10.354211      -281.7524
   5   2.0000     -10.315362      -280.6953
   6   2.0000      -8.311664      -226.1719
   7   2.0000      -6.275472      -170.7643
   8   2.0000      -6.268829      -170.5835
   9   2.0000      -6.267544      -170.5486
  10   2.0000      -1.495555       -40.6961
  11   2.0000      -1.231055       -33.4987
  12   2.0000      -1.119904       -30.4741
  13   2.0000      -0.938014       -25.5247
  14   2.0000      -0.846672       -23.0391
  15   2.0000      -0.792149       -21.5555
  16   2.0000      -0.709418       -19.3042
  17   2.0000      -0.697333       -18.9754
  18   2.0000      -0.655160       -17.8278
  19   2.0000      -0.599164       -16.3041
  20   2.0000      -0.583357       -15.8739
  21   2.0000      -0.557036       -15.1577
  22   2.0000      -0.541110       -14.7243
  23   2.0000      -0.511977       -13.9316
  24   2.0000      -0.496404       -13.5078
  25   2.0000      -0.483155       -13.1473
  26   2.0000      -0.435341       -11.8462
  27   2.0000      -0.416180       -11.3248
  28   2.0000      -0.406006       -11.0480
  29   0.0000       0.061454         1.6722
  30   0.0000       0.090419         2.4604
  31   0.0000       0.096347         2.6217
  32   0.0000       0.098643         2.6842
  33   0.0000       0.122173         3.3245

MULLIKEN ATOMIC CHARGES
-----------------------
   0 C :    0.647250
   1 C :   -0.396560
   2 S :    1.512202
   3 H :    0.025901
   4 H :    0.030743
   5 O :   -0.643600
   6 O :   -0.709922
   7 F :   -0.405474
   8 H :   -0.022672
   9 H :   -0.010527
  10 H :   -0.027341
Sum of atomic charges:   -0.0000000

LOEWDIN ATOMIC CHARGES
----------------------
   0 C :    0.130555
   1 C :   -0.086552
   2 S :    1.127978
   3 H :    0.018685
   4 H :    0.036203
   5 O :   -0.460396
   6 O :   -0.491695
   7 F :   -0.256185
   8 H :   -0.011938
   9 H :   -0.002381
  10 H :   -0.004274

  Mayer bond orders larger than 0.100000
B(  0-C ,  1-C ) :   1.2656 B(  0-C ,  8-H ) :   0.8414 B(  0-C ,  9-H ) :   0.8524
B(  0-C , 10-H ) :   0.7882 B(  1-C ,  2-S ) :   0.9974 B(  1-C ,  3-H ) :   1.0029
B(  1-C ,  4-H ) :   0.9905 B(  1-C ,  8-H ) :   0.1665 B(  1-C ,  9-H ) :   0.1669
B(  1-C , 10-H ) :   0.1796 B(  2-S ,  5-O ) :   1.5724 B(  2-S ,  6-O ) :   1.4990
B(  2-S ,  7-F ) :   0.6720

Dispersion correction           -0.002897389
FINAL SINGLE POINT ENERGY      -727.174867917251

DIPOLE MOMENT
-------------
                                X             Y             Z
Electronic contribution:     -4.57166      -6.93760      -3.45024
Nuclear contribution   :      6.02439       7.89075       3.01280
                        -----------------------------------------
Total Dipole Moment    :      1.45274       0.95315      -0.43744
                        -----------------------------------------
Magnitude (a.u.)       :      1.79173
Magnitude (Debye)      :      4.55421

Rotational constants in cm-1:     0.153652     0.082400     0.079295
Rotational constants in MHz :  4606.361242  2470.285703  2377.214112

                             ****ORCA TERMINATED NORMALLY****
TOTAL RUN TIME: 0 days 0 hours 0 minutes 10 seconds 236 msec
