                         Program Version 5.0.0 -  RELEASE  -
|  1> !wB97X-D3 RIJCOSX def2-SVPD def2/J TightSCF xyzfile
|  2>
|  3> *xyzfile 0 1 D3.xyz
|  4>
|  5> %MaxCore 64000
|  6>
|  7> %pal nprocs 18
|  8> end
|  9>
| 10> %scf
| 11>   MaxIter 150
| 12> end
| 13>
| 14>
| 15>                          ****END OF INPUT****

CARTESIAN COORDINATES (ANGSTROEM)
---------------------------------
  C      1.364014    0.468742   -2.813764
  C      0.428844    0.321402   -1.655312
  C      0.968045    1.630639   -3.715749
  C     -0.508347    1.722679   -4.124300
  S     -1.328608    0.146737   -4.435781
  H     -0.591511    2.294958   -5.047219
  H     -1.114114    2.235610   -3.374362
  H      0.748578   -0.400542   -1.001345
  H     -0.461053    0.023332   -2.077731
  H      0.310258    1.201375   -1.134948
  O     -2.571347    0.475733   -5.068341
  O     -1.514963   -0.400512   -3.063420
  H      1.294847   -0.468742   -3.364684
  H      2.376216    0.597400   -2.431495
  H      1.578688    1.520652   -4.612733
  H      1.266653    2.575988   -3.250448
  F     -0.377928   -0.627558   -5.201141

 Total Charge           Charge          ....    0
 Multiplicity           Mult            ....    1
 Number of Electrons    NEL             ....   74
 Basis Dimension        Dim             ....  248

ORBITAL ENERGIES
----------------

  NO   OCC          E(Eh)            E(eV)
   0   2.0000     -89.244678     -2428.4712
   1   2.0000     -24.928802      -678.3472
   2   2.0000     -19.270773      -524.3844
   3   2.0000     -19.252000      -523.8735
   4   2.0000     -10.354246      -281.7534
   5   2.0000     -10.317767      -280.7607
   6   2.0000     -10.288540      -279.9654
   7   2.0000     -10.221817      -278.1498
   8   2.0000      -8.318601      -226.3606
   9   2.0000      -6.282418      -170.9533
  10   2.0000      -6.276046      -170.7799
  11   2.0000      -6.274341      -170.7335
  12   2.0000      -1.500276       -40.8246
  13   2.0000      -1.238401       -33.6986
  14   2.0000      -1.133839       -30.8533
  15   2.0000      -0.952531       -25.9197
  16   2.0000      -0.887696       -24.1554
  17   2.0000      -0.836653       -22.7665
  18   2.0000      -0.791716       -21.5437
  19   2.0000      -0.725759       -19.7489
  20   2.0000      -0.704505       -19.1706
  21   2.0000      -0.693838       -18.8803
  22   2.0000      -0.651648       -17.7322
  23   2.0000      -0.608475       -16.5574
  24   2.0000      -0.602068       -16.3831
  25   2.0000      -0.576347       -15.6832
  26   2.0000      -0.563545       -15.3348
  27   2.0000      -0.530070       -14.4240
  28   2.0000      -0.512932       -13.9576
  29   2.0000      -0.498028       -13.5520
  30   2.0000      -0.492537       -13.4026
  31   2.0000      -0.466528       -12.6949
  32   2.0000      -0.442809       -12.0494
  33   2.0000      -0.429999       -11.7009
  34   2.0000      -0.428145       -11.6504
  35   2.0000      -0.417333       -11.3562
  36   2.0000      -0.366911        -9.9842
  37   0.0000       0.061741         1.6800
  38   0.0000       0.085420         2.3244
  39   0.0000       0.092484         2.5166
  40   0.0000       0.099539         2.7086
  41   0.0000       0.115078         3.1314

MULLIKEN ATOMIC CHARGES
-----------------------
   0 C :   -0.366981
   1 C :    1.965172
   2 C :    0.229214
   3 C :    0.007140
   4 S :    1.574212
   5 H :   -0.161480
   6 H :    0.248379
   7 H :   -0.091092
   8 H :   -1.138421
   9 H :   -0.131533
  10 O :   -0.697271
  11 O :   -0.835284
  12 H :    0.056451
  13 H :   -0.286576
  14 H :    0.025716
  15 H :    0.011037
  16 F :   -0.408682
Sum of atomic charges:   -0.0000000

LOEWDIN ATOMIC CHARGES
----------------------
   0 C :   -0.055314
   1 C :    0.136566
   2 C :   -0.034275
   3 C :   -0.022520
   4 S :    1.175912
   5 H :    0.019497
   6 H :    0.042407
   7 H :   -0.020696
   8 H :   -0.177189
   9 H :   -0.018373
  10 O :   -0.449196
  11 O :   -0.449926
  12 H :    0.014906
  13 H :    0.025201
  14 H :    0.022579
  15 H :    0.036521
  16 F :   -0.246100

  Mayer bond orders larger than 0.100000
B(  0-C ,  1-C ) :   0.9842 B(  0-C ,  2-C ) :   1.1783 B(  0-C ,  7-H ) :   0.2187
B(  0-C ,  8-H ) :   0.5221 B(  0-C ,  9-H ) :   0.2735 B(  0-C , 12-H ) :   0.8345
B(  0-C , 13-H ) :   1.0031 B(  0-C , 14-H ) :   0.1374 B(  0-C , 15-H ) :   0.1567
B(  1-C ,  7-H ) :   0.5095 B(  1-C ,  8-H ) :  -0.5426 B(  1-C ,  9-H ) :   0.2573
B(  1-C , 11-O ) :  -0.1660 B(  1-C , 12-H ) :   0.1269 B(  2-C ,  3-C ) :   1.2561
B(  2-C ,  5-H ) :   0.1802 B(  2-C , 12-H ) :   0.1309 B(  2-C , 14-H ) :   0.8506
B(  2-C , 15-H ) :   0.7974 B(  3-C ,  4-S ) :   0.9866 B(  3-C ,  5-H ) :   0.9424
B(  3-C ,  6-H ) :   0.8501 B(  3-C ,  8-H ) :   0.1170 B(  3-C , 11-O ) :   0.1269
B(  3-C , 14-H ) :   0.1226 B(  4-S ,  8-H ) :  -0.1357 B(  4-S , 10-O ) :   1.5965
B(  4-S , 11-O ) :   1.4042 B(  4-S , 16-F ) :   0.6502 B(  7-H ,  8-H ) :   0.2762
B(  7-H ,  9-H ) :  -0.1836 B(  8-H ,  9-H ) :   0.5241 B(  8-H , 11-O ) :   0.2828

Dispersion correction           -0.006497316
FINAL SINGLE POINT ENERGY      -805.685832620388

DIPOLE MOMENT
-------------
                                X             Y             Z
Electronic contribution:     -8.61833      -5.92355      -9.90535
Nuclear contribution   :      9.83476       6.70164       9.41257
                        -----------------------------------------
Total Dipole Moment    :      1.21643       0.77809      -0.49278
                        -----------------------------------------
Magnitude (a.u.)       :      1.52577
Magnitude (Debye)      :      3.87819

Rotational constants in cm-1:     0.099832     0.045916     0.042219
Rotational constants in MHz :  2992.874960  1376.530174  1265.693813

                             ****ORCA TERMINATED NORMALLY****
TOTAL RUN TIME: 0 days 0 hours 0 minutes 30 seconds 977 msec
