                         Program Version 5.0.0 -  RELEASE  -
|  1> !wB97X-D3 RIJCOSX def2-SVPD def2/J TightSCF CPCM(Water)
|  2> *xyz -1 1
|  3> C          4.93020       -7.37532       -2.64962
|  4> C          3.84189       -6.95161       -3.63283
|  5> H          3.45814       -5.95442       -3.40712
|  6> H          2.98848       -7.64361       -3.56708
|  7> S          4.31812       -6.91593       -5.36869
|  8> O          5.40615       -5.89948       -5.51297
|  9> O          3.11191       -6.44508       -6.04379
| 10> O          4.76340       -8.23942       -5.69863
| 11> H          5.27901       -8.35440       -2.90385
| 12> H          4.53000       -7.38577       -1.65734
| 13> H          5.74437       -6.68276       -2.69856
| 14> *
| 15>
| 16> %MaxCore 64000
| 17>
| 18> %pal nprocs 18
| 19> end
| 20>
| 21> %scf
| 22>   MaxIter 150
| 23> end
| 24>
| 25>
| 26>                          ****END OF INPUT****

CARTESIAN COORDINATES (ANGSTROEM)
---------------------------------
  C      4.930200   -7.375320   -2.649620
  C      3.841890   -6.951610   -3.632830
  H      3.458140   -5.954420   -3.407120
  H      2.988480   -7.643610   -3.567080
  S      4.318120   -6.915930   -5.368690
  O      5.406150   -5.899480   -5.512970
  O      3.111910   -6.445080   -6.043790
  O      4.763400   -8.239420   -5.698630
  H      5.279010   -8.354400   -2.903850
  H      4.530000   -7.385770   -1.657340
  H      5.744370   -6.682760   -2.698560

 Total Charge           Charge          ....   -1
 Multiplicity           Mult            ....    1
 Number of Electrons    NEL             ....   58
 Basis Dimension        Dim             ....  176

ORBITAL ENERGIES
----------------

  NO   OCC          E(Eh)            E(eV)
   0   2.0000     -89.153598     -2425.9927
   1   2.0000     -19.211912      -522.7827
   2   2.0000     -19.204597      -522.5836
   3   2.0000     -19.198510      -522.4180
   4   2.0000     -10.302231      -280.3380
   5   2.0000     -10.276189      -279.6293
   6   2.0000      -8.227916      -223.8930
   7   2.0000      -6.187776      -168.3779
   8   2.0000      -6.187700      -168.3759
   9   2.0000      -6.186041      -168.3307
  10   2.0000      -1.228262       -33.4227
  11   2.0000      -1.089508       -29.6470
  12   2.0000      -1.061009       -28.8715
  13   2.0000      -0.887198       -24.1419
  14   2.0000      -0.761558       -20.7230
  15   2.0000      -0.654853       -17.8195
  16   2.0000      -0.589116       -16.0307
  17   2.0000      -0.570300       -15.5186
  18   2.0000      -0.554537       -15.0897
  19   2.0000      -0.538126       -14.6431
  20   2.0000      -0.503459       -13.6998
  21   2.0000      -0.470686       -12.8080
  22   2.0000      -0.449771       -12.2389
  23   2.0000      -0.436240       -11.8707
  24   2.0000      -0.434316       -11.8183
  25   2.0000      -0.393497       -10.7076
  26   2.0000      -0.380123       -10.3437
  27   2.0000      -0.373088       -10.1522
  28   2.0000      -0.345785        -9.4093
  29   0.0000       0.080498         2.1905
  30   0.0000       0.101224         2.7545
  31   0.0000       0.102250         2.7824
  32   0.0000       0.103003         2.8029
  33   0.0000       0.143452         3.9035

MULLIKEN ATOMIC CHARGES
-----------------------
   0 C :    0.667324
   1 C :   -0.426018
   2 H :   -0.001580
   3 H :    0.055325
   4 S :    1.297391
   5 O :   -0.869613
   6 O :   -0.828383
   7 O :   -0.805519
   8 H :   -0.030442
   9 H :   -0.022258
  10 H :   -0.036227
Sum of atomic charges:   -1.0000000

LOEWDIN ATOMIC CHARGES
----------------------
   0 C :    0.118291
   1 C :   -0.125668
   2 H :    0.018251
   3 H :    0.025693
   4 S :    0.851785
   5 O :   -0.637374
   6 O :   -0.619516
   7 O :   -0.596285
   8 H :   -0.013958
   9 H :   -0.007471
  10 H :   -0.013746

  Mayer bond orders larger than 0.100000
B(  0-C ,  1-C ) :   1.2808 B(  0-C ,  8-H ) :   0.8289 B(  0-C ,  9-H ) :   0.7763
B(  0-C , 10-H ) :   0.8383 B(  1-C ,  2-H ) :   1.0077 B(  1-C ,  3-H ) :   0.9790
B(  1-C ,  4-S ) :   0.9497 B(  1-C ,  8-H ) :   0.1817 B(  1-C ,  9-H ) :   0.1924
B(  1-C , 10-H ) :   0.1752 B(  4-S ,  5-O ) :   1.2453 B(  4-S ,  6-O ) :   1.3299
B(  4-S ,  7-O ) :   1.3146

Dispersion correction           -0.002914003
FINAL SINGLE POINT ENERGY      -702.798282597499

DIPOLE MOMENT
-------------
                                X             Y             Z
Electronic contribution:     -0.54551       0.66629      -6.89009
Nuclear contribution   :      0.07504      -1.14369       9.75001
                        -----------------------------------------
Total Dipole Moment    :     -0.47046      -0.47740       2.85992
                        -----------------------------------------
Magnitude (a.u.)       :      2.93741
Magnitude (Debye)      :      7.46630

Rotational constants in cm-1:     0.160553     0.082191     0.080550
Rotational constants in MHz :  4813.250478  2464.013016  2414.833054

                             ****ORCA TERMINATED NORMALLY****
TOTAL RUN TIME: 0 days 0 hours 0 minutes 10 seconds 324 msec
