                         Program Version 5.0.0 -  RELEASE  -
|  1> !wB97X-D3 RIJCOSX def2-SVPD def2/J TightSCF CPCM(Water)
|  2> *xyz 1 1
|  3> C          5.55821       -1.99291       -6.21505
|  4> C          4.18188       -2.58967       -6.29891
|  5> N          3.14587       -1.76843       -6.48675
|  6> N          4.01910       -3.86431       -6.22743
|  7> H          4.76849       -4.59115       -5.99077
|  8> H          3.12241       -4.33339       -6.31462
|  9> H          3.28164       -0.77779       -6.56655
| 10> H          2.21255       -2.13419       -6.56225
| 11> C          6.41926       -2.54294       -5.07763
| 12> H          6.03683       -2.19819       -7.17685
| 13> H          5.46761       -0.90737       -6.12797
| 14> H          6.50056       -3.60553       -5.17358
| 15> H          5.96544       -2.30329       -4.13874
| 16> H          7.39438       -2.10494       -5.12457
| 17> *
| 18>
| 19> %MaxCore 64000
| 20>
| 21> %pal nprocs 18
| 22> end
| 23>
| 24> %scf
| 25>   MaxIter 150
| 26> end
| 27>
| 28>
| 29>                          ****END OF INPUT****

CARTESIAN COORDINATES (ANGSTROEM)
---------------------------------
  C      5.558210   -1.992910   -6.215050
  C      4.181880   -2.589670   -6.298910
  N      3.145870   -1.768430   -6.486750
  N      4.019100   -3.864310   -6.227430
  H      4.768490   -4.591150   -5.990770
  H      3.122410   -4.333390   -6.314620
  H      3.281640   -0.777790   -6.566550
  H      2.212550   -2.134190   -6.562250
  C      6.419260   -2.542940   -5.077630
  H      6.036830   -2.198190   -7.176850
  H      5.467610   -0.907370   -6.127970
  H      6.500560   -3.605530   -5.173580
  H      5.965440   -2.303290   -4.138740
  H      7.394380   -2.104940   -5.124570

 Total Charge           Charge          ....    1
 Multiplicity           Mult            ....    1
 Number of Electrons    NEL             ....   40
 Basis Dimension        Dim             ....  172

ORBITAL ENERGIES
----------------

  NO   OCC          E(Eh)            E(eV)
   0   2.0000     -14.504214      -394.6797
   1   2.0000     -14.494004      -394.4019
   2   2.0000     -10.437489      -284.0185
   3   2.0000     -10.320890      -280.8457
   4   2.0000     -10.289182      -279.9829
   5   2.0000      -1.131207       -30.7817
   6   2.0000      -1.029186       -28.0056
   7   2.0000      -0.911597       -24.8058
   8   2.0000      -0.800242       -21.7757
   9   2.0000      -0.746553       -20.3147
  10   2.0000      -0.694902       -18.9092
  11   2.0000      -0.671635       -18.2761
  12   2.0000      -0.612420       -16.6648
  13   2.0000      -0.585884       -15.9427
  14   2.0000      -0.551965       -15.0197
  15   2.0000      -0.534150       -14.5350
  16   2.0000      -0.483216       -13.1490
  17   2.0000      -0.473988       -12.8979
  18   2.0000      -0.456572       -12.4240
  19   2.0000      -0.403396       -10.9770
  20   0.0000       0.051266         1.3950
  21   0.0000       0.089826         2.4443
  22   0.0000       0.118421         3.2224
  23   0.0000       0.126957         3.4547
  24   0.0000       0.146154         3.9771

MULLIKEN ATOMIC CHARGES
-----------------------
   0 C :   -0.450789
   1 C :    0.801990
   2 N :   -0.059348
   3 N :   -0.006817
   4 H :    0.120627
   5 H :   -0.095288
   6 H :    0.067324
   7 H :   -0.076625
   8 C :    0.594717
   9 H :    0.057290
  10 H :    0.117009
  11 H :   -0.090951
  12 H :   -0.019008
  13 H :    0.039867
Sum of atomic charges:    1.0000000

LOEWDIN ATOMIC CHARGES
----------------------
   0 C :    0.010537
   1 C :   -0.038308
   2 N :    0.283373
   3 N :    0.266208
   4 H :    0.105511
   5 H :    0.061910
   6 H :    0.043652
   7 H :    0.048001
   8 C :    0.146323
   9 H :    0.054471
  10 H :    0.040494
  11 H :   -0.019453
  12 H :   -0.001273
  13 H :   -0.001447

  Mayer bond orders larger than 0.100000
B(  0-C ,  1-C ) :   1.0814 B(  0-C ,  8-C ) :   1.3118 B(  0-C ,  9-H ) :   0.9144
B(  0-C , 10-H ) :   0.9033 B(  0-C , 11-H ) :   0.1779 B(  0-C , 12-H ) :   0.1883
B(  0-C , 13-H ) :   0.1627 B(  1-C ,  2-N ) :   0.9875 B(  1-C ,  3-N ) :   1.0975
B(  1-C ,  5-H ) :  -0.2273 B(  1-C ,  7-H ) :  -0.2065 B(  1-C ,  9-H ) :   0.1114
B(  1-C , 10-H ) :   0.1168 B(  2-N ,  3-N ) :   0.1366 B(  2-N ,  6-H ) :   1.0947
B(  2-N ,  7-H ) :   1.3357 B(  3-N ,  4-H ) :   1.0906 B(  3-N ,  5-H ) :   1.3127
B(  4-H ,  5-H ) :  -0.1729 B(  6-H ,  7-H ) :  -0.1782 B(  8-C , 10-H ) :   0.1004
B(  8-C , 11-H ) :   0.8588 B(  8-C , 12-H ) :   0.7942 B(  8-C , 13-H ) :   0.8247

Dispersion correction           -0.002912194
FINAL SINGLE POINT ENERGY      -228.915883353496

DIPOLE MOMENT
-------------
                                X             Y             Z
Electronic contribution:     -4.09359      -0.61017      -1.67842
Nuclear contribution   :      2.76041       0.12669       1.26265
                        -----------------------------------------
Total Dipole Moment    :     -1.33317      -0.48348      -0.41577
                        -----------------------------------------
Magnitude (a.u.)       :      1.47782
Magnitude (Debye)      :      3.75633

Rotational constants in cm-1:     0.280918     0.124524     0.094121
Rotational constants in MHz :  8421.697738  3733.133254  2821.684112

                             ****ORCA TERMINATED NORMALLY****
TOTAL RUN TIME: 0 days 0 hours 0 minutes 10 seconds 419 msec
