                         Program Version 5.0.0 -  RELEASE  -
|  1> !wB97X-D3 RIJCOSX def2-SVPD def2/J TightSCF CPCM(Water) xyzfile
|  2>
|  3> *xyzfile 0 1 B.xyz
|  4>
|  5> %MaxCore 64000
|  6>
|  7> %pal nprocs 18
|  8> end
|  9>
| 10> %scf
| 11>   MaxIter 150
| 12> end
| 13>
| 14>
| 15>                          ****END OF INPUT****

CARTESIAN COORDINATES (ANGSTROEM)
---------------------------------
  C      5.558206   -1.992914   -6.215054
  C      4.930199   -7.375319   -2.649623
  C      3.841892   -6.951611   -3.632829
  H      3.458144   -5.954425   -3.407121
  H      2.988484   -7.643606   -3.567078
  S      4.318115   -6.915930   -5.368692
  C      4.181880   -2.589671   -6.298911
  N      3.145873   -1.768431   -6.486753
  N      4.019102   -3.864307   -6.227427
  H      4.768490   -4.591153   -5.990773
  H      3.122405   -4.333392   -6.314620
  H      3.281635   -0.777786   -6.566549
  H      2.212549   -2.134193   -6.562246
  O      5.406154   -5.899480   -5.512972
  O      3.111910   -6.445079   -6.043792
  C      6.419260   -2.542944   -5.077630
  C      5.872267   -5.002756   -2.427819
  C      6.173994   -6.485522   -2.606315
  H      6.734852   -6.613767   -3.534015
  H      6.821463   -6.831018   -1.793617
  H      4.469612   -7.406168   -1.655876
  H      5.230134   -8.398678   -2.885906
  C      5.896512   -2.169314   -3.694552
  H      7.428880   -2.143665   -5.208078
  H      6.505894   -3.627541   -5.175502
  C      6.807804   -2.623428   -2.551019
  H      4.894708   -2.589732   -3.557501
  H      5.778823   -1.081255   -3.635790
  C      7.111544   -4.122463   -2.520363
  H      7.751615   -2.071393   -2.614406
  H      6.345837   -2.326401   -1.604086
  H      5.362882   -4.828697   -1.471335
  H      5.174429   -4.702577   -3.211298
  H      7.778329   -4.329347   -1.677651
  H      7.673189   -4.402845   -3.417586
  O      4.763396   -8.239424   -5.698629
  H      6.036826   -2.198189   -7.176852
  H      5.467610   -0.907371   -6.127968

 Total Charge           Charge          ....    0
 Multiplicity           Mult            ....    1
 Number of Electrons    NEL             ....  136
 Basis Dimension        Dim             ....  512

ORBITAL ENERGIES
----------------

  NO   OCC          E(Eh)            E(eV)
   0   2.0000     -89.169893     -2426.4361
   1   2.0000     -19.222457      -523.0697
   2   2.0000     -19.219836      -522.9983
   3   2.0000     -19.217499      -522.9347
   4   2.0000     -14.481017      -394.0485
   5   2.0000     -14.462503      -393.5447
   6   2.0000     -10.417433      -283.4728
   7   2.0000     -10.310517      -280.5634
   8   2.0000     -10.306408      -280.4516
   9   2.0000     -10.291115      -280.0355
  10   2.0000     -10.288245      -279.9574
  11   2.0000     -10.280882      -279.7570
  12   2.0000     -10.277793      -279.6730
  13   2.0000     -10.274622      -279.5867
  14   2.0000     -10.274492      -279.5831
  15   2.0000     -10.271464      -279.5008
  16   2.0000      -8.242800      -224.2980
  17   2.0000      -6.203132      -168.7958
  18   2.0000      -6.202532      -168.7795
  19   2.0000      -6.200751      -168.7310
  20   2.0000      -1.244172       -33.8556
  21   2.0000      -1.113048       -30.2876
  22   2.0000      -1.102077       -29.9890
  23   2.0000      -1.085785       -29.5457
  24   2.0000      -1.009105       -27.4591
  25   2.0000      -0.931863       -25.3573
  26   2.0000      -0.917185       -24.9579
  27   2.0000      -0.889248       -24.1977
  28   2.0000      -0.848615       -23.0920
  29   2.0000      -0.809705       -22.0332
  30   2.0000      -0.770927       -20.9780
  31   2.0000      -0.748918       -20.3791
  32   2.0000      -0.717689       -19.5293
  33   2.0000      -0.698573       -19.0091
  34   2.0000      -0.677307       -18.4305
  35   2.0000      -0.666467       -18.1355
  36   2.0000      -0.659456       -17.9447
  37   2.0000      -0.645078       -17.5535
  38   2.0000      -0.610346       -16.6084
  39   2.0000      -0.600996       -16.3539
  40   2.0000      -0.584154       -15.8956
  41   2.0000      -0.580221       -15.7886
  42   2.0000      -0.569047       -15.4846
  43   2.0000      -0.564232       -15.3535
  44   2.0000      -0.555947       -15.1281
  45   2.0000      -0.543432       -14.7875
  46   2.0000      -0.537817       -14.6348
  47   2.0000      -0.520696       -14.1689
  48   2.0000      -0.512478       -13.9452
  49   2.0000      -0.490876       -13.3574
  50   2.0000      -0.486623       -13.2417
  51   2.0000      -0.485164       -13.2020
  52   2.0000      -0.463669       -12.6171
  53   2.0000      -0.458611       -12.4794
  54   2.0000      -0.451836       -12.2951
  55   2.0000      -0.450247       -12.2519
  56   2.0000      -0.444496       -12.0954
  57   2.0000      -0.431986       -11.7549
  58   2.0000      -0.425948       -11.5906
  59   2.0000      -0.417615       -11.3639
  60   2.0000      -0.405939       -11.0462
  61   2.0000      -0.402514       -10.9530
  62   2.0000      -0.400951       -10.9104
  63   2.0000      -0.395060       -10.7501
  64   2.0000      -0.390309       -10.6208
  65   2.0000      -0.385902       -10.5009
  66   2.0000      -0.375142       -10.2081
  67   2.0000      -0.364290        -9.9128
  68   0.0000       0.062713         1.7065
  69   0.0000       0.079437         2.1616
  70   0.0000       0.091478         2.4892
  71   0.0000       0.095892         2.6093
  72   0.0000       0.101462         2.7609

MULLIKEN ATOMIC CHARGES
-----------------------
   0 C :    0.378313
   1 C :    0.437812
   2 C :   -0.061032
   3 H :    0.269076
   4 H :   -0.166629
   5 S :    1.354097
   6 C :    0.679216
   7 N :    0.006412
   8 N :    0.532275
   9 H :   -0.073947
  10 H :   -0.215340
  11 H :   -0.005630
  12 H :   -0.088095
  13 O :   -1.025707
  14 O :   -0.869297
  15 C :    0.282620
  16 C :   -0.034307
  17 C :    0.188073
  18 H :    0.074974
  19 H :   -0.301827
  20 H :    0.092868
  21 H :    0.001792
  22 C :   -0.129090
  23 H :   -0.090562
  24 H :   -0.554638
  25 C :    0.570050
  26 H :    0.166532
  27 H :   -0.293444
  28 C :    0.062212
  29 H :    0.054746
  30 H :   -0.021072
  31 H :    0.025641
  32 H :   -0.329159
  33 H :   -0.276977
  34 H :    0.098314
  35 O :   -0.883803
  36 H :   -0.014778
  37 H :    0.160313
Sum of atomic charges:   -0.0000000

LOEWDIN ATOMIC CHARGES
----------------------
   0 C :    0.052351
   1 C :   -0.030700
   2 C :   -0.061755
   3 H :    0.016587
   4 H :    0.031625
   5 S :    0.937922
   6 C :   -0.038334
   7 N :    0.273730
   8 N :    0.282353
   9 H :   -0.092843
  10 H :    0.004548
  11 H :    0.036068
  12 H :    0.041953
  13 O :   -0.532998
  14 O :   -0.563427
  15 C :   -0.012237
  16 C :   -0.034430
  17 C :   -0.034213
  18 H :    0.006542
  19 H :    0.028596
  20 H :    0.034762
  21 H :    0.024214
  22 C :   -0.031332
  23 H :    0.040129
  24 H :   -0.006172
  25 C :   -0.031079
  26 H :    0.015913
  27 H :    0.028512
  28 C :   -0.035027
  29 H :    0.024448
  30 H :    0.024617
  31 H :    0.040123
  32 H :   -0.016226
  33 H :    0.025351
  34 H :    0.018547
  35 O :   -0.559490
  36 H :    0.052615
  37 H :    0.038758

  Mayer bond orders larger than 0.100000
B(  0-C ,  6-C ) :   1.0299 B(  0-C , 15-C ) :   1.2404 B(  0-C , 24-H ) :   0.1192
B(  0-C , 36-H ) :   0.6821 B(  0-C , 37-H ) :   0.7590 B(  1-C ,  2-C ) :   1.2396
B(  1-C ,  4-H ) :   0.1420 B(  1-C , 17-C ) :   1.2238 B(  1-C , 20-H ) :   0.7309
B(  1-C , 21-H ) :   0.6880 B(  2-C ,  3-H ) :   0.7872 B(  2-C ,  4-H ) :   0.9131
B(  2-C ,  5-S ) :   0.9886 B(  2-C , 20-H ) :   0.1644 B(  2-C , 21-H ) :   0.1107
B(  2-C , 35-O ) :   0.1197 B(  4-H ,  5-S ) :   0.1270 B(  5-S , 13-O ) :   1.0173
B(  5-S , 14-O ) :   1.2748 B(  5-S , 35-O ) :   1.3227 B(  6-C ,  7-N ) :   0.9621
B(  6-C ,  8-N ) :   1.2857 B(  6-C ,  9-H ) :  -0.2161 B(  6-C , 10-H ) :  -0.3185
B(  6-C , 12-H ) :  -0.1829 B(  6-C , 36-H ) :   0.1884 B(  6-C , 37-H ) :   0.1373
B(  7-N ,  8-N ) :   0.1457 B(  7-N , 11-H ) :   1.1620 B(  7-N , 12-H ) :   1.3227
B(  8-N ,  9-H ) :   0.9015 B(  8-N , 10-H ) :   1.2012 B(  9-H , 10-H ) :  -0.2462
B(  9-H , 13-O ) :   0.1840 B( 10-H , 14-O ) :   0.1512 B( 11-H , 12-H ) :  -0.1755
B( 13-O , 14-O ) :   0.1323 B( 13-O , 24-H ) :   0.1881 B( 15-C , 22-C ) :   1.2077
B( 15-C , 23-H ) :   0.8042 B( 15-C , 24-H ) :   0.6929 B( 15-C , 26-H ) :   0.1113
B( 15-C , 27-H ) :   0.1760 B( 15-C , 36-H ) :   0.2587 B( 15-C , 37-H ) :   0.1458
B( 16-C , 17-C ) :   1.1984 B( 16-C , 18-H ) :   0.1253 B( 16-C , 19-H ) :   0.1624
B( 16-C , 28-C ) :   1.2132 B( 16-C , 31-H ) :   0.7926 B( 16-C , 32-H ) :   1.0141
B( 16-C , 33-H ) :   0.2000 B( 16-C , 34-H ) :   0.1242 B( 17-C , 18-H ) :   0.8378
B( 17-C , 19-H ) :   0.9098 B( 17-C , 20-H ) :   0.1020 B( 17-C , 21-H ) :   0.2372
B( 17-C , 28-C ) :   0.1144 B( 22-C , 23-H ) :   0.1471 B( 22-C , 24-H ) :   0.1855
B( 22-C , 25-C ) :   1.0867 B( 22-C , 26-H ) :   0.8212 B( 22-C , 27-H ) :   1.0867
B( 22-C , 29-H ) :   0.1397 B( 22-C , 30-H ) :   0.2195 B( 25-C , 28-C ) :   1.1367
B( 25-C , 29-H ) :   0.6973 B( 25-C , 30-H ) :   0.7327 B( 26-H , 32-H ) :   0.1447
B( 28-C , 29-H ) :   0.2018 B( 28-C , 30-H ) :   0.1278 B( 28-C , 31-H ) :   0.1029
B( 28-C , 33-H ) :   0.9927 B( 28-C , 34-H ) :   0.8256 B( 31-H , 32-H ) :   0.1248

Dispersion correction           -0.020898093
FINAL SINGLE POINT ENERGY     -1126.930750333192

DIPOLE MOMENT
-------------
                                X             Y             Z
Electronic contribution:     -9.64285      -9.99950     -13.81504
Nuclear contribution   :      8.53517      16.50844      14.36520
                        -----------------------------------------
Total Dipole Moment    :     -1.10769       6.50894       0.55016
                        -----------------------------------------
Magnitude (a.u.)       :      6.62540
Magnitude (Debye)      :     16.84043

Rotational constants in cm-1:     0.017951     0.012436     0.008288
Rotational constants in MHz :   538.163255   372.824050   248.467077

                             ****ORCA TERMINATED NORMALLY****
TOTAL RUN TIME: 0 days 0 hours 1 minutes 40 seconds 51 msec
