                         Program Version 5.0.0 -  RELEASE  -
|  1> !wB97X-D3 RIJCOSX def2-SVPD def2/J TightSCF CPCM(Water)
|  2> *xyz 0 1
|  3> C          4.93020       -7.37532       -2.64962
|  4> C          3.84189       -6.95161       -3.63283
|  5> H          3.45814       -5.95442       -3.40712
|  6> H          2.98848       -7.64361       -3.56708
|  7> S          4.31812       -6.91593       -5.36869
|  8> F          5.40615       -5.89948       -5.51297
|  9> O          3.11191       -6.44508       -6.04379
| 10> O          4.76340       -8.23942       -5.69863
| 11> H          5.27901       -8.35440       -2.90385
| 12> H          4.53000       -7.38577       -1.65734
| 13> H          5.74437       -6.68276       -2.69856
| 14> *
| 15>
| 16> %MaxCore 64000
| 17>
| 18> %pal nprocs 18
| 19> end
| 20>
| 21> %scf
| 22>   MaxIter 150
| 23> end
| 24>
| 25>
| 26>                          ****END OF INPUT****

CARTESIAN COORDINATES (ANGSTROEM)
---------------------------------
  C      4.930200   -7.375320   -2.649620
  C      3.841890   -6.951610   -3.632830
  H      3.458140   -5.954420   -3.407120
  H      2.988480   -7.643610   -3.567080
  S      4.318120   -6.915930   -5.368690
  F      5.406150   -5.899480   -5.512970
  O      3.111910   -6.445080   -6.043790
  O      4.763400   -8.239420   -5.698630
  H      5.279010   -8.354400   -2.903850
  H      4.530000   -7.385770   -1.657340
  H      5.744370   -6.682760   -2.698560

 Total Charge           Charge          ....    0
 Multiplicity           Mult            ....    1
 Number of Electrons    NEL             ....   58
 Basis Dimension        Dim             ....  176

ORBITAL ENERGIES
----------------

  NO   OCC          E(Eh)            E(eV)
   0   2.0000     -89.238088     -2428.2918
   1   2.0000     -24.897649      -677.4995
   2   2.0000     -19.272871      -524.4415
   3   2.0000     -19.264469      -524.2129
   4   2.0000     -10.342378      -281.4304
   5   2.0000     -10.292050      -280.0609
   6   2.0000      -8.312440      -226.1930
   7   2.0000      -6.275900      -170.7759
   8   2.0000      -6.270251      -170.6222
   9   2.0000      -6.268202      -170.5664
  10   2.0000      -1.451195       -39.4890
  11   2.0000      -1.241264       -33.7765
  12   2.0000      -1.144816       -31.1520
  13   2.0000      -0.924757       -25.1639
  14   2.0000      -0.825550       -22.4644
  15   2.0000      -0.772151       -21.0113
  16   2.0000      -0.678749       -18.4697
  17   2.0000      -0.667398       -18.1608
  18   2.0000      -0.657781       -17.8991
  19   2.0000      -0.589253       -16.0344
  20   2.0000      -0.574065       -15.6211
  21   2.0000      -0.565718       -15.3940
  22   2.0000      -0.527270       -14.3478
  23   2.0000      -0.507398       -13.8070
  24   2.0000      -0.489894       -13.3307
  25   2.0000      -0.465610       -12.6699
  26   2.0000      -0.447132       -12.1671
  27   2.0000      -0.430237       -11.7073
  28   2.0000      -0.426882       -11.6160
  29   0.0000       0.067440         1.8351
  30   0.0000       0.096060         2.6139
  31   0.0000       0.097771         2.6605
  32   0.0000       0.100199         2.7265
  33   0.0000       0.119442         3.2502

MULLIKEN ATOMIC CHARGES
-----------------------
   0 C :    0.627435
   1 C :   -0.515494
   2 H :    0.066206
   3 H :    0.131671
   4 S :    1.529804
   5 F :   -0.420975
   6 O :   -0.720494
   7 O :   -0.703030
   8 H :   -0.000235
   9 H :    0.009192
  10 H :   -0.004080
Sum of atomic charges:    0.0000000

LOEWDIN ATOMIC CHARGES
----------------------
   0 C :    0.135812
   1 C :   -0.078529
   2 H :    0.034834
   3 H :    0.050780
   4 S :    1.131450
   5 F :   -0.266785
   6 O :   -0.513023
   7 O :   -0.490882
   8 H :   -0.005532
   9 H :    0.004009
  10 H :   -0.002134

  Mayer bond orders larger than 0.100000
B(  0-C ,  1-C ) :   1.2966 B(  0-C ,  8-H ) :   0.8390 B(  0-C ,  9-H ) :   0.7787
B(  0-C , 10-H ) :   0.8384 B(  1-C ,  2-H ) :   1.0048 B(  1-C ,  3-H ) :   0.9674
B(  1-C ,  4-S ) :   1.0051 B(  1-C ,  8-H ) :   0.1784 B(  1-C ,  9-H ) :   0.1861
B(  1-C , 10-H ) :   0.1716 B(  4-S ,  5-F ) :   0.6179 B(  4-S ,  6-O ) :   1.5083
B(  4-S ,  7-O ) :   1.5042

Dispersion correction           -0.002870941
FINAL SINGLE POINT ENERGY      -727.208594508046

DIPOLE MOMENT
-------------
                                X             Y             Z
Electronic contribution:      1.37276       2.78079      -8.25941
Nuclear contribution   :     -0.98922      -2.24849      10.35711
                        -----------------------------------------
Total Dipole Moment    :      0.38353       0.53230       2.09770
                        -----------------------------------------
Magnitude (a.u.)       :      2.19791
Magnitude (Debye)      :      5.58663

Rotational constants in cm-1:     0.151436     0.080885     0.078670
Rotational constants in MHz :  4539.936009  2424.868817  2358.476812

                             ****ORCA TERMINATED NORMALLY****
TOTAL RUN TIME: 0 days 0 hours 0 minutes 10 seconds 745 msec
