                         Program Version 5.0.0 -  RELEASE  -
|  1> !wB97X-D3 RIJCOSX def2-SVPD def2/J TightSCF CPCM(Water)
|  2> *xyz 0 1
|  3> C          5.55821       -1.99291       -6.21505
|  4> C          4.18188       -2.58967       -6.29891
|  5> C          3.14587       -1.76843       -6.48675
|  6> N          4.01910       -3.86431       -6.22743
|  7> H          4.76849       -4.59115       -5.99077
|  8> H          3.12241       -4.33339       -6.31462
|  9> H          3.28164       -0.77779       -6.56655
| 10> H          2.21255       -2.13419       -6.56225
| 11> C          6.41926       -2.54294       -5.07763
| 12> H          6.03683       -2.19819       -7.17685
| 13> H          5.46761       -0.90737       -6.12797
| 14> H          6.50056       -3.60553       -5.17358
| 15> H          5.96544       -2.30329       -4.13874
| 16> H          7.39438       -2.10494       -5.12457
| 17> *
| 18>
| 19> %MaxCore 64000
| 20>
| 21> %pal nprocs 18
| 22> end
| 23>
| 24> %scf
| 25>   MaxIter 150
| 26> end
| 27>
| 28>
| 29>                          ****END OF INPUT****

CARTESIAN COORDINATES (ANGSTROEM)
---------------------------------
  C      5.558210   -1.992910   -6.215050
  C      4.181880   -2.589670   -6.298910
  C      3.145870   -1.768430   -6.486750
  N      4.019100   -3.864310   -6.227430
  H      4.768490   -4.591150   -5.990770
  H      3.122410   -4.333390   -6.314620
  H      3.281640   -0.777790   -6.566550
  H      2.212550   -2.134190   -6.562250
  C      6.419260   -2.542940   -5.077630
  H      6.036830   -2.198190   -7.176850
  H      5.467610   -0.907370   -6.127970
  H      6.500560   -3.605530   -5.173580
  H      5.965440   -2.303290   -4.138740
  H      7.394380   -2.104940   -5.124570

 Total Charge           Charge          ....    0
 Multiplicity           Mult            ....    1
 Number of Electrons    NEL             ....   40
 Basis Dimension        Dim             ....  172

ORBITAL ENERGIES
----------------

  NO   OCC          E(Eh)            E(eV)
   0   2.0000     -14.439142      -392.9090
   1   2.0000     -10.318300      -280.7752
   2   2.0000     -10.286155      -279.9005
   3   2.0000     -10.271637      -279.5054
   4   2.0000     -10.220966      -278.1266
   5   2.0000      -1.040782       -28.3211
   6   2.0000      -0.884749       -24.0752
   7   2.0000      -0.827219       -22.5098
   8   2.0000      -0.735807       -20.0223
   9   2.0000      -0.682587       -18.5741
  10   2.0000      -0.614504       -16.7215
  11   2.0000      -0.575809       -15.6685
  12   2.0000      -0.541194       -14.7266
  13   2.0000      -0.517139       -14.0721
  14   2.0000      -0.492100       -13.3907
  15   2.0000      -0.479377       -13.0445
  16   2.0000      -0.448387       -12.2012
  17   2.0000      -0.428836       -11.6692
  18   2.0000      -0.421508       -11.4698
  19   2.0000      -0.278781        -7.5860
  20   0.0000       0.094753         2.5784
  21   0.0000       0.117809         3.2058
  22   0.0000       0.121927         3.3178
  23   0.0000       0.135797         3.6952
  24   0.0000       0.147571         4.0156

MULLIKEN ATOMIC CHARGES
-----------------------
   0 C :   -0.200105
   1 C :   -0.214909
   2 C :    0.531213
   3 N :    0.139310
   4 H :   -0.028392
   5 H :   -0.175942
   6 H :   -0.194107
   7 H :   -0.421999
   8 C :    0.631294
   9 H :   -0.037069
  10 H :    0.130120
  11 H :   -0.126273
  12 H :   -0.039285
  13 H :    0.006143
Sum of atomic charges:   -0.0000000

LOEWDIN ATOMIC CHARGES
----------------------
   0 C :   -0.033723
   1 C :   -0.280813
   2 C :    0.146910
   3 N :    0.154589
   4 H :    0.060738
   5 H :    0.025242
   6 H :   -0.103157
   7 H :   -0.098082
   8 C :    0.124577
   9 H :    0.031672
  10 H :    0.024975
  11 H :   -0.029240
  12 H :   -0.010394
  13 H :   -0.013294

  Mayer bond orders larger than 0.100000
B(  0-C ,  1-C ) :   1.1396 B(  0-C ,  8-C ) :   1.2753 B(  0-C ,  9-H ) :   0.8514
B(  0-C , 10-H ) :   0.8779 B(  0-C , 11-H ) :   0.1944 B(  0-C , 12-H ) :   0.1853
B(  0-C , 13-H ) :   0.1844 B(  1-C ,  2-C ) :   1.7229 B(  1-C ,  3-N ) :   1.2853
B(  1-C ,  7-H ) :   0.2252 B(  1-C ,  9-H ) :   0.2099 B(  2-C ,  3-N ) :   0.2126
B(  2-C ,  6-H ) :   1.0337 B(  2-C ,  7-H ) :   0.6727 B(  3-N ,  4-H ) :   1.1680
B(  3-N ,  5-H ) :   1.2450 B(  4-H ,  5-H ) :  -0.1550 B(  8-C , 10-H ) :   0.1011
B(  8-C , 11-H ) :   0.8388 B(  8-C , 12-H ) :   0.7921 B(  8-C , 13-H ) :   0.8044

Dispersion correction           -0.002924704
FINAL SINGLE POINT ENERGY      -212.364181100944

DIPOLE MOMENT
-------------
                                X             Y             Z
Electronic contribution:     -1.83655      -1.40023      -0.98349
Nuclear contribution   :      2.41345       0.31141       1.16343
                        -----------------------------------------
Total Dipole Moment    :      0.57690      -1.08882       0.17995
                        -----------------------------------------
Magnitude (a.u.)       :      1.24528
Magnitude (Debye)      :      3.16525

Rotational constants in cm-1:     0.287957     0.129204     0.097498
Rotational constants in MHz :  8632.737925  3873.424745  2922.919500

                             ****ORCA TERMINATED NORMALLY****
TOTAL RUN TIME: 0 days 0 hours 0 minutes 11 seconds 94 msec
