                         Program Version 5.0.0 -  RELEASE  -
|  1> !wB97X-D3 RIJCOSX def2-SVPD def2/J TightSCF CPCM(Water)
|  2> *xyz 0 1
|  3> C          4.93020       -7.37532       -2.64962
|  4> C          3.84189       -6.95161       -3.63283
|  5> H          3.45814       -5.95442       -3.40712
|  6> H          2.98848       -7.64361       -3.56708
|  7> S          4.31812       -6.91593       -5.36869
|  8> O          5.40615       -5.89948       -5.51297
|  9> F          3.11191       -6.44508       -6.04379
| 10> O          4.76340       -8.23942       -5.69863
| 11> H          5.27901       -8.35440       -2.90385
| 12> H          4.53000       -7.38577       -1.65734
| 13> H          5.74437       -6.68276       -2.69856
| 14> *
| 15>
| 16> %MaxCore 64000
| 17>
| 18> %pal nprocs 18
| 19> end
| 20>
| 21> %scf
| 22>   MaxIter 150
| 23> end
| 24>
| 25>
| 26>                          ****END OF INPUT****

CARTESIAN COORDINATES (ANGSTROEM)
---------------------------------
  C      4.930200   -7.375320   -2.649620
  C      3.841890   -6.951610   -3.632830
  H      3.458140   -5.954420   -3.407120
  H      2.988480   -7.643610   -3.567080
  S      4.318120   -6.915930   -5.368690
  O      5.406150   -5.899480   -5.512970
  F      3.111910   -6.445080   -6.043790
  O      4.763400   -8.239420   -5.698630
  H      5.279010   -8.354400   -2.903850
  H      4.530000   -7.385770   -1.657340
  H      5.744370   -6.682760   -2.698560

 Total Charge           Charge          ....    0
 Multiplicity           Mult            ....    1
 Number of Electrons    NEL             ....   58
 Basis Dimension        Dim             ....  176

ORBITAL ENERGIES
----------------

  NO   OCC          E(Eh)            E(eV)
   0   2.0000     -89.240396     -2428.3546
   1   2.0000     -24.910943      -677.8612
   2   2.0000     -19.272565      -524.4332
   3   2.0000     -19.258073      -524.0388
   4   2.0000     -10.342628      -281.4372
   5   2.0000     -10.295166      -280.1457
   6   2.0000      -8.314724      -226.2552
   7   2.0000      -6.278286      -170.8408
   8   2.0000      -6.272502      -170.6835
   9   2.0000      -6.270320      -170.6241
  10   2.0000      -1.477159       -40.1955
  11   2.0000      -1.235548       -33.6210
  12   2.0000      -1.127121       -30.6705
  13   2.0000      -0.926325       -25.2066
  14   2.0000      -0.840028       -22.8583
  15   2.0000      -0.772479       -21.0202
  16   2.0000      -0.685259       -18.6468
  17   2.0000      -0.679755       -18.4971
  18   2.0000      -0.666976       -18.1493
  19   2.0000      -0.589815       -16.0497
  20   2.0000      -0.585176       -15.9235
  21   2.0000      -0.554679       -15.0936
  22   2.0000      -0.523769       -14.2525
  23   2.0000      -0.499225       -13.5846
  24   2.0000      -0.490144       -13.3375
  25   2.0000      -0.471447       -12.8287
  26   2.0000      -0.442435       -12.0393
  27   2.0000      -0.426804       -11.6139
  28   2.0000      -0.416070       -11.3218
  29   0.0000       0.069678         1.8960
  30   0.0000       0.097157         2.6438
  31   0.0000       0.098392         2.6774
  32   0.0000       0.099691         2.7127
  33   0.0000       0.119553         3.2532

MULLIKEN ATOMIC CHARGES
-----------------------
   0 C :    0.615682
   1 C :   -0.528432
   2 H :    0.080777
   3 H :    0.137440
   4 S :    1.554277
   5 O :   -0.759509
   6 F :   -0.407898
   7 O :   -0.693162
   8 H :   -0.002460
   9 H :    0.011466
  10 H :   -0.008181
Sum of atomic charges:   -0.0000000

LOEWDIN ATOMIC CHARGES
----------------------
   0 C :    0.146090
   1 C :   -0.085610
   2 H :    0.035248
   3 H :    0.042836
   4 S :    1.136383
   5 O :   -0.530927
   6 F :   -0.252739
   7 O :   -0.492895
   8 H :   -0.002987
   9 H :    0.007313
  10 H :   -0.002711

  Mayer bond orders larger than 0.100000
B(  0-C ,  1-C ) :   1.3211 B(  0-C ,  8-H ) :   0.8342 B(  0-C ,  9-H ) :   0.7900
B(  0-C , 10-H ) :   0.8451 B(  1-C ,  2-H ) :   0.9918 B(  1-C ,  3-H ) :   0.9564
B(  1-C ,  4-S ) :   0.9835 B(  1-C ,  8-H ) :   0.1744 B(  1-C ,  9-H ) :   0.1835
B(  1-C , 10-H ) :   0.1699 B(  4-S ,  5-O ) :   1.4292 B(  4-S ,  6-F ) :   0.6786
B(  4-S ,  7-O ) :   1.4991

Dispersion correction           -0.002914899
FINAL SINGLE POINT ENERGY      -727.198404965018

DIPOLE MOMENT
-------------
                                X             Y             Z
Electronic contribution:     -3.05224       1.70715      -9.27790
Nuclear contribution   :      1.40145      -1.67996      10.91024
                        -----------------------------------------
Total Dipole Moment    :     -1.65079       0.02719       1.63234
                        -----------------------------------------
Magnitude (a.u.)       :      2.32172
Magnitude (Debye)      :      5.90135

Rotational constants in cm-1:     0.155875     0.079864     0.077188
Rotational constants in MHz :  4673.017506  2394.277415  2314.027118

                             ****ORCA TERMINATED NORMALLY****
TOTAL RUN TIME: 0 days 0 hours 0 minutes 12 seconds 183 msec
