                         Program Version 5.0.0 -  RELEASE  -
|  1> !wB97X-D3 RIJCOSX def2-SVPD def2/J TightSCF CPCM(Water)
|  2> *xyz 0 1
|  3> C          4.93020       -7.37532       -2.64962
|  4> C          3.84189       -6.95161       -3.63283
|  5> H          3.45814       -5.95442       -3.40712
|  6> H          2.98848       -7.64361       -3.56708
|  7> S          4.31812       -6.91593       -5.36869
|  8> O          5.40615       -5.89948       -5.51297
|  9> O          3.11191       -6.44508       -6.04379
| 10> F          4.76340       -8.23942       -5.69863
| 11> H          5.27901       -8.35440       -2.90385
| 12> H          4.53000       -7.38577       -1.65734
| 13> H          5.74437       -6.68276       -2.69856
| 14> *
| 15>
| 16> %MaxCore 64000
| 17>
| 18> %pal nprocs 18
| 19> end
| 20>
| 21> %scf
| 22>   MaxIter 150
| 23> end
| 24>
| 25>
| 26>                          ****END OF INPUT****

CARTESIAN COORDINATES (ANGSTROEM)
---------------------------------
  C      4.930200   -7.375320   -2.649620
  C      3.841890   -6.951610   -3.632830
  H      3.458140   -5.954420   -3.407120
  H      2.988480   -7.643610   -3.567080
  S      4.318120   -6.915930   -5.368690
  O      5.406150   -5.899480   -5.512970
  O      3.111910   -6.445080   -6.043790
  F      4.763400   -8.239420   -5.698630
  H      5.279010   -8.354400   -2.903850
  H      4.530000   -7.385770   -1.657340
  H      5.744370   -6.682760   -2.698560

 Total Charge           Charge          ....    0
 Multiplicity           Mult            ....    1
 Number of Electrons    NEL             ....   58
 Basis Dimension        Dim             ....  176

ORBITAL ENERGIES
----------------

  NO   OCC          E(Eh)            E(eV)
   0   2.0000     -89.242340     -2428.4075
   1   2.0000     -24.923063      -678.1910
   2   2.0000     -19.265204      -524.2329
   3   2.0000     -19.259035      -524.0650
   4   2.0000     -10.343662      -281.4653
   5   2.0000     -10.292724      -280.0793
   6   2.0000      -8.316668      -226.3081
   7   2.0000      -6.280428      -170.8991
   8   2.0000      -6.274301      -170.7324
   9   2.0000      -6.272114      -170.6729
  10   2.0000      -1.498434       -40.7745
  11   2.0000      -1.225555       -33.3490
  12   2.0000      -1.120123       -30.4801
  13   2.0000      -0.927891       -25.2492
  14   2.0000      -0.842642       -22.9295
  15   2.0000      -0.780084       -21.2272
  16   2.0000      -0.702962       -19.1286
  17   2.0000      -0.696752       -18.9596
  18   2.0000      -0.659121       -17.9356
  19   2.0000      -0.586769       -15.9668
  20   2.0000      -0.575579       -15.6623
  21   2.0000      -0.559399       -15.2220
  22   2.0000      -0.526742       -14.3334
  23   2.0000      -0.501375       -13.6431
  24   2.0000      -0.486217       -13.2306
  25   2.0000      -0.465930       -12.6786
  26   2.0000      -0.435600       -11.8533
  27   2.0000      -0.426232       -11.5984
  28   2.0000      -0.411617       -11.2007
  29   0.0000       0.067702         1.8423
  30   0.0000       0.096371         2.6224
  31   0.0000       0.097614         2.6562
  32   0.0000       0.100154         2.7253
  33   0.0000       0.125915         3.4263

MULLIKEN ATOMIC CHARGES
-----------------------
   0 C :    0.624179
   1 C :   -0.517455
   2 H :    0.075228
   3 H :    0.126961
   4 S :    1.530957
   5 O :   -0.754110
   6 O :   -0.704839
   7 F :   -0.390113
   8 H :    0.004456
   9 H :    0.010046
  10 H :   -0.005310
Sum of atomic charges:    0.0000000

LOEWDIN ATOMIC CHARGES
----------------------
   0 C :    0.136010
   1 C :   -0.078417
   2 H :    0.043438
   3 H :    0.042989
   4 S :    1.137176
   5 O :   -0.529227
   6 O :   -0.513274
   7 F :   -0.235910
   8 H :   -0.002123
   9 H :    0.004382
  10 H :   -0.005043

  Mayer bond orders larger than 0.100000
B(  0-C ,  1-C ) :   1.2946 B(  0-C ,  8-H ) :   0.8285 B(  0-C ,  9-H ) :   0.7795
B(  0-C , 10-H ) :   0.8499 B(  1-C ,  2-H ) :   1.0066 B(  1-C ,  3-H ) :   0.9673
B(  1-C ,  4-S ) :   1.0031 B(  1-C ,  8-H ) :   0.1754 B(  1-C ,  9-H ) :   0.1866
B(  1-C , 10-H ) :   0.1726 B(  4-S ,  5-O ) :   1.4412 B(  4-S ,  6-O ) :   1.5133
B(  4-S ,  7-F ) :   0.6879

Dispersion correction           -0.002878280
FINAL SINGLE POINT ENERGY      -727.188160170185

DIPOLE MOMENT
-------------
                                X             Y             Z
Electronic contribution:      0.10778      -1.71228      -8.61136
Nuclear contribution   :     -0.31946       0.18980      10.55057
                        -----------------------------------------
Total Dipole Moment    :     -0.21168      -1.52249       1.93921
                        -----------------------------------------
Magnitude (a.u.)       :      2.47453
Magnitude (Debye)      :      6.28976

Rotational constants in cm-1:     0.151421     0.081183     0.078684
Rotational constants in MHz :  4539.489207  2433.790160  2358.892966

                             ****ORCA TERMINATED NORMALLY****
TOTAL RUN TIME: 0 days 0 hours 0 minutes 11 seconds 69 msec
