                         Program Version 5.0.0 -  RELEASE  -
|  1> !wB97X-D3 RIJCOSX def2-SVPD def2/J TightSCF CPCM(Water) xyzfile
|  2>
|  3> *xyzfile 0 1 D2.xyz
|  4>
|  5> %MaxCore 64000
|  6>
|  7> %pal nprocs 18
|  8> end
|  9>
| 10> %scf
| 11>   MaxIter 150
| 12> end
| 13>
| 14>
| 15>                          ****END OF INPUT****

CARTESIAN COORDINATES (ANGSTROEM)
---------------------------------
  C      5.558206   -1.992914   -6.215054
  C      4.930199   -7.375319   -2.649623
  C      3.841892   -6.951611   -3.632829
  H      3.458144   -5.954425   -3.407121
  H      2.988484   -7.643606   -3.567078
  S      4.318115   -6.915930   -5.368692
  C      4.181880   -2.589671   -6.298911
  N      3.145873   -1.768431   -6.486753
  C      4.019102   -3.864307   -6.227427
  H      4.768490   -4.591153   -5.990773
  H      3.122405   -4.333392   -6.314620
  H      3.281635   -0.777786   -6.566549
  H      2.212549   -2.134193   -6.562246
  F      5.406154   -5.899480   -5.512972
  O      3.111910   -6.445079   -6.043792
  C      6.419260   -2.542944   -5.077630
  C      5.872267   -5.002756   -2.427819
  C      6.173994   -6.485522   -2.606315
  H      6.734852   -6.613767   -3.534015
  H      6.821463   -6.831018   -1.793617
  H      4.469612   -7.406168   -1.655876
  H      5.230134   -8.398678   -2.885906
  C      5.896512   -2.169314   -3.694552
  H      7.428880   -2.143665   -5.208078
  H      6.505894   -3.627541   -5.175502
  C      6.807804   -2.623428   -2.551019
  H      4.894708   -2.589732   -3.557501
  H      5.778823   -1.081255   -3.635790
  C      7.111544   -4.122463   -2.520363
  H      7.751615   -2.071393   -2.614406
  H      6.345837   -2.326401   -1.604086
  H      5.362882   -4.828697   -1.471335
  H      5.174429   -4.702577   -3.211298
  H      7.778329   -4.329347   -1.677651
  H      7.673189   -4.402845   -3.417586
  O      4.763396   -8.239424   -5.698629
  H      6.036826   -2.198189   -7.176852
  H      5.467610   -0.907371   -6.127968

 Total Charge           Charge          ....    0
 Multiplicity           Mult            ....    1
 Number of Electrons    NEL             ....  136
 Basis Dimension        Dim             ....  512

ORBITAL ENERGIES
----------------

  NO   OCC          E(Eh)            E(eV)
   0   2.0000     -89.241203     -2428.3766
   1   2.0000     -24.902639      -677.6353
   2   2.0000     -19.274215      -524.4781
   3   2.0000     -19.262534      -524.1602
   4   2.0000     -14.426466      -392.5641
   5   2.0000     -10.341110      -281.3959
   6   2.0000     -10.306198      -280.4459
   7   2.0000     -10.301950      -280.3303
   8   2.0000     -10.285998      -279.8962
   9   2.0000     -10.281342      -279.7695
  10   2.0000     -10.278808      -279.7006
  11   2.0000     -10.278387      -279.6891
  12   2.0000     -10.276397      -279.6350
  13   2.0000     -10.276151      -279.6283
  14   2.0000     -10.274535      -279.5843
  15   2.0000     -10.207183      -277.7516
  16   2.0000      -8.314082      -226.2377
  17   2.0000      -6.277822      -170.8282
  18   2.0000      -6.271839      -170.6654
  19   2.0000      -6.269855      -170.6114
  20   2.0000      -1.461862       -39.7793
  21   2.0000      -1.242615       -33.8133
  22   2.0000      -1.145194       -31.1623
  23   2.0000      -1.026476       -27.9318
  24   2.0000      -0.943920       -25.6854
  25   2.0000      -0.920545       -25.0493
  26   2.0000      -0.891315       -24.2539
  27   2.0000      -0.864956       -23.5366
  28   2.0000      -0.829154       -22.5624
  29   2.0000      -0.820425       -22.3249
  30   2.0000      -0.790577       -21.5127
  31   2.0000      -0.761185       -20.7129
  32   2.0000      -0.724978       -19.7276
  33   2.0000      -0.704590       -19.1729
  34   2.0000      -0.700137       -19.0517
  35   2.0000      -0.672760       -18.3067
  36   2.0000      -0.662371       -18.0240
  37   2.0000      -0.652770       -17.7628
  38   2.0000      -0.641887       -17.4666
  39   2.0000      -0.613911       -16.7054
  40   2.0000      -0.598017       -16.2729
  41   2.0000      -0.587146       -15.9770
  42   2.0000      -0.585528       -15.9330
  43   2.0000      -0.570024       -15.5111
  44   2.0000      -0.562617       -15.3096
  45   2.0000      -0.552706       -15.0399
  46   2.0000      -0.547774       -14.9057
  47   2.0000      -0.530432       -14.4338
  48   2.0000      -0.513531       -13.9739
  49   2.0000      -0.508837       -13.8462
  50   2.0000      -0.504886       -13.7386
  51   2.0000      -0.490099       -13.3363
  52   2.0000      -0.477449       -12.9920
  53   2.0000      -0.465109       -12.6563
  54   2.0000      -0.458565       -12.4782
  55   2.0000      -0.454824       -12.3764
  56   2.0000      -0.446270       -12.1436
  57   2.0000      -0.442517       -12.0415
  58   2.0000      -0.441140       -12.0040
  59   2.0000      -0.428218       -11.6524
  60   2.0000      -0.425618       -11.5816
  61   2.0000      -0.419187       -11.4067
  62   2.0000      -0.413199       -11.2437
  63   2.0000      -0.407339       -11.0843
  64   2.0000      -0.399875       -10.8812
  65   2.0000      -0.396091       -10.7782
  66   2.0000      -0.394042       -10.7224
  67   2.0000      -0.278651        -7.5825
  68   0.0000       0.070340         1.9140
  69   0.0000       0.086362         2.3500
  70   0.0000       0.093904         2.5553
  71   0.0000       0.101314         2.7569
  72   0.0000       0.107097         2.9143

MULLIKEN ATOMIC CHARGES
-----------------------
   0 C :    0.748161
   1 C :    0.427595
   2 C :   -0.134907
   3 H :    0.334311
   4 H :   -0.121920
   5 S :    1.540767
   6 C :    0.060371
   7 N :    0.074979
   8 C :    1.378682
   9 H :   -0.359286
  10 H :   -1.079152
  11 H :   -0.088099
  12 H :   -0.138392
  13 F :   -0.619807
  14 O :   -0.738768
  15 C :    0.214082
  16 C :   -0.023294
  17 C :    0.132360
  18 H :    0.051171
  19 H :   -0.255155
  20 H :    0.128365
  21 H :    0.023205
  22 C :   -0.152806
  23 H :   -0.107955
  24 H :   -0.517459
  25 C :    0.590024
  26 H :    0.172583
  27 H :   -0.292839
  28 C :    0.072566
  29 H :    0.050703
  30 H :   -0.020138
  31 H :    0.035038
  32 H :   -0.364544
  33 H :   -0.272180
  34 H :    0.091815
  35 O :   -0.813205
  36 H :   -0.089827
  37 H :    0.062954
Sum of atomic charges:    0.0000000

LOEWDIN ATOMIC CHARGES
----------------------
   0 C :    0.014609
   1 C :   -0.024219
   2 C :   -0.024611
   3 H :    0.027627
   4 H :    0.053528
   5 S :    1.143474
   6 C :   -0.245463
   7 N :    0.179123
   8 C :    0.160011
   9 H :   -0.127186
  10 H :   -0.105627
  11 H :   -0.001750
  12 H :    0.011372
  13 F :   -0.282593
  14 O :   -0.486183
  15 C :   -0.022236
  16 C :   -0.032481
  17 C :   -0.029381
  18 H :    0.016859
  19 H :    0.035333
  20 H :    0.044901
  21 H :    0.031253
  22 C :   -0.034327
  23 H :    0.032076
  24 H :   -0.004059
  25 C :   -0.033600
  26 H :    0.010780
  27 H :    0.025460
  28 C :   -0.034754
  29 H :    0.023380
  30 H :    0.023406
  31 H :    0.043965
  32 H :   -0.014963
  33 H :    0.026400
  34 H :    0.018516
  35 O :   -0.473700
  36 H :    0.033159
  37 H :    0.021903

  Mayer bond orders larger than 0.100000
B(  0-C ,  6-C ) :   0.9843 B(  0-C ,  8-C ) :   0.1510 B(  0-C ,  9-H ) :  -0.1304
B(  0-C , 15-C ) :   1.2323 B(  0-C , 36-H ) :   0.5959 B(  0-C , 37-H ) :   0.7088
B(  1-C ,  2-C ) :   1.2509 B(  1-C ,  4-H ) :   0.1484 B(  1-C , 17-C ) :   1.2235
B(  1-C , 20-H ) :   0.7270 B(  1-C , 21-H ) :   0.7009 B(  2-C ,  3-H ) :   0.7943
B(  2-C ,  4-H ) :   0.8891 B(  2-C ,  5-S ) :   1.0350 B(  2-C , 20-H ) :   0.1608
B(  2-C , 21-H ) :   0.1177 B(  2-C , 35-O ) :   0.1032 B(  4-H ,  5-S ) :   0.1192
B(  5-S , 13-F ) :   0.5820 B(  5-S , 14-O ) :   1.4834 B(  5-S , 35-O ) :   1.4667
B(  6-C ,  7-N ) :   0.8791 B(  6-C ,  8-C ) :   1.9285 B(  6-C , 12-H ) :  -0.1483
B(  6-C , 36-H ) :   0.2478 B(  6-C , 37-H ) :   0.1092 B(  7-N ,  8-C ) :   0.4489
B(  7-N , 10-H ) :  -0.1117 B(  7-N , 11-H ) :   1.1190 B(  7-N , 12-H ) :   1.3090
B(  8-C ,  9-H ) :   0.1084 B(  8-C , 10-H ) :  -0.1864 B(  8-C , 14-O ) :  -0.2660
B(  8-C , 24-H ) :   0.1048 B(  9-H , 10-H ) :  -0.1264 B(  9-H , 14-O ) :   0.1047
B(  9-H , 24-H ) :   0.1741 B( 10-H , 14-O ) :   0.2955 B( 10-H , 24-H ) :  -0.1124
B( 11-H , 12-H ) :  -0.1552 B( 13-F , 24-H ) :   0.1258 B( 13-F , 35-O ) :   0.1027
B( 15-C , 22-C ) :   1.2018 B( 15-C , 23-H ) :   0.7928 B( 15-C , 24-H ) :   0.7540
B( 15-C , 26-H ) :   0.1165 B( 15-C , 27-H ) :   0.1725 B( 15-C , 36-H ) :   0.2916
B( 15-C , 37-H ) :   0.1406 B( 16-C , 17-C ) :   1.1898 B( 16-C , 18-H ) :   0.1134
B( 16-C , 19-H ) :   0.1732 B( 16-C , 28-C ) :   1.2099 B( 16-C , 31-H ) :   0.7906
B( 16-C , 32-H ) :   1.0331 B( 16-C , 33-H ) :   0.2010 B( 16-C , 34-H ) :   0.1310
B( 17-C , 18-H ) :   0.8738 B( 17-C , 19-H ) :   0.9194 B( 17-C , 21-H ) :   0.2369
B( 17-C , 28-C ) :   0.1086 B( 22-C , 23-H ) :   0.1590 B( 22-C , 24-H ) :   0.1702
B( 22-C , 25-C ) :   1.0959 B( 22-C , 26-H ) :   0.8260 B( 22-C , 27-H ) :   1.0995
B( 22-C , 29-H ) :   0.1538 B( 22-C , 30-H ) :   0.2259 B( 25-C , 28-C ) :   1.1308
B( 25-C , 29-H ) :   0.6811 B( 25-C , 30-H ) :   0.7200 B( 26-H , 32-H ) :   0.1488
B( 28-C , 29-H ) :   0.2085 B( 28-C , 30-H ) :   0.1194 B( 28-C , 31-H ) :   0.1050
B( 28-C , 33-H ) :   0.9944 B( 28-C , 34-H ) :   0.8304 B( 31-H , 32-H ) :   0.1184
B( 36-H , 37-H ) :  -0.1088

Dispersion correction           -0.020708039
FINAL SINGLE POINT ENERGY     -1134.754007290981

DIPOLE MOMENT
-------------
                                X             Y             Z
Electronic contribution:     -7.64731     -16.63159     -13.01079
Nuclear contribution   :      7.91684      17.85507      15.13212
                        -----------------------------------------
Total Dipole Moment    :      0.26953       1.22348       2.12133
                        -----------------------------------------
Magnitude (a.u.)       :      2.46365
Magnitude (Debye)      :      6.26211

Rotational constants in cm-1:     0.018015     0.012410     0.008313
Rotational constants in MHz :   540.084467   372.038374   249.228144

                             ****ORCA TERMINATED NORMALLY****
TOTAL RUN TIME: 0 days 0 hours 1 minutes 49 seconds 582 msec
