                         Program Version 5.0.0 -  RELEASE  -
|  1> !wB97X-D3 RIJCOSX def2-SVPD def2/J TightSCF CPCM(Water) xyzfile
|  2>
|  3> *xyzfile 0 1 D3.xyz
|  4>
|  5> %MaxCore 64000
|  6>
|  7> %pal nprocs 18
|  8> end
|  9>
| 10> %scf
| 11>   MaxIter 150
| 12> end
| 13>
| 14>
| 15>                          ****END OF INPUT****

CARTESIAN COORDINATES (ANGSTROEM)
---------------------------------
  C      5.558206   -1.992914   -6.215054
  C      4.930199   -7.375319   -2.649623
  C      3.841892   -6.951611   -3.632829
  H      3.458144   -5.954425   -3.407121
  H      2.988484   -7.643606   -3.567078
  S      4.318115   -6.915930   -5.368692
  C      4.181880   -2.589671   -6.298911
  C      3.145873   -1.768431   -6.486753
  N      4.019102   -3.864307   -6.227427
  H      4.768490   -4.591153   -5.990773
  H      3.122405   -4.333392   -6.314620
  H      3.281635   -0.777786   -6.566549
  H      2.212549   -2.134193   -6.562246
  O      5.406154   -5.899480   -5.512972
  F      3.111910   -6.445079   -6.043792
  C      6.419260   -2.542944   -5.077630
  C      5.872267   -5.002756   -2.427819
  C      6.173994   -6.485522   -2.606315
  H      6.734852   -6.613767   -3.534015
  H      6.821463   -6.831018   -1.793617
  H      4.469612   -7.406168   -1.655876
  H      5.230134   -8.398678   -2.885906
  C      5.896512   -2.169314   -3.694552
  H      7.428880   -2.143665   -5.208078
  H      6.505894   -3.627541   -5.175502
  C      6.807804   -2.623428   -2.551019
  H      4.894708   -2.589732   -3.557501
  H      5.778823   -1.081255   -3.635790
  C      7.111544   -4.122463   -2.520363
  H      7.751615   -2.071393   -2.614406
  H      6.345837   -2.326401   -1.604086
  H      5.362882   -4.828697   -1.471335
  H      5.174429   -4.702577   -3.211298
  H      7.778329   -4.329347   -1.677651
  H      7.673189   -4.402845   -3.417586
  O      4.763396   -8.239424   -5.698629
  H      6.036826   -2.198189   -7.176852
  H      5.467610   -0.907371   -6.127968

 Total Charge           Charge          ....    0
 Multiplicity           Mult            ....    1
 Number of Electrons    NEL             ....  136
 Basis Dimension        Dim             ....  512

ORBITAL ENERGIES
----------------

  NO   OCC          E(Eh)            E(eV)
   0   2.0000     -89.253300     -2428.7058
   1   2.0000     -24.922420      -678.1735
   2   2.0000     -19.281076      -524.6648
   3   2.0000     -19.272938      -524.4433
   4   2.0000     -14.414451      -392.2372
   5   2.0000     -10.345126      -281.5052
   6   2.0000     -10.310566      -280.5648
   7   2.0000     -10.306266      -280.4478
   8   2.0000     -10.282668      -279.8056
   9   2.0000     -10.280722      -279.7527
  10   2.0000     -10.277377      -279.6616
  11   2.0000     -10.275852      -279.6202
  12   2.0000     -10.275732      -279.6169
  13   2.0000     -10.275223      -279.6030
  14   2.0000     -10.274986      -279.5966
  15   2.0000     -10.215122      -277.9676
  16   2.0000      -8.326305      -226.5703
  17   2.0000      -6.289953      -171.1583
  18   2.0000      -6.284325      -171.0052
  19   2.0000      -6.281790      -170.9362
  20   2.0000      -1.488964       -40.5168
  21   2.0000      -1.247078       -33.9347
  22   2.0000      -1.146981       -31.2109
  23   2.0000      -1.029811       -28.0226
  24   2.0000      -0.945243       -25.7214
  25   2.0000      -0.919258       -25.0143
  26   2.0000      -0.893339       -24.3090
  27   2.0000      -0.864380       -23.5210
  28   2.0000      -0.842630       -22.9291
  29   2.0000      -0.817058       -22.2333
  30   2.0000      -0.792569       -21.5669
  31   2.0000      -0.757008       -20.5992
  32   2.0000      -0.721482       -19.6325
  33   2.0000      -0.707841       -19.2613
  34   2.0000      -0.703340       -19.1389
  35   2.0000      -0.693220       -18.8635
  36   2.0000      -0.672376       -18.2963
  37   2.0000      -0.658677       -17.9235
  38   2.0000      -0.652966       -17.7681
  39   2.0000      -0.619590       -16.8599
  40   2.0000      -0.597070       -16.2471
  41   2.0000      -0.589737       -16.0476
  42   2.0000      -0.577416       -15.7123
  43   2.0000      -0.566854       -15.4249
  44   2.0000      -0.561023       -15.2662
  45   2.0000      -0.554787       -15.0965
  46   2.0000      -0.546046       -14.8587
  47   2.0000      -0.525065       -14.2878
  48   2.0000      -0.519040       -14.1238
  49   2.0000      -0.513860       -13.9828
  50   2.0000      -0.501496       -13.6464
  51   2.0000      -0.493857       -13.4385
  52   2.0000      -0.488424       -13.2907
  53   2.0000      -0.478301       -13.0152
  54   2.0000      -0.464690       -12.6449
  55   2.0000      -0.458996       -12.4899
  56   2.0000      -0.449881       -12.2419
  57   2.0000      -0.448118       -12.1939
  58   2.0000      -0.440884       -11.9971
  59   2.0000      -0.428134       -11.6501
  60   2.0000      -0.423603       -11.5268
  61   2.0000      -0.419900       -11.4261
  62   2.0000      -0.414941       -11.2911
  63   2.0000      -0.406469       -11.0606
  64   2.0000      -0.398319       -10.8388
  65   2.0000      -0.393682       -10.7126
  66   2.0000      -0.393540       -10.7088
  67   2.0000      -0.271676        -7.3927
  68   0.0000       0.068661         1.8684
  69   0.0000       0.089106         2.4247
  70   0.0000       0.092270         2.5108
  71   0.0000       0.099161         2.6983
  72   0.0000       0.103503         2.8165

MULLIKEN ATOMIC CHARGES
-----------------------
   0 C :    0.694442
   1 C :    0.387444
   2 C :   -0.203369
   3 H :    0.340983
   4 H :   -0.064262
   5 S :    1.618626
   6 C :   -0.521293
   7 C :    0.422621
   8 N :    0.890021
   9 H :   -0.341825
  10 H :   -0.209216
  11 H :   -0.268473
  12 H :   -0.329425
  13 O :   -0.972571
  14 F :   -0.466671
  15 C :    0.302634
  16 C :   -0.053812
  17 C :    0.172460
  18 H :    0.070967
  19 H :   -0.281833
  20 H :    0.131146
  21 H :    0.037217
  22 C :   -0.116998
  23 H :   -0.107464
  24 H :   -0.577963
  25 C :    0.571230
  26 H :    0.147629
  27 H :   -0.292745
  28 C :    0.058706
  29 H :    0.057286
  30 H :   -0.035462
  31 H :    0.030812
  32 H :   -0.301392
  33 H :   -0.289052
  34 H :    0.108733
  35 O :   -0.776721
  36 H :   -0.104289
  37 H :    0.271878
Sum of atomic charges:    0.0000000

LOEWDIN ATOMIC CHARGES
----------------------
   0 C :    0.014145
   1 C :   -0.010417
   2 C :   -0.026259
   3 H :    0.030216
   4 H :    0.047721
   5 S :    1.191335
   6 C :   -0.266963
   7 C :    0.144203
   8 N :    0.182084
   9 H :   -0.110713
  10 H :    0.000152
  11 H :   -0.108343
  12 H :   -0.100353
  13 O :   -0.465413
  14 F :   -0.236132
  15 C :   -0.023264
  16 C :   -0.032605
  17 C :   -0.028584
  18 H :    0.011556
  19 H :    0.033935
  20 H :    0.048651
  21 H :    0.033618
  22 C :   -0.034594
  23 H :    0.031631
  24 H :   -0.009467
  25 C :   -0.033670
  26 H :    0.011828
  27 H :    0.025793
  28 C :   -0.034199
  29 H :    0.023371
  30 H :    0.023145
  31 H :    0.042279
  32 H :   -0.015382
  33 H :    0.025703
  34 H :    0.018716
  35 O :   -0.462764
  36 H :    0.032718
  37 H :    0.026322

  Mayer bond orders larger than 0.100000
B(  0-C ,  6-C ) :   1.0203 B(  0-C ,  8-N ) :   0.1542 B(  0-C , 15-C ) :   1.1749
B(  0-C , 24-H ) :   0.1461 B(  0-C , 36-H ) :   0.5475 B(  0-C , 37-H ) :   0.6668
B(  1-C ,  2-C ) :   1.2989 B(  1-C ,  4-H ) :   0.1618 B(  1-C , 17-C ) :   1.2301
B(  1-C , 20-H ) :   0.7341 B(  1-C , 21-H ) :   0.6984 B(  2-C ,  3-H ) :   0.7495
B(  2-C ,  4-H ) :   0.9204 B(  2-C ,  5-S ) :   1.0208 B(  2-C , 20-H ) :   0.1670
B(  2-C , 21-H ) :   0.1079 B(  2-C , 35-O ) :   0.1025 B(  5-S , 13-O ) :   1.2088
B(  5-S , 14-F ) :   0.6268 B(  5-S , 35-O ) :   1.4766 B(  6-C ,  7-C ) :   1.8062
B(  6-C ,  8-N ) :   1.3957 B(  6-C , 10-H ) :  -0.1521 B(  6-C , 11-H ) :   0.1360
B(  6-C , 12-H ) :   0.2805 B(  6-C , 24-H ) :  -0.1081 B(  6-C , 36-H ) :   0.2844
B(  6-C , 37-H ) :   0.1079 B(  7-C ,  8-N ) :   0.1374 B(  7-C , 10-H ) :  -0.1001
B(  7-C , 11-H ) :   0.8542 B(  7-C , 12-H ) :   0.6550 B(  8-N ,  9-H ) :   0.6535
B(  8-N , 10-H ) :   0.9511 B(  8-N , 13-O ) :  -0.1472 B(  9-H , 10-H ) :  -0.1832
B(  9-H , 13-O ) :   0.1945 B( 10-H , 14-F ) :   0.1108 B( 13-O , 24-H ) :   0.1979
B( 13-O , 35-O ) :   0.1334 B( 15-C , 22-C ) :   1.1874 B( 15-C , 23-H ) :   0.7811
B( 15-C , 24-H ) :   0.6358 B( 15-C , 26-H ) :   0.1156 B( 15-C , 27-H ) :   0.1995
B( 15-C , 36-H ) :   0.2321 B( 15-C , 37-H ) :   0.1491 B( 16-C , 17-C ) :   1.1902
B( 16-C , 18-H ) :   0.1206 B( 16-C , 19-H ) :   0.1679 B( 16-C , 28-C ) :   1.2197
B( 16-C , 31-H ) :   0.8034 B( 16-C , 32-H ) :   1.0144 B( 16-C , 33-H ) :   0.1952
B( 16-C , 34-H ) :   0.1269 B( 17-C , 18-H ) :   0.8486 B( 17-C , 19-H ) :   0.9220
B( 17-C , 20-H ) :   0.1039 B( 17-C , 21-H ) :   0.2370 B( 17-C , 28-C ) :   0.1154
B( 22-C , 23-H ) :   0.1472 B( 22-C , 24-H ) :   0.1979 B( 22-C , 25-C ) :   1.0931
B( 22-C , 26-H ) :   0.8258 B( 22-C , 27-H ) :   1.0605 B( 22-C , 29-H ) :   0.1374
B( 22-C , 30-H ) :   0.2139 B( 25-C , 28-C ) :   1.1355 B( 25-C , 29-H ) :   0.7048
B( 25-C , 30-H ) :   0.7321 B( 26-H , 32-H ) :   0.1428 B( 28-C , 29-H ) :   0.2035
B( 28-C , 30-H ) :   0.1289 B( 28-C , 31-H ) :   0.1032 B( 28-C , 33-H ) :   1.0028
B( 28-C , 34-H ) :   0.8197 B( 31-H , 32-H ) :   0.1180

Dispersion correction           -0.020916184
FINAL SINGLE POINT ENERGY     -1134.758228424281

DIPOLE MOMENT
-------------
                                X             Y             Z
Electronic contribution:    -11.28587     -20.35633     -13.71255
Nuclear contribution   :     10.48431      18.81367      15.71750
                        -----------------------------------------
Total Dipole Moment    :     -0.80156      -1.54266       2.00495
                        -----------------------------------------
Magnitude (a.u.)       :      2.65370
Magnitude (Debye)      :      6.74516

Rotational constants in cm-1:     0.017977     0.012528     0.008321
Rotational constants in MHz :   538.924099   375.570730   249.458530

                             ****ORCA TERMINATED NORMALLY****
TOTAL RUN TIME: 0 days 0 hours 1 minutes 50 seconds 861 msec
