                         Program Version 5.0.0 -  RELEASE  -
|  1> !B3LYP D3BJ RIJCOSX def2-TZVP def2/J TightSCF
|  2> *xyz -1 1
|  3> C          1.44442        5.26658       -0.97546
|  4> O          1.56525        4.23349       -1.86489
|  5> C          0.14812        5.21087       -0.13809
|  6> H          1.47425        6.26464       -1.47692
|  7> H          2.28962        5.30327       -0.26445
|  8> H         -0.69779        5.17417       -0.79230
|  9> H          0.08430        6.08276        0.47887
| 10> H          0.15965        4.33708        0.47938
| 11> *
| 12> %MaxCore 64000
| 13>
| 14> %pal nprocs 4
| 15> end
| 16>
| 17> %scf
| 18>   MaxIter 150
| 19> end
| 20>
| 21>
| 22>                          ****END OF INPUT****

CARTESIAN COORDINATES (ANGSTROEM)
---------------------------------
  C      1.444420    5.266580   -0.975460
  O      1.565250    4.233490   -1.864890
  C      0.148120    5.210870   -0.138090
  H      1.474250    6.264640   -1.476920
  H      2.289620    5.303270   -0.264450
  H     -0.697790    5.174170   -0.792300
  H      0.084300    6.082760    0.478870
  H      0.159650    4.337080    0.479380

 Total Charge           Charge          ....   -1
 Multiplicity           Mult            ....    1
 Number of Electrons    NEL             ....   26
 Basis Dimension        Dim             ....  123

ORBITAL ENERGIES
----------------

  NO   OCC          E(Eh)            E(eV)
   0   2.0000     -18.771496      -510.7984
   1   2.0000      -9.972624      -271.3689
   2   2.0000      -9.952025      -270.8084
   3   2.0000      -0.664822       -18.0907
   4   2.0000      -0.517568       -14.0837
   5   2.0000      -0.363707        -9.8970
   6   2.0000      -0.241416        -6.5693
   7   2.0000      -0.220558        -6.0017
   8   2.0000      -0.164509        -4.4765
   9   2.0000      -0.148708        -4.0465
  10   2.0000      -0.099993        -2.7209
  11   2.0000       0.043927         1.1953
  12   2.0000       0.046885         1.2758
  13   0.0000       0.216126         5.8811
  14   0.0000       0.251579         6.8458
  15   0.0000       0.276285         7.5181
  16   0.0000       0.281566         7.6618
  17   0.0000       0.313414         8.5284

MULLIKEN ATOMIC CHARGES
-----------------------
   0 C :    0.068843
   1 O :   -0.771246
   2 C :   -0.105466
   3 H :   -0.084007
   4 H :   -0.078932
   5 H :    0.009622
   6 H :   -0.049282
   7 H :    0.010467
Sum of atomic charges:   -1.0000000

LOEWDIN ATOMIC CHARGES
----------------------
   0 C :   -0.546294
   1 O :   -0.424018
   2 C :   -0.358299
   3 H :    0.046502
   4 H :    0.048983
   5 H :    0.082575
   6 H :    0.068175
   7 H :    0.082376

  Mayer bond orders larger than 0.100000
B(  0-C ,  1-O ) :   1.6266 B(  0-C ,  2-C ) :   0.8644 B(  0-C ,  3-H ) :   0.9155
B(  0-C ,  4-H ) :   0.9155 B(  1-O ,  2-C ) :  -0.2862 B(  1-O ,  6-H ) :   0.1094
B(  2-C ,  5-H ) :   0.9615 B(  2-C ,  6-H ) :   0.9165 B(  2-C ,  7-H ) :   0.9656

Dispersion correction           -0.006225260
FINAL SINGLE POINT ENERGY      -154.397149470816

DIPOLE MOMENT
-------------
                                X             Y             Z
Electronic contribution:      1.21807      -1.79896      -2.20900
Nuclear contribution   :     -1.83256       2.47114       3.17273
                        -----------------------------------------
Total Dipole Moment    :     -0.61449       0.67218       0.96373
                        -----------------------------------------
Magnitude (a.u.)       :      1.32597
Magnitude (Debye)      :      3.37035

Rotational constants in cm-1:     1.286062     0.322579     0.284728
Rotational constants in MHz : 38555.180127  9670.683110  8535.939140

                             ****ORCA TERMINATED NORMALLY****
TOTAL RUN TIME: 0 days 0 hours 0 minutes 12 seconds 121 msec
