                         Program Version 5.0.0 -  RELEASE  -
|  1> !B3LYP D3BJ RIJCOSX def2-TZVP def2/J TightSCF
|  2> *xyz 1 1
|  3> C         -0.70169        4.07250       -4.00392
|  4> N          0.68053        4.61482       -4.04800
|  5> H          0.69993        5.58489       -4.38827
|  6> H          1.27804        4.05598       -4.66824
|  7> H          1.08573        4.53358       -3.10652
|  8> C         -1.70347        5.09320       -3.47740
|  9> H         -0.99590        3.74039       -5.00065
| 10> H         -0.64358        3.20191       -3.35153
| 11> H         -1.73704        5.93384       -4.13853
| 12> H         -1.40338        5.41759       -2.50291
| 13> H         -2.67335        4.64479       -3.42108
| 14> *
| 15> %MaxCore 64000
| 16>
| 17> %pal nprocs 4
| 18> end
| 19>
| 20> %scf
| 21>   MaxIter 150
| 22> end
| 23>
| 24>
| 25>                          ****END OF INPUT****

CARTESIAN COORDINATES (ANGSTROEM)
---------------------------------
  C     -0.701690    4.072500   -4.003920
  N      0.680530    4.614820   -4.048000
  H      0.699930    5.584890   -4.388270
  H      1.278040    4.055980   -4.668240
  H      1.085730    4.533580   -3.106520
  C     -1.703470    5.093200   -3.477400
  H     -0.995900    3.740390   -5.000650
  H     -0.643580    3.201910   -3.351530
  H     -1.737040    5.933840   -4.138530
  H     -1.403380    5.417590   -2.502910
  H     -2.673350    4.644790   -3.421080

 Total Charge           Charge          ....    1
 Multiplicity           Mult            ....    1
 Number of Electrons    NEL             ....   26
 Basis Dimension        Dim             ....  141

ORBITAL ENERGIES
----------------

  NO   OCC          E(Eh)            E(eV)
   0   2.0000     -14.650730      -398.6666
   1   2.0000     -10.422298      -283.6051
   2   2.0000     -10.342789      -281.4416
   3   2.0000      -1.217946       -33.1420
   4   2.0000      -0.965198       -26.2644
   5   2.0000      -0.845108       -22.9966
   6   2.0000      -0.805413       -21.9164
   7   2.0000      -0.787504       -21.4291
   8   2.0000      -0.697032       -18.9672
   9   2.0000      -0.643284       -17.5046
  10   2.0000      -0.584073       -15.8934
  11   2.0000      -0.568619       -15.4729
  12   2.0000      -0.552508       -15.0345
  13   0.0000      -0.198690        -5.4066
  14   0.0000      -0.139181        -3.7873
  15   0.0000      -0.132741        -3.6121
  16   0.0000      -0.113259        -3.0819
  17   0.0000      -0.075577        -2.0566

MULLIKEN ATOMIC CHARGES
-----------------------
   0 C :   -0.183067
   1 N :   -0.272505
   2 H :    0.318743
   3 H :    0.324125
   4 H :    0.323741
   5 C :   -0.330481
   6 H :    0.183314
   7 H :    0.179519
   8 H :    0.144924
   9 H :    0.138156
  10 H :    0.173531
Sum of atomic charges:    1.0000000

LOEWDIN ATOMIC CHARGES
----------------------
   0 C :   -0.274933
   1 N :    0.173902
   2 H :    0.220616
   3 H :    0.221618
   4 H :    0.224823
   5 C :   -0.271128
   6 H :    0.151467
   7 H :    0.150181
   8 H :    0.128982
   9 H :    0.128123
  10 H :    0.146349

  Mayer bond orders larger than 0.100000
B(  0-C ,  1-N ) :   0.8502 B(  0-C ,  5-C ) :   0.9806 B(  0-C ,  6-H ) :   0.9538
B(  0-C ,  7-H ) :   0.9565 B(  1-N ,  2-H ) :   0.8761 B(  1-N ,  3-H ) :   0.8827
B(  1-N ,  4-H ) :   0.8831 B(  5-C ,  8-H ) :   0.9599 B(  5-C ,  9-H ) :   0.9599
B(  5-C , 10-H ) :   0.9600

Dispersion correction           -0.010029090
FINAL SINGLE POINT ENERGY      -135.504474783362

DIPOLE MOMENT
-------------
                                X             Y             Z
Electronic contribution:      1.76777      -0.33048      -0.45687
Nuclear contribution   :     -0.23930       0.27560       0.19485
                        -----------------------------------------
Total Dipole Moment    :      1.52847      -0.05487      -0.26202
                        -----------------------------------------
Magnitude (a.u.)       :      1.55173
Magnitude (Debye)      :      3.94419

Rotational constants in cm-1:     1.018556     0.279088     0.248454
Rotational constants in MHz : 30535.536069  8366.847891  7448.451392

                             ****ORCA TERMINATED NORMALLY****
TOTAL RUN TIME: 0 days 0 hours 0 minutes 13 seconds 591 msec
