                         Program Version 5.0.0 -  RELEASE  -
|  1> !B3LYP D3BJ RIJCOSX def2-TZVP def2/J TightSCF xyzfile
|  2>
|  3> *xyzfile 0 1 B.xyz
|  4>
|  5> %MaxCore 64000
|  6>
|  7> %pal nprocs 18
|  8> end
|  9>
| 10> %scf
| 11>   MaxIter 150
| 12> end
| 13>
| 14>
| 15>                          ****END OF INPUT****

CARTESIAN COORDINATES (ANGSTROEM)
---------------------------------
  C     -0.701686    4.072499   -4.003920
  N      0.680528    4.614820   -4.048005
  C      1.444422    5.266576   -0.975463
  O      1.565248    4.233493   -1.864885
  H      0.699926    5.584890   -4.388272
  H      1.278044    4.055977   -4.668235
  H      1.085729    4.533581   -3.106524
  C     -1.703475    5.093197   -3.477396
  H     -0.995895    3.740394   -5.000654
  H     -0.643580    3.201910   -3.351533
  C     -1.313997    5.785995   -2.169271
  H     -1.877057    5.850103   -4.251154
  H     -2.653264    4.564475   -3.354796
  H     -2.097137    6.509395   -1.929558
  H     -0.416875    6.387594   -2.339097
  C     -1.073895    4.844728   -0.979904
  H     -1.968893    4.809608   -0.352568
  C      0.148120    5.210874   -0.138092
  H     -0.909754    3.827531   -1.338975
  H      1.474250    6.264638   -1.476917
  H      2.289622    5.303267   -0.264450
  H      0.261827    4.450942    0.640711
  H     -0.002516    6.171031    0.371483

 Total Charge           Charge          ....    0
 Multiplicity           Mult            ....    1
 Number of Electrons    NEL             ....   66
 Basis Dimension        Dim             ....  338

ORBITAL ENERGIES
----------------

  NO   OCC          E(Eh)            E(eV)
   0   2.0000     -18.988623      -516.7067
   1   2.0000     -14.394187      -391.6857
   2   2.0000     -10.233614      -278.4708
   3   2.0000     -10.188439      -277.2415
   4   2.0000     -10.163006      -276.5495
   5   2.0000     -10.150313      -276.2041
   6   2.0000     -10.141357      -275.9603
   7   2.0000     -10.122672      -275.4519
   8   2.0000      -0.988575       -26.9005
   9   2.0000      -0.887599       -24.1528
  10   2.0000      -0.808689       -22.0056
  11   2.0000      -0.745426       -20.2841
  12   2.0000      -0.692980       -18.8569
  13   2.0000      -0.634562       -17.2673
  14   2.0000      -0.587660       -15.9910
  15   2.0000      -0.570416       -15.5218
  16   2.0000      -0.566592       -15.4177
  17   2.0000      -0.518087       -14.0979
  18   2.0000      -0.490208       -13.3392
  19   2.0000      -0.462952       -12.5976
  20   2.0000      -0.454851       -12.3771
  21   2.0000      -0.417942       -11.3728
  22   2.0000      -0.406453       -11.0601
  23   2.0000      -0.394501       -10.7349
  24   2.0000      -0.374437       -10.1889
  25   2.0000      -0.354058        -9.6344
  26   2.0000      -0.348813        -9.4917
  27   2.0000      -0.329491        -8.9659
  28   2.0000      -0.307805        -8.3758
  29   2.0000      -0.299929        -8.1615
  30   2.0000      -0.292568        -7.9612
  31   2.0000      -0.177664        -4.8345
  32   2.0000      -0.171689        -4.6719
  33   0.0000      -0.009214        -0.2507
  34   0.0000       0.032505         0.8845
  35   0.0000       0.039573         1.0768
  36   0.0000       0.060619         1.6495
  37   0.0000       0.068263         1.8575

MULLIKEN ATOMIC CHARGES
-----------------------
   0 C :   -0.158407
   1 N :   -0.275752
   2 C :   -0.010801
   3 O :   -0.697971
   4 H :    0.243457
   5 H :    0.255717
   6 H :    0.291364
   7 C :   -0.202535
   8 H :    0.122888
   9 H :    0.154085
  10 C :   -0.195024
  11 H :    0.102086
  12 H :    0.104516
  13 H :    0.092564
  14 H :    0.079417
  15 C :   -0.119555
  16 H :    0.076819
  17 C :   -0.088986
  18 H :    0.068139
  19 H :    0.007790
  20 H :    0.043449
  21 H :    0.062257
  22 H :    0.044483
Sum of atomic charges:   -0.0000000

LOEWDIN ATOMIC CHARGES
----------------------
   0 C :   -0.277621
   1 N :    0.144727
   2 C :   -0.475690
   3 O :   -0.270386
   4 H :    0.186084
   5 H :    0.189438
   6 H :    0.084967
   7 C :   -0.272286
   8 H :    0.126906
   9 H :    0.142455
  10 C :   -0.260736
  11 H :    0.133009
  12 H :    0.145036
  13 H :    0.133915
  14 H :    0.131521
  15 C :   -0.269783
  16 H :    0.126227
  17 C :   -0.280226
  18 H :    0.134583
  19 H :    0.077484
  20 H :    0.101727
  21 H :    0.127297
  22 H :    0.121353

  Mayer bond orders larger than 0.100000
B(  0-C ,  1-N ) :   0.8777 B(  0-C ,  7-C ) :   0.9874 B(  0-C ,  8-H ) :   0.9669
B(  0-C ,  9-H ) :   0.9703 B(  1-N ,  4-H ) :   0.9071 B(  1-N ,  5-H ) :   0.9132
B(  1-N ,  6-H ) :   0.6251 B(  2-C ,  3-O ) :   1.2411 B(  2-C , 17-C ) :   0.9163
B(  2-C , 19-H ) :   0.9713 B(  2-C , 20-H ) :   0.9609 B(  3-O ,  6-H ) :   0.4218
B(  3-O , 17-C ) :  -0.1264 B(  7-C , 10-C ) :   0.9565 B(  7-C , 11-H ) :   0.9748
B(  7-C , 12-H ) :   0.9639 B( 10-C , 13-H ) :   0.9709 B( 10-C , 14-H ) :   0.9752
B( 10-C , 15-C ) :   0.9468 B( 15-C , 16-H ) :   0.9638 B( 15-C , 17-C ) :   0.9847
B( 15-C , 18-H ) :   0.9575 B( 17-C , 21-H ) :   0.9507 B( 17-C , 22-H ) :   0.9496

Dispersion correction           -0.035848341
FINAL SINGLE POINT ENERGY      -367.532175700549

DIPOLE MOMENT
-------------
                                X             Y             Z
Electronic contribution:      2.04128      -1.59784      -1.31493
Nuclear contribution   :     -3.16446       1.92310      -1.11926
                        -----------------------------------------
Total Dipole Moment    :     -1.12318       0.32527      -2.43418
                        -----------------------------------------
Magnitude (a.u.)       :      2.70048
Magnitude (Debye)      :      6.86407

Rotational constants in cm-1:     0.085554     0.055600     0.038553
Rotational constants in MHz :  2564.854379  1666.836664  1155.798427

                             ****ORCA TERMINATED NORMALLY****
TOTAL RUN TIME: 0 days 0 hours 0 minutes 28 seconds 183 msec
