                         Program Version 5.0.0 -  RELEASE  -
|  1> !B3LYP D3BJ RIJCOSX def2-TZVP def2/J TightSCF
|  2> *xyz 0 1
|  3> C          1.44442        5.26658       -0.97546
|  4> F          1.56525        4.23349       -1.86489
|  5> C          0.14812        5.21087       -0.13809
|  6> H          1.47425        6.26464       -1.47692
|  7> H          2.28962        5.30327       -0.26445
|  8> H         -0.69779        5.17417       -0.79230
|  9> H          0.08430        6.08276        0.47887
| 10> H          0.15965        4.33708        0.47938
| 11> *
| 12> %MaxCore 64000
| 13>
| 14> %pal nprocs 4
| 15> end
| 16>
| 17> %scf
| 18>   MaxIter 150
| 19> end
| 20>
| 21>
| 22>                          ****END OF INPUT****

CARTESIAN COORDINATES (ANGSTROEM)
---------------------------------
  C      1.444420    5.266580   -0.975460
  F      1.565250    4.233490   -1.864890
  C      0.148120    5.210870   -0.138090
  H      1.474250    6.264640   -1.476920
  H      2.289620    5.303270   -0.264450
  H     -0.697790    5.174170   -0.792300
  H      0.084300    6.082760    0.478870
  H      0.159650    4.337080    0.479380

 Total Charge           Charge          ....    0
 Multiplicity           Mult            ....    1
 Number of Electrons    NEL             ....   26
 Basis Dimension        Dim             ....  123

ORBITAL ENERGIES
----------------

  NO   OCC          E(Eh)            E(eV)
   0   2.0000     -24.666588      -671.2120
   1   2.0000     -10.247279      -278.8426
   2   2.0000     -10.163470      -276.5621
   3   2.0000      -1.198136       -32.6029
   4   2.0000      -0.762517       -20.7492
   5   2.0000      -0.631858       -17.1937
   6   2.0000      -0.507983       -13.8229
   7   2.0000      -0.493418       -13.4266
   8   2.0000      -0.457464       -12.4482
   9   2.0000      -0.405985       -11.0474
  10   2.0000      -0.402417       -10.9503
  11   2.0000      -0.336005        -9.1432
  12   2.0000      -0.330447        -8.9919
  13   0.0000       0.040749         1.1088
  14   0.0000       0.078696         2.1414
  15   0.0000       0.095705         2.6043
  16   0.0000       0.098056         2.6682
  17   0.0000       0.112590         3.0637

MULLIKEN ATOMIC CHARGES
-----------------------
   0 C :    0.060946
   1 F :   -0.244611
   2 C :   -0.300343
   3 H :    0.081910
   4 H :    0.082370
   5 H :    0.110177
   6 H :    0.100485
   7 H :    0.109066
Sum of atomic charges:   -0.0000000

LOEWDIN ATOMIC CHARGES
----------------------
   0 C :   -0.364354
   1 F :    0.093285
   2 C :   -0.304206
   3 H :    0.114718
   4 H :    0.113125
   5 H :    0.114700
   6 H :    0.118966
   7 H :    0.113766

  Mayer bond orders larger than 0.100000
B(  0-C ,  1-F ) :   0.9879 B(  0-C ,  2-C ) :   0.9729 B(  0-C ,  3-H ) :   0.9698
B(  0-C ,  4-H ) :   0.9692 B(  2-C ,  5-H ) :   0.9709 B(  2-C ,  6-H ) :   0.9583
B(  2-C ,  7-H ) :   0.9721

Dispersion correction           -0.005732959
FINAL SINGLE POINT ENERGY      -179.047602879915

DIPOLE MOMENT
-------------
                                X             Y             Z
Electronic contribution:      2.30456      -2.75990      -3.71538
Nuclear contribution   :     -2.43357       3.25919       4.19687
                        -----------------------------------------
Total Dipole Moment    :     -0.12901       0.49929       0.48149
                        -----------------------------------------
Magnitude (a.u.)       :      0.70553
Magnitude (Debye)      :      1.79330

Rotational constants in cm-1:     1.264662     0.300144     0.266170
Rotational constants in MHz : 37913.611527  8998.095216  7979.576054

                             ****ORCA TERMINATED NORMALLY****
TOTAL RUN TIME: 0 days 0 hours 0 minutes 11 seconds 276 msec
