                         Program Version 5.0.0 -  RELEASE  -
|  1> !B3LYP D3BJ RIJCOSX def2-TZVP def2/J TightSCF
|  2> *xyz 0 1
|  3> C         -0.70169        4.07250       -4.00392
|  4> C          0.68053        4.61482       -4.04800
|  5> H          0.69993        5.58489       -4.38827
|  6> H          1.27804        4.05598       -4.66824
|  7> H          1.08573        4.53358       -3.10652
|  8> C         -1.70347        5.09320       -3.47740
|  9> H         -0.99590        3.74039       -5.00065
| 10> H         -0.64358        3.20191       -3.35153
| 11> H         -1.73704        5.93384       -4.13853
| 12> H         -1.40338        5.41759       -2.50291
| 13> H         -2.67335        4.64479       -3.42108
| 14> *
| 15> %MaxCore 64000
| 16>
| 17> %pal nprocs 4
| 18> end
| 19>
| 20> %scf
| 21>   MaxIter 150
| 22> end
| 23>
| 24>
| 25>                          ****END OF INPUT****

CARTESIAN COORDINATES (ANGSTROEM)
---------------------------------
  C     -0.701690    4.072500   -4.003920
  C      0.680530    4.614820   -4.048000
  H      0.699930    5.584890   -4.388270
  H      1.278040    4.055980   -4.668240
  H      1.085730    4.533580   -3.106520
  C     -1.703470    5.093200   -3.477400
  H     -0.995900    3.740390   -5.000650
  H     -0.643580    3.201910   -3.351530
  H     -1.737040    5.933840   -4.138530
  H     -1.403380    5.417590   -2.502910
  H     -2.673350    4.644790   -3.421080

 Total Charge           Charge          ....    0
 Multiplicity           Mult            ....    1
 Number of Electrons    NEL             ....   26
 Basis Dimension        Dim             ....  141

ORBITAL ENERGIES
----------------

  NO   OCC          E(Eh)            E(eV)
   0   2.0000     -10.152904      -276.2746
   1   2.0000     -10.144697      -276.0512
   2   2.0000     -10.126412      -275.5537
   3   2.0000      -0.790338       -21.5062
   4   2.0000      -0.689663       -18.7667
   5   2.0000      -0.583895       -15.8886
   6   2.0000      -0.468862       -12.7584
   7   2.0000      -0.444055       -12.0833
   8   2.0000      -0.401829       -10.9343
   9   2.0000      -0.391663       -10.6577
  10   2.0000      -0.336758        -9.1637
  11   2.0000      -0.334093        -9.0911
  12   2.0000      -0.326582        -8.8867
  13   0.0000       0.040616         1.1052
  14   0.0000       0.082170         2.2360
  15   0.0000       0.089513         2.4358
  16   0.0000       0.093986         2.5575
  17   0.0000       0.113888         3.0991

MULLIKEN ATOMIC CHARGES
-----------------------
   0 C :   -0.130336
   1 C :   -0.304439
   2 H :    0.092940
   3 H :    0.103417
   4 H :    0.098899
   5 C :   -0.308213
   6 H :    0.077313
   7 H :    0.075078
   8 H :    0.097961
   9 H :    0.094897
  10 H :    0.102483
Sum of atomic charges:    0.0000000

LOEWDIN ATOMIC CHARGES
----------------------
   0 C :   -0.316962
   1 C :   -0.299944
   2 H :    0.106187
   3 H :    0.107361
   4 H :    0.109260
   5 C :   -0.300826
   6 H :    0.126820
   7 H :    0.129985
   8 H :    0.112602
   9 H :    0.113146
  10 H :    0.112372

  Mayer bond orders larger than 0.100000
B(  0-C ,  1-C ) :   0.9550 B(  0-C ,  5-C ) :   0.9689 B(  0-C ,  6-H ) :   0.9737
B(  0-C ,  7-H ) :   0.9748 B(  1-C ,  2-H ) :   0.9805 B(  1-C ,  3-H ) :   0.9831
B(  1-C ,  4-H ) :   0.9818 B(  5-C ,  8-H ) :   0.9776 B(  5-C ,  9-H ) :   0.9769
B(  5-C , 10-H ) :   0.9798

Dispersion correction           -0.010106681
FINAL SINGLE POINT ENERGY      -119.093758469835

DIPOLE MOMENT
-------------
                                X             Y             Z
Electronic contribution:     -0.13539      -0.31038      -0.13864
Nuclear contribution   :      0.16058       0.27975       0.12812
                        -----------------------------------------
Total Dipole Moment    :      0.02518      -0.03063      -0.01052
                        -----------------------------------------
Magnitude (a.u.)       :      0.04103
Magnitude (Debye)      :      0.10428

Rotational constants in cm-1:     1.027122     0.293327     0.260229
Rotational constants in MHz : 30792.337141  8793.723318  7801.458329

                             ****ORCA TERMINATED NORMALLY****
TOTAL RUN TIME: 0 days 0 hours 0 minutes 13 seconds 568 msec
