                         Program Version 5.0.0 -  RELEASE  -
|  1> !B3LYP D3BJ RIJCOSX def2-TZVP def2/J TightSCF xyzfile
|  2>
|  3> *xyzfile 0 1 D.xyz
|  4>
|  5> %MaxCore 64000
|  6>
|  7> %pal nprocs 18
|  8> end
|  9>
| 10> %scf
| 11>   MaxIter 150
| 12> end
| 13>
| 14>
| 15>                          ****END OF INPUT****

CARTESIAN COORDINATES (ANGSTROEM)
---------------------------------
  C     -0.701686    4.072499   -4.003920
  C      0.680528    4.614820   -4.048005
  C      1.444422    5.266576   -0.975463
  F      1.565248    4.233493   -1.864885
  H      0.699926    5.584890   -4.388272
  H      1.278044    4.055977   -4.668235
  H      1.085729    4.533581   -3.106524
  C     -1.703475    5.093197   -3.477396
  H     -0.995895    3.740394   -5.000654
  H     -0.643580    3.201910   -3.351533
  C     -1.313997    5.785995   -2.169271
  H     -1.877057    5.850103   -4.251154
  H     -2.653264    4.564475   -3.354796
  H     -2.097137    6.509395   -1.929558
  H     -0.416875    6.387594   -2.339097
  C     -1.073895    4.844728   -0.979904
  H     -1.968893    4.809608   -0.352568
  C      0.148120    5.210874   -0.138092
  H     -0.909754    3.827531   -1.338975
  H      1.474250    6.264638   -1.476917
  H      2.289622    5.303267   -0.264450
  H      0.261827    4.450942    0.640711
  H     -0.002516    6.171031    0.371483

 Total Charge           Charge          ....    0
 Multiplicity           Mult            ....    1
 Number of Electrons    NEL             ....   66
 Basis Dimension        Dim             ....  338

ORBITAL ENERGIES
----------------

  NO   OCC          E(Eh)            E(eV)
   0   2.0000     -24.687924      -671.7926
   1   2.0000     -10.254696      -279.0445
   2   2.0000     -10.177698      -276.9492
   3   2.0000     -10.163208      -276.5549
   4   2.0000     -10.156624      -276.3758
   5   2.0000     -10.149666      -276.1865
   6   2.0000     -10.136856      -275.8379
   7   2.0000     -10.082931      -274.3705
   8   2.0000      -1.232664       -33.5425
   9   2.0000      -0.812719       -22.1152
  10   2.0000      -0.782623       -21.2962
  11   2.0000      -0.722747       -19.6669
  12   2.0000      -0.690027       -18.7766
  13   2.0000      -0.629942       -17.1416
  14   2.0000      -0.596211       -16.2237
  15   2.0000      -0.542416       -14.7599
  16   2.0000      -0.535728       -14.5779
  17   2.0000      -0.519807       -14.1447
  18   2.0000      -0.492240       -13.3945
  19   2.0000      -0.458214       -12.4686
  20   2.0000      -0.451273       -12.2798
  21   2.0000      -0.428012       -11.6468
  22   2.0000      -0.413722       -11.2579
  23   2.0000      -0.388655       -10.5758
  24   2.0000      -0.380613       -10.3570
  25   2.0000      -0.368425       -10.0253
  26   2.0000      -0.359292        -9.7768
  27   2.0000      -0.340672        -9.2701
  28   2.0000      -0.330215        -8.9856
  29   2.0000      -0.315050        -8.5729
  30   2.0000      -0.303404        -8.2561
  31   2.0000      -0.300993        -8.1904
  32   2.0000      -0.277523        -7.5518
  33   0.0000       0.033465         0.9106
  34   0.0000       0.048224         1.3122
  35   0.0000       0.054064         1.4712
  36   0.0000       0.069954         1.9035
  37   0.0000       0.079290         2.1576

MULLIKEN ATOMIC CHARGES
-----------------------
   0 C :   -0.140862
   1 C :   -0.412418
   2 C :   -0.009550
   3 F :   -0.191152
   4 H :    0.080143
   5 H :    0.090124
   6 H :    0.184738
   7 C :   -0.171382
   8 H :    0.077717
   9 H :    0.072586
  10 C :   -0.167379
  11 H :    0.084805
  12 H :    0.076479
  13 H :    0.085760
  14 H :    0.083452
  15 C :   -0.158127
  16 H :    0.094626
  17 C :   -0.183271
  18 H :    0.096063
  19 H :    0.108430
  20 H :    0.108858
  21 H :    0.096460
  22 H :    0.093899
Sum of atomic charges:   -0.0000000

LOEWDIN ATOMIC CHARGES
----------------------
   0 C :   -0.302021
   1 C :   -0.316413
   2 C :   -0.342727
   3 F :    0.173788
   4 H :    0.100351
   5 H :    0.101863
   6 H :    0.066554
   7 C :   -0.266393
   8 H :    0.127762
   9 H :    0.127685
  10 C :   -0.259560
  11 H :    0.133212
  12 H :    0.131345
  13 H :    0.130962
  14 H :    0.133110
  15 C :   -0.260775
  16 H :    0.133070
  17 C :   -0.270212
  18 H :    0.138650
  19 H :    0.123532
  20 H :    0.123039
  21 H :    0.133826
  22 H :    0.139354

  Mayer bond orders larger than 0.100000
B(  0-C ,  1-C ) :   0.9152 B(  0-C ,  7-C ) :   0.9827 B(  0-C ,  8-H ) :   0.9734
B(  0-C ,  9-H ) :   0.9808 B(  1-C ,  4-H ) :   0.9787 B(  1-C ,  5-H ) :   0.9818
B(  1-C ,  6-H ) :   0.9529 B(  2-C ,  3-F ) :   0.9392 B(  2-C , 17-C ) :   0.9773
B(  2-C , 19-H ) :   0.9827 B(  2-C , 20-H ) :   0.9688 B(  7-C , 10-C ) :   0.9608
B(  7-C , 11-H ) :   0.9683 B(  7-C , 12-H ) :   0.9700 B( 10-C , 13-H ) :   0.9681
B( 10-C , 14-H ) :   0.9765 B( 10-C , 15-C ) :   0.9465 B( 15-C , 16-H ) :   0.9693
B( 15-C , 17-C ) :   0.9682 B( 15-C , 18-H ) :   0.9746 B( 17-C , 21-H ) :   0.9663
B( 17-C , 22-H ) :   0.9510

Dispersion correction           -0.034913072
FINAL SINGLE POINT ENERGY      -375.501757162235

DIPOLE MOMENT
-------------
                                X             Y             Z
Electronic contribution:      5.13447      -2.27903       2.77914
Nuclear contribution   :     -5.08831       2.68947      -1.99048
                        -----------------------------------------
Total Dipole Moment    :      0.04616       0.41045       0.78866
                        -----------------------------------------
Magnitude (a.u.)       :      0.89027
Magnitude (Debye)      :      2.26289

Rotational constants in cm-1:     0.084646     0.055672     0.038419
Rotational constants in MHz :  2537.625105  1668.992890  1151.781380

                             ****ORCA TERMINATED NORMALLY****
TOTAL RUN TIME: 0 days 0 hours 0 minutes 24 seconds 881 msec
