                         Program Version 5.0.0 -  RELEASE  -
|  1> !M062X D3Zero RIJCOSX def2-SVP def2/J TightSCF
|  2> *xyz -1 1
|  3> C         -7.33044       -2.67899       -3.20681
|  4> S         -6.01966       -2.92697       -4.41913
|  5> O         -5.64583       -1.58838       -4.91931
|  6> O         -4.88196       -3.50370       -3.66724
|  7> O         -6.54927       -3.80515       -5.42507
|  8> C         -7.46900       -1.24615       -2.71383
|  9> H         -7.11825       -3.37982       -2.39805
| 10> H         -8.24184       -3.00474       -3.70651
| 11> H         -7.67580       -0.60214       -3.54292
| 12> H         -6.55749       -0.94096       -2.24382
| 13> H         -8.27114       -1.18777       -2.00810
| 14> *
| 15> %MaxCore 64000
| 16>
| 17> %pal nprocs 4
| 18> end
| 19>
| 20> %scf
| 21>   MaxIter 150
| 22> end
| 23>
| 24>
| 25>                          ****END OF INPUT****

CARTESIAN COORDINATES (ANGSTROEM)
---------------------------------
  C     -7.330440   -2.678990   -3.206810
  S     -6.019660   -2.926970   -4.419130
  O     -5.645830   -1.588380   -4.919310
  O     -4.881960   -3.503700   -3.667240
  O     -6.549270   -3.805150   -5.425070
  C     -7.469000   -1.246150   -2.713830
  H     -7.118250   -3.379820   -2.398050
  H     -8.241840   -3.004740   -3.706510
  H     -7.675800   -0.602140   -3.542920
  H     -6.557490   -0.940960   -2.243820
  H     -8.271140   -1.187770   -2.008100

 Total Charge           Charge          ....   -1
 Multiplicity           Mult            ....    1
 Number of Electrons    NEL             ....   58
 Basis Dimension        Dim             ....  113

ORBITAL ENERGIES
----------------

  NO   OCC          E(Eh)            E(eV)
   0   2.0000     -89.899304     -2446.2844
   1   2.0000     -19.385237      -527.4991
   2   2.0000     -19.374820      -527.2157
   3   2.0000     -19.368381      -527.0404
   4   2.0000     -10.404323      -283.1160
   5   2.0000     -10.399977      -282.9978
   6   2.0000      -8.229753      -223.9430
   7   2.0000      -6.154290      -167.4667
   8   2.0000      -6.154269      -167.4662
   9   2.0000      -6.154017      -167.4593
  10   2.0000      -1.018429       -27.7129
  11   2.0000      -0.872175       -23.7331
  12   2.0000      -0.847490       -23.0614
  13   2.0000      -0.716895       -19.5077
  14   2.0000      -0.581695       -15.8287
  15   2.0000      -0.445515       -12.1231
  16   2.0000      -0.383975       -10.4485
  17   2.0000      -0.375661       -10.2223
  18   2.0000      -0.334592        -9.1047
  19   2.0000      -0.315357        -8.5813
  20   2.0000      -0.312740        -8.5101
  21   2.0000      -0.284014        -7.7284
  22   2.0000      -0.275503        -7.4968
  23   2.0000      -0.193473        -5.2647
  24   2.0000      -0.192555        -5.2397
  25   2.0000      -0.156776        -4.2661
  26   2.0000      -0.147813        -4.0222
  27   2.0000      -0.141076        -3.8389
  28   2.0000      -0.105463        -2.8698
  29   0.0000       0.238446         6.4884
  30   0.0000       0.293532         7.9874
  31   0.0000       0.295963         8.0536
  32   0.0000       0.304023         8.2729
  33   0.0000       0.325169         8.8483

MULLIKEN ATOMIC CHARGES
-----------------------
   0 C :   -0.170650
   1 S :    0.963370
   2 O :   -0.634337
   3 O :   -0.650128
   4 O :   -0.602151
   5 C :   -0.020159
   6 H :    0.034274
   7 H :    0.026015
   8 H :    0.033104
   9 H :    0.032924
  10 H :   -0.012262
Sum of atomic charges:   -1.0000000

LOEWDIN ATOMIC CHARGES
----------------------
   0 C :   -0.197316
   1 S :    1.142490
   2 O :   -0.654462
   3 O :   -0.668906
   4 O :   -0.617995
   5 C :   -0.075054
   6 H :    0.014883
   7 H :    0.010359
   8 H :    0.020822
   9 H :    0.021974
  10 H :    0.003204

  Mayer bond orders larger than 0.100000
B(  0-C ,  1-S ) :   0.8789 B(  0-C ,  5-C ) :   1.0745 B(  0-C ,  6-H ) :   0.9473
B(  0-C ,  7-H ) :   0.9477 B(  1-S ,  2-O ) :   1.5872 B(  1-S ,  3-O ) :   1.5745
B(  1-S ,  4-O ) :   1.6305 B(  5-C ,  8-H ) :   0.9672 B(  5-C ,  9-H ) :   0.9708
B(  5-C , 10-H ) :   0.9624

Dispersion correction           -0.000149823
FINAL SINGLE POINT ENERGY      -702.566702602218

DIPOLE MOMENT
-------------
                                X             Y             Z
Electronic contribution:      4.72083      -3.53584      -5.14672
Nuclear contribution   :     -6.18165       4.01759       6.33106
                        -----------------------------------------
Total Dipole Moment    :     -1.46082       0.48175       1.18434
                        -----------------------------------------
Magnitude (a.u.)       :      1.94133
Magnitude (Debye)      :      4.93446

Rotational constants in cm-1:     0.161711     0.082788     0.081165
Rotational constants in MHz :  4847.971521  2481.906910  2433.276832

                             ****ORCA TERMINATED NORMALLY****
TOTAL RUN TIME: 0 days 0 hours 0 minutes 13 seconds 696 msec
