                         Program Version 5.0.0 -  RELEASE  -
|  1> !M062X D3Zero RIJCOSX def2-SVP def2/J TightSCF
|  2> *xyz 1 1
|  3> C         -2.16038       -1.36949       -3.46710
|  4> N         -3.03011       -1.91086       -4.54107
|  5> C         -2.04772        0.14658       -3.51177
|  6> H         -3.47744       -2.79151       -4.25710
|  7> H         -2.53801       -2.01786       -5.43808
|  8> H         -3.89159       -1.37604       -4.71437
|  9> H         -1.18444       -1.84400       -3.56639
| 10> H         -2.59819       -1.70838       -2.52848
| 11> H         -1.61525        0.44478       -4.44395
| 12> H         -1.42718        0.48198       -2.70720
| 13> H         -3.02145        0.57958       -3.41560
| 14> *
| 15> %MaxCore 64000
| 16>
| 17> %pal nprocs 4
| 18> end
| 19>
| 20> %scf
| 21>   MaxIter 150
| 22> end
| 23>
| 24>
| 25>                          ****END OF INPUT****

CARTESIAN COORDINATES (ANGSTROEM)
---------------------------------
  C     -2.160380   -1.369490   -3.467100
  N     -3.030110   -1.910860   -4.541070
  C     -2.047720    0.146580   -3.511770
  H     -3.477440   -2.791510   -4.257100
  H     -2.538010   -2.017860   -5.438080
  H     -3.891590   -1.376040   -4.714370
  H     -1.184440   -1.844000   -3.566390
  H     -2.598190   -1.708380   -2.528480
  H     -1.615250    0.444780   -4.443950
  H     -1.427180    0.481980   -2.707200
  H     -3.021450    0.579580   -3.415600

 Total Charge           Charge          ....    1
 Multiplicity           Mult            ....    1
 Number of Electrons    NEL             ....   26
 Basis Dimension        Dim             ....   82

ORBITAL ENERGIES
----------------

  NO   OCC          E(Eh)            E(eV)
   0   2.0000     -15.099312      -410.8732
   1   2.0000     -10.805327      -294.0279
   2   2.0000     -10.724774      -291.8359
   3   2.0000      -1.316210       -35.8159
   4   2.0000      -1.055723       -28.7277
   5   2.0000      -0.927416       -25.2363
   6   2.0000      -0.886384       -24.1197
   7   2.0000      -0.845389       -23.0042
   8   2.0000      -0.770583       -20.9686
   9   2.0000      -0.711352       -19.3569
  10   2.0000      -0.645182       -17.5563
  11   2.0000      -0.629936       -17.1414
  12   2.0000      -0.612145       -16.6573
  13   0.0000      -0.148297        -4.0354
  14   0.0000      -0.088469        -2.4074
  15   0.0000      -0.085507        -2.3268
  16   0.0000      -0.050810        -1.3826
  17   0.0000      -0.008747        -0.2380

MULLIKEN ATOMIC CHARGES
-----------------------
   0 C :   -0.072139
   1 N :   -0.048902
   2 C :   -0.071068
   3 H :    0.225712
   4 H :    0.236272
   5 H :    0.216211
   6 H :    0.124231
   7 H :    0.117158
   8 H :    0.080279
   9 H :    0.114669
  10 H :    0.077576
Sum of atomic charges:    1.0000000

LOEWDIN ATOMIC CHARGES
----------------------
   0 C :    0.049202
   1 N :    0.278238
   2 C :   -0.043049
   3 H :    0.152532
   4 H :    0.151426
   5 H :    0.147260
   6 H :    0.058926
   7 H :    0.055711
   8 H :    0.042673
   9 H :    0.065833
  10 H :    0.041248

  Mayer bond orders larger than 0.100000
B(  0-C ,  1-N ) :   0.8998 B(  0-C ,  2-C ) :   1.0906 B(  0-C ,  6-H ) :   0.9500
B(  0-C ,  7-H ) :   0.9531 B(  1-N ,  3-H ) :   0.9289 B(  1-N ,  4-H ) :   0.9264
B(  1-N ,  5-H ) :   0.9273 B(  2-C ,  8-H ) :   0.9700 B(  2-C ,  9-H ) :   0.9583
B(  2-C , 10-H ) :   0.9672

Dispersion correction           -0.000055695
FINAL SINGLE POINT ENERGY      -135.346788541046

DIPOLE MOMENT
-------------
                                X             Y             Z
Electronic contribution:     -0.67579      -1.52136      -0.80204
Nuclear contribution   :     -0.15215       0.37393      -0.04773
                        -----------------------------------------
Total Dipole Moment    :     -0.82793      -1.14743      -0.84977
                        -----------------------------------------
Magnitude (a.u.)       :      1.65051
Magnitude (Debye)      :      4.19526

Rotational constants in cm-1:     1.020762     0.277172     0.247319
Rotational constants in MHz : 30601.664035  8309.399682  7414.438136

                             ****ORCA TERMINATED NORMALLY****
TOTAL RUN TIME: 0 days 0 hours 0 minutes 9 seconds 321 msec
