                         Program Version 5.0.0 -  RELEASE  -
|  1> !M062X D3Zero RIJCOSX def2-SVP def2/J TightSCF
|  2> *xyz 0 1
|  3> C         -7.33044       -2.67899       -3.20681
|  4> S         -6.01966       -2.92697       -4.41913
|  5> F         -5.64583       -1.58838       -4.91931
|  6> O         -4.88196       -3.50370       -3.66724
|  7> O         -6.54927       -3.80515       -5.42507
|  8> C         -7.46900       -1.24615       -2.71383
|  9> H         -7.11825       -3.37982       -2.39805
| 10> H         -8.24184       -3.00474       -3.70651
| 11> H         -7.67580       -0.60214       -3.54292
| 12> H         -6.55749       -0.94096       -2.24382
| 13> H         -8.27114       -1.18777       -2.00810
| 14> *
| 15> %MaxCore 64000
| 16>
| 17> %pal nprocs 4
| 18> end
| 19>
| 20> %scf
| 21>   MaxIter 150
| 22> end
| 23>
| 24>
| 25>                          ****END OF INPUT****

CARTESIAN COORDINATES (ANGSTROEM)
---------------------------------
  C     -7.330440   -2.678990   -3.206810
  S     -6.019660   -2.926970   -4.419130
  F     -5.645830   -1.588380   -4.919310
  O     -4.881960   -3.503700   -3.667240
  O     -6.549270   -3.805150   -5.425070
  C     -7.469000   -1.246150   -2.713830
  H     -7.118250   -3.379820   -2.398050
  H     -8.241840   -3.004740   -3.706510
  H     -7.675800   -0.602140   -3.542920
  H     -6.557490   -0.940960   -2.243820
  H     -8.271140   -1.187770   -2.008100

 Total Charge           Charge          ....    0
 Multiplicity           Mult            ....    1
 Number of Electrons    NEL             ....   58
 Basis Dimension        Dim             ....  113

ORBITAL ENERGIES
----------------

  NO   OCC          E(Eh)            E(eV)
   0   2.0000     -90.172637     -2453.7222
   1   2.0000     -25.349002      -689.7814
   2   2.0000     -19.638119      -534.3804
   3   2.0000     -19.621531      -533.9290
   4   2.0000     -10.612553      -288.7822
   5   2.0000     -10.581383      -287.9341
   6   2.0000      -8.505525      -231.4471
   7   2.0000      -6.433088      -175.0532
   8   2.0000      -6.427803      -174.9094
   9   2.0000      -6.426896      -174.8847
  10   2.0000      -1.481370       -40.3101
  11   2.0000      -1.219974       -33.1972
  12   2.0000      -1.110349       -30.2141
  13   2.0000      -0.922420       -25.1003
  14   2.0000      -0.813934       -22.1483
  15   2.0000      -0.762748       -20.7554
  16   2.0000      -0.676484       -18.4081
  17   2.0000      -0.661553       -18.0018
  18   2.0000      -0.620408       -16.8822
  19   2.0000      -0.572781       -15.5862
  20   2.0000      -0.550218       -14.9722
  21   2.0000      -0.520089       -14.1523
  22   2.0000      -0.511440       -13.9170
  23   2.0000      -0.481605       -13.1051
  24   2.0000      -0.463376       -12.6091
  25   2.0000      -0.451036       -12.2733
  26   2.0000      -0.396494       -10.7892
  27   2.0000      -0.382322       -10.4035
  28   2.0000      -0.371949       -10.1212
  29   0.0000       0.057955         1.5770
  30   0.0000       0.102018         2.7761
  31   0.0000       0.118654         3.2288
  32   0.0000       0.129493         3.5237
  33   0.0000       0.137788         3.7494

MULLIKEN ATOMIC CHARGES
-----------------------
   0 C :   -0.191343
   1 S :    1.036117
   2 F :   -0.228299
   3 O :   -0.510380
   4 O :   -0.460955
   5 C :   -0.064205
   6 H :    0.119966
   7 H :    0.102860
   8 H :    0.059215
   9 H :    0.068693
  10 H :    0.068331
Sum of atomic charges:   -0.0000000

LOEWDIN ATOMIC CHARGES
----------------------
   0 C :   -0.151365
   1 S :    1.205863
   2 F :   -0.160773
   3 O :   -0.542767
   4 O :   -0.490876
   5 C :   -0.065625
   6 H :    0.055467
   7 H :    0.044074
   8 H :    0.030167
   9 H :    0.034350
  10 H :    0.041486

  Mayer bond orders larger than 0.100000
B(  0-C ,  1-S ) :   0.9217 B(  0-C ,  5-C ) :   1.0556 B(  0-C ,  6-H ) :   0.9355
B(  0-C ,  7-H ) :   0.9383 B(  1-S ,  2-F ) :   0.9599 B(  1-S ,  3-O ) :   1.7330
B(  1-S ,  4-O ) :   1.7860 B(  5-C ,  8-H ) :   0.9732 B(  5-C ,  9-H ) :   0.9722
B(  5-C , 10-H ) :   0.9635

Dispersion correction           -0.000156820
FINAL SINGLE POINT ENERGY      -727.076604370271

DIPOLE MOMENT
-------------
                                X             Y             Z
Electronic contribution:      5.62569      -1.69887      -6.37564
Nuclear contribution   :     -6.81251       2.87933       7.15058
                        -----------------------------------------
Total Dipole Moment    :     -1.18682       1.18046       0.77493
                        -----------------------------------------
Magnitude (a.u.)       :      1.84460
Magnitude (Debye)      :      4.68861

Rotational constants in cm-1:     0.152543     0.082494     0.078987
Rotational constants in MHz :  4573.135887  2473.116216  2367.980829

                             ****ORCA TERMINATED NORMALLY****
TOTAL RUN TIME: 0 days 0 hours 0 minutes 14 seconds 64 msec
