                         Program Version 5.0.0 -  RELEASE  -
|  1> !M062X D3Zero RIJCOSX def2-SVP def2/J TightSCF
|  2> *xyz 0 1
|  3> C         -2.16038       -1.36949       -3.46710
|  4> C         -3.03011       -1.91086       -4.54107
|  5> C         -2.04772        0.14658       -3.51177
|  6> H         -3.47744       -2.79151       -4.25710
|  7> H         -2.53801       -2.01786       -5.43808
|  8> H         -3.89159       -1.37604       -4.71437
|  9> H         -1.18444       -1.84400       -3.56639
| 10> H         -2.59819       -1.70838       -2.52848
| 11> H         -1.61525        0.44478       -4.44395
| 12> H         -1.42718        0.48198       -2.70720
| 13> H         -3.02145        0.57958       -3.41560
| 14> *
| 15> %MaxCore 64000
| 16>
| 17> %pal nprocs 4
| 18> end
| 19>
| 20> %scf
| 21>   MaxIter 150
| 22> end
| 23>
| 24>
| 25>                          ****END OF INPUT****

CARTESIAN COORDINATES (ANGSTROEM)
---------------------------------
  C     -2.160380   -1.369490   -3.467100
  C     -3.030110   -1.910860   -4.541070
  C     -2.047720    0.146580   -3.511770
  H     -3.477440   -2.791510   -4.257100
  H     -2.538010   -2.017860   -5.438080
  H     -3.891590   -1.376040   -4.714370
  H     -1.184440   -1.844000   -3.566390
  H     -2.598190   -1.708380   -2.528480
  H     -1.615250    0.444780   -4.443950
  H     -1.427180    0.481980   -2.707200
  H     -3.021450    0.579580   -3.415600

 Total Charge           Charge          ....    0
 Multiplicity           Mult            ....    1
 Number of Electrons    NEL             ....   26
 Basis Dimension        Dim             ....   82

ORBITAL ENERGIES
----------------

  NO   OCC          E(Eh)            E(eV)
   0   2.0000     -10.535113      -286.6750
   1   2.0000     -10.528211      -286.4872
   2   2.0000     -10.511089      -286.0213
   3   2.0000      -0.879988       -23.9457
   4   2.0000      -0.774088       -21.0640
   5   2.0000      -0.663560       -18.0564
   6   2.0000      -0.538493       -14.6531
   7   2.0000      -0.506379       -13.7793
   8   2.0000      -0.465932       -12.6787
   9   2.0000      -0.457254       -12.4425
  10   2.0000      -0.398934       -10.8556
  11   2.0000      -0.386776       -10.5247
  12   2.0000      -0.385733       -10.4963
  13   0.0000       0.102570         2.7911
  14   0.0000       0.150828         4.1042
  15   0.0000       0.154628         4.2077
  16   0.0000       0.156112         4.2480
  17   0.0000       0.187094         5.0911

MULLIKEN ATOMIC CHARGES
-----------------------
   0 C :   -0.137393
   1 C :    0.004715
   2 C :   -0.044882
   3 H :    0.004058
   4 H :    0.019569
   5 H :   -0.002248
   6 H :    0.033348
   7 H :    0.029400
   8 H :    0.031035
   9 H :    0.032188
  10 H :    0.030210
Sum of atomic charges:    0.0000000

LOEWDIN ATOMIC CHARGES
----------------------
   0 C :   -0.048773
   1 C :   -0.056574
   2 C :   -0.057460
   3 H :    0.019520
   4 H :    0.016068
   5 H :    0.015799
   6 H :    0.023412
   7 H :    0.022101
   8 H :    0.021991
   9 H :    0.022304
  10 H :    0.021611

  Mayer bond orders larger than 0.100000
B(  0-C ,  1-C ) :   1.0942 B(  0-C ,  2-C ) :   1.0919 B(  0-C ,  6-H ) :   0.9588
B(  0-C ,  7-H ) :   0.9614 B(  1-C ,  3-H ) :   0.9650 B(  1-C ,  4-H ) :   0.9742
B(  1-C ,  5-H ) :   0.9669 B(  2-C ,  8-H ) :   0.9773 B(  2-C ,  9-H ) :   0.9731
B(  2-C , 10-H ) :   0.9751

Dispersion correction           -0.000054268
FINAL SINGLE POINT ENERGY      -118.953569146495

DIPOLE MOMENT
-------------
                                X             Y             Z
Electronic contribution:      0.31332      -0.12258       0.27005
Nuclear contribution   :     -0.34625       0.09603      -0.26933
                        -----------------------------------------
Total Dipole Moment    :     -0.03292      -0.02654       0.00071
                        -----------------------------------------
Magnitude (a.u.)       :      0.04230
Magnitude (Debye)      :      0.10751

Rotational constants in cm-1:     1.028617     0.291238     0.258956
Rotational constants in MHz : 30837.159054  8731.095379  7763.318586

                             ****ORCA TERMINATED NORMALLY****
TOTAL RUN TIME: 0 days 0 hours 0 minutes 9 seconds 129 msec
