                         Program Version 5.0.0 -  RELEASE  -
|  1> !M062X D3Zero RIJCOSX def2-SVP def2/J TightSCF
|  2> *xyz 0 1
|  3> C         -7.33044       -2.67899       -3.20681
|  4> S         -6.01966       -2.92697       -4.41913
|  5> O         -5.64583       -1.58838       -4.91931
|  6> F         -4.88196       -3.50370       -3.66724
|  7> O         -6.54927       -3.80515       -5.42507
|  8> C         -7.46900       -1.24615       -2.71383
|  9> H         -7.11825       -3.37982       -2.39805
| 10> H         -8.24184       -3.00474       -3.70651
| 11> H         -7.67580       -0.60214       -3.54292
| 12> H         -6.55749       -0.94096       -2.24382
| 13> H         -8.27114       -1.18777       -2.00810
| 14> *
| 15> %MaxCore 64000
| 16>
| 17> %pal nprocs 4
| 18> end
| 19>
| 20> %scf
| 21>   MaxIter 150
| 22> end
| 23>
| 24>
| 25>                          ****END OF INPUT****

CARTESIAN COORDINATES (ANGSTROEM)
---------------------------------
  C     -7.330440   -2.678990   -3.206810
  S     -6.019660   -2.926970   -4.419130
  O     -5.645830   -1.588380   -4.919310
  F     -4.881960   -3.503700   -3.667240
  O     -6.549270   -3.805150   -5.425070
  C     -7.469000   -1.246150   -2.713830
  H     -7.118250   -3.379820   -2.398050
  H     -8.241840   -3.004740   -3.706510
  H     -7.675800   -0.602140   -3.542920
  H     -6.557490   -0.940960   -2.243820
  H     -8.271140   -1.187770   -2.008100

 Total Charge           Charge          ....    0
 Multiplicity           Mult            ....    1
 Number of Electrons    NEL             ....   58
 Basis Dimension        Dim             ....  113

ORBITAL ENERGIES
----------------

  NO   OCC          E(Eh)            E(eV)
   0   2.0000     -90.173510     -2453.7459
   1   2.0000     -25.344894      -689.6696
   2   2.0000     -19.638456      -534.3896
   3   2.0000     -19.627325      -534.0867
   4   2.0000     -10.613049      -288.7958
   5   2.0000     -10.572191      -287.6839
   6   2.0000      -8.506311      -231.4685
   7   2.0000      -6.433783      -175.0721
   8   2.0000      -6.428621      -174.9317
   9   2.0000      -6.427826      -174.9100
  10   2.0000      -1.476854       -40.1872
  11   2.0000      -1.221705       -33.2443
  12   2.0000      -1.115087       -30.3431
  13   2.0000      -0.917651       -24.9705
  14   2.0000      -0.814699       -22.1691
  15   2.0000      -0.755714       -20.5640
  16   2.0000      -0.665694       -18.1144
  17   2.0000      -0.657066       -17.8797
  18   2.0000      -0.630015       -17.1436
  19   2.0000      -0.566144       -15.4056
  20   2.0000      -0.557127       -15.1602
  21   2.0000      -0.525585       -14.3019
  22   2.0000      -0.496453       -13.5092
  23   2.0000      -0.469789       -12.7836
  24   2.0000      -0.464171       -12.6307
  25   2.0000      -0.449131       -12.2215
  26   2.0000      -0.397103       -10.8057
  27   2.0000      -0.388810       -10.5801
  28   2.0000      -0.376202       -10.2370
  29   0.0000       0.074674         2.0320
  30   0.0000       0.082937         2.2568
  31   0.0000       0.114775         3.1232
  32   0.0000       0.127239         3.4623
  33   0.0000       0.142183         3.8690

MULLIKEN ATOMIC CHARGES
-----------------------
   0 C :   -0.213558
   1 S :    1.041468
   2 O :   -0.500364
   3 F :   -0.234962
   4 O :   -0.463405
   5 C :   -0.027689
   6 H :    0.091592
   7 H :    0.113830
   8 H :    0.076428
   9 H :    0.058329
  10 H :    0.058331
Sum of atomic charges:   -0.0000000

LOEWDIN ATOMIC CHARGES
----------------------
   0 C :   -0.158965
   1 S :    1.206511
   2 O :   -0.531082
   3 F :   -0.168566
   4 O :   -0.491967
   5 C :   -0.056105
   6 H :    0.037886
   7 H :    0.052176
   8 H :    0.039319
   9 H :    0.033353
  10 H :    0.037442

  Mayer bond orders larger than 0.100000
B(  0-C ,  1-S ) :   0.9062 B(  0-C ,  5-C ) :   1.0632 B(  0-C ,  6-H ) :   0.9350
B(  0-C ,  7-H ) :   0.9375 B(  1-S ,  2-O ) :   1.7455 B(  1-S ,  3-F ) :   0.9536
B(  1-S ,  4-O ) :   1.7869 B(  5-C ,  8-H ) :   0.9675 B(  5-C ,  9-H ) :   0.9729
B(  5-C , 10-H ) :   0.9615

Dispersion correction           -0.000152665
FINAL SINGLE POINT ENERGY      -727.080659687226

DIPOLE MOMENT
-------------
                                X             Y             Z
Electronic contribution:      6.97140      -4.99295      -4.25890
Nuclear contribution   :     -7.60849       4.87515       5.84588
                        -----------------------------------------
Total Dipole Moment    :     -0.63709      -0.11780       1.58698
                        -----------------------------------------
Magnitude (a.u.)       :      1.71414
Magnitude (Debye)      :      4.35699

Rotational constants in cm-1:     0.153704     0.080342     0.079431
Rotational constants in MHz :  4607.928650  2408.599360  2381.267225

                             ****ORCA TERMINATED NORMALLY****
TOTAL RUN TIME: 0 days 0 hours 0 minutes 14 seconds 261 msec
