                         Program Version 5.0.0 -  RELEASE  -
|  1> !M062X D3Zero RIJCOSX def2-TZVP def2/J TightSCF xyzfile
|  2>
|  3> *xyzfile 0 1 D1.xyz
|  4>
|  5> %MaxCore 64000
|  6>
|  7> %pal nprocs 18
|  8> end
|  9>
| 10> %scf
| 11>   MaxIter 150
| 12> end
| 13>
| 14>
| 15>                          ****END OF INPUT****

CARTESIAN COORDINATES (ANGSTROEM)
---------------------------------
  C     -2.160376   -1.369486   -3.467104
  C     -3.030108   -1.910857   -4.541074
  C     -2.047717    0.146583   -3.511774
  C     -7.330440   -2.678991   -3.206811
  S     -6.019659   -2.926965   -4.419128
  H     -3.477443   -2.791513   -4.257096
  H     -2.538013   -2.017860   -5.438075
  H     -3.891589   -1.376039   -4.714365
  F     -5.645830   -1.588384   -4.919307
  O     -4.881961   -3.503697   -3.667235
  H     -1.184438   -1.843997   -3.566393
  H     -2.598195   -1.708376   -2.528477
  O     -6.549267   -3.805150   -5.425071
  C     -3.328755    0.875037   -3.103669
  H     -1.740034    0.452343   -4.517126
  H     -1.232611    0.434938   -2.842208
  C     -3.628487    0.771601   -1.609363
  H     -4.175106    0.490791   -3.682203
  H     -3.237812    1.928663   -3.381480
  C     -4.975718    1.361432   -1.190644
  H     -2.830700    1.276234   -1.054766
  H     -3.594312   -0.275838   -1.294603
  C     -6.184720    0.784347   -1.926464
  H     -4.956292    2.445725   -1.342200
  H     -5.097256    1.205252   -0.114136
  C     -6.286921   -0.735882   -1.893531
  H     -6.163994    1.100199   -2.974250
  H     -7.094530    1.223459   -1.504509
  C     -7.468999   -1.246153   -2.713833
  H     -6.360641   -1.090347   -0.859176
  H     -5.369848   -1.171853   -2.295982
  H     -7.601914   -0.601349   -3.585329
  H     -8.389791   -1.173436   -2.126922
  H     -7.118254   -3.379818   -2.398055
  H     -8.241838   -3.004745   -3.706513

 Total Charge           Charge          ....    0
 Multiplicity           Mult            ....    1
 Number of Electrons    NEL             ....  122
 Basis Dimension        Dim             ....  566

ORBITAL ENERGIES
----------------

  NO   OCC          E(Eh)            E(eV)
   0   2.0000     -90.156099     -2453.2722
   1   2.0000     -25.357549      -690.0140
   2   2.0000     -19.647549      -534.6370
   3   2.0000     -19.632390      -534.2245
   4   2.0000     -10.600988      -288.4676
   5   2.0000     -10.569772      -287.6181
   6   2.0000     -10.548377      -287.0359
   7   2.0000     -10.539947      -286.8065
   8   2.0000     -10.532795      -286.6119
   9   2.0000     -10.525705      -286.4190
  10   2.0000     -10.523309      -286.3538
  11   2.0000     -10.515664      -286.1458
  12   2.0000     -10.505424      -285.8671
  13   2.0000     -10.457786      -284.5708
  14   2.0000      -8.481482      -230.7929
  15   2.0000      -6.406360      -174.3259
  16   2.0000      -6.401080      -174.1822
  17   2.0000      -6.400798      -174.1746
  18   2.0000      -1.511549       -41.1313
  19   2.0000      -1.237823       -33.6829
  20   2.0000      -1.138810       -30.9886
  21   2.0000      -0.949197       -25.8290
  22   2.0000      -0.916960       -24.9517
  23   2.0000      -0.887205       -24.1421
  24   2.0000      -0.858796       -23.3690
  25   2.0000      -0.819912       -22.3109
  26   2.0000      -0.801370       -21.8064
  27   2.0000      -0.762967       -20.7614
  28   2.0000      -0.725562       -19.7435
  29   2.0000      -0.709056       -19.2944
  30   2.0000      -0.685613       -18.6565
  31   2.0000      -0.681404       -18.5420
  32   2.0000      -0.653597       -17.7853
  33   2.0000      -0.639410       -17.3992
  34   2.0000      -0.626820       -17.0566
  35   2.0000      -0.573374       -15.6023
  36   2.0000      -0.566034       -15.4026
  37   2.0000      -0.554334       -15.0842
  38   2.0000      -0.542442       -14.7606
  39   2.0000      -0.537058       -14.6141
  40   2.0000      -0.523455       -14.2439
  41   2.0000      -0.506922       -13.7941
  42   2.0000      -0.503613       -13.7040
  43   2.0000      -0.495427       -13.4812
  44   2.0000      -0.482322       -13.1247
  45   2.0000      -0.465756       -12.6739
  46   2.0000      -0.459276       -12.4975
  47   2.0000      -0.457046       -12.4369
  48   2.0000      -0.440223       -11.9791
  49   2.0000      -0.430467       -11.7136
  50   2.0000      -0.422340       -11.4925
  51   2.0000      -0.417705       -11.3663
  52   2.0000      -0.406173       -11.0525
  53   2.0000      -0.398881       -10.8541
  54   2.0000      -0.392650       -10.6845
  55   2.0000      -0.387137       -10.5345
  56   2.0000      -0.383264       -10.4291
  57   2.0000      -0.374724       -10.1968
  58   2.0000      -0.363082        -9.8800
  59   2.0000      -0.359907        -9.7936
  60   2.0000      -0.340472        -9.2647
  61   0.0000       0.034565         0.9406
  62   0.0000       0.064133         1.7452
  63   0.0000       0.070998         1.9320
  64   0.0000       0.076463         2.0807
  65   0.0000       0.082790         2.2528

MULLIKEN ATOMIC CHARGES
-----------------------
   0 C :   -0.253331
   1 C :   -0.547733
   2 C :   -0.244329
   3 C :   -0.320394
   4 S :    0.958647
   5 H :    0.222313
   6 H :    0.143838
   7 H :    0.125827
   8 F :   -0.127281
   9 O :   -0.472381
  10 H :    0.130330
  11 H :    0.145351
  12 O :   -0.446548
  13 C :   -0.315367
  14 H :    0.142053
  15 H :    0.136239
  16 C :   -0.311254
  17 H :    0.135753
  18 H :    0.148566
  19 C :   -0.277470
  20 H :    0.149256
  21 H :    0.163381
  22 C :   -0.297703
  23 H :    0.149422
  24 H :    0.148493
  25 C :   -0.348615
  26 H :    0.163268
  27 H :    0.152511
  28 C :   -0.314062
  29 H :    0.162345
  30 H :    0.157263
  31 H :    0.182206
  32 H :    0.163055
  33 H :    0.197583
  34 H :    0.198766
Sum of atomic charges:    0.0000000

LOEWDIN ATOMIC CHARGES
----------------------
   0 C :   -0.302752
   1 C :   -0.342392
   2 C :   -0.271614
   3 C :   -0.354122
   4 S :    0.594352
   5 H :    0.105257
   6 H :    0.104864
   7 H :    0.093553
   8 F :    0.067501
   9 O :   -0.291512
  10 H :    0.136772
  11 H :    0.134723
  12 O :   -0.262295
  13 C :   -0.271115
  14 H :    0.137855
  15 H :    0.136370
  16 C :   -0.274476
  17 H :    0.130998
  18 H :    0.137974
  19 C :   -0.272306
  20 H :    0.139700
  21 H :    0.136341
  22 C :   -0.276515
  23 H :    0.139620
  24 H :    0.138690
  25 C :   -0.273910
  26 H :    0.137536
  27 H :    0.139663
  28 C :   -0.292474
  29 H :    0.142944
  30 H :    0.138407
  31 H :    0.143843
  32 H :    0.148282
  33 H :    0.153610
  34 H :    0.146632

  Mayer bond orders larger than 0.100000
B(  0-C ,  1-C ) :   0.8625 B(  0-C ,  2-C ) :   0.9011 B(  0-C , 10-H ) :   0.9887
B(  0-C , 11-H ) :   1.0110 B(  1-C ,  5-H ) :   0.9584 B(  1-C ,  6-H ) :   0.9712
B(  1-C ,  7-H ) :   0.9950 B(  2-C , 13-C ) :   0.9286 B(  2-C , 14-H ) :   0.9834
B(  2-C , 15-H ) :   0.9887 B(  3-C ,  4-S ) :   0.9123 B(  3-C , 28-C ) :   0.9218
B(  3-C , 33-H ) :   0.9412 B(  3-C , 34-H ) :   0.9584 B(  4-S ,  8-F ) :   1.0615
B(  4-S ,  9-O ) :   1.7874 B(  4-S , 12-O ) :   1.9573 B( 13-C , 16-C ) :   0.8802
B( 13-C , 17-H ) :   0.9918 B( 13-C , 18-H ) :   0.9801 B( 16-C , 19-C ) :   0.9143
B( 16-C , 20-H ) :   0.9782 B( 16-C , 21-H ) :   0.9908 B( 19-C , 22-C ) :   0.9256
B( 19-C , 23-H ) :   0.9905 B( 19-C , 24-H ) :   0.9915 B( 22-C , 25-C ) :   0.8702
B( 22-C , 26-H ) :   0.9873 B( 22-C , 27-H ) :   0.9817 B( 25-C , 28-C ) :   0.8591
B( 25-C , 29-H ) :   0.9646 B( 25-C , 30-H ) :   0.9979 B( 28-C , 31-H ) :   0.9943
B( 28-C , 32-H ) :   0.9639

Dispersion correction           -0.002315727
FINAL SINGLE POINT ENERGY     -1042.088973517778

DIPOLE MOMENT
-------------
                                X             Y             Z
Electronic contribution:    -10.87982     -16.16275     -13.15629
Nuclear contribution   :      9.63012      17.20461      14.03552
                        -----------------------------------------
Total Dipole Moment    :     -1.24970       1.04186       0.87922
                        -----------------------------------------
Magnitude (a.u.)       :      1.84939
Magnitude (Debye)      :      4.70078

Rotational constants in cm-1:     0.025899     0.015189     0.010690
Rotational constants in MHz :   776.424978   455.369614   320.488876

                             ****ORCA TERMINATED NORMALLY****
TOTAL RUN TIME: 0 days 0 hours 1 minutes 26 seconds 815 msec
