                         Program Version 5.0.0 -  RELEASE  -
|  1> !M062X D3Zero RIJCOSX def2-TZVP def2/J TightSCF xyzfile
|  2>
|  3> *xyzfile 0 1 D2.xyz
|  4>
|  5> %MaxCore 64000
|  6>
|  7> %pal nprocs 18
|  8> end
|  9>
| 10> %scf
| 11>   MaxIter 150
| 12> end
| 13>
| 14>
| 15>                          ****END OF INPUT****

CARTESIAN COORDINATES (ANGSTROEM)
---------------------------------
  C     -2.160376   -1.369486   -3.467104
  C     -3.030108   -1.910857   -4.541074
  C     -2.047717    0.146583   -3.511774
  C     -7.330440   -2.678991   -3.206811
  S     -6.019659   -2.926965   -4.419128
  H     -3.477443   -2.791513   -4.257096
  H     -2.538013   -2.017860   -5.438075
  H     -3.891589   -1.376039   -4.714365
  O     -5.645830   -1.588384   -4.919307
  F     -4.881961   -3.503697   -3.667235
  H     -1.184438   -1.843997   -3.566393
  H     -2.598195   -1.708376   -2.528477
  O     -6.549267   -3.805150   -5.425071
  C     -3.328755    0.875037   -3.103669
  H     -1.740034    0.452343   -4.517126
  H     -1.232611    0.434938   -2.842208
  C     -3.628487    0.771601   -1.609363
  H     -4.175106    0.490791   -3.682203
  H     -3.237812    1.928663   -3.381480
  C     -4.975718    1.361432   -1.190644
  H     -2.830700    1.276234   -1.054766
  H     -3.594312   -0.275838   -1.294603
  C     -6.184720    0.784347   -1.926464
  H     -4.956292    2.445725   -1.342200
  H     -5.097256    1.205252   -0.114136
  C     -6.286921   -0.735882   -1.893531
  H     -6.163994    1.100199   -2.974250
  H     -7.094530    1.223459   -1.504509
  C     -7.468999   -1.246153   -2.713833
  H     -6.360641   -1.090347   -0.859176
  H     -5.369848   -1.171853   -2.295982
  H     -7.601914   -0.601349   -3.585329
  H     -8.389791   -1.173436   -2.126922
  H     -7.118254   -3.379818   -2.398055
  H     -8.241838   -3.004745   -3.706513

 Total Charge           Charge          ....    0
 Multiplicity           Mult            ....    1
 Number of Electrons    NEL             ....  122
 Basis Dimension        Dim             ....  566

ORBITAL ENERGIES
----------------

  NO   OCC          E(Eh)            E(eV)
   0   2.0000     -90.156418     -2453.2809
   1   2.0000     -25.354679      -689.9359
   2   2.0000     -19.647682      -534.6406
   3   2.0000     -19.636199      -534.3281
   4   2.0000     -10.601697      -288.4868
   5   2.0000     -10.562634      -287.4239
   6   2.0000     -10.544992      -286.9438
   7   2.0000     -10.534277      -286.6523
   8   2.0000     -10.529061      -286.5103
   9   2.0000     -10.522952      -286.3441
  10   2.0000     -10.517562      -286.1974
  11   2.0000     -10.514586      -286.1164
  12   2.0000     -10.508104      -285.9400
  13   2.0000     -10.461125      -284.6617
  14   2.0000      -8.481757      -230.8003
  15   2.0000      -6.406562      -174.3314
  16   2.0000      -6.401543      -174.1948
  17   2.0000      -6.401007      -174.1803
  18   2.0000      -1.509447       -41.0741
  19   2.0000      -1.238831       -33.7103
  20   2.0000      -1.141234       -31.0546
  21   2.0000      -0.944069       -25.6894
  22   2.0000      -0.914232       -24.8775
  23   2.0000      -0.886141       -24.1131
  24   2.0000      -0.859293       -23.3826
  25   2.0000      -0.819058       -22.2877
  26   2.0000      -0.800496       -21.7826
  27   2.0000      -0.760071       -20.6826
  28   2.0000      -0.721854       -19.6426
  29   2.0000      -0.708348       -19.2751
  30   2.0000      -0.679700       -18.4956
  31   2.0000      -0.671679       -18.2773
  32   2.0000      -0.657144       -17.8818
  33   2.0000      -0.644382       -17.5345
  34   2.0000      -0.624116       -16.9831
  35   2.0000      -0.581254       -15.8167
  36   2.0000      -0.558609       -15.2005
  37   2.0000      -0.550524       -14.9805
  38   2.0000      -0.544773       -14.8240
  39   2.0000      -0.537911       -14.6373
  40   2.0000      -0.515911       -14.0386
  41   2.0000      -0.502601       -13.6765
  42   2.0000      -0.500434       -13.6175
  43   2.0000      -0.495237       -13.4761
  44   2.0000      -0.476930       -12.9779
  45   2.0000      -0.469218       -12.7681
  46   2.0000      -0.455499       -12.3948
  47   2.0000      -0.448085       -12.1930
  48   2.0000      -0.440554       -11.9881
  49   2.0000      -0.429577       -11.6894
  50   2.0000      -0.421389       -11.4666
  51   2.0000      -0.410021       -11.1572
  52   2.0000      -0.401457       -10.9242
  53   2.0000      -0.400994       -10.9116
  54   2.0000      -0.394169       -10.7259
  55   2.0000      -0.389784       -10.6066
  56   2.0000      -0.378510       -10.2998
  57   2.0000      -0.373055       -10.1513
  58   2.0000      -0.360867        -9.8197
  59   2.0000      -0.357929        -9.7397
  60   2.0000      -0.348806        -9.4915
  61   0.0000       0.047709         1.2982
  62   0.0000       0.061951         1.6858
  63   0.0000       0.070367         1.9148
  64   0.0000       0.072961         1.9854
  65   0.0000       0.085093         2.3155

MULLIKEN ATOMIC CHARGES
-----------------------
   0 C :   -0.241845
   1 C :   -0.548444
   2 C :   -0.245295
   3 C :   -0.366401
   4 S :    0.962732
   5 H :    0.136541
   6 H :    0.148729
   7 H :    0.207169
   8 O :   -0.475859
   9 F :   -0.125895
  10 H :    0.129474
  11 H :    0.126385
  12 O :   -0.448147
  13 C :   -0.333104
  14 H :    0.143787
  15 H :    0.135301
  16 C :   -0.309698
  17 H :    0.175526
  18 H :    0.146111
  19 C :   -0.276192
  20 H :    0.147829
  21 H :    0.154551
  22 C :   -0.309737
  23 H :    0.148702
  24 H :    0.145768
  25 C :   -0.335131
  26 H :    0.175861
  27 H :    0.149460
  28 C :   -0.239305
  29 H :    0.156874
  30 H :    0.128378
  31 H :    0.184687
  32 H :    0.158573
  33 H :    0.186654
  34 H :    0.205963
Sum of atomic charges:    0.0000000

LOEWDIN ATOMIC CHARGES
----------------------
   0 C :   -0.306872
   1 C :   -0.340064
   2 C :   -0.269999
   3 C :   -0.361904
   4 S :    0.593487
   5 H :    0.095062
   6 H :    0.107139
   7 H :    0.106889
   8 O :   -0.284477
   9 F :    0.059304
  10 H :    0.135077
  11 H :    0.130232
  12 O :   -0.262922
  13 C :   -0.269821
  14 H :    0.139097
  15 H :    0.135794
  16 C :   -0.275680
  17 H :    0.139868
  18 H :    0.137910
  19 C :   -0.272778
  20 H :    0.138701
  21 H :    0.133380
  22 C :   -0.273817
  23 H :    0.139627
  24 H :    0.137453
  25 C :   -0.274091
  26 H :    0.142417
  27 H :    0.139215
  28 C :   -0.283816
  29 H :    0.139096
  30 H :    0.134259
  31 H :    0.151534
  32 H :    0.146945
  33 H :    0.141821
  34 H :    0.151936

  Mayer bond orders larger than 0.100000
B(  0-C ,  1-C ) :   0.8590 B(  0-C ,  2-C ) :   0.9153 B(  0-C , 10-H ) :   0.9899
B(  0-C , 11-H ) :   1.0064 B(  1-C ,  5-H ) :   0.9857 B(  1-C ,  6-H ) :   0.9768
B(  1-C ,  7-H ) :   0.9765 B(  2-C , 13-C ) :   0.9253 B(  2-C , 14-H ) :   0.9824
B(  2-C , 15-H ) :   0.9901 B(  3-C ,  4-S ) :   0.9081 B(  3-C , 28-C ) :   0.9043
B(  3-C , 33-H ) :   0.9446 B(  3-C , 34-H ) :   0.9542 B(  4-S ,  8-O ) :   1.7877
B(  4-S ,  9-F ) :   1.0589 B(  4-S , 12-O ) :   1.9566 B( 13-C , 16-C ) :   0.8769
B( 13-C , 17-H ) :   0.9868 B( 13-C , 18-H ) :   0.9792 B( 16-C , 19-C ) :   0.9166
B( 16-C , 20-H ) :   0.9784 B( 16-C , 21-H ) :   0.9929 B( 19-C , 22-C ) :   0.9219
B( 19-C , 23-H ) :   0.9900 B( 19-C , 24-H ) :   0.9923 B( 22-C , 25-C ) :   0.8918
B( 22-C , 26-H ) :   0.9859 B( 22-C , 27-H ) :   0.9819 B( 25-C , 28-C ) :   0.8969
B( 25-C , 29-H ) :   0.9653 B( 25-C , 30-H ) :   0.9902 B( 28-C , 31-H ) :   0.9802
B( 28-C , 32-H ) :   0.9609

Dispersion correction           -0.002305929
FINAL SINGLE POINT ENERGY     -1042.092775649467

DIPOLE MOMENT
-------------
                                X             Y             Z
Electronic contribution:     -9.53632     -19.50228     -11.05718
Nuclear contribution   :      8.71934      19.48829      12.54264
                        -----------------------------------------
Total Dipole Moment    :     -0.81699      -0.01400       1.48546
                        -----------------------------------------
Magnitude (a.u.)       :      1.69536
Magnitude (Debye)      :      4.30927

Rotational constants in cm-1:     0.025810     0.015137     0.010647
Rotational constants in MHz :   773.773140   453.802427   319.195213

                             ****ORCA TERMINATED NORMALLY****
TOTAL RUN TIME: 0 days 0 hours 1 minutes 11 seconds 626 msec
