                         Program Version 5.0.0 -  RELEASE  -
|  1> !TPSS D3BJ RIJCOSX def2-SVPD def2/J TightSCF
|  2> *xyz -1 1
|  3> C         -0.50835        1.72268       -4.12430
|  4> S         -1.32861        0.14674       -4.43578
|  5> O         -2.57135        0.47573       -5.06834
|  6> O         -1.51496       -0.40051       -3.06342
|  7> O         -0.37793       -0.62756       -5.20114
|  8> H         -0.31967        2.21655       -5.05456
|  9> H          0.41835        1.54859       -3.61852
| 10> H         -1.13714        2.33776       -3.51504
| 11> *
| 12> %MaxCore 64000
| 13>
| 14> %pal nprocs 4
| 15> end
| 16>
| 17> %scf
| 18>   MaxIter 150
| 19> end
| 20>
| 21>
| 22>                          ****END OF INPUT****

CARTESIAN COORDINATES (ANGSTROEM)
---------------------------------
  C     -0.508350    1.722680   -4.124300
  S     -1.328610    0.146740   -4.435780
  O     -2.571350    0.475730   -5.068340
  O     -1.514960   -0.400510   -3.063420
  O     -0.377930   -0.627560   -5.201140
  H     -0.319670    2.216550   -5.054560
  H      0.418350    1.548590   -3.618520
  H     -1.137140    2.337760   -3.515040

 Total Charge           Charge          ....   -1
 Multiplicity           Mult            ....    1
 Number of Electrons    NEL             ....   50
 Basis Dimension        Dim             ....  140

ORBITAL ENERGIES
----------------

  NO   OCC          E(Eh)            E(eV)
   0   2.0000     -88.365920     -2404.5589
   1   2.0000     -18.681316      -508.3444
   2   2.0000     -18.678592      -508.2703
   3   2.0000     -18.664102      -507.8760
   4   2.0000      -9.848386      -267.9882
   5   2.0000      -7.725808      -210.2299
   6   2.0000      -5.711852      -155.4274
   7   2.0000      -5.711579      -155.4200
   8   2.0000      -5.710992      -155.4040
   9   2.0000      -0.854182       -23.2435
  10   2.0000      -0.725380       -19.7386
  11   2.0000      -0.695644       -18.9294
  12   2.0000      -0.518025       -14.0962
  13   2.0000      -0.332573        -9.0498
  14   2.0000      -0.253436        -6.8963
  15   2.0000      -0.243376        -6.6226
  16   2.0000      -0.242788        -6.6066
  17   2.0000      -0.202261        -5.5038
  18   2.0000      -0.200111        -5.4453
  19   2.0000      -0.106136        -2.8881
  20   2.0000      -0.105326        -2.8661
  21   2.0000      -0.074657        -2.0315
  22   2.0000      -0.069226        -1.8837
  23   2.0000      -0.054800        -1.4912
  24   2.0000      -0.020934        -0.5697
  25   0.0000       0.143479         3.9043
  26   0.0000       0.176239         4.7957
  27   0.0000       0.176938         4.8147
  28   0.0000       0.179136         4.8746
  29   0.0000       0.205119         5.5816

MULLIKEN ATOMIC CHARGES
-----------------------
   0 C :    0.423368
   1 S :    1.018427
   2 O :   -0.728969
   3 O :   -0.790174
   4 O :   -0.743162
   5 H :   -0.069176
   6 H :   -0.054287
   7 H :   -0.056028
Sum of atomic charges:   -1.0000000

LOEWDIN ATOMIC CHARGES
----------------------
   0 C :    0.058169
   1 S :    0.816296
   2 O :   -0.566472
   3 O :   -0.596869
   4 O :   -0.572424
   5 H :   -0.048562
   6 H :   -0.044802
   7 H :   -0.045335

  Mayer bond orders larger than 0.100000
B(  0-C ,  1-S ) :   0.9183 B(  0-C ,  5-H ) :   0.9371 B(  0-C ,  6-H ) :   0.9370
B(  0-C ,  7-H ) :   0.9368 B(  1-S ,  2-O ) :   1.3730 B(  1-S ,  3-O ) :   1.3309
B(  1-S ,  4-O ) :   1.3622 B(  1-S ,  5-H ) :   0.1056 B(  1-S ,  6-H ) :   0.1133
B(  1-S ,  7-H ) :   0.1119

Dispersion correction           -0.007896437
FINAL SINGLE POINT ENERGY      -663.550769723800

DIPOLE MOMENT
-------------
                                X             Y             Z
Electronic contribution:     -2.02832      -3.81928      -0.91062
Nuclear contribution   :      2.60425       5.03732       0.91691
                        -----------------------------------------
Total Dipole Moment    :      0.57593       1.21804       0.00628
                        -----------------------------------------
Magnitude (a.u.)       :      1.34735
Magnitude (Debye)      :      3.42468

Rotational constants in cm-1:     0.171343     0.157827     0.155747
Rotational constants in MHz :  5136.740483  4731.521814  4669.189064

                             ****ORCA TERMINATED NORMALLY****
TOTAL RUN TIME: 0 days 0 hours 0 minutes 6 seconds 309 msec
