                         Program Version 5.0.0 -  RELEASE  -
|  1> !TPSS D3BJ RIJCOSX def2-SVPD def2/J TightSCF
|  2> *xyz 1 1
|  3> C          1.36401        0.46874       -2.81376
|  4> N          0.42884        0.32140       -1.65531
|  5> H          0.74858       -0.40054       -1.00134
|  6> H         -0.46105        0.02333       -2.07773
|  7> H          0.31026        1.20137       -1.13495
|  8> H          0.99872        1.22859       -3.47261
|  9> H          1.42772       -0.46011       -3.34109
| 10> H          2.33442        0.74312       -2.45611
| 11> *
| 12> %MaxCore 64000
| 13>
| 14> %pal nprocs 4
| 15> end
| 16>
| 17> %scf
| 18>   MaxIter 150
| 19> end
| 20>
| 21>
| 22>                          ****END OF INPUT****

CARTESIAN COORDINATES (ANGSTROEM)
---------------------------------
  C      1.364010    0.468740   -2.813760
  N      0.428840    0.321400   -1.655310
  H      0.748580   -0.400540   -1.001340
  H     -0.461050    0.023330   -2.077730
  H      0.310260    1.201370   -1.134950
  H      0.998720    1.228590   -3.472610
  H      1.427720   -0.460110   -3.341090
  H      2.334420    0.743120   -2.456110

 Total Charge           Charge          ....    1
 Multiplicity           Mult            ....    1
 Number of Electrons    NEL             ....   18
 Basis Dimension        Dim             ....   88

ORBITAL ENERGIES
----------------

  NO   OCC          E(Eh)            E(eV)
   0   2.0000     -14.467385      -393.6776
   1   2.0000     -10.262330      -279.2522
   2   2.0000      -1.156704       -31.4755
   3   2.0000      -0.881779       -23.9944
   4   2.0000      -0.769736       -20.9456
   5   2.0000      -0.765039       -20.8178
   6   2.0000      -0.671468       -18.2716
   7   2.0000      -0.591988       -16.1088
   8   2.0000      -0.589940       -16.0531
   9   0.0000      -0.218496        -5.9456
  10   0.0000      -0.153774        -4.1844
  11   0.0000      -0.150303        -4.0899
  12   0.0000      -0.142272        -3.8714
  13   0.0000      -0.098991        -2.6937

MULLIKEN ATOMIC CHARGES
-----------------------
   0 C :    0.851905
   1 N :   -0.826677
   2 H :    0.366623
   3 H :    0.402982
   4 H :    0.371729
   5 H :   -0.049255
   6 H :   -0.045511
   7 H :   -0.071796
Sum of atomic charges:    1.0000000

LOEWDIN ATOMIC CHARGES
----------------------
   0 C :    0.294097
   1 N :    0.320873
   2 H :    0.105294
   3 H :    0.105268
   4 H :    0.110137
   5 H :    0.022211
   6 H :    0.022441
   7 H :    0.019679

  Mayer bond orders larger than 0.100000
B(  0-C ,  1-N ) :   0.8259 B(  0-C ,  5-H ) :   0.9026 B(  0-C ,  6-H ) :   0.8994
B(  0-C ,  7-H ) :   0.9280 B(  1-N ,  2-H ) :   0.7690 B(  1-N ,  3-H ) :   0.7234
B(  1-N ,  4-H ) :   0.7609

Dispersion correction           -0.004018871
FINAL SINGLE POINT ENERGY       -96.167877778182

DIPOLE MOMENT
-------------
                                X             Y             Z
Electronic contribution:     -0.67787      -0.09378       0.88048
Nuclear contribution   :      0.14628      -0.00095      -0.25828
                        -----------------------------------------
Total Dipole Moment    :     -0.53159      -0.09472       0.62220
                        -----------------------------------------
Magnitude (a.u.)       :      0.82383
Magnitude (Debye)      :      2.09401

Rotational constants in cm-1:     2.853706     0.682028     0.680630
Rotational constants in MHz : 85551.942317 20446.672693 20404.761959

                             ****ORCA TERMINATED NORMALLY****
TOTAL RUN TIME: 0 days 0 hours 0 minutes 3 seconds 249 msec
