                         Program Version 5.0.0 -  RELEASE  -
|  1> !TPSS D3BJ RIJCOSX def2-SVPD def2/J TightSCF
|  2> *xyz 0 1
|  3> C         -0.50835        1.72268       -4.12430
|  4> S         -1.32861        0.14674       -4.43578
|  5> F         -2.57135        0.47573       -5.06834
|  6> O         -1.51496       -0.40051       -3.06342
|  7> O         -0.37793       -0.62756       -5.20114
|  8> H         -0.31967        2.21655       -5.05456
|  9> H          0.41835        1.54859       -3.61852
| 10> H         -1.13714        2.33776       -3.51504
| 11> *
| 12> %MaxCore 64000
| 13>
| 14> %pal nprocs 4
| 15> end
| 16>
| 17> %scf
| 18>   MaxIter 150
| 19> end
| 20>
| 21>
| 22>                          ****END OF INPUT****

CARTESIAN COORDINATES (ANGSTROEM)
---------------------------------
  C     -0.508350    1.722680   -4.124300
  S     -1.328610    0.146740   -4.435780
  F     -2.571350    0.475730   -5.068340
  O     -1.514960   -0.400510   -3.063420
  O     -0.377930   -0.627560   -5.201140
  H     -0.319670    2.216550   -5.054560
  H      0.418350    1.548590   -3.618520
  H     -1.137140    2.337760   -3.515040

 Total Charge           Charge          ....    0
 Multiplicity           Mult            ....    1
 Number of Electrons    NEL             ....   50
 Basis Dimension        Dim             ....  140

ORBITAL ENERGIES
----------------

  NO   OCC          E(Eh)            E(eV)
   0   2.0000     -88.629365     -2411.7276
   1   2.0000     -24.550588      -668.0555
   2   2.0000     -18.917316      -514.7663
   3   2.0000     -18.902342      -514.3589
   4   2.0000     -10.058686      -273.7108
   5   2.0000      -7.990183      -217.4239
   6   2.0000      -5.980599      -162.7404
   7   2.0000      -5.973727      -162.5534
   8   2.0000      -5.972247      -162.5131
   9   2.0000      -1.305780       -35.5321
  10   2.0000      -1.035842       -28.1867
  11   2.0000      -0.935035       -25.4436
  12   2.0000      -0.740355       -20.1461
  13   2.0000      -0.666673       -18.1411
  14   2.0000      -0.556043       -15.1307
  15   2.0000      -0.538742       -14.6599
  16   2.0000      -0.508208       -13.8290
  17   2.0000      -0.436233       -11.8705
  18   2.0000      -0.433624       -11.7995
  19   2.0000      -0.424712       -11.5570
  20   2.0000      -0.396313       -10.7842
  21   2.0000      -0.345545        -9.4028
  22   2.0000      -0.299752        -8.1567
  23   2.0000      -0.284475        -7.7410
  24   2.0000      -0.266217        -7.2441
  25   0.0000      -0.028096        -0.7645
  26   0.0000       0.011323         0.3081
  27   0.0000       0.014277         0.3885
  28   0.0000       0.034151         0.9293
  29   0.0000       0.035460         0.9649

MULLIKEN ATOMIC CHARGES
-----------------------
   0 C :    0.415655
   1 S :    1.196374
   2 F :   -0.350630
   3 O :   -0.647791
   4 O :   -0.606062
   5 H :   -0.007681
   6 H :   -0.002726
   7 H :    0.002861
Sum of atomic charges:   -0.0000000

LOEWDIN ATOMIC CHARGES
----------------------
   0 C :    0.128326
   1 S :    1.087754
   2 F :   -0.247100
   3 O :   -0.474244
   4 O :   -0.451624
   5 H :   -0.020865
   6 H :   -0.003992
   7 H :   -0.018257

  Mayer bond orders larger than 0.100000
B(  0-C ,  1-S ) :   0.9770 B(  0-C ,  5-H ) :   0.9241 B(  0-C ,  6-H ) :   0.9255
B(  0-C ,  7-H ) :   0.9245 B(  1-S ,  2-F ) :   0.7290 B(  1-S ,  3-O ) :   1.5263
B(  1-S ,  4-O ) :   1.5569 B(  1-S ,  6-H ) :   0.1084

Dispersion correction           -0.007404273
FINAL SINGLE POINT ENERGY      -688.035422180553

DIPOLE MOMENT
-------------
                                X             Y             Z
Electronic contribution:     -4.04358      -3.24845      -1.97486
Nuclear contribution   :      3.90013       4.80063       1.59574
                        -----------------------------------------
Total Dipole Moment    :     -0.14345       1.55219      -0.37912
                        -----------------------------------------
Magnitude (a.u.)       :      1.60424
Magnitude (Debye)      :      4.07766

Rotational constants in cm-1:     0.163395     0.155047     0.147447
Rotational constants in MHz :  4898.460101  4648.206837  4420.340547

                             ****ORCA TERMINATED NORMALLY****
TOTAL RUN TIME: 0 days 0 hours 0 minutes 7 seconds 163 msec
