                         Program Version 5.0.0 -  RELEASE  -
|  1> !TPSS D3BJ RIJCOSX def2-SVPD def2/J TightSCF
|  2> *xyz 0 1
|  3> C          1.36401        0.46874       -2.81376
|  4> C          0.42884        0.32140       -1.65531
|  5> H          0.74858       -0.40054       -1.00134
|  6> H         -0.46105        0.02333       -2.07773
|  7> H          0.31026        1.20137       -1.13495
|  8> H          0.99872        1.22859       -3.47261
|  9> H          1.42772       -0.46011       -3.34109
| 10> H          2.33442        0.74312       -2.45611
| 11> *
| 12> %MaxCore 64000
| 13>
| 14> %pal nprocs 4
| 15> end
| 16>
| 17> %scf
| 18>   MaxIter 150
| 19> end
| 20>
| 21>
| 22>                          ****END OF INPUT****

CARTESIAN COORDINATES (ANGSTROEM)
---------------------------------
  C      1.364010    0.468740   -2.813760
  C      0.428840    0.321400   -1.655310
  H      0.748580   -0.400540   -1.001340
  H     -0.461050    0.023330   -2.077730
  H      0.310260    1.201370   -1.134950
  H      0.998720    1.228590   -3.472610
  H      1.427720   -0.460110   -3.341090
  H      2.334420    0.743120   -2.456110

 Total Charge           Charge          ....    0
 Multiplicity           Mult            ....    1
 Number of Electrons    NEL             ....   18
 Basis Dimension        Dim             ....   88

ORBITAL ENERGIES
----------------

  NO   OCC          E(Eh)            E(eV)
   0   2.0000      -9.979959      -271.5685
   1   2.0000      -9.967379      -271.2262
   2   2.0000      -0.705955       -19.2100
   3   2.0000      -0.566438       -15.4136
   4   2.0000      -0.409866       -11.1530
   5   2.0000      -0.406222       -11.0539
   6   2.0000      -0.327375        -8.9083
   7   2.0000      -0.312328        -8.4989
   8   2.0000      -0.307710        -8.3732
   9   0.0000       0.019045         0.5182
  10   0.0000       0.051907         1.4125
  11   0.0000       0.091021         2.4768
  12   0.0000       0.091694         2.4951
  13   0.0000       0.111996         3.0476

MULLIKEN ATOMIC CHARGES
-----------------------
   0 C :    0.151010
   1 C :    0.508452
   2 H :   -0.178196
   3 H :   -0.130167
   4 H :   -0.169763
   5 H :   -0.056786
   6 H :   -0.053639
   7 H :   -0.070911
Sum of atomic charges:    0.0000000

LOEWDIN ATOMIC CHARGES
----------------------
   0 C :    0.084805
   1 C :    0.094288
   2 H :   -0.039658
   3 H :   -0.038119
   4 H :   -0.035766
   5 H :   -0.020794
   6 H :   -0.020379
   7 H :   -0.024377

  Mayer bond orders larger than 0.100000
B(  0-C ,  1-C ) :   1.4509 B(  0-C ,  2-H ) :   0.1598 B(  0-C ,  3-H ) :   0.1960
B(  0-C ,  4-H ) :   0.1544 B(  0-C ,  5-H ) :   0.8759 B(  0-C ,  6-H ) :   0.8727
B(  0-C ,  7-H ) :   0.9084 B(  1-C ,  2-H ) :   0.8123 B(  1-C ,  3-H ) :   0.8047
B(  1-C ,  4-H ) :   0.8228 B(  1-C ,  5-H ) :   0.1460 B(  1-C ,  6-H ) :   0.1481
B(  1-C ,  7-H ) :   0.1324

Dispersion correction           -0.004028808
FINAL SINGLE POINT ENERGY       -79.777445181491

DIPOLE MOMENT
-------------
                                X             Y             Z
Electronic contribution:     -0.00214       0.01913       0.07192
Nuclear contribution   :     -0.01491      -0.02598      -0.05743
                        -----------------------------------------
Total Dipole Moment    :     -0.01706      -0.00684       0.01449
                        -----------------------------------------
Magnitude (a.u.)       :      0.02340
Magnitude (Debye)      :      0.05949

Rotational constants in cm-1:     2.853707     0.712330     0.710805
Rotational constants in MHz : 85551.986377 21355.123158 21309.410122

                             ****ORCA TERMINATED NORMALLY****
TOTAL RUN TIME: 0 days 0 hours 0 minutes 3 seconds 562 msec
