                         Program Version 5.0.0 -  RELEASE  -
|  1> !TPSS D3BJ RIJCOSX def2-SVPD def2/J TightSCF
|  2> *xyz 0 1
|  3> C         -0.50835        1.72268       -4.12430
|  4> S         -1.32861        0.14674       -4.43578
|  5> O         -2.57135        0.47573       -5.06834
|  6> F         -1.51496       -0.40051       -3.06342
|  7> O         -0.37793       -0.62756       -5.20114
|  8> H         -0.31967        2.21655       -5.05456
|  9> H          0.41835        1.54859       -3.61852
| 10> H         -1.13714        2.33776       -3.51504
| 11> *
| 12> %MaxCore 64000
| 13>
| 14> %pal nprocs 4
| 15> end
| 16>
| 17> %scf
| 18>   MaxIter 150
| 19> end
| 20>
| 21>
| 22>                          ****END OF INPUT****

CARTESIAN COORDINATES (ANGSTROEM)
---------------------------------
  C     -0.508350    1.722680   -4.124300
  S     -1.328610    0.146740   -4.435780
  O     -2.571350    0.475730   -5.068340
  F     -1.514960   -0.400510   -3.063420
  O     -0.377930   -0.627560   -5.201140
  H     -0.319670    2.216550   -5.054560
  H      0.418350    1.548590   -3.618520
  H     -1.137140    2.337760   -3.515040

 Total Charge           Charge          ....    0
 Multiplicity           Mult            ....    1
 Number of Electrons    NEL             ....   50
 Basis Dimension        Dim             ....  140

ORBITAL ENERGIES
----------------

  NO   OCC          E(Eh)            E(eV)
   0   2.0000     -88.626182     -2411.6410
   1   2.0000     -24.523629      -667.3219
   2   2.0000     -18.919420      -514.8236
   3   2.0000     -18.916561      -514.7458
   4   2.0000     -10.057518      -273.6790
   5   2.0000      -7.987061      -217.3390
   6   2.0000      -5.977030      -162.6433
   7   2.0000      -5.971009      -162.4794
   8   2.0000      -5.969399      -162.4356
   9   2.0000      -1.259500       -34.2727
  10   2.0000      -1.050060       -28.5736
  11   2.0000      -0.960339       -26.1322
  12   2.0000      -0.738348       -20.0915
  13   2.0000      -0.644431       -17.5359
  14   2.0000      -0.537034       -14.6134
  15   2.0000      -0.507818       -13.8184
  16   2.0000      -0.501712       -13.6523
  17   2.0000      -0.436202       -11.8697
  18   2.0000      -0.434991       -11.8367
  19   2.0000      -0.420660       -11.4468
  20   2.0000      -0.403243       -10.9728
  21   2.0000      -0.354323        -9.6416
  22   2.0000      -0.306698        -8.3457
  23   2.0000      -0.301128        -8.1941
  24   2.0000      -0.284326        -7.7369
  25   0.0000      -0.024874        -0.6769
  26   0.0000       0.012323         0.3353
  27   0.0000       0.015670         0.4264
  28   0.0000       0.036189         0.9848
  29   0.0000       0.037546         1.0217

MULLIKEN ATOMIC CHARGES
-----------------------
   0 C :    0.412281
   1 S :    1.209642
   2 O :   -0.609101
   3 F :   -0.381569
   4 O :   -0.620596
   5 H :   -0.013760
   6 H :    0.002310
   7 H :    0.000793
Sum of atomic charges:   -0.0000000

LOEWDIN ATOMIC CHARGES
----------------------
   0 C :    0.129128
   1 S :    1.084871
   2 O :   -0.447074
   3 F :   -0.271733
   4 O :   -0.452236
   5 H :   -0.006467
   6 H :   -0.018005
   7 H :   -0.018485

  Mayer bond orders larger than 0.100000
B(  0-C ,  1-S ) :   0.9740 B(  0-C ,  5-H ) :   0.9245 B(  0-C ,  6-H ) :   0.9264
B(  0-C ,  7-H ) :   0.9260 B(  1-S ,  2-O ) :   1.5633 B(  1-S ,  3-F ) :   0.6693
B(  1-S ,  4-O ) :   1.5536 B(  1-S ,  5-H ) :   0.1032 B(  2-O ,  4-O ) :   0.1063

Dispersion correction           -0.007402907
FINAL SINGLE POINT ENERGY      -688.058841194783

DIPOLE MOMENT
-------------
                                X             Y             Z
Electronic contribution:     -2.32413      -4.68673       1.32123
Nuclear contribution   :      2.84473       5.67605      -0.40731
                        -----------------------------------------
Total Dipole Moment    :      0.52060       0.98933       0.91392
                        -----------------------------------------
Magnitude (a.u.)       :      1.44396
Magnitude (Debye)      :      3.67027

Rotational constants in cm-1:     0.162669     0.154016     0.148818
Rotational constants in MHz :  4876.699308  4617.284822  4461.441982

                             ****ORCA TERMINATED NORMALLY****
TOTAL RUN TIME: 0 days 0 hours 0 minutes 6 seconds 710 msec
