                         Program Version 5.0.0 -  RELEASE  -
|  1> !TPSS D3BJ RIJCOSX def2-SVPD def2/J TightSCF
|  2> *xyz 0 1
|  3> C         -0.50835        1.72268       -4.12430
|  4> S         -1.32861        0.14674       -4.43578
|  5> O         -2.57135        0.47573       -5.06834
|  6> O         -1.51496       -0.40051       -3.06342
|  7> F         -0.37793       -0.62756       -5.20114
|  8> H         -0.31967        2.21655       -5.05456
|  9> H          0.41835        1.54859       -3.61852
| 10> H         -1.13714        2.33776       -3.51504
| 11> *
| 12> %MaxCore 64000
| 13>
| 14> %pal nprocs 4
| 15> end
| 16>
| 17> %scf
| 18>   MaxIter 150
| 19> end
| 20>
| 21>
| 22>                          ****END OF INPUT****

CARTESIAN COORDINATES (ANGSTROEM)
---------------------------------
  C     -0.508350    1.722680   -4.124300
  S     -1.328610    0.146740   -4.435780
  O     -2.571350    0.475730   -5.068340
  O     -1.514960   -0.400510   -3.063420
  F     -0.377930   -0.627560   -5.201140
  H     -0.319670    2.216550   -5.054560
  H      0.418350    1.548590   -3.618520
  H     -1.137140    2.337760   -3.515040

 Total Charge           Charge          ....    0
 Multiplicity           Mult            ....    1
 Number of Electrons    NEL             ....   50
 Basis Dimension        Dim             ....  140

ORBITAL ENERGIES
----------------

  NO   OCC          E(Eh)            E(eV)
   0   2.0000     -88.628517     -2411.7046
   1   2.0000     -24.545399      -667.9143
   2   2.0000     -18.920001      -514.8394
   3   2.0000     -18.902170      -514.3542
   4   2.0000     -10.058576      -273.7078
   5   2.0000      -7.989396      -217.4025
   6   2.0000      -5.979706      -162.7161
   7   2.0000      -5.973034      -162.5345
   8   2.0000      -5.971511      -162.4931
   9   2.0000      -1.295632       -35.2559
  10   2.0000      -1.041506       -28.3408
  11   2.0000      -0.937656       -25.5149
  12   2.0000      -0.739911       -20.1340
  13   2.0000      -0.662284       -18.0217
  14   2.0000      -0.551292       -15.0014
  15   2.0000      -0.532037       -14.4775
  16   2.0000      -0.506959       -13.7951
  17   2.0000      -0.436240       -11.8707
  18   2.0000      -0.434721       -11.8294
  19   2.0000      -0.424429       -11.5493
  20   2.0000      -0.397839       -10.8257
  21   2.0000      -0.348710        -9.4889
  22   2.0000      -0.303466        -8.2577
  23   2.0000      -0.284724        -7.7477
  24   2.0000      -0.268023        -7.2933
  25   0.0000      -0.028392        -0.7726
  26   0.0000       0.011832         0.3220
  27   0.0000       0.013598         0.3700
  28   0.0000       0.034450         0.9374
  29   0.0000       0.035892         0.9767

MULLIKEN ATOMIC CHARGES
-----------------------
   0 C :    0.415202
   1 S :    1.197645
   2 O :   -0.596336
   3 O :   -0.649490
   4 F :   -0.359001
   5 H :   -0.007887
   6 H :    0.003664
   7 H :   -0.003797
Sum of atomic charges:    0.0000000

LOEWDIN ATOMIC CHARGES
----------------------
   0 C :    0.128628
   1 S :    1.087353
   2 O :   -0.446447
   3 O :   -0.474180
   4 F :   -0.252309
   5 H :   -0.020820
   6 H :   -0.017902
   7 H :   -0.004324

  Mayer bond orders larger than 0.100000
B(  0-C ,  1-S ) :   0.9765 B(  0-C ,  5-H ) :   0.9244 B(  0-C ,  6-H ) :   0.9250
B(  0-C ,  7-H ) :   0.9253 B(  1-S ,  2-O ) :   1.5662 B(  1-S ,  3-O ) :   1.5259
B(  1-S ,  4-F ) :   0.7152 B(  1-S ,  7-H ) :   0.1073

Dispersion correction           -0.007404214
FINAL SINGLE POINT ENERGY      -688.039663289844

DIPOLE MOMENT
-------------
                                X             Y             Z
Electronic contribution:     -0.46597      -5.04785      -2.19216
Nuclear contribution   :      1.70876       5.90289       1.72841
                        -----------------------------------------
Total Dipole Moment    :      1.24280       0.85504      -0.46375
                        -----------------------------------------
Magnitude (a.u.)       :      1.57820
Magnitude (Debye)      :      4.01145

Rotational constants in cm-1:     0.163253     0.155214     0.147311
Rotational constants in MHz :  4894.200006  4653.189727  4416.272537

                             ****ORCA TERMINATED NORMALLY****
TOTAL RUN TIME: 0 days 0 hours 0 minutes 7 seconds 138 msec
