                         Program Version 5.0.0 -  RELEASE  -
|  1> !TPSS D3BJ RIJCOSX def2-SVPD def2/J TightSCF xyzfile
|  2>
|  3> *xyzfile 0 1 D1.xyz
|  4>
|  5> %MaxCore 64000
|  6>
|  7> %pal nprocs 4
|  8> end
|  9>
| 10> %scf
| 11>   MaxIter 150
| 12> end
| 13>
| 14>
| 15>                          ****END OF INPUT****

CARTESIAN COORDINATES (ANGSTROEM)
---------------------------------
  C      1.364014    0.468742   -2.813764
  C      0.428844    0.321402   -1.655312
  C      0.968045    1.630639   -3.715749
  C     -0.508347    1.722679   -4.124300
  S     -1.328608    0.146737   -4.435781
  H     -0.591511    2.294958   -5.047219
  H     -1.114114    2.235610   -3.374362
  H      0.748578   -0.400542   -1.001345
  H     -0.461053    0.023332   -2.077731
  H      0.310258    1.201375   -1.134948
  F     -2.571347    0.475733   -5.068341
  O     -1.514963   -0.400512   -3.063420
  H      1.294847   -0.468742   -3.364684
  H      2.376216    0.597400   -2.431495
  H      1.578688    1.520652   -4.612733
  H      1.266653    2.575988   -3.250448
  O     -0.377928   -0.627558   -5.201141

 Total Charge           Charge          ....    0
 Multiplicity           Mult            ....    1
 Number of Electrons    NEL             ....   74
 Basis Dimension        Dim             ....  248

ORBITAL ENERGIES
----------------

  NO   OCC          E(Eh)            E(eV)
   0   2.0000     -88.628005     -2411.6906
   1   2.0000     -24.549709      -668.0316
   2   2.0000     -18.917577      -514.7734
   3   2.0000     -18.905711      -514.4505
   4   2.0000     -10.061137      -273.7774
   5   2.0000     -10.023898      -272.7641
   6   2.0000      -9.988346      -271.7967
   7   2.0000      -9.934054      -270.3194
   8   2.0000      -7.988738      -217.3846
   9   2.0000      -5.979144      -162.7008
  10   2.0000      -5.972692      -162.5252
  11   2.0000      -5.970406      -162.4630
  12   2.0000      -1.304261       -35.4907
  13   2.0000      -1.039709       -28.2919
  14   2.0000      -0.943418       -25.6717
  15   2.0000      -0.767863       -20.8946
  16   2.0000      -0.714027       -19.4297
  17   2.0000      -0.664544       -18.0832
  18   2.0000      -0.622915       -16.9504
  19   2.0000      -0.556773       -15.1506
  20   2.0000      -0.540262       -14.7013
  21   2.0000      -0.523934       -14.2570
  22   2.0000      -0.499773       -13.5995
  23   2.0000      -0.461809       -12.5665
  24   2.0000      -0.453395       -12.3375
  25   2.0000      -0.418072       -11.3763
  26   2.0000      -0.413609       -11.2549
  27   2.0000      -0.384682       -10.4677
  28   2.0000      -0.367480        -9.9996
  29   2.0000      -0.362405        -9.8615
  30   2.0000      -0.344158        -9.3650
  31   2.0000      -0.318486        -8.6664
  32   2.0000      -0.308683        -8.3997
  33   2.0000      -0.288236        -7.8433
  34   2.0000      -0.284176        -7.7328
  35   2.0000      -0.272603        -7.4179
  36   2.0000      -0.242527        -6.5995
  37   0.0000      -0.024207        -0.6587
  38   0.0000      -0.002565        -0.0698
  39   0.0000       0.017404         0.4736
  40   0.0000       0.025311         0.6887
  41   0.0000       0.030636         0.8336

MULLIKEN ATOMIC CHARGES
-----------------------
   0 C :   -0.422450
   1 C :    1.965971
   2 C :    0.219942
   3 C :    0.023012
   4 S :    1.566404
   5 H :   -0.163050
   6 H :    0.259244
   7 H :   -0.108087
   8 H :   -1.124996
   9 H :   -0.109413
  10 F :   -0.471234
  11 O :   -0.862494
  12 H :    0.117625
  13 H :   -0.299960
  14 H :    0.052307
  15 H :    0.012383
  16 O :   -0.655204
Sum of atomic charges:    0.0000000

LOEWDIN ATOMIC CHARGES
----------------------
   0 C :   -0.039068
   1 C :    0.151333
   2 C :   -0.009787
   3 C :   -0.031810
   4 S :    1.152974
   5 H :    0.009053
   6 H :    0.022831
   7 H :   -0.025652
   8 H :   -0.173719
   9 H :   -0.024991
  10 F :   -0.241675
  11 O :   -0.440552
  12 H :    0.014486
  13 H :    0.018901
  14 H :    0.023187
  15 H :    0.033248
  16 O :   -0.438758

  Mayer bond orders larger than 0.100000
B(  0-C ,  1-C ) :   0.9982 B(  0-C ,  2-C ) :   1.2134 B(  0-C ,  7-H ) :   0.2372
B(  0-C ,  8-H ) :   0.5706 B(  0-C ,  9-H ) :   0.2783 B(  0-C , 12-H ) :   0.8190
B(  0-C , 13-H ) :   1.0014 B(  0-C , 14-H ) :   0.1477 B(  0-C , 15-H ) :   0.1593
B(  1-C ,  7-H ) :   0.4589 B(  1-C ,  8-H ) :  -0.5698 B(  1-C ,  9-H ) :   0.2815
B(  1-C , 11-O ) :  -0.1853 B(  1-C , 12-H ) :   0.1383 B(  2-C ,  3-C ) :   1.3052
B(  2-C ,  5-H ) :   0.2090 B(  2-C , 12-H ) :   0.1403 B(  2-C , 14-H ) :   0.8282
B(  2-C , 15-H ) :   0.7918 B(  3-C ,  4-S ) :   0.9222 B(  3-C ,  5-H ) :   0.8796
B(  3-C ,  6-H ) :   0.8307 B(  3-C ,  8-H ) :   0.1481 B(  3-C , 11-O ) :   0.1703
B(  3-C , 14-H ) :   0.1276 B(  4-S ,  8-H ) :  -0.1575 B(  4-S , 10-F ) :   0.6517
B(  4-S , 11-O ) :   1.3631 B(  4-S , 16-O ) :   1.5002 B(  7-H ,  8-H ) :   0.3246
B(  7-H ,  9-H ) :  -0.1792 B(  8-H ,  9-H ) :   0.5027 B(  8-H , 11-O ) :   0.2636

Dispersion correction           -0.022309584
FINAL SINGLE POINT ENERGY      -805.886930894875

DIPOLE MOMENT
-------------
                                X             Y             Z
Electronic contribution:    -12.42606      -4.10251      -9.67792
Nuclear contribution   :     12.25227       5.48563       9.26621
                        -----------------------------------------
Total Dipole Moment    :     -0.17379       1.38313      -0.41171
                        -----------------------------------------
Magnitude (a.u.)       :      1.45353
Magnitude (Debye)      :      3.69457

Rotational constants in cm-1:     0.103176     0.044975     0.040960
Rotational constants in MHz :  3093.138469  1348.317425  1227.945122

                             ****ORCA TERMINATED NORMALLY****
TOTAL RUN TIME: 0 days 0 hours 0 minutes 22 seconds 124 msec
