                         Program Version 5.0.0 -  RELEASE  -
|  1> !wB97X-D3 RIJCOSX def2-SVP def2/J TightSCF
|  2> *xyz -1 1
|  3> C         -0.91495        0.61511        2.50554
|  4> C         -0.05915        1.50352        3.41058
|  5> H          0.36536        2.34431        2.86116
|  6> H         -0.69226        1.92021        4.19898
|  7> C          1.08303        0.74964        4.08571
|  8> O          2.22817        1.26348        4.01983
|  9> O          0.81003       -0.34541        4.63627
| 10> C         -0.13074       -0.19398        1.47076
| 11> H         -1.64796        1.24596        1.99108
| 12> H         -1.47818       -0.08105        3.13042
| 13> H         -0.80952       -0.78099        0.88803
| 14> H          0.55985       -0.83974        1.97175
| 15> H          0.40595        0.47288        0.82877
| 16> *
| 17>
| 18> %MaxCore 64000
| 19>
| 20> %pal nprocs 18
| 21> end
| 22>
| 23> %scf
| 24>   MaxIter 150
| 25> end
| 26>
| 27>
| 28>                          ****END OF INPUT****

CARTESIAN COORDINATES (ANGSTROEM)
---------------------------------
  C     -0.914950    0.615110    2.505540
  C     -0.059150    1.503520    3.410580
  H      0.365360    2.344310    2.861160
  H     -0.692260    1.920210    4.198980
  C      1.083030    0.749640    4.085710
  O      2.228170    1.263480    4.019830
  O      0.810030   -0.345410    4.636270
  C     -0.130740   -0.193980    1.470760
  H     -1.647960    1.245960    1.991080
  H     -1.478180   -0.081050    3.130420
  H     -0.809520   -0.780990    0.888030
  H      0.559850   -0.839740    1.971750
  H      0.405950    0.472880    0.828770

 Total Charge           Charge          ....   -1
 Multiplicity           Mult            ....    1
 Number of Electrons    NEL             ....   48
 Basis Dimension        Dim             ....  119

ORBITAL ENERGIES
----------------

  NO   OCC          E(Eh)            E(eV)
   0   2.0000     -18.943422      -515.4767
   1   2.0000     -18.941571      -515.4264
   2   2.0000     -10.146763      -276.1075
   3   2.0000     -10.131896      -275.7029
   4   2.0000     -10.127778      -275.5909
   5   2.0000     -10.099982      -274.8345
   6   2.0000      -0.896451       -24.3937
   7   2.0000      -0.799269       -21.7492
   8   2.0000      -0.737961       -20.0809
   9   2.0000      -0.639908       -17.4128
  10   2.0000      -0.539939       -14.6925
  11   2.0000      -0.417024       -11.3478
  12   2.0000      -0.396505       -10.7894
  13   2.0000      -0.374470       -10.1898
  14   2.0000      -0.343166        -9.3380
  15   2.0000      -0.310505        -8.4493
  16   2.0000      -0.296295        -8.0626
  17   2.0000      -0.288113        -7.8399
  18   2.0000      -0.274195        -7.4612
  19   2.0000      -0.249670        -6.7939
  20   2.0000      -0.237414        -6.4604
  21   2.0000      -0.110355        -3.0029
  22   2.0000      -0.107850        -2.9348
  23   2.0000      -0.093120        -2.5339
  24   0.0000       0.284690         7.7468
  25   0.0000       0.327977         8.9247
  26   0.0000       0.336438         9.1549
  27   0.0000       0.356942         9.7129
  28   0.0000       0.362278         9.8581

MULLIKEN ATOMIC CHARGES
-----------------------
   0 C :   -0.069374
   1 C :    0.003826
   2 H :   -0.035523
   3 H :   -0.020697
   4 C :    0.044604
   5 O :   -0.443578
   6 O :   -0.453081
   7 C :   -0.007141
   8 H :   -0.037968
   9 H :    0.002350
  10 H :   -0.025382
  11 H :    0.047657
  12 H :   -0.005694
Sum of atomic charges:   -1.0000000

LOEWDIN ATOMIC CHARGES
----------------------
   0 C :   -0.045319
   1 C :   -0.093674
   2 H :   -0.000204
   3 H :    0.010691
   4 C :   -0.044590
   5 O :   -0.401188
   6 O :   -0.409809
   7 C :   -0.062442
   8 H :   -0.005748
   9 H :    0.012589
  10 H :    0.001209
  11 H :    0.028798
  12 H :    0.009688

  Mayer bond orders larger than 0.100000
B(  0-C ,  1-C ) :   1.0649 B(  0-C ,  7-C ) :   1.0882 B(  0-C ,  8-H ) :   0.9529
B(  0-C ,  9-H ) :   0.9451 B(  1-C ,  2-H ) :   0.9396 B(  1-C ,  3-H ) :   0.9351
B(  1-C ,  4-C ) :   0.9192 B(  4-C ,  5-O ) :   1.8736 B(  4-C ,  6-O ) :   1.8164
B(  5-O ,  6-O ) :   0.1063 B(  7-C , 10-H ) :   0.9699 B(  7-C , 11-H ) :   0.9648
B(  7-C , 12-H ) :   0.9729

Dispersion correction           -0.003396105
FINAL SINGLE POINT ENERGY      -306.822961561662

DIPOLE MOMENT
-------------
                                X             Y             Z
Electronic contribution:      4.76610       0.14194       5.61280
Nuclear contribution   :     -6.45806       0.15825      -7.12052
                        -----------------------------------------
Total Dipole Moment    :     -1.69197       0.30019      -1.50773
                        -----------------------------------------
Magnitude (a.u.)       :      2.28607
Magnitude (Debye)      :      5.81072

Rotational constants in cm-1:     0.199323     0.080770     0.077827
Rotational constants in MHz :  5975.562678  2421.415024  2333.195390

                             ****ORCA TERMINATED NORMALLY****
TOTAL RUN TIME: 0 days 0 hours 0 minutes 7 seconds 487 msec
