                         Program Version 5.0.0 -  RELEASE  -
|  1> !wB97X-D3 RIJCOSX def2-SVP def2/J TightSCF
|  2> *xyz 1 1
|  3> C          4.60295       -2.44010        2.63478
|  4> C          3.86085       -1.59157        3.62289
|  5> N          2.75650       -2.04616        4.16633
|  6> N          4.25433       -0.36291        3.86046
|  7> H          3.56526        0.31099        4.16898
|  8> H          5.05429       -0.01606        3.33784
|  9> H          2.43970       -2.97389        3.89740
| 10> H          2.06687       -1.41253        4.54981
| 11> C          3.74469       -2.58056        1.36188
| 12> C          3.20372       -1.25600        0.82621
| 13> H          2.89894       -3.23929        1.58307
| 14> H          4.33496       -3.09552        0.60019
| 15> H          5.56156       -1.97135        2.40708
| 16> H          4.81050       -3.42255        3.06310
| 17> H          2.62184       -1.43789       -0.05313
| 18> H          4.02069       -0.60826        0.58562
| 19> H          2.58975       -0.79418        1.57097
| 20> *
| 21>
| 22> %MaxCore 64000
| 23>
| 24> %pal nprocs 18
| 25> end
| 26>
| 27> %scf
| 28>   MaxIter 150
| 29> end
| 30>
| 31>
| 32>                          ****END OF INPUT****

CARTESIAN COORDINATES (ANGSTROEM)
---------------------------------
  C      4.602950   -2.440100    2.634780
  C      3.860850   -1.591570    3.622890
  N      2.756500   -2.046160    4.166330
  N      4.254330   -0.362910    3.860460
  H      3.565260    0.310990    4.168980
  H      5.054290   -0.016060    3.337840
  H      2.439700   -2.973890    3.897400
  H      2.066870   -1.412530    4.549810
  C      3.744690   -2.580560    1.361880
  C      3.203720   -1.256000    0.826210
  H      2.898940   -3.239290    1.583070
  H      4.334960   -3.095520    0.600190
  H      5.561560   -1.971350    2.407080
  H      4.810500   -3.422550    3.063100
  H      2.621840   -1.437890   -0.053130
  H      4.020690   -0.608260    0.585620
  H      2.589750   -0.794180    1.570970

 Total Charge           Charge          ....    1
 Multiplicity           Mult            ....    1
 Number of Electrons    NEL             ....   48
 Basis Dimension        Dim             ....  139

ORBITAL ENERGIES
----------------

  NO   OCC          E(Eh)            E(eV)
   0   2.0000     -14.680300      -399.4713
   1   2.0000     -14.680257      -399.4701
   2   2.0000     -10.612034      -288.7681
   3   2.0000     -10.486029      -285.3393
   4   2.0000     -10.456466      -284.5349
   5   2.0000     -10.425250      -283.6855
   6   2.0000      -1.317934       -35.8628
   7   2.0000      -1.216230       -33.0953
   8   2.0000      -1.089650       -29.6509
   9   2.0000      -0.999010       -27.1844
  10   2.0000      -0.940663       -25.5967
  11   2.0000      -0.889577       -24.2066
  12   2.0000      -0.874926       -23.8080
  13   2.0000      -0.838459       -22.8156
  14   2.0000      -0.795881       -21.6570
  15   2.0000      -0.770986       -20.9796
  16   2.0000      -0.730267       -19.8716
  17   2.0000      -0.692482       -18.8434
  18   2.0000      -0.673375       -18.3235
  19   2.0000      -0.665684       -18.1142
  20   2.0000      -0.605456       -16.4753
  21   2.0000      -0.603668       -16.4266
  22   2.0000      -0.591965       -16.1082
  23   2.0000      -0.586203       -15.9514
  24   0.0000      -0.126210        -3.4343
  25   0.0000      -0.056060        -1.5255
  26   0.0000      -0.011621        -0.3162
  27   0.0000      -0.010614        -0.2888
  28   0.0000       0.017987         0.4895

MULLIKEN ATOMIC CHARGES
-----------------------
   0 C :    0.028642
   1 C :   -0.088743
   2 N :   -0.010261
   3 N :   -0.005545
   4 H :    0.182764
   5 H :    0.194359
   6 H :    0.193088
   7 H :    0.184630
   8 C :   -0.143327
   9 C :   -0.020400
  10 H :    0.055454
  11 H :    0.096465
  12 H :    0.071551
  13 H :    0.108530
  14 H :    0.085310
  15 H :    0.048031
  16 H :    0.019452
Sum of atomic charges:    1.0000000

LOEWDIN ATOMIC CHARGES
----------------------
   0 C :   -0.031724
   1 C :    0.156776
   2 N :    0.091290
   3 N :    0.093436
   4 H :    0.113484
   5 H :    0.121214
   6 H :    0.121667
   7 H :    0.114299
   8 C :   -0.025761
   9 C :   -0.050491
  10 H :    0.030032
  11 H :    0.053750
  12 H :    0.052572
  13 H :    0.066028
  14 H :    0.050236
  15 H :    0.030582
  16 H :    0.012609

  Mayer bond orders larger than 0.100000
B(  0-C ,  1-C ) :   1.0194 B(  0-C ,  8-C ) :   1.0353 B(  0-C , 12-H ) :   0.9243
B(  0-C , 13-H ) :   0.9265 B(  1-C ,  2-N ) :   1.5023 B(  1-C ,  3-N ) :   1.5023
B(  2-N ,  6-H ) :   0.9238 B(  2-N ,  7-H ) :   0.9289 B(  3-N ,  4-H ) :   0.9285
B(  3-N ,  5-H ) :   0.9196 B(  8-C ,  9-C ) :   1.0676 B(  8-C , 10-H ) :   0.9566
B(  8-C , 11-H ) :   0.9510 B(  9-C , 14-H ) :   0.9648 B(  9-C , 15-H ) :   0.9748
B(  9-C , 16-H ) :   0.9572

Dispersion correction           -0.004943813
FINAL SINGLE POINT ENERGY      -268.080335627456

DIPOLE MOMENT
-------------
                                X             Y             Z
Electronic contribution:      0.47301       0.60459       5.23406
Nuclear contribution   :     -0.82989      -0.08664      -4.26094
                        -----------------------------------------
Total Dipole Moment    :     -0.35688       0.51795       0.97312
                        -----------------------------------------
Magnitude (a.u.)       :      1.15870
Magnitude (Debye)      :      2.94519

Rotational constants in cm-1:     0.166042     0.084809     0.078793
Rotational constants in MHz :  4977.819890  2542.513379  2362.161076

                             ****ORCA TERMINATED NORMALLY****
TOTAL RUN TIME: 0 days 0 hours 0 minutes 9 seconds 175 msec
