                         Program Version 5.0.0 -  RELEASE  -
|  1> !wB97X-D3 RIJCOSX def2-SVP def2/J TightSCF xyzfile
|  2>
|  3> *xyzfile 0 1 B.xyz
|  4>
|  5> %MaxCore 64000
|  6>
|  7> %pal nprocs 18
|  8> end
|  9>
| 10> %scf
| 11>   MaxIter 150
| 12> end
| 13>
| 14>
| 15>                          ****END OF INPUT****

CARTESIAN COORDINATES (ANGSTROEM)
---------------------------------
  C      4.602954   -2.440100    2.634780
  C     -0.914947    0.615112    2.505538
  C     -0.059146    1.503524    3.410578
  H      0.365364    2.344315    2.861161
  H     -0.692261    1.920207    4.198985
  C      1.083027    0.749640    4.085705
  C      3.860851   -1.591565    3.622893
  N      2.756502   -2.046159    4.166333
  N      4.254325   -0.362905    3.860455
  H      3.565256    0.310994    4.168983
  H      5.054292   -0.016059    3.337838
  H      2.439696   -2.973894    3.897395
  H      2.066869   -1.412532    4.549813
  O      2.228167    1.263475    4.019826
  O      0.810034   -0.345411    4.636269
  C      3.744685   -2.580557    1.361882
  C      0.772139    0.636882    0.562129
  C     -0.130740   -0.193985    1.470763
  H     -0.840563   -0.760165    0.856377
  H      0.466691   -0.938942    2.006959
  H     -1.647961    1.245963    1.991076
  H     -1.478180   -0.081046    3.130424
  C      3.203721   -1.256004    0.826211
  H      2.898939   -3.239289    1.583074
  H      4.334962   -3.095523    0.600188
  C      2.107815   -1.442385   -0.216865
  H      2.786775   -0.672760    1.650711
  H      4.021008   -0.652993    0.414046
  C      1.390662   -0.145912   -0.602422
  H      1.372179   -2.152184    0.176151
  H      2.523302   -1.906787   -1.117115
  H      1.561361    1.100094    1.161831
  H      0.195516    1.468325    0.142758
  H      0.602893   -0.398214   -1.319716
  H      2.087247    0.508272   -1.137335
  H      5.561557   -1.971347    2.407084
  H      4.810498   -3.422552    3.063099

 Total Charge           Charge          ....    0
 Multiplicity           Mult            ....    1
 Number of Electrons    NEL             ....  118
 Basis Dimension        Dim             ....  320

ORBITAL ENERGIES
----------------

  NO   OCC          E(Eh)            E(eV)
   0   2.0000     -19.151709      -521.1445
   1   2.0000     -19.149528      -521.0852
   2   2.0000     -14.476110      -393.9150
   3   2.0000     -14.475802      -393.9066
   4   2.0000     -10.428043      -283.7615
   5   2.0000     -10.343685      -281.4660
   6   2.0000     -10.341625      -281.4099
   7   2.0000     -10.323262      -280.9102
   8   2.0000     -10.298686      -280.2415
   9   2.0000     -10.289262      -279.9850
  10   2.0000     -10.280651      -279.7507
  11   2.0000     -10.269389      -279.4443
  12   2.0000     -10.265669      -279.3431
  13   2.0000     -10.260538      -279.2034
  14   2.0000     -10.248045      -278.8635
  15   2.0000      -1.128476       -30.7074
  16   2.0000      -1.103640       -30.0316
  17   2.0000      -1.026750       -27.9393
  18   2.0000      -1.005314       -27.3560
  19   2.0000      -0.950533       -25.8653
  20   2.0000      -0.914477       -24.8842
  21   2.0000      -0.882568       -24.0159
  22   2.0000      -0.841802       -22.9066
  23   2.0000      -0.801834       -21.8190
  24   2.0000      -0.763405       -20.7733
  25   2.0000      -0.746858       -20.3230
  26   2.0000      -0.724711       -19.7204
  27   2.0000      -0.689010       -18.7489
  28   2.0000      -0.681964       -18.5572
  29   2.0000      -0.672986       -18.3129
  30   2.0000      -0.647634       -17.6230
  31   2.0000      -0.615708       -16.7543
  32   2.0000      -0.607200       -16.5228
  33   2.0000      -0.587000       -15.9731
  34   2.0000      -0.572031       -15.5658
  35   2.0000      -0.562347       -15.3022
  36   2.0000      -0.553550       -15.0628
  37   2.0000      -0.542056       -14.7501
  38   2.0000      -0.529328       -14.4037
  39   2.0000      -0.516688       -14.0598
  40   2.0000      -0.507328       -13.8051
  41   2.0000      -0.502750       -13.6805
  42   2.0000      -0.494962       -13.4686
  43   2.0000      -0.488425       -13.2907
  44   2.0000      -0.468673       -12.7532
  45   2.0000      -0.466369       -12.6905
  46   2.0000      -0.461081       -12.5467
  47   2.0000      -0.454466       -12.3666
  48   2.0000      -0.443308       -12.0630
  49   2.0000      -0.426728       -11.6119
  50   2.0000      -0.422581       -11.4990
  51   2.0000      -0.414008       -11.2657
  52   2.0000      -0.398757       -10.8507
  53   2.0000      -0.393575       -10.7097
  54   2.0000      -0.391237       -10.6461
  55   2.0000      -0.384196       -10.4545
  56   2.0000      -0.316786        -8.6202
  57   2.0000      -0.308421        -8.3926
  58   2.0000      -0.302816        -8.2400
  59   0.0000       0.053672         1.4605
  60   0.0000       0.101785         2.7697
  61   0.0000       0.125860         3.4248
  62   0.0000       0.142425         3.8756
  63   0.0000       0.155750         4.2382

MULLIKEN ATOMIC CHARGES
-----------------------
   0 C :    0.078872
   1 C :   -0.007296
   2 C :   -0.005885
   3 H :    0.016882
   4 H :    0.034409
   5 C :    0.146693
   6 C :   -0.116756
   7 N :   -0.002170
   8 N :   -0.002112
   9 H :    0.152506
  10 H :    0.146346
  11 H :    0.145777
  12 H :    0.151435
  13 O :   -0.426888
  14 O :   -0.425672
  15 C :   -0.063601
  16 C :   -0.070260
  17 C :   -0.050700
  18 H :    0.009237
  19 H :   -0.001670
  20 H :    0.009146
  21 H :    0.027043
  22 C :   -0.069603
  23 H :    0.023899
  24 H :    0.045948
  25 C :   -0.044488
  26 H :    0.045015
  27 H :    0.019168
  28 C :    0.010443
  29 H :    0.019702
  30 H :    0.019236
  31 H :    0.040186
  32 H :    0.017205
  33 H :    0.019687
  34 H :    0.015117
  35 H :    0.031459
  36 H :    0.061689
Sum of atomic charges:   -0.0000000

LOEWDIN ATOMIC CHARGES
----------------------
   0 C :   -0.039062
   1 C :   -0.032751
   2 C :   -0.073216
   3 H :    0.020419
   4 H :    0.036418
   5 C :    0.026868
   6 C :    0.126257
   7 N :    0.081075
   8 N :    0.081449
   9 H :    0.043362
  10 H :    0.093285
  11 H :    0.093878
  12 H :    0.043979
  13 O :   -0.323189
  14 O :   -0.326647
  15 C :   -0.026336
  16 C :   -0.045740
  17 C :   -0.045368
  18 H :    0.018105
  19 H :    0.010487
  20 H :    0.017286
  21 H :    0.025898
  22 C :   -0.045734
  23 H :    0.021763
  24 H :    0.032526
  25 C :   -0.038590
  26 H :    0.023650
  27 H :    0.023497
  28 C :   -0.036782
  29 H :    0.020113
  30 H :    0.021851
  31 H :    0.021520
  32 H :    0.023738
  33 H :    0.022923
  34 H :    0.021165
  35 H :    0.036319
  36 H :    0.045584

  Mayer bond orders larger than 0.100000
B(  0-C ,  6-C ) :   1.0215 B(  0-C , 15-C ) :   1.0602 B(  0-C , 35-H ) :   0.9237
B(  0-C , 36-H ) :   0.9305 B(  1-C ,  2-C ) :   1.0666 B(  1-C , 17-C ) :   1.0899
B(  1-C , 20-H ) :   0.9504 B(  1-C , 21-H ) :   0.9422 B(  2-C ,  3-H ) :   0.9435
B(  2-C ,  4-H ) :   0.9309 B(  2-C ,  5-C ) :   0.9676 B(  5-C , 13-O ) :   1.6746
B(  5-C , 14-O ) :   1.6685 B(  6-C ,  7-N ) :   1.5425 B(  6-C ,  8-N ) :   1.5251
B(  7-N , 11-H ) :   0.9377 B(  7-N , 12-H ) :   0.8190 B(  8-N ,  9-H ) :   0.8235
B(  8-N , 10-H ) :   0.9342 B(  9-H , 13-O ) :   0.2227 B( 12-H , 14-O ) :   0.2276
B( 15-C , 22-C ) :   1.0534 B( 15-C , 23-H ) :   0.9503 B( 15-C , 24-H ) :   0.9498
B( 16-C , 17-C ) :   1.0570 B( 16-C , 28-C ) :   1.0795 B( 16-C , 31-H ) :   0.9338
B( 16-C , 32-H ) :   0.9468 B( 17-C , 18-H ) :   0.9474 B( 17-C , 19-H ) :   0.9263
B( 22-C , 25-C ) :   1.0655 B( 22-C , 26-H ) :   0.9261 B( 22-C , 27-H ) :   0.9399
B( 25-C , 28-C ) :   1.0767 B( 25-C , 29-H ) :   0.9453 B( 25-C , 30-H ) :   0.9480
B( 28-C , 33-H ) :   0.9474 B( 28-C , 34-H ) :   0.9487

Dispersion correction           -0.019998660
FINAL SINGLE POINT ENERGY      -691.756163686327

DIPOLE MOMENT
-------------
                                X             Y             Z
Electronic contribution:      3.54092       1.55460      13.07550
Nuclear contribution   :     -1.50655      -3.48027     -14.35034
                        -----------------------------------------
Total Dipole Moment    :      2.03437      -1.92568      -1.27484
                        -----------------------------------------
Magnitude (a.u.)       :      3.07768
Magnitude (Debye)      :      7.82284

Rotational constants in cm-1:     0.021781     0.017296     0.011403
Rotational constants in MHz :   652.971749   518.510612   341.853154

                             ****ORCA TERMINATED NORMALLY****
TOTAL RUN TIME: 0 days 0 hours 0 minutes 39 seconds 723 msec
