                         Program Version 5.0.0 -  RELEASE  -
|  1> !wB97X-D3 RIJCOSX def2-SVP def2/J TightSCF
|  2> *xyz 0 1
|  3> C         -0.91495        0.61511        2.50554
|  4> C         -0.05915        1.50352        3.41058
|  5> H          0.36536        2.34431        2.86116
|  6> H         -0.69226        1.92021        4.19898
|  7> C          1.08303        0.74964        4.08571
|  8> F          2.22817        1.26348        4.01983
|  9> O          0.81003       -0.34541        4.63627
| 10> C         -0.13074       -0.19398        1.47076
| 11> H         -1.64796        1.24596        1.99108
| 12> H         -1.47818       -0.08105        3.13042
| 13> H         -0.80952       -0.78099        0.88803
| 14> H          0.55985       -0.83974        1.97175
| 15> H          0.40595        0.47288        0.82877
| 16> *
| 17>
| 18> %MaxCore 64000
| 19>
| 20> %pal nprocs 18
| 21> end
| 22>
| 23> %scf
| 24>   MaxIter 150
| 25> end
| 26>
| 27>
| 28>                          ****END OF INPUT****

CARTESIAN COORDINATES (ANGSTROEM)
---------------------------------
  C     -0.914950    0.615110    2.505540
  C     -0.059150    1.503520    3.410580
  H      0.365360    2.344310    2.861160
  H     -0.692260    1.920210    4.198980
  C      1.083030    0.749640    4.085710
  F      2.228170    1.263480    4.019830
  O      0.810030   -0.345410    4.636270
  C     -0.130740   -0.193980    1.470760
  H     -1.647960    1.245960    1.991080
  H     -1.478180   -0.081050    3.130420
  H     -0.809520   -0.780990    0.888030
  H      0.559850   -0.839740    1.971750
  H      0.405950    0.472880    0.828770

 Total Charge           Charge          ....    0
 Multiplicity           Mult            ....    1
 Number of Electrons    NEL             ....   48
 Basis Dimension        Dim             ....  119

ORBITAL ENERGIES
----------------

  NO   OCC          E(Eh)            E(eV)
   0   2.0000     -24.858031      -676.4214
   1   2.0000     -19.240868      -523.5706
   2   2.0000     -10.463290      -284.7206
   3   2.0000     -10.315880      -280.7094
   4   2.0000     -10.300710      -280.2966
   5   2.0000     -10.279797      -279.7275
   6   2.0000      -1.413162       -38.4541
   7   2.0000      -1.132940       -30.8289
   8   2.0000      -0.922271       -25.0963
   9   2.0000      -0.836438       -22.7606
  10   2.0000      -0.762927       -20.7603
  11   2.0000      -0.713009       -19.4020
  12   2.0000      -0.648671       -17.6512
  13   2.0000      -0.631392       -17.1810
  14   2.0000      -0.607249       -16.5241
  15   2.0000      -0.564366       -15.3572
  16   2.0000      -0.552718       -15.0402
  17   2.0000      -0.515269       -14.0212
  18   2.0000      -0.496039       -13.4979
  19   2.0000      -0.463972       -12.6253
  20   2.0000      -0.448814       -12.2128
  21   2.0000      -0.439482       -11.9589
  22   2.0000      -0.434672       -11.8280
  23   2.0000      -0.383779       -10.4432
  24   0.0000       0.062883         1.7111
  25   0.0000       0.141375         3.8470
  26   0.0000       0.182227         4.9586
  27   0.0000       0.186957         5.0874
  28   0.0000       0.202297         5.5048

MULLIKEN ATOMIC CHARGES
-----------------------
   0 C :   -0.093416
   1 C :   -0.079724
   2 H :    0.040632
   3 H :    0.077201
   4 C :    0.252581
   5 F :   -0.082454
   6 O :   -0.272486
   7 C :   -0.040619
   8 H :    0.036822
   9 H :    0.052245
  10 H :    0.037492
  11 H :    0.047195
  12 H :    0.024532
Sum of atomic charges:    0.0000000

LOEWDIN ATOMIC CHARGES
----------------------
   0 C :   -0.033573
   1 C :   -0.075600
   2 H :    0.029164
   3 H :    0.055084
   4 C :    0.114152
   5 F :    0.039829
   6 O :   -0.206241
   7 C :   -0.057566
   8 H :    0.028326
   9 H :    0.032156
  10 H :    0.029105
  11 H :    0.024928
  12 H :    0.020235

  Mayer bond orders larger than 0.100000
B(  0-C ,  1-C ) :   1.0662 B(  0-C ,  7-C ) :   1.0870 B(  0-C ,  8-H ) :   0.9572
B(  0-C ,  9-H ) :   0.9509 B(  1-C ,  2-H ) :   0.9426 B(  1-C ,  3-H ) :   0.9288
B(  1-C ,  4-C ) :   0.9865 B(  4-C ,  5-F ) :   1.1954 B(  4-C ,  6-O ) :   2.0571
B(  7-C , 10-H ) :   0.9716 B(  7-C , 11-H ) :   0.9695 B(  7-C , 12-H ) :   0.9764

Dispersion correction           -0.003314907
FINAL SINGLE POINT ENERGY      -331.374208487518

DIPOLE MOMENT
-------------
                                X             Y             Z
Electronic contribution:      8.02579       1.43053       7.26515
Nuclear contribution   :     -8.39104      -0.60591      -7.87060
                        -----------------------------------------
Total Dipole Moment    :     -0.36525       0.82462      -0.60544
                        -----------------------------------------
Magnitude (a.u.)       :      1.08626
Magnitude (Debye)      :      2.76107

Rotational constants in cm-1:     0.194210     0.077092     0.074391
Rotational constants in MHz :  5822.269139  2311.145895  2230.180895

                             ****ORCA TERMINATED NORMALLY****
TOTAL RUN TIME: 0 days 0 hours 0 minutes 8 seconds 11 msec
