                         Program Version 5.0.0 -  RELEASE  -
|  1> !wB97X-D3 RIJCOSX def2-SVP def2/J TightSCF
|  2> *xyz 0 1
|  3> C          4.60295       -2.44010        2.63478
|  4> C          3.86085       -1.59157        3.62289
|  5> C          2.75650       -2.04616        4.16633
|  6> N          4.25433       -0.36291        3.86046
|  7> H          3.56526        0.31099        4.16898
|  8> H          5.05429       -0.01606        3.33784
|  9> H          2.43970       -2.97389        3.89740
| 10> H          2.06687       -1.41253        4.54981
| 11> C          3.74469       -2.58056        1.36188
| 12> C          3.20372       -1.25600        0.82621
| 13> H          2.89894       -3.23929        1.58307
| 14> H          4.33496       -3.09552        0.60019
| 15> H          5.56156       -1.97135        2.40708
| 16> H          4.81050       -3.42255        3.06310
| 17> H          2.62184       -1.43789       -0.05313
| 18> H          4.02069       -0.60826        0.58562
| 19> H          2.58975       -0.79418        1.57097
| 20> *
| 21>
| 22> %MaxCore 64000
| 23>
| 24> %pal nprocs 18
| 25> end
| 26>
| 27> %scf
| 28>   MaxIter 150
| 29> end
| 30>
| 31>
| 32>                          ****END OF INPUT****

CARTESIAN COORDINATES (ANGSTROEM)
---------------------------------
  C      4.602950   -2.440100    2.634780
  C      3.860850   -1.591570    3.622890
  C      2.756500   -2.046160    4.166330
  N      4.254330   -0.362910    3.860460
  H      3.565260    0.310990    4.168980
  H      5.054290   -0.016060    3.337840
  H      2.439700   -2.973890    3.897400
  H      2.066870   -1.412530    4.549810
  C      3.744690   -2.580560    1.361880
  C      3.203720   -1.256000    0.826210
  H      2.898940   -3.239290    1.583070
  H      4.334960   -3.095520    0.600190
  H      5.561560   -1.971350    2.407080
  H      4.810500   -3.422550    3.063100
  H      2.621840   -1.437890   -0.053130
  H      4.020690   -0.608260    0.585620
  H      2.589750   -0.794180    1.570970

 Total Charge           Charge          ....    0
 Multiplicity           Mult            ....    1
 Number of Electrons    NEL             ....   48
 Basis Dimension        Dim             ....  139

ORBITAL ENERGIES
----------------

  NO   OCC          E(Eh)            E(eV)
   0   2.0000     -14.431519      -392.7016
   1   2.0000     -10.303415      -280.3702
   2   2.0000     -10.287516      -279.9375
   3   2.0000     -10.284379      -279.8522
   4   2.0000     -10.269361      -279.4435
   5   2.0000     -10.213477      -277.9228
   6   2.0000      -1.037791       -28.2397
   7   2.0000      -0.904456       -24.6115
   8   2.0000      -0.835224       -22.7276
   9   2.0000      -0.789659       -21.4877
  10   2.0000      -0.709041       -19.2940
  11   2.0000      -0.655481       -17.8365
  12   2.0000      -0.619707       -16.8631
  13   2.0000      -0.585589       -15.9347
  14   2.0000      -0.556100       -15.1322
  15   2.0000      -0.533240       -14.5102
  16   2.0000      -0.498208       -13.5569
  17   2.0000      -0.481349       -13.0982
  18   2.0000      -0.460250       -12.5240
  19   2.0000      -0.455141       -12.3850
  20   2.0000      -0.428718       -11.6660
  21   2.0000      -0.421390       -11.4666
  22   2.0000      -0.413286       -11.2461
  23   2.0000      -0.272511        -7.4154
  24   0.0000       0.129958         3.5363
  25   0.0000       0.135227         3.6797
  26   0.0000       0.173100         4.7103
  27   0.0000       0.181811         4.9473
  28   0.0000       0.195369         5.3162

MULLIKEN ATOMIC CHARGES
-----------------------
   0 C :    0.073018
   1 C :   -0.176012
   2 C :   -0.060100
   3 N :   -0.091891
   4 H :    0.126694
   5 H :    0.116881
   6 H :   -0.024062
   7 H :   -0.033538
   8 C :   -0.098789
   9 C :   -0.004958
  10 H :    0.032300
  11 H :    0.023981
  12 H :    0.000271
  13 H :    0.044299
  14 H :    0.029214
  15 H :    0.009283
  16 H :    0.033410
Sum of atomic charges:   -0.0000000

LOEWDIN ATOMIC CHARGES
----------------------
   0 C :   -0.029845
   1 C :    0.004952
   2 C :   -0.181251
   3 N :   -0.008484
   4 H :    0.078744
   5 H :    0.069207
   6 H :   -0.000760
   7 H :   -0.005905
   8 C :   -0.032494
   9 C :   -0.057078
  10 H :    0.024167
  11 H :    0.019570
  12 H :    0.016601
  13 H :    0.039229
  14 H :    0.024642
  15 H :    0.015519
  16 H :    0.023188

  Mayer bond orders larger than 0.100000
B(  0-C ,  1-C ) :   1.0028 B(  0-C ,  8-C ) :   1.0726 B(  0-C , 12-H ) :   0.9372
B(  0-C , 13-H ) :   0.9388 B(  1-C ,  2-C ) :   1.8671 B(  1-C ,  3-N ) :   1.2463
B(  2-C ,  6-H ) :   0.9557 B(  2-C ,  7-H ) :   0.9636 B(  3-N ,  4-H ) :   0.9504
B(  3-N ,  5-H ) :   0.9520 B(  8-C ,  9-C ) :   1.0829 B(  8-C , 10-H ) :   0.9546
B(  8-C , 11-H ) :   0.9574 B(  9-C , 14-H ) :   0.9717 B(  9-C , 15-H ) :   0.9753
B(  9-C , 16-H ) :   0.9608

Dispersion correction           -0.004909280
FINAL SINGLE POINT ENERGY      -251.618099865237

DIPOLE MOMENT
-------------
                                X             Y             Z
Electronic contribution:      1.38954       0.75910       3.41373
Nuclear contribution   :     -1.05621      -0.17147      -3.92631
                        -----------------------------------------
Total Dipole Moment    :      0.33333       0.58762      -0.51257
                        -----------------------------------------
Magnitude (a.u.)       :      0.84802
Magnitude (Debye)      :      2.15550

Rotational constants in cm-1:     0.171127     0.086782     0.080643
Rotational constants in MHz :  5130.249275  2601.647634  2417.629092

                             ****ORCA TERMINATED NORMALLY****
TOTAL RUN TIME: 0 days 0 hours 0 minutes 8 seconds 417 msec
