                         Program Version 5.0.0 -  RELEASE  -
|  1> !wB97X-D3 RIJCOSX def2-SVP def2/J TightSCF
|  2> *xyz 0 1
|  3> C         -0.91495        0.61511        2.50554
|  4> C         -0.05915        1.50352        3.41058
|  5> H          0.36536        2.34431        2.86116
|  6> H         -0.69226        1.92021        4.19898
|  7> C          1.08303        0.74964        4.08571
|  8> O          2.22817        1.26348        4.01983
|  9> F          0.81003       -0.34541        4.63627
| 10> C         -0.13074       -0.19398        1.47076
| 11> H         -1.64796        1.24596        1.99108
| 12> H         -1.47818       -0.08105        3.13042
| 13> H         -0.80952       -0.78099        0.88803
| 14> H          0.55985       -0.83974        1.97175
| 15> H          0.40595        0.47288        0.82877
| 16> *
| 17>
| 18> %MaxCore 64000
| 19>
| 20> %pal nprocs 18
| 21> end
| 22>
| 23> %scf
| 24>   MaxIter 150
| 25> end
| 26>
| 27>
| 28>                          ****END OF INPUT****

CARTESIAN COORDINATES (ANGSTROEM)
---------------------------------
  C     -0.914950    0.615110    2.505540
  C     -0.059150    1.503520    3.410580
  H      0.365360    2.344310    2.861160
  H     -0.692260    1.920210    4.198980
  C      1.083030    0.749640    4.085710
  O      2.228170    1.263480    4.019830
  F      0.810030   -0.345410    4.636270
  C     -0.130740   -0.193980    1.470760
  H     -1.647960    1.245960    1.991080
  H     -1.478180   -0.081050    3.130420
  H     -0.809520   -0.780990    0.888030
  H      0.559850   -0.839740    1.971750
  H      0.405950    0.472880    0.828770

 Total Charge           Charge          ....    0
 Multiplicity           Mult            ....    1
 Number of Electrons    NEL             ....   48
 Basis Dimension        Dim             ....  119

ORBITAL ENERGIES
----------------

  NO   OCC          E(Eh)            E(eV)
   0   2.0000     -24.859853      -676.4710
   1   2.0000     -19.238929      -523.5179
   2   2.0000     -10.461810      -284.6803
   3   2.0000     -10.314605      -280.6747
   4   2.0000     -10.305462      -280.4259
   5   2.0000     -10.285442      -279.8811
   6   2.0000      -1.414995       -38.5040
   7   2.0000      -1.129871       -30.7454
   8   2.0000      -0.927326       -25.2338
   9   2.0000      -0.836677       -22.7672
  10   2.0000      -0.762230       -20.7413
  11   2.0000      -0.719214       -19.5708
  12   2.0000      -0.652081       -17.7440
  13   2.0000      -0.642016       -17.4701
  14   2.0000      -0.588649       -16.0180
  15   2.0000      -0.571959       -15.5638
  16   2.0000      -0.556061       -15.1312
  17   2.0000      -0.516184       -14.0461
  18   2.0000      -0.495148       -13.4737
  19   2.0000      -0.469892       -12.7864
  20   2.0000      -0.458727       -12.4826
  21   2.0000      -0.444331       -12.0909
  22   2.0000      -0.434902       -11.8343
  23   2.0000      -0.377371       -10.2688
  24   0.0000       0.067576         1.8388
  25   0.0000       0.136214         3.7066
  26   0.0000       0.181259         4.9323
  27   0.0000       0.184226         5.0131
  28   0.0000       0.200860         5.4657

MULLIKEN ATOMIC CHARGES
-----------------------
   0 C :   -0.127483
   1 C :   -0.066842
   2 H :    0.066135
   3 H :    0.066829
   4 C :    0.245261
   5 O :   -0.265496
   6 F :   -0.085014
   7 C :   -0.030526
   8 H :    0.042455
   9 H :    0.040005
  10 H :    0.039142
  11 H :    0.038864
  12 H :    0.036669
Sum of atomic charges:   -0.0000000

LOEWDIN ATOMIC CHARGES
----------------------
   0 C :   -0.045614
   1 C :   -0.070823
   2 H :    0.045701
   3 H :    0.047204
   4 C :    0.109460
   5 O :   -0.201918
   6 F :    0.039400
   7 C :   -0.055952
   8 H :    0.030506
   9 H :    0.024839
  10 H :    0.029079
  11 H :    0.021910
  12 H :    0.026209

  Mayer bond orders larger than 0.100000
B(  0-C ,  1-C ) :   1.0483 B(  0-C ,  7-C ) :   1.0823 B(  0-C ,  8-H ) :   0.9560
B(  0-C ,  9-H ) :   0.9553 B(  1-C ,  2-H ) :   0.9508 B(  1-C ,  3-H ) :   0.9326
B(  1-C ,  4-C ) :   0.9950 B(  4-C ,  5-O ) :   2.0870 B(  4-C ,  6-F ) :   1.1765
B(  7-C , 10-H ) :   0.9720 B(  7-C , 11-H ) :   0.9697 B(  7-C , 12-H ) :   0.9756

Dispersion correction           -0.003318922
FINAL SINGLE POINT ENERGY      -331.372996864331

DIPOLE MOMENT
-------------
                                X             Y             Z
Electronic contribution:      5.62286      -1.27572       8.26353
Nuclear contribution   :     -6.78915       1.21145      -8.56691
                        -----------------------------------------
Total Dipole Moment    :     -1.16629      -0.06427      -0.30338
                        -----------------------------------------
Magnitude (a.u.)       :      1.20681
Magnitude (Debye)      :      3.06748

Rotational constants in cm-1:     0.188995     0.079574     0.075294
Rotational constants in MHz :  5665.932233  2385.568994  2257.246443

                             ****ORCA TERMINATED NORMALLY****
TOTAL RUN TIME: 0 days 0 hours 0 minutes 8 seconds 173 msec
