                         Program Version 5.0.0 -  RELEASE  -
|  1> !wB97X-D3 RIJCOSX def2-SVP def2/J TightSCF
|  2> *xyz 0 1
|  3> C          4.60295       -2.44010        2.63478
|  4> C          3.86085       -1.59157        3.62289
|  5> N          2.75650       -2.04616        4.16633
|  6> C          4.25433       -0.36291        3.86046
|  7> H          3.56526        0.31099        4.16898
|  8> H          5.05429       -0.01606        3.33784
|  9> H          2.43970       -2.97389        3.89740
| 10> H          2.06687       -1.41253        4.54981
| 11> C          3.74469       -2.58056        1.36188
| 12> C          3.20372       -1.25600        0.82621
| 13> H          2.89894       -3.23929        1.58307
| 14> H          4.33496       -3.09552        0.60019
| 15> H          5.56156       -1.97135        2.40708
| 16> H          4.81050       -3.42255        3.06310
| 17> H          2.62184       -1.43789       -0.05313
| 18> H          4.02069       -0.60826        0.58562
| 19> H          2.58975       -0.79418        1.57097
| 20> *
| 21>
| 22> %MaxCore 64000
| 23>
| 24> %pal nprocs 18
| 25> end
| 26>
| 27> %scf
| 28>   MaxIter 150
| 29> end
| 30>
| 31>
| 32>                          ****END OF INPUT****

CARTESIAN COORDINATES (ANGSTROEM)
---------------------------------
  C      4.602950   -2.440100    2.634780
  C      3.860850   -1.591570    3.622890
  N      2.756500   -2.046160    4.166330
  C      4.254330   -0.362910    3.860460
  H      3.565260    0.310990    4.168980
  H      5.054290   -0.016060    3.337840
  H      2.439700   -2.973890    3.897400
  H      2.066870   -1.412530    4.549810
  C      3.744690   -2.580560    1.361880
  C      3.203720   -1.256000    0.826210
  H      2.898940   -3.239290    1.583070
  H      4.334960   -3.095520    0.600190
  H      5.561560   -1.971350    2.407080
  H      4.810500   -3.422550    3.063100
  H      2.621840   -1.437890   -0.053130
  H      4.020690   -0.608260    0.585620
  H      2.589750   -0.794180    1.570970

 Total Charge           Charge          ....    0
 Multiplicity           Mult            ....    1
 Number of Electrons    NEL             ....   48
 Basis Dimension        Dim             ....  139

ORBITAL ENERGIES
----------------

  NO   OCC          E(Eh)            E(eV)
   0   2.0000     -14.432510      -392.7286
   1   2.0000     -10.303884      -280.3829
   2   2.0000     -10.288208      -279.9564
   3   2.0000     -10.286651      -279.9140
   4   2.0000     -10.267947      -279.4050
   5   2.0000     -10.214518      -277.9512
   6   2.0000      -1.037869       -28.2419
   7   2.0000      -0.903360       -24.5817
   8   2.0000      -0.838189       -22.8083
   9   2.0000      -0.791291       -21.5321
  10   2.0000      -0.701663       -19.0932
  11   2.0000      -0.666556       -18.1379
  12   2.0000      -0.623574       -16.9683
  13   2.0000      -0.570057       -15.5120
  14   2.0000      -0.556718       -15.1491
  15   2.0000      -0.545854       -14.8534
  16   2.0000      -0.485145       -13.2015
  17   2.0000      -0.483790       -13.1646
  18   2.0000      -0.469547       -12.7770
  19   2.0000      -0.457065       -12.4374
  20   2.0000      -0.425389       -11.5754
  21   2.0000      -0.422105       -11.4860
  22   2.0000      -0.410974       -11.1832
  23   2.0000      -0.274597        -7.4722
  24   0.0000       0.128653         3.5008
  25   0.0000       0.135077         3.6756
  26   0.0000       0.174454         4.7471
  27   0.0000       0.182153         4.9566
  28   0.0000       0.195725         5.3259

MULLIKEN ATOMIC CHARGES
-----------------------
   0 C :    0.072888
   1 C :   -0.160179
   2 N :   -0.094646
   3 C :   -0.061129
   4 H :   -0.033925
   5 H :   -0.025255
   6 H :    0.117239
   7 H :    0.127280
   8 C :   -0.114148
   9 C :    0.000404
  10 H :    0.011973
  11 H :    0.031538
  12 H :    0.024419
  13 H :    0.023870
  14 H :    0.023098
  15 H :    0.024988
  16 H :    0.031584
Sum of atomic charges:   -0.0000000

LOEWDIN ATOMIC CHARGES
----------------------
   0 C :   -0.028685
   1 C :    0.007085
   2 N :   -0.010039
   3 C :   -0.180176
   4 H :   -0.006075
   5 H :   -0.001322
   6 H :    0.070812
   7 H :    0.078962
   8 C :   -0.039976
   9 C :   -0.053053
  10 H :    0.013476
  11 H :    0.023691
  12 H :    0.034256
  13 H :    0.023941
  14 H :    0.021693
  15 H :    0.023074
  16 H :    0.022336

  Mayer bond orders larger than 0.100000
B(  0-C ,  1-C ) :   1.0292 B(  0-C ,  8-C ) :   1.0527 B(  0-C , 12-H ) :   0.9333
B(  0-C , 13-H ) :   0.9394 B(  1-C ,  2-N ) :   1.2501 B(  1-C ,  3-C ) :   1.8586
B(  2-N ,  6-H ) :   0.9559 B(  2-N ,  7-H ) :   0.9507 B(  3-C ,  4-H ) :   0.9647
B(  3-C ,  5-H ) :   0.9498 B(  8-C ,  9-C ) :   1.0809 B(  8-C , 10-H ) :   0.9564
B(  8-C , 11-H ) :   0.9586 B(  9-C , 14-H ) :   0.9697 B(  9-C , 15-H ) :   0.9740
B(  9-C , 16-H ) :   0.9661

Dispersion correction           -0.004912654
FINAL SINGLE POINT ENERGY      -251.618198458458

DIPOLE MOMENT
-------------
                                X             Y             Z
Electronic contribution:      0.02858      -0.75702       3.71192
Nuclear contribution   :     -0.70193       0.22667      -3.99866
                        -----------------------------------------
Total Dipole Moment    :     -0.67334      -0.53035      -0.28674
                        -----------------------------------------
Magnitude (a.u.)       :      0.90381
Magnitude (Debye)      :      2.29731

Rotational constants in cm-1:     0.170665     0.086587     0.081284
Rotational constants in MHz :  5116.404877  2595.819690  2436.831753

                             ****ORCA TERMINATED NORMALLY****
TOTAL RUN TIME: 0 days 0 hours 0 minutes 9 seconds 300 msec
