                         Program Version 5.0.0 -  RELEASE  -
|  1> !wB97X-D3 RIJCOSX def2-SVP def2/J TightSCF xyzfile
|  2>
|  3> *xyzfile 0 1 D1.xyz
|  4>
|  5> %MaxCore 64000
|  6>
|  7> %pal nprocs 18
|  8> end
|  9>
| 10> %scf
| 11>   MaxIter 150
| 12> end
| 13>
| 14>
| 15>                          ****END OF INPUT****

CARTESIAN COORDINATES (ANGSTROEM)
---------------------------------
  C      4.602954   -2.440100    2.634780
  C     -0.914947    0.615112    2.505538
  C     -0.059146    1.503524    3.410578
  H      0.365364    2.344315    2.861161
  H     -0.692261    1.920207    4.198985
  C      1.083027    0.749640    4.085705
  C      3.860851   -1.591565    3.622893
  C      2.756502   -2.046159    4.166333
  N      4.254325   -0.362905    3.860455
  H      3.565256    0.310994    4.168983
  H      5.054292   -0.016059    3.337838
  H      2.439696   -2.973894    3.897395
  H      2.066869   -1.412532    4.549813
  F      2.228167    1.263475    4.019826
  O      0.810034   -0.345411    4.636269
  C      3.744685   -2.580557    1.361882
  C      0.772139    0.636882    0.562129
  C     -0.130740   -0.193985    1.470763
  H     -0.840563   -0.760165    0.856377
  H      0.466691   -0.938942    2.006959
  H     -1.647961    1.245963    1.991076
  H     -1.478180   -0.081046    3.130424
  C      3.203721   -1.256004    0.826211
  H      2.898939   -3.239289    1.583074
  H      4.334962   -3.095523    0.600188
  C      2.107815   -1.442385   -0.216865
  H      2.786775   -0.672760    1.650711
  H      4.021008   -0.652993    0.414046
  C      1.390662   -0.145912   -0.602422
  H      1.372179   -2.152184    0.176151
  H      2.523302   -1.906787   -1.117115
  H      1.561361    1.100094    1.161831
  H      0.195516    1.468325    0.142758
  H      0.602893   -0.398214   -1.319716
  H      2.087247    0.508272   -1.137335
  H      5.561557   -1.971347    2.407084
  H      4.810498   -3.422552    3.063099

 Total Charge           Charge          ....    0
 Multiplicity           Mult            ....    1
 Number of Electrons    NEL             ....  118
 Basis Dimension        Dim             ....  320

ORBITAL ENERGIES
----------------

  NO   OCC          E(Eh)            E(eV)
   0   2.0000     -24.890421      -677.3028
   1   2.0000     -19.258910      -524.0616
   2   2.0000     -14.406456      -392.0196
   3   2.0000     -10.483323      -285.2657
   4   2.0000     -10.326051      -280.9861
   5   2.0000     -10.305234      -280.4197
   6   2.0000     -10.290073      -280.0071
   7   2.0000     -10.289650      -279.9956
   8   2.0000     -10.284765      -279.8627
   9   2.0000     -10.281682      -279.7788
  10   2.0000     -10.278244      -279.6852
  11   2.0000     -10.275574      -279.6126
  12   2.0000     -10.274229      -279.5760
  13   2.0000     -10.274112      -279.5728
  14   2.0000     -10.179985      -277.0115
  15   2.0000      -1.447098       -39.3775
  16   2.0000      -1.157002       -31.4836
  17   2.0000      -1.018766       -27.7220
  18   2.0000      -0.943193       -25.6656
  19   2.0000      -0.916899       -24.9501
  20   2.0000      -0.890623       -24.2351
  21   2.0000      -0.852372       -23.1942
  22   2.0000      -0.826842       -22.4995
  23   2.0000      -0.794977       -21.6324
  24   2.0000      -0.782816       -21.3015
  25   2.0000      -0.753282       -20.4978
  26   2.0000      -0.718241       -19.5443
  27   2.0000      -0.694697       -18.9037
  28   2.0000      -0.680350       -18.5133
  29   2.0000      -0.671147       -18.2628
  30   2.0000      -0.656268       -17.8579
  31   2.0000      -0.638005       -17.3610
  32   2.0000      -0.626332       -17.0434
  33   2.0000      -0.596992       -16.2450
  34   2.0000      -0.584688       -15.9102
  35   2.0000      -0.580877       -15.8065
  36   2.0000      -0.569997       -15.5104
  37   2.0000      -0.551142       -14.9973
  38   2.0000      -0.543078       -14.7779
  39   2.0000      -0.526466       -14.3259
  40   2.0000      -0.522670       -14.2226
  41   2.0000      -0.506763       -13.7897
  42   2.0000      -0.500838       -13.6285
  43   2.0000      -0.486892       -13.2490
  44   2.0000      -0.483276       -13.1506
  45   2.0000      -0.467255       -12.7147
  46   2.0000      -0.462508       -12.5855
  47   2.0000      -0.455184       -12.3862
  48   2.0000      -0.446286       -12.1441
  49   2.0000      -0.437826       -11.9139
  50   2.0000      -0.435290       -11.8448
  51   2.0000      -0.426484       -11.6052
  52   2.0000      -0.415775       -11.3138
  53   2.0000      -0.412506       -11.2249
  54   2.0000      -0.403814       -10.9883
  55   2.0000      -0.400439       -10.8965
  56   2.0000      -0.393839       -10.7169
  57   2.0000      -0.365652        -9.9499
  58   2.0000      -0.250019        -6.8034
  59   0.0000       0.042379         1.1532
  60   0.0000       0.127757         3.4764
  61   0.0000       0.146904         3.9975
  62   0.0000       0.150723         4.1014
  63   0.0000       0.151278         4.1165

MULLIKEN ATOMIC CHARGES
-----------------------
   0 C :    0.114669
   1 C :   -0.008838
   2 C :   -0.063321
   3 H :    0.046514
   4 H :    0.080626
   5 C :    0.284140
   6 C :   -0.193184
   7 C :   -0.080968
   8 N :   -0.105877
   9 H :    0.110933
  10 H :    0.106991
  11 H :   -0.042303
  12 H :   -0.002547
  13 F :   -0.090493
  14 O :   -0.238078
  15 C :   -0.034374
  16 C :   -0.064706
  17 C :   -0.082623
  18 H :    0.029494
  19 H :    0.045116
  20 H :    0.034321
  21 H :    0.051363
  22 C :   -0.038044
  23 H :    0.019769
  24 H :    0.014935
  25 C :   -0.044301
  26 H :    0.000727
  27 H :    0.005055
  28 C :    0.012155
  29 H :    0.019393
  30 H :    0.019463
  31 H :    0.012639
  32 H :    0.017523
  33 H :    0.020100
  34 H :    0.017085
  35 H :   -0.009564
  36 H :    0.036210
Sum of atomic charges:    0.0000000

LOEWDIN ATOMIC CHARGES
----------------------
   0 C :   -0.028960
   1 C :   -0.025277
   2 C :   -0.066577
   3 H :    0.030497
   4 H :    0.057688
   5 C :    0.138251
   6 C :   -0.008948
   7 C :   -0.189641
   8 N :   -0.024277
   9 H :    0.038913
  10 H :    0.062605
  11 H :   -0.007643
  12 H :   -0.026885
  13 F :    0.071722
  14 O :   -0.144741
  15 C :   -0.026451
  16 C :   -0.046321
  17 C :   -0.046703
  18 H :    0.028610
  19 H :    0.025708
  20 H :    0.029099
  21 H :    0.035194
  22 C :   -0.042873
  23 H :    0.022227
  24 H :    0.017889
  25 C :   -0.039696
  26 H :    0.013932
  27 H :    0.016703
  28 C :   -0.036114
  29 H :    0.020157
  30 H :    0.022810
  31 H :    0.011278
  32 H :    0.021990
  33 H :    0.022860
  34 H :    0.022306
  35 H :    0.013606
  36 H :    0.037064

  Mayer bond orders larger than 0.100000
B(  0-C ,  6-C ) :   1.0040 B(  0-C , 15-C ) :   1.0804 B(  0-C , 35-H ) :   0.9317
B(  0-C , 36-H ) :   0.9345 B(  1-C ,  2-C ) :   1.0612 B(  1-C , 17-C ) :   1.0904
B(  1-C , 20-H ) :   0.9500 B(  1-C , 21-H ) :   0.9452 B(  2-C ,  3-H ) :   0.9375
B(  2-C ,  4-H ) :   0.9237 B(  2-C ,  5-C ) :   0.9940 B(  5-C , 13-F ) :   1.1099
B(  5-C , 14-O ) :   1.9884 B(  6-C ,  7-C ) :   1.8765 B(  6-C ,  8-N ) :   1.2262
B(  7-C , 11-H ) :   0.9525 B(  7-C , 12-H ) :   0.9289 B(  8-N ,  9-H ) :   0.9382
B(  8-N , 10-H ) :   0.9533 B( 12-H , 14-O ) :   0.1141 B( 15-C , 22-C ) :   1.0676
B( 15-C , 23-H ) :   0.9484 B( 15-C , 24-H ) :   0.9491 B( 16-C , 17-C ) :   1.0533
B( 16-C , 28-C ) :   1.0811 B( 16-C , 31-H ) :   0.9354 B( 16-C , 32-H ) :   0.9495
B( 17-C , 18-H ) :   0.9457 B( 17-C , 19-H ) :   0.9300 B( 22-C , 25-C ) :   1.0708
B( 22-C , 26-H ) :   0.9267 B( 22-C , 27-H ) :   0.9432 B( 25-C , 28-C ) :   1.0761
B( 25-C , 29-H ) :   0.9444 B( 25-C , 30-H ) :   0.9466 B( 28-C , 33-H ) :   0.9486
B( 28-C , 34-H ) :   0.9480

Dispersion correction           -0.019722795
FINAL SINGLE POINT ENERGY      -699.607771155740

DIPOLE MOMENT
-------------
                                X             Y             Z
Electronic contribution:      1.22158       7.44547      15.01649
Nuclear contribution   :     -1.66567      -5.90236     -15.95042
                        -----------------------------------------
Total Dipole Moment    :     -0.44408       1.54310      -0.93394
                        -----------------------------------------
Magnitude (a.u.)       :      1.85758
Magnitude (Debye)      :      4.72160

Rotational constants in cm-1:     0.021600     0.017292     0.011381
Rotational constants in MHz :   647.565282   518.410024   341.193038

                             ****ORCA TERMINATED NORMALLY****
TOTAL RUN TIME: 0 days 0 hours 0 minutes 44 seconds 901 msec
