                         Program Version 5.0.0 -  RELEASE  -
|  1> !wB97X-D3 RIJCOSX def2-SVP def2/J TightSCF xyzfile
|  2>
|  3> *xyzfile 0 1 D2.xyz
|  4>
|  5> %MaxCore 64000
|  6>
|  7> %pal nprocs 18
|  8> end
|  9>
| 10> %scf
| 11>   MaxIter 150
| 12> end
| 13>
| 14>
| 15>                          ****END OF INPUT****

CARTESIAN COORDINATES (ANGSTROEM)
---------------------------------
  C      4.602954   -2.440100    2.634780
  C     -0.914947    0.615112    2.505538
  C     -0.059146    1.503524    3.410578
  H      0.365364    2.344315    2.861161
  H     -0.692261    1.920207    4.198985
  C      1.083027    0.749640    4.085705
  C      3.860851   -1.591565    3.622893
  N      2.756502   -2.046159    4.166333
  C      4.254325   -0.362905    3.860455
  H      3.565256    0.310994    4.168983
  H      5.054292   -0.016059    3.337838
  H      2.439696   -2.973894    3.897395
  H      2.066869   -1.412532    4.549813
  F      2.228167    1.263475    4.019826
  O      0.810034   -0.345411    4.636269
  C      3.744685   -2.580557    1.361882
  C      0.772139    0.636882    0.562129
  C     -0.130740   -0.193985    1.470763
  H     -0.840563   -0.760165    0.856377
  H      0.466691   -0.938942    2.006959
  H     -1.647961    1.245963    1.991076
  H     -1.478180   -0.081046    3.130424
  C      3.203721   -1.256004    0.826211
  H      2.898939   -3.239289    1.583074
  H      4.334962   -3.095523    0.600188
  C      2.107815   -1.442385   -0.216865
  H      2.786775   -0.672760    1.650711
  H      4.021008   -0.652993    0.414046
  C      1.390662   -0.145912   -0.602422
  H      1.372179   -2.152184    0.176151
  H      2.523302   -1.906787   -1.117115
  H      1.561361    1.100094    1.161831
  H      0.195516    1.468325    0.142758
  H      0.602893   -0.398214   -1.319716
  H      2.087247    0.508272   -1.137335
  H      5.561557   -1.971347    2.407084
  H      4.810498   -3.422552    3.063099

 Total Charge           Charge          ....    0
 Multiplicity           Mult            ....    1
 Number of Electrons    NEL             ....  118
 Basis Dimension        Dim             ....  320

ORBITAL ENERGIES
----------------

  NO   OCC          E(Eh)            E(eV)
   0   2.0000     -24.880725      -677.0389
   1   2.0000     -19.270549      -524.3783
   2   2.0000     -14.395633      -391.7251
   3   2.0000     -10.491302      -285.4829
   4   2.0000     -10.329172      -281.0711
   5   2.0000     -10.309134      -280.5258
   6   2.0000     -10.293947      -280.1125
   7   2.0000     -10.291021      -280.0329
   8   2.0000     -10.285274      -279.8765
   9   2.0000     -10.284289      -279.8497
  10   2.0000     -10.279576      -279.7215
  11   2.0000     -10.278851      -279.7018
  12   2.0000     -10.273551      -279.5575
  13   2.0000     -10.272323      -279.5241
  14   2.0000     -10.188968      -277.2559
  15   2.0000      -1.439552       -39.1722
  16   2.0000      -1.167472       -31.7685
  17   2.0000      -1.012126       -27.5414
  18   2.0000      -0.946236       -25.7484
  19   2.0000      -0.917747       -24.9732
  20   2.0000      -0.890078       -24.2203
  21   2.0000      -0.854137       -23.2422
  22   2.0000      -0.822016       -22.3682
  23   2.0000      -0.807800       -21.9814
  24   2.0000      -0.775175       -21.0936
  25   2.0000      -0.754991       -20.5443
  26   2.0000      -0.717887       -19.5347
  27   2.0000      -0.690152       -18.7800
  28   2.0000      -0.674518       -18.3546
  29   2.0000      -0.667181       -18.1549
  30   2.0000      -0.657640       -17.8953
  31   2.0000      -0.650581       -17.7032
  32   2.0000      -0.626496       -17.0478
  33   2.0000      -0.598382       -16.2828
  34   2.0000      -0.588486       -16.0135
  35   2.0000      -0.581099       -15.8125
  36   2.0000      -0.562458       -15.3052
  37   2.0000      -0.553311       -15.0564
  38   2.0000      -0.542464       -14.7612
  39   2.0000      -0.533328       -14.5126
  40   2.0000      -0.523602       -14.2479
  41   2.0000      -0.508643       -13.8409
  42   2.0000      -0.504088       -13.7169
  43   2.0000      -0.491834       -13.3835
  44   2.0000      -0.477202       -12.9853
  45   2.0000      -0.470538       -12.8040
  46   2.0000      -0.464458       -12.6385
  47   2.0000      -0.460243       -12.5239
  48   2.0000      -0.446380       -12.1466
  49   2.0000      -0.442616       -12.0442
  50   2.0000      -0.436406       -11.8752
  51   2.0000      -0.422219       -11.4892
  52   2.0000      -0.416597       -11.3362
  53   2.0000      -0.412725       -11.2308
  54   2.0000      -0.406259       -11.0549
  55   2.0000      -0.403655       -10.9840
  56   2.0000      -0.394806       -10.7432
  57   2.0000      -0.383476       -10.4349
  58   2.0000      -0.251787        -6.8515
  59   0.0000       0.036438         0.9915
  60   0.0000       0.126446         3.4408
  61   0.0000       0.139861         3.8058
  62   0.0000       0.150066         4.0835
  63   0.0000       0.155297         4.2258

MULLIKEN ATOMIC CHARGES
-----------------------
   0 C :    0.111761
   1 C :   -0.011373
   2 C :   -0.065940
   3 H :    0.054297
   4 H :    0.082618
   5 C :    0.304986
   6 C :   -0.171051
   7 N :   -0.097280
   8 C :   -0.090884
   9 H :   -0.025704
  10 H :   -0.042629
  11 H :    0.104902
  12 H :    0.120427
  13 F :   -0.060831
  14 O :   -0.284740
  15 C :   -0.052268
  16 C :   -0.068160
  17 C :   -0.077266
  18 H :    0.030160
  19 H :    0.027643
  20 H :    0.037015
  21 H :    0.048949
  22 C :   -0.033660
  23 H :    0.001284
  24 H :    0.022996
  25 C :   -0.044233
  26 H :    0.006951
  27 H :    0.015452
  28 C :    0.012722
  29 H :    0.011998
  30 H :    0.019234
  31 H :    0.022678
  32 H :    0.018400
  33 H :    0.019206
  34 H :    0.020104
  35 H :    0.014607
  36 H :    0.017632
Sum of atomic charges:   -0.0000000

LOEWDIN ATOMIC CHARGES
----------------------
   0 C :   -0.028345
   1 C :   -0.025984
   2 C :   -0.065985
   3 H :    0.034202
   4 H :    0.058903
   5 C :    0.154081
   6 C :    0.005676
   7 N :   -0.018240
   8 C :   -0.209617
   9 H :   -0.029357
  10 H :   -0.008283
  11 H :    0.063233
  12 H :    0.032027
  13 F :    0.088729
  14 O :   -0.170325
  15 C :   -0.033411
  16 C :   -0.046441
  17 C :   -0.046688
  18 H :    0.028646
  19 H :    0.018963
  20 H :    0.030378
  21 H :    0.033893
  22 C :   -0.040396
  23 H :    0.012553
  24 H :    0.022216
  25 C :   -0.041278
  26 H :    0.016766
  27 H :    0.022984
  28 C :   -0.035742
  29 H :    0.016741
  30 H :    0.022440
  31 H :    0.014879
  32 H :    0.022568
  33 H :    0.022348
  34 H :    0.023845
  35 H :    0.031397
  36 H :    0.022625

  Mayer bond orders larger than 0.100000
B(  0-C ,  6-C ) :   1.0339 B(  0-C , 15-C ) :   1.0615 B(  0-C , 35-H ) :   0.9281
B(  0-C , 36-H ) :   0.9351 B(  1-C ,  2-C ) :   1.0593 B(  1-C , 17-C ) :   1.0897
B(  1-C , 20-H ) :   0.9499 B(  1-C , 21-H ) :   0.9459 B(  2-C ,  3-H ) :   0.9388
B(  2-C ,  4-H ) :   0.9226 B(  2-C ,  5-C ) :   0.9948 B(  5-C , 13-F ) :   1.1581
B(  5-C , 14-O ) :   1.9319 B(  6-C ,  7-N ) :   1.2821 B(  6-C ,  8-C ) :   1.8259
B(  7-N , 11-H ) :   0.9551 B(  7-N , 12-H ) :   0.9039 B(  8-C ,  9-H ) :   0.9543
B(  8-C , 10-H ) :   0.9445 B( 12-H , 14-O ) :   0.1175 B( 15-C , 22-C ) :   1.0622
B( 15-C , 23-H ) :   0.9501 B( 15-C , 24-H ) :   0.9512 B( 16-C , 17-C ) :   1.0532
B( 16-C , 28-C ) :   1.0808 B( 16-C , 31-H ) :   0.9355 B( 16-C , 32-H ) :   0.9495
B( 17-C , 18-H ) :   0.9458 B( 17-C , 19-H ) :   0.9301 B( 22-C , 25-C ) :   1.0652
B( 22-C , 26-H ) :   0.9313 B( 22-C , 27-H ) :   0.9417 B( 25-C , 28-C ) :   1.0771
B( 25-C , 29-H ) :   0.9435 B( 25-C , 30-H ) :   0.9462 B( 28-C , 33-H ) :   0.9490
B( 28-C , 34-H ) :   0.9478

Dispersion correction           -0.019723586
FINAL SINGLE POINT ENERGY      -699.618163702679

DIPOLE MOMENT
-------------
                                X             Y             Z
Electronic contribution:      0.03753       6.23390      15.20656
Nuclear contribution   :     -1.39991      -5.60370     -16.00470
                        -----------------------------------------
Total Dipole Moment    :     -1.36238       0.63019      -0.79814
                        -----------------------------------------
Magnitude (a.u.)       :      1.70007
Magnitude (Debye)      :      4.32123

Rotational constants in cm-1:     0.021622     0.017313     0.011402
Rotational constants in MHz :   648.226014   519.043632   341.814105

                             ****ORCA TERMINATED NORMALLY****
TOTAL RUN TIME: 0 days 0 hours 0 minutes 49 seconds 542 msec
