                         Program Version 5.0.0 -  RELEASE  -
|  1> !wB97X-D3 RIJCOSX def2-SVPD def2/J TightSCF
|  2> *xyz -1 1
|  3> C         -7.33044       -2.67899       -3.20681
|  4> S         -6.01966       -2.92697       -4.41913
|  5> O         -5.64583       -1.58838       -4.91931
|  6> O         -4.88196       -3.50370       -3.66724
|  7> O         -6.54927       -3.80515       -5.42507
|  8> H         -8.18867       -2.26077       -3.68996
|  9> H         -6.98921       -2.01038       -2.44430
| 10> H         -7.59151       -3.61862       -2.76655
| 11> *
| 12> %MaxCore 64000
| 13>
| 14> %pal nprocs 8
| 15> end
| 16>
| 17> %scf
| 18>   MaxIter 150
| 19> end
| 20>
| 21>
| 22>                          ****END OF INPUT****

CARTESIAN COORDINATES (ANGSTROEM)
---------------------------------
  C     -7.330440   -2.678990   -3.206810
  S     -6.019660   -2.926970   -4.419130
  O     -5.645830   -1.588380   -4.919310
  O     -4.881960   -3.503700   -3.667240
  O     -6.549270   -3.805150   -5.425070
  H     -8.188670   -2.260770   -3.689960
  H     -6.989210   -2.010380   -2.444300
  H     -7.591510   -3.618620   -2.766550

 Total Charge           Charge          ....   -1
 Multiplicity           Mult            ....    1
 Number of Electrons    NEL             ....   50
 Basis Dimension        Dim             ....  140

ORBITAL ENERGIES
----------------

  NO   OCC          E(Eh)            E(eV)
   0   2.0000     -88.978576     -2421.2302
   1   2.0000     -19.028621      -517.7951
   2   2.0000     -19.017026      -517.4796
   3   2.0000     -19.014488      -517.4105
   4   2.0000     -10.148708      -276.1604
   5   2.0000      -8.051738      -219.0989
   6   2.0000      -6.011236      -163.5740
   7   2.0000      -6.011141      -163.5715
   8   2.0000      -6.010989      -163.5673
   9   2.0000      -1.043447       -28.3936
  10   2.0000      -0.900349       -24.4997
  11   2.0000      -0.876965       -23.8634
  12   2.0000      -0.699215       -19.0266
  13   2.0000      -0.497371       -13.5341
  14   2.0000      -0.406118       -11.0510
  15   2.0000      -0.395002       -10.7485
  16   2.0000      -0.393748       -10.7144
  17   2.0000      -0.348897        -9.4940
  18   2.0000      -0.347327        -9.4513
  19   2.0000      -0.247962        -6.7474
  20   2.0000      -0.247261        -6.7283
  21   2.0000      -0.210444        -5.7265
  22   2.0000      -0.203216        -5.5298
  23   2.0000      -0.195323        -5.3150
  24   2.0000      -0.156572        -4.2606
  25   0.0000       0.212810         5.7909
  26   0.0000       0.236935         6.4473
  27   0.0000       0.237176         6.4539
  28   0.0000       0.242263         6.5923
  29   0.0000       0.273528         7.4431

MULLIKEN ATOMIC CHARGES
-----------------------
   0 C :    0.406034
   1 S :    1.106092
   2 O :   -0.798096
   3 O :   -0.802571
   4 O :   -0.754923
   5 H :   -0.054148
   6 H :   -0.051744
   7 H :   -0.050643
Sum of atomic charges:   -1.0000000

LOEWDIN ATOMIC CHARGES
----------------------
   0 C :    0.055149
   1 S :    0.845123
   2 O :   -0.603735
   3 O :   -0.607345
   4 O :   -0.583602
   5 H :   -0.036089
   6 H :   -0.034246
   7 H :   -0.035254

  Mayer bond orders larger than 0.100000
B(  0-C ,  1-S ) :   0.9379 B(  0-C ,  5-H ) :   0.9270 B(  0-C ,  6-H ) :   0.9300
B(  0-C ,  7-H ) :   0.9266 B(  1-S ,  2-O ) :   1.3197 B(  1-S ,  3-O ) :   1.3179
B(  1-S ,  4-O ) :   1.3569 B(  1-S ,  5-H ) :   0.1093 B(  1-S ,  6-H ) :   0.1181
B(  1-S ,  7-H ) :   0.1107

Dispersion correction           -0.001519896
FINAL SINGLE POINT ENERGY      -663.414044536119

DIPOLE MOMENT
-------------
                                X             Y             Z
Electronic contribution:      2.95964      -0.64084      -2.89507
Nuclear contribution   :     -4.26236       0.77434       3.87117
                        -----------------------------------------
Total Dipole Moment    :     -1.30271       0.13350       0.97610
                        -----------------------------------------
Magnitude (a.u.)       :      1.63330
Magnitude (Debye)      :      4.15151

Rotational constants in cm-1:     0.172427     0.155038     0.152780
Rotational constants in MHz :  5169.225473  4647.928623  4580.233540

                             ****ORCA TERMINATED NORMALLY****
TOTAL RUN TIME: 0 days 0 hours 0 minutes 10 seconds 452 msec
