                         Program Version 5.0.0 -  RELEASE  -
|  1> !wB97X-D3 RIJCOSX def2-SVPD def2/J TightSCF
|  2> *xyz 1 1
|  3> C         -2.16038       -1.36949       -3.46710
|  4> N         -3.03011       -1.91086       -4.54107
|  5> H         -3.47744       -2.79151       -4.25710
|  6> H         -2.53801       -2.01786       -5.43808
|  7> H         -3.89159       -1.37604       -4.71437
|  8> H         -1.71294       -0.45536       -3.79734
|  9> H         -1.39344       -2.07939       -3.23742
| 10> H         -2.74775       -1.18344       -2.59230
| 11> *
| 12> %MaxCore 64000
| 13>
| 14> %pal nprocs 8
| 15> end
| 16>
| 17> %scf
| 18>   MaxIter 150
| 19> end
| 20>
| 21>
| 22>                          ****END OF INPUT****

CARTESIAN COORDINATES (ANGSTROEM)
---------------------------------
  C     -2.160380   -1.369490   -3.467100
  N     -3.030110   -1.910860   -4.541070
  H     -3.477440   -2.791510   -4.257100
  H     -2.538010   -2.017860   -5.438080
  H     -3.891590   -1.376040   -4.714370
  H     -1.712940   -0.455360   -3.797340
  H     -1.393440   -2.079390   -3.237420
  H     -2.747750   -1.183440   -2.592300

 Total Charge           Charge          ....    1
 Multiplicity           Mult            ....    1
 Number of Electrons    NEL             ....   18
 Basis Dimension        Dim             ....   88

ORBITAL ENERGIES
----------------

  NO   OCC          E(Eh)            E(eV)
   0   2.0000     -14.788817      -402.4242
   1   2.0000     -10.548295      -287.0337
   2   2.0000      -1.336501       -36.3681
   3   2.0000      -1.051611       -28.6158
   4   2.0000      -0.923269       -25.1234
   5   2.0000      -0.894884       -24.3510
   6   2.0000      -0.819698       -22.3051
   7   2.0000      -0.726239       -19.7620
   8   2.0000      -0.721878       -19.6433
   9   0.0000      -0.121943        -3.3182
  10   0.0000      -0.055920        -1.5217
  11   0.0000      -0.051222        -1.3938
  12   0.0000      -0.049739        -1.3535
  13   0.0000      -0.000850        -0.0231

MULLIKEN ATOMIC CHARGES
-----------------------
   0 C :    0.789257
   1 N :   -0.914441
   2 H :    0.385517
   3 H :    0.401012
   4 H :    0.370042
   5 H :   -0.016221
   6 H :   -0.002306
   7 H :   -0.012860
Sum of atomic charges:    1.0000000

LOEWDIN ATOMIC CHARGES
----------------------
   0 C :    0.284578
   1 N :    0.300336
   2 H :    0.109251
   3 H :    0.115147
   4 H :    0.110453
   5 H :    0.026146
   6 H :    0.027274
   7 H :    0.026815

  Mayer bond orders larger than 0.100000
B(  0-C ,  1-N ) :   0.7331 B(  0-C ,  5-H ) :   0.9232 B(  0-C ,  6-H ) :   0.9098
B(  0-C ,  7-H ) :   0.9170 B(  1-N ,  2-H ) :   0.7797 B(  1-N ,  3-H ) :   0.7433
B(  1-N ,  4-H ) :   0.7972

Dispersion correction           -0.000522512
FINAL SINGLE POINT ENERGY       -96.122270383971

DIPOLE MOMENT
-------------
                                X             Y             Z
Electronic contribution:     -0.58120      -0.37942      -0.79304
Nuclear contribution   :      0.00575       0.04584       0.17617
                        -----------------------------------------
Total Dipole Moment    :     -0.57544      -0.33358      -0.61686
                        -----------------------------------------
Magnitude (a.u.)       :      0.90715
Magnitude (Debye)      :      2.30580

Rotational constants in cm-1:     2.917716     0.684997     0.676552
Rotational constants in MHz : 87470.913131 20535.702929 20282.512120

                             ****ORCA TERMINATED NORMALLY****
TOTAL RUN TIME: 0 days 0 hours 0 minutes 4 seconds 187 msec
