                         Program Version 5.0.0 -  RELEASE  -
|  1> !wB97X-D3 RIJCOSX def2-SVPD def2/J TightSCF
|  2> *xyz 0 1
|  3> C         -7.33044       -2.67899       -3.20681
|  4> S         -6.01966       -2.92697       -4.41913
|  5> F         -5.64583       -1.58838       -4.91931
|  6> O         -4.88196       -3.50370       -3.66724
|  7> O         -6.54927       -3.80515       -5.42507
|  8> H         -8.18867       -2.26077       -3.68996
|  9> H         -6.98921       -2.01038       -2.44430
| 10> H         -7.59151       -3.61862       -2.76655
| 11> *
| 12> %MaxCore 64000
| 13>
| 14> %pal nprocs 8
| 15> end
| 16>
| 17> %scf
| 18>   MaxIter 150
| 19> end
| 20>
| 21>
| 22>                          ****END OF INPUT****

CARTESIAN COORDINATES (ANGSTROEM)
---------------------------------
  C     -7.330440   -2.678990   -3.206810
  S     -6.019660   -2.926970   -4.419130
  F     -5.645830   -1.588380   -4.919310
  O     -4.881960   -3.503700   -3.667240
  O     -6.549270   -3.805150   -5.425070
  H     -8.188670   -2.260770   -3.689960
  H     -6.989210   -2.010380   -2.444300
  H     -7.591510   -3.618620   -2.766550

 Total Charge           Charge          ....    0
 Multiplicity           Mult            ....    1
 Number of Electrons    NEL             ....   50
 Basis Dimension        Dim             ....  140

ORBITAL ENERGIES
----------------

  NO   OCC          E(Eh)            E(eV)
   0   2.0000     -89.243414     -2428.4368
   1   2.0000     -24.912703      -677.9091
   2   2.0000     -19.267995      -524.3088
   3   2.0000     -19.253338      -523.9100
   4   2.0000     -10.358023      -281.8561
   5   2.0000      -8.317162      -226.3215
   6   2.0000      -6.280760      -170.9082
   7   2.0000      -6.274377      -170.7345
   8   2.0000      -6.273562      -170.7123
   9   2.0000      -1.472572       -40.0707
  10   2.0000      -1.233347       -33.5611
  11   2.0000      -1.127551       -30.6822
  12   2.0000      -0.920244       -25.0411
  13   2.0000      -0.821106       -22.3434
  14   2.0000      -0.705871       -19.2077
  15   2.0000      -0.682823       -18.5806
  16   2.0000      -0.663873       -18.0649
  17   2.0000      -0.586552       -15.9609
  18   2.0000      -0.583779       -15.8854
  19   2.0000      -0.573038       -15.5932
  20   2.0000      -0.544448       -14.8152
  21   2.0000      -0.492719       -13.4076
  22   2.0000      -0.444194       -12.0871
  23   2.0000      -0.429982       -11.7004
  24   2.0000      -0.412525       -11.2254
  25   0.0000       0.059869         1.6291
  26   0.0000       0.094641         2.5753
  27   0.0000       0.099854         2.7172
  28   0.0000       0.099955         2.7199
  29   0.0000       0.105392         2.8679

MULLIKEN ATOMIC CHARGES
-----------------------
   0 C :    0.323064
   1 S :    1.281161
   2 F :   -0.388772
   3 O :   -0.671665
   4 O :   -0.627091
   5 H :    0.028646
   6 H :    0.027788
   7 H :    0.026869
Sum of atomic charges:    0.0000000

LOEWDIN ATOMIC CHARGES
----------------------
   0 C :    0.124416
   1 S :    1.119215
   2 F :   -0.272063
   3 O :   -0.489174
   4 O :   -0.466905
   5 H :   -0.010173
   6 H :   -0.009071
   7 H :    0.003755

  Mayer bond orders larger than 0.100000
B(  0-C ,  1-S ) :   0.9937 B(  0-C ,  5-H ) :   0.9257 B(  0-C ,  6-H ) :   0.9281
B(  0-C ,  7-H ) :   0.9272 B(  1-S ,  2-F ) :   0.6657 B(  1-S ,  3-O ) :   1.5220
B(  1-S ,  4-O ) :   1.5602 B(  1-S ,  7-H ) :   0.1078

Dispersion correction           -0.001526319
FINAL SINGLE POINT ENERGY      -687.908164866669

DIPOLE MOMENT
-------------
                                X             Y             Z
Electronic contribution:      3.52181       1.60869      -3.71696
Nuclear contribution   :     -4.68608      -0.54182       4.44322
                        -----------------------------------------
Total Dipole Moment    :     -1.16427       1.06686       0.72627
                        -----------------------------------------
Magnitude (a.u.)       :      1.73816
Magnitude (Debye)      :      4.41805

Rotational constants in cm-1:     0.164393     0.151201     0.145518
Rotational constants in MHz :  4928.381777  4532.884356  4362.527209

                             ****ORCA TERMINATED NORMALLY****
TOTAL RUN TIME: 0 days 0 hours 0 minutes 10 seconds 0 msec
