                         Program Version 5.0.0 -  RELEASE  -
|  1> !wB97X-D3 RIJCOSX def2-SVPD def2/J TightSCF
|  2> *xyz 0 1
|  3> C         -2.16038       -1.36949       -3.46710
|  4> C         -3.03011       -1.91086       -4.54107
|  5> H         -3.47744       -2.79151       -4.25710
|  6> H         -2.53801       -2.01786       -5.43808
|  7> H         -3.89159       -1.37604       -4.71437
|  8> H         -1.71294       -0.45536       -3.79734
|  9> H         -1.39344       -2.07939       -3.23742
| 10> H         -2.74775       -1.18344       -2.59230
| 11> *
| 12> %MaxCore 64000
| 13>
| 14> %pal nprocs 8
| 15> end
| 16>
| 17> %scf
| 18>   MaxIter 150
| 19> end
| 20>
| 21>
| 22>                          ****END OF INPUT****

CARTESIAN COORDINATES (ANGSTROEM)
---------------------------------
  C     -2.160380   -1.369490   -3.467100
  C     -3.030110   -1.910860   -4.541070
  H     -3.477440   -2.791510   -4.257100
  H     -2.538010   -2.017860   -5.438080
  H     -3.891590   -1.376040   -4.714370
  H     -1.712940   -0.455360   -3.797340
  H     -1.393440   -2.079390   -3.237420
  H     -2.747750   -1.183440   -2.592300

 Total Charge           Charge          ....    0
 Multiplicity           Mult            ....    1
 Number of Electrons    NEL             ....   18
 Basis Dimension        Dim             ....   88

ORBITAL ENERGIES
----------------

  NO   OCC          E(Eh)            E(eV)
   0   2.0000     -10.266978      -279.3787
   1   2.0000     -10.252149      -278.9751
   2   2.0000      -0.878671       -23.9099
   3   2.0000      -0.731202       -19.8970
   4   2.0000      -0.554694       -15.0940
   5   2.0000      -0.538917       -14.6647
   6   2.0000      -0.471330       -12.8255
   7   2.0000      -0.446074       -12.1383
   8   2.0000      -0.429136       -11.6774
   9   0.0000       0.099025         2.6946
  10   0.0000       0.128068         3.4849
  11   0.0000       0.179884         4.8949
  12   0.0000       0.183742         4.9999
  13   0.0000       0.202573         5.5123

MULLIKEN ATOMIC CHARGES
-----------------------
   0 C :    0.196428
   1 C :    0.428675
   2 H :   -0.174027
   3 H :   -0.157851
   4 H :   -0.187866
   5 H :   -0.042666
   6 H :   -0.035696
   7 H :   -0.026998
Sum of atomic charges:   -0.0000000

LOEWDIN ATOMIC CHARGES
----------------------
   0 C :    0.077093
   1 C :    0.069942
   2 H :   -0.035900
   3 H :   -0.029610
   4 H :   -0.036244
   5 H :   -0.016102
   6 H :   -0.014672
   7 H :   -0.014507

  Mayer bond orders larger than 0.100000
B(  0-C ,  1-C ) :   1.4074 B(  0-C ,  2-H ) :   0.1401 B(  0-C ,  3-H ) :   0.1430
B(  0-C ,  4-H ) :   0.1218 B(  0-C ,  5-H ) :   0.8858 B(  0-C ,  6-H ) :   0.8655
B(  0-C ,  7-H ) :   0.8837 B(  1-C ,  2-H ) :   0.7844 B(  1-C ,  3-H ) :   0.8325
B(  1-C ,  4-H ) :   0.7890 B(  1-C ,  5-H ) :   0.1339 B(  1-C ,  6-H ) :   0.1407
B(  1-C ,  7-H ) :   0.1364 B(  2-H ,  4-H ) :   0.2282

Dispersion correction           -0.000511730
FINAL SINGLE POINT ENERGY       -79.734259916210

DIPOLE MOMENT
-------------
                                X             Y             Z
Electronic contribution:      0.10193       0.03317      -0.00166
Nuclear contribution   :     -0.14218      -0.04688      -0.00907
                        -----------------------------------------
Total Dipole Moment    :     -0.04025      -0.01371      -0.01073
                        -----------------------------------------
Magnitude (a.u.)       :      0.04385
Magnitude (Debye)      :      0.11146

Rotational constants in cm-1:     2.917838     0.714537     0.705359
Rotational constants in MHz : 87474.579540 21421.280941 21146.123231

                             ****ORCA TERMINATED NORMALLY****
TOTAL RUN TIME: 0 days 0 hours 0 minutes 4 seconds 189 msec
