                         Program Version 5.0.0 -  RELEASE  -
|  1> !wB97X-D3 RIJCOSX def2-SVPD def2/J TightSCF
|  2> *xyz 0 1
|  3> C         -7.33044       -2.67899       -3.20681
|  4> S         -6.01966       -2.92697       -4.41913
|  5> O         -5.64583       -1.58838       -4.91931
|  6> F         -4.88196       -3.50370       -3.66724
|  7> O         -6.54927       -3.80515       -5.42507
|  8> H         -8.18867       -2.26077       -3.68996
|  9> H         -6.98921       -2.01038       -2.44430
| 10> H         -7.59151       -3.61862       -2.76655
| 11> *
| 12> %MaxCore 64000
| 13>
| 14> %pal nprocs 8
| 15> end
| 16>
| 17> %scf
| 18>   MaxIter 150
| 19> end
| 20>
| 21>
| 22>                          ****END OF INPUT****

CARTESIAN COORDINATES (ANGSTROEM)
---------------------------------
  C     -7.330440   -2.678990   -3.206810
  S     -6.019660   -2.926970   -4.419130
  O     -5.645830   -1.588380   -4.919310
  F     -4.881960   -3.503700   -3.667240
  O     -6.549270   -3.805150   -5.425070
  H     -8.188670   -2.260770   -3.689960
  H     -6.989210   -2.010380   -2.444300
  H     -7.591510   -3.618620   -2.766550

 Total Charge           Charge          ....    0
 Multiplicity           Mult            ....    1
 Number of Electrons    NEL             ....   50
 Basis Dimension        Dim             ....  140

ORBITAL ENERGIES
----------------

  NO   OCC          E(Eh)            E(eV)
   0   2.0000     -89.243324     -2428.4343
   1   2.0000     -24.909916      -677.8333
   2   2.0000     -19.267832      -524.3044
   3   2.0000     -19.255829      -523.9778
   4   2.0000     -10.357902      -281.8528
   5   2.0000      -8.317028      -226.3178
   6   2.0000      -6.280621      -170.9044
   7   2.0000      -6.274280      -170.7318
   8   2.0000      -6.273436      -170.7089
   9   2.0000      -1.469004       -39.9736
  10   2.0000      -1.233903       -33.5762
  11   2.0000      -1.130164       -30.7533
  12   2.0000      -0.920520       -25.0486
  13   2.0000      -0.818891       -22.2832
  14   2.0000      -0.704301       -19.1650
  15   2.0000      -0.680342       -18.5131
  16   2.0000      -0.663438       -18.0531
  17   2.0000      -0.586420       -15.9573
  18   2.0000      -0.584276       -15.8990
  19   2.0000      -0.572220       -15.5709
  20   2.0000      -0.545306       -14.8385
  21   2.0000      -0.493268       -13.4225
  22   2.0000      -0.444515       -12.0959
  23   2.0000      -0.432695       -11.7742
  24   2.0000      -0.414590       -11.2816
  25   0.0000       0.060793         1.6543
  26   0.0000       0.094916         2.5828
  27   0.0000       0.100111         2.7241
  28   0.0000       0.100646         2.7387
  29   0.0000       0.106610         2.9010

MULLIKEN ATOMIC CHARGES
-----------------------
   0 C :    0.321854
   1 S :    1.282887
   2 O :   -0.669206
   3 F :   -0.389716
   4 O :   -0.628779
   5 H :    0.023152
   6 H :    0.028664
   7 H :    0.031145
Sum of atomic charges:   -0.0000000

LOEWDIN ATOMIC CHARGES
----------------------
   0 C :    0.124381
   1 S :    1.118669
   2 O :   -0.485674
   3 F :   -0.274725
   4 O :   -0.467217
   5 H :    0.003121
   6 H :   -0.008830
   7 H :   -0.009725

  Mayer bond orders larger than 0.100000
B(  0-C ,  1-S ) :   0.9935 B(  0-C ,  5-H ) :   0.9281 B(  0-C ,  6-H ) :   0.9292
B(  0-C ,  7-H ) :   0.9244 B(  1-S ,  2-O ) :   1.5232 B(  1-S ,  3-F ) :   0.6634
B(  1-S ,  4-O ) :   1.5603 B(  1-S ,  5-H ) :   0.1073

Dispersion correction           -0.001526802
FINAL SINGLE POINT ENERGY      -687.910858687794

DIPOLE MOMENT
-------------
                                X             Y             Z
Electronic contribution:      4.81359      -1.61976      -1.60536
Nuclear contribution   :     -5.44924       1.37171       3.19232
                        -----------------------------------------
Total Dipole Moment    :     -0.63565      -0.24806       1.58696
                        -----------------------------------------
Magnitude (a.u.)       :      1.72743
Magnitude (Debye)      :      4.39078

Rotational constants in cm-1:     0.163884     0.151426     0.145804
Rotational constants in MHz :  4913.124213  4539.628058  4371.086672

                             ****ORCA TERMINATED NORMALLY****
TOTAL RUN TIME: 0 days 0 hours 0 minutes 9 seconds 868 msec
