                         Program Version 5.0.0 -  RELEASE  -
|  1> !wB97X-D3 RIJCOSX def2-SVPD def2/J TightSCF
|  2> *xyz 0 1
|  3> C         -7.33044       -2.67899       -3.20681
|  4> S         -6.01966       -2.92697       -4.41913
|  5> O         -5.64583       -1.58838       -4.91931
|  6> O         -4.88196       -3.50370       -3.66724
|  7> F         -6.54927       -3.80515       -5.42507
|  8> H         -8.18867       -2.26077       -3.68996
|  9> H         -6.98921       -2.01038       -2.44430
| 10> H         -7.59151       -3.61862       -2.76655
| 11> *
| 12> %MaxCore 64000
| 13>
| 14> %pal nprocs 8
| 15> end
| 16>
| 17> %scf
| 18>   MaxIter 150
| 19> end
| 20>
| 21>
| 22>                          ****END OF INPUT****

CARTESIAN COORDINATES (ANGSTROEM)
---------------------------------
  C     -7.330440   -2.678990   -3.206810
  S     -6.019660   -2.926970   -4.419130
  O     -5.645830   -1.588380   -4.919310
  O     -4.881960   -3.503700   -3.667240
  F     -6.549270   -3.805150   -5.425070
  H     -8.188670   -2.260770   -3.689960
  H     -6.989210   -2.010380   -2.444300
  H     -7.591510   -3.618620   -2.766550

 Total Charge           Charge          ....    0
 Multiplicity           Mult            ....    1
 Number of Electrons    NEL             ....   50
 Basis Dimension        Dim             ....  140

ORBITAL ENERGIES
----------------

  NO   OCC          E(Eh)            E(eV)
   0   2.0000     -89.245578     -2428.4956
   1   2.0000     -24.931640      -678.4244
   2   2.0000     -19.256367      -523.9924
   3   2.0000     -19.253744      -523.9210
   4   2.0000     -10.358823      -281.8779
   5   2.0000      -8.319369      -226.3815
   6   2.0000      -6.283210      -170.9748
   7   2.0000      -6.276384      -170.7891
   8   2.0000      -6.275544      -170.7662
   9   2.0000      -1.506610       -40.9969
  10   2.0000      -1.218161       -33.1479
  11   2.0000      -1.112905       -30.2837
  12   2.0000      -0.923139       -25.1199
  13   2.0000      -0.837349       -22.7854
  14   2.0000      -0.721944       -19.6451
  15   2.0000      -0.706524       -19.2255
  16   2.0000      -0.667825       -18.1724
  17   2.0000      -0.586209       -15.9516
  18   2.0000      -0.580609       -15.7992
  19   2.0000      -0.573425       -15.6037
  20   2.0000      -0.537789       -14.6340
  21   2.0000      -0.484805       -13.1922
  22   2.0000      -0.433073       -11.7845
  23   2.0000      -0.427160       -11.6236
  24   2.0000      -0.401126       -10.9152
  25   0.0000       0.058677         1.5967
  26   0.0000       0.093279         2.5383
  27   0.0000       0.098787         2.6881
  28   0.0000       0.100850         2.7443
  29   0.0000       0.109360         2.9758

MULLIKEN ATOMIC CHARGES
-----------------------
   0 C :    0.323187
   1 S :    1.275593
   2 O :   -0.656670
   3 O :   -0.661265
   4 F :   -0.365982
   5 H :    0.028226
   6 H :    0.024479
   7 H :    0.032431
Sum of atomic charges:   -0.0000000

LOEWDIN ATOMIC CHARGES
----------------------
   0 C :    0.123896
   1 S :    1.121144
   2 O :   -0.485052
   3 O :   -0.488724
   4 F :   -0.255910
   5 H :   -0.010452
   6 H :    0.004456
   7 H :   -0.009359

  Mayer bond orders larger than 0.100000
B(  0-C ,  1-S ) :   0.9931 B(  0-C ,  5-H ) :   0.9241 B(  0-C ,  6-H ) :   0.9321
B(  0-C ,  7-H ) :   0.9242 B(  1-S ,  2-O ) :   1.5266 B(  1-S ,  3-O ) :   1.5252
B(  1-S ,  4-F ) :   0.7102 B(  1-S ,  6-H ) :   0.1133

Dispersion correction           -0.001528595
FINAL SINGLE POINT ENERGY      -687.892073262256

DIPOLE MOMENT
-------------
                                X             Y             Z
Electronic contribution:      2.01753      -2.10896      -4.55522
Nuclear contribution   :     -3.78348       1.67287       4.94851
                        -----------------------------------------
Total Dipole Moment    :     -1.76596      -0.43609       0.39329
                        -----------------------------------------
Magnitude (a.u.)       :      1.86104
Magnitude (Debye)      :      4.73038

Rotational constants in cm-1:     0.163108     0.153882     0.144407
Rotational constants in MHz :  4889.859464  4613.257659  4329.207840

                             ****ORCA TERMINATED NORMALLY****
TOTAL RUN TIME: 0 days 0 hours 0 minutes 9 seconds 787 msec
