                         Program Version 5.0.0 -  RELEASE  -
|  1> !wB97X-D3 RIJCOSX def2-SVPD def2/J TightSCF
|  2> *xyz -1 1
|  3> C         -0.95121        1.33498       -0.97250
|  4> C         -0.77455        2.78833       -0.54394
|  5> H         -1.35261        3.45937       -1.19259
|  6> H         -1.17101        2.90233        0.46997
|  7> C          0.69721        3.22791       -0.52513
|  8> O          1.48929        2.37470        0.19919
|  9> H          0.71600        4.26403       -0.13077
| 10> H          1.03615        3.33092       -1.58367
| 11> H         -0.56808        1.20618       -1.96322
| 12> H         -1.99081        1.08225       -0.95647
| 13> H         -0.41866        0.69710       -0.29841
| 14> *
| 15>
| 16> %MaxCore 64000
| 17> %pal nprocs 18
| 18> end
| 19>
| 20> %scf
| 21>   MaxIter 150
| 22> end
| 23>
| 24>
| 25>                          ****END OF INPUT****

CARTESIAN COORDINATES (ANGSTROEM)
---------------------------------
  C     -0.951210    1.334980   -0.972500
  C     -0.774550    2.788330   -0.543940
  H     -1.352610    3.459370   -1.192590
  H     -1.171010    2.902330    0.469970
  C      0.697210    3.227910   -0.525130
  O      1.489290    2.374700    0.199190
  H      0.716000    4.264030   -0.130770
  H      1.036150    3.330920   -1.583670
  H     -0.568080    1.206180   -1.963220
  H     -1.990810    1.082250   -0.956470
  H     -0.418660    0.697100   -0.298410

 Total Charge           Charge          ....   -1
 Multiplicity           Mult            ....    1
 Number of Electrons    NEL             ....   34
 Basis Dimension        Dim             ....  139

ORBITAL ENERGIES
----------------

  NO   OCC          E(Eh)            E(eV)
   0   2.0000     -18.911572      -514.6100
   1   2.0000     -10.105428      -274.9827
   2   2.0000     -10.103948      -274.9424
   3   2.0000     -10.097499      -274.7669
   4   2.0000      -0.788621       -21.4595
   5   2.0000      -0.690583       -18.7917
   6   2.0000      -0.573757       -15.6127
   7   2.0000      -0.466786       -12.7019
   8   2.0000      -0.375766       -10.2251
   9   2.0000      -0.366162        -9.9638
  10   2.0000      -0.314333        -8.5534
  11   2.0000      -0.283901        -7.7254
  12   2.0000      -0.255971        -6.9653
  13   2.0000      -0.244061        -6.6412
  14   2.0000      -0.206238        -5.6120
  15   2.0000      -0.064341        -1.7508
  16   2.0000      -0.061396        -1.6707
  17   0.0000       0.233828         6.3628
  18   0.0000       0.257631         7.0105
  19   0.0000       0.275332         7.4922
  20   0.0000       0.305614         8.3162
  21   0.0000       0.325254         8.8506

MULLIKEN ATOMIC CHARGES
-----------------------
   0 C :    0.595480
   1 C :   -0.507016
   2 H :   -0.097581
   3 H :   -0.064215
   4 C :    0.437690
   5 O :   -0.907768
   6 H :   -0.159893
   7 H :   -0.116090
   8 H :   -0.070556
   9 H :   -0.088543
  10 H :   -0.021508
Sum of atomic charges:   -1.0000000

LOEWDIN ATOMIC CHARGES
----------------------
   0 C :    0.082931
   1 C :   -0.120013
   2 H :   -0.009048
   3 H :    0.001749
   4 C :   -0.219038
   5 O :   -0.570753
   6 H :   -0.030417
   7 H :   -0.024385
   8 H :   -0.030288
   9 H :   -0.047532
  10 H :   -0.033207

  Mayer bond orders larger than 0.100000
B(  0-C ,  1-C ) :   1.2451 B(  0-C ,  8-H ) :   0.8274 B(  0-C ,  9-H ) :   0.8044
B(  0-C , 10-H ) :   0.8372 B(  1-C ,  2-H ) :   1.0029 B(  1-C ,  3-H ) :   0.9645
B(  1-C ,  4-C ) :   1.0598 B(  1-C ,  6-H ) :   0.1362 B(  1-C ,  7-H ) :   0.1208
B(  1-C ,  8-H ) :   0.1860 B(  1-C ,  9-H ) :   0.1870 B(  1-C , 10-H ) :   0.2010
B(  3-H ,  4-C ) :   0.1132 B(  4-C ,  5-O ) :   1.1940 B(  4-C ,  6-H ) :   0.9475
B(  4-C ,  7-H ) :   0.9494

Dispersion correction           -0.001936047
FINAL SINGLE POINT ENERGY      -193.554634530572

DIPOLE MOMENT
-------------
                                X             Y             Z
Electronic contribution:      2.45012       0.05153       1.40763
Nuclear contribution   :     -4.35230      -0.04018      -2.29108
                        -----------------------------------------
Total Dipole Moment    :     -1.90218       0.01134      -0.88345
                        -----------------------------------------
Magnitude (a.u.)       :      2.09736
Magnitude (Debye)      :      5.33106

Rotational constants in cm-1:     0.489965     0.184028     0.151025
Rotational constants in MHz : 14688.769521  5517.006179  4527.605157

                             ****ORCA TERMINATED NORMALLY****
TOTAL RUN TIME: 0 days 0 hours 0 minutes 6 seconds 661 msec
