                         Program Version 5.0.0 -  RELEASE  -
|  1> !wB97X-D3 RIJCOSX def2-SVPD def2/J TightSCF
|  2> *xyz 1 1
|  3> C          3.95643        0.50147       -0.37910
|  4> H          3.16840        0.02920        0.20738
|  5> N          3.80389        1.96157       -0.15675
|  6> C          3.84232        0.14849       -1.85406
|  7> H          4.92323        0.17798        0.00937
|  8> H          4.62002        0.69450       -2.40215
|  9> H          4.09601       -0.91093       -1.95510
| 10> C          2.47562        0.41271       -2.48538
| 11> H          4.20643        2.24441        0.74536
| 12> H          2.80827        2.21132       -0.09610
| 13> H          4.28076        2.50155       -0.89104
| 14> H          2.49958        0.13290       -3.51787
| 15> H          2.23992        1.45318       -2.40319
| 16> H          1.73061       -0.16300       -1.97702
| 17> *
| 18>
| 19> %MaxCore 64000
| 20> %pal nprocs 18
| 21> end
| 22>
| 23> %scf
| 24>   MaxIter 150
| 25> end
| 26>
| 27>
| 28>                          ****END OF INPUT****

CARTESIAN COORDINATES (ANGSTROEM)
---------------------------------
  C      3.956430    0.501470   -0.379100
  H      3.168400    0.029200    0.207380
  N      3.803890    1.961570   -0.156750
  C      3.842320    0.148490   -1.854060
  H      4.923230    0.177980    0.009370
  H      4.620020    0.694500   -2.402150
  H      4.096010   -0.910930   -1.955100
  C      2.475620    0.412710   -2.485380
  H      4.206430    2.244410    0.745360
  H      2.808270    2.211320   -0.096100
  H      4.280760    2.501550   -0.891040
  H      2.499580    0.132900   -3.517870
  H      2.239920    1.453180   -2.403190
  H      1.730610   -0.163000   -1.977020

 Total Charge           Charge          ....    1
 Multiplicity           Mult            ....    1
 Number of Electrons    NEL             ....   34
 Basis Dimension        Dim             ....  160

ORBITAL ENERGIES
----------------

  NO   OCC          E(Eh)            E(eV)
   0   2.0000     -14.770037      -401.9131
   1   2.0000     -10.537324      -286.7352
   2   2.0000     -10.468593      -284.8649
   3   2.0000     -10.434045      -283.9248
   4   2.0000      -1.322226       -35.9796
   5   2.0000      -1.084438       -29.5091
   6   2.0000      -0.991664       -26.9846
   7   2.0000      -0.913476       -24.8569
   8   2.0000      -0.892986       -24.2994
   9   2.0000      -0.874851       -23.8059
  10   2.0000      -0.790545       -21.5118
  11   2.0000      -0.731913       -19.9164
  12   2.0000      -0.708078       -19.2678
  13   2.0000      -0.684214       -18.6184
  14   2.0000      -0.620725       -16.8908
  15   2.0000      -0.614806       -16.7297
  16   2.0000      -0.607113       -16.5204
  17   0.0000      -0.108968        -2.9652
  18   0.0000      -0.052268        -1.4223
  19   0.0000      -0.051245        -1.3945
  20   0.0000      -0.040233        -1.0948
  21   0.0000      -0.015934        -0.4336

MULLIKEN ATOMIC CHARGES
-----------------------
   0 C :    0.519774
   1 H :   -0.024702
   2 N :   -0.817175
   3 C :   -0.429325
   4 H :   -0.013874
   5 H :   -0.026574
   6 H :   -0.019750
   7 C :    0.642421
   8 H :    0.360374
   9 H :    0.413289
  10 H :    0.436442
  11 H :    0.005870
  12 H :   -0.078154
  13 H :    0.031385
Sum of atomic charges:    1.0000000

LOEWDIN ATOMIC CHARGES
----------------------
   0 C :    0.085317
   1 H :    0.054973
   2 N :    0.329079
   3 C :   -0.053696
   4 H :    0.054732
   5 H :    0.034935
   6 H :    0.046831
   7 C :    0.144075
   8 H :    0.107805
   9 H :    0.105298
  10 H :    0.107775
  11 H :    0.006461
  12 H :   -0.023088
  13 H :   -0.000497

  Mayer bond orders larger than 0.100000
B(  0-C ,  1-H ) :   0.8923 B(  0-C ,  2-N ) :   0.7689 B(  0-C ,  3-C ) :   1.1407
B(  0-C ,  4-H ) :   0.9435 B(  0-C ,  6-H ) :   0.1057 B(  1-H ,  2-N ) :   0.1188
B(  2-N ,  8-H ) :   0.7790 B(  2-N ,  9-H ) :   0.7456 B(  2-N , 10-H ) :   0.6766
B(  3-C ,  5-H ) :   0.9531 B(  3-C ,  6-H ) :   0.9997 B(  3-C ,  7-C ) :   1.2637
B(  3-C , 11-H ) :   0.1827 B(  3-C , 12-H ) :   0.1763 B(  3-C , 13-H ) :   0.1694
B(  7-C , 11-H ) :   0.8244 B(  7-C , 12-H ) :   0.8390 B(  7-C , 13-H ) :   0.8212

Dispersion correction           -0.002857464
FINAL SINGLE POINT ENERGY      -174.689457895664

DIPOLE MOMENT
-------------
                                X             Y             Z
Electronic contribution:      1.01576       1.17911       1.83718
Nuclear contribution   :     -0.57302       0.26376      -0.39709
                        -----------------------------------------
Total Dipole Moment    :      0.44273       1.44288       1.44009
                        -----------------------------------------
Magnitude (a.u.)       :      2.08609
Magnitude (Debye)      :      5.30241

Rotational constants in cm-1:     0.449370     0.157244     0.134525
Rotational constants in MHz : 13471.775278  4714.062641  4032.958796

                             ****ORCA TERMINATED NORMALLY****
TOTAL RUN TIME: 0 days 0 hours 0 minutes 7 seconds 662 msec
