                         Program Version 5.0.0 -  RELEASE  -
|  1> !wB97X-D3 RIJCOSX def2-SVPD def2/J TightSCF
|  2> *xyz 0 1
|  3> C         -0.95121        1.33498       -0.97250
|  4> C         -0.77455        2.78833       -0.54394
|  5> H         -1.35261        3.45937       -1.19259
|  6> H         -1.17101        2.90233        0.46997
|  7> C          0.69721        3.22791       -0.52513
|  8> F          1.48929        2.37470        0.19919
|  9> H          0.71600        4.26403       -0.13077
| 10> H          1.03615        3.33092       -1.58367
| 11> H         -0.56808        1.20618       -1.96322
| 12> H         -1.99081        1.08225       -0.95647
| 13> H         -0.41866        0.69710       -0.29841
| 14> *
| 15>
| 16> %MaxCore 64000
| 17> %pal nprocs 18
| 18> end
| 19>
| 20> %scf
| 21>   MaxIter 150
| 22> end
| 23>
| 24>
| 25>                          ****END OF INPUT****

CARTESIAN COORDINATES (ANGSTROEM)
---------------------------------
  C     -0.951210    1.334980   -0.972500
  C     -0.774550    2.788330   -0.543940
  H     -1.352610    3.459370   -1.192590
  H     -1.171010    2.902330    0.469970
  C      0.697210    3.227910   -0.525130
  F      1.489290    2.374700    0.199190
  H      0.716000    4.264030   -0.130770
  H      1.036150    3.330920   -1.583670
  H     -0.568080    1.206180   -1.963220
  H     -1.990810    1.082250   -0.956470
  H     -0.418660    0.697100   -0.298410

 Total Charge           Charge          ....    0
 Multiplicity           Mult            ....    1
 Number of Electrons    NEL             ....   34
 Basis Dimension        Dim             ....  139

ORBITAL ENERGIES
----------------

  NO   OCC          E(Eh)            E(eV)
   0   2.0000     -24.791390      -674.6080
   1   2.0000     -10.369604      -282.1713
   2   2.0000     -10.296090      -280.1709
   3   2.0000     -10.275254      -279.6039
   4   2.0000      -1.300480       -35.3878
   5   2.0000      -0.900676       -24.5086
   6   2.0000      -0.798679       -21.7332
   7   2.0000      -0.701774       -19.0962
   8   2.0000      -0.614911       -16.7326
   9   2.0000      -0.598803       -16.2943
  10   2.0000      -0.575414       -15.6578
  11   2.0000      -0.537346       -14.6219
  12   2.0000      -0.498891       -13.5755
  13   2.0000      -0.473516       -12.8850
  14   2.0000      -0.450256       -12.2521
  15   2.0000      -0.422838       -11.5060
  16   2.0000      -0.420221       -11.4348
  17   0.0000       0.092851         2.5266
  18   0.0000       0.117817         3.2060
  19   0.0000       0.128221         3.4891
  20   0.0000       0.147001         4.0001
  21   0.0000       0.169511         4.6126

MULLIKEN ATOMIC CHARGES
-----------------------
   0 C :    0.555574
   1 C :   -0.551958
   2 H :   -0.049402
   3 H :   -0.035396
   4 C :    0.679564
   5 F :   -0.461088
   6 H :   -0.040395
   7 H :   -0.003630
   8 H :   -0.040964
   9 H :   -0.042987
  10 H :   -0.009319
Sum of atomic charges:   -0.0000000

LOEWDIN ATOMIC CHARGES
----------------------
   0 C :    0.116169
   1 C :   -0.072317
   2 H :    0.028443
   3 H :    0.022871
   4 C :    0.099162
   5 F :   -0.215997
   6 H :    0.030954
   7 H :    0.037843
   8 H :   -0.014278
   9 H :   -0.017352
  10 H :   -0.015498

  Mayer bond orders larger than 0.100000
B(  0-C ,  1-C ) :   1.2695 B(  0-C ,  8-H ) :   0.8379 B(  0-C ,  9-H ) :   0.8397
B(  0-C , 10-H ) :   0.8416 B(  1-C ,  2-H ) :   0.9903 B(  1-C ,  3-H ) :   0.9696
B(  1-C ,  4-C ) :   1.1734 B(  1-C ,  6-H ) :   0.1020 B(  1-C ,  8-H ) :   0.1666
B(  1-C ,  9-H ) :   0.1707 B(  1-C , 10-H ) :   0.1696 B(  4-C ,  5-F ) :   0.7167
B(  4-C ,  6-H ) :   0.9295 B(  4-C ,  7-H ) :   0.9174

Dispersion correction           -0.001927792
FINAL SINGLE POINT ENERGY      -218.166197859302

DIPOLE MOMENT
-------------
                                X             Y             Z
Electronic contribution:      5.50136       0.35858       2.73390
Nuclear contribution   :     -6.00193       0.02246      -3.08821
                        -----------------------------------------
Total Dipole Moment    :     -0.50056       0.38105      -0.35431
                        -----------------------------------------
Magnitude (a.u.)       :      0.72201
Magnitude (Debye)      :      1.83520

Rotational constants in cm-1:     0.475356     0.173608     0.142756
Rotational constants in MHz : 14250.818869  5204.623090  4279.716550

                             ****ORCA TERMINATED NORMALLY****
TOTAL RUN TIME: 0 days 0 hours 0 minutes 6 seconds 255 msec
