                         Program Version 5.0.0 -  RELEASE  -
|  1> !wB97X-D3 RIJCOSX def2-SVPD def2/J TightSCF xyzfile
|  2>
|  3> *xyzfile 0 1 D.xyz
|  4>
|  5> %MaxCore 64000
|  6>
|  7> %pal nprocs 18
|  8> end
|  9>
| 10> %scf
| 11>   MaxIter 150
| 12> end
| 13>
| 14>
| 15>                          ****END OF INPUT****

CARTESIAN COORDINATES (ANGSTROEM)
---------------------------------
  C      3.956426    0.501466   -0.379100
  H      3.168398    0.029201    0.207383
  C      3.803893    1.961572   -0.156747
  C      3.842322    0.148490   -1.854058
  H      4.923231    0.177982    0.009371
  H      4.620021    0.694502   -2.402150
  H      4.096015   -0.910930   -1.955103
  C      2.475619    0.412708   -2.485377
  H      2.174689    1.445076   -2.287971
  C      1.383931   -0.532740   -1.995203
  H      2.575613    0.318574   -3.571460
  H      1.264698   -0.412309   -0.915491
  H      1.705223   -1.566885   -2.164984
  C      0.031398   -0.317260   -2.677791
  C     -0.587292    1.060853   -2.436460
  H     -0.662815   -1.089530   -2.329985
  H      0.149465   -0.478040   -3.755648
  H      0.104376    1.828590   -2.793130
  C     -0.951213    1.334978   -0.972500
  H     -1.478832    1.161355   -3.062484
  H     -0.317007    0.741648   -0.311389
  H     -1.980916    1.012842   -0.788958
  C     -0.774550    2.788332   -0.543943
  H     -1.352609    3.459372   -1.192585
  H     -1.171014    2.902331    0.469968
  C      0.697208    3.227911   -0.525126
  F      1.489294    2.374703    0.199189
  H      0.715998    4.264030   -0.130774
  H      1.036148    3.330920   -1.583669
  H      4.206425    2.244406    0.745359
  H      2.808269    2.211323   -0.096097
  H      4.280757    2.501552   -0.891037

 Total Charge           Charge          ....    0
 Multiplicity           Mult            ....    1
 Number of Electrons    NEL             ....   90
 Basis Dimension        Dim             ....  391

ORBITAL ENERGIES
----------------

  NO   OCC          E(Eh)            E(eV)
   0   2.0000     -24.811159      -675.1460
   1   2.0000     -10.380945      -282.4799
   2   2.0000     -10.301817      -280.3267
   3   2.0000     -10.287926      -279.9487
   4   2.0000     -10.284530      -279.8563
   5   2.0000     -10.281168      -279.7648
   6   2.0000     -10.275316      -279.6056
   7   2.0000     -10.273300      -279.5507
   8   2.0000     -10.266950      -279.3779
   9   2.0000     -10.256128      -279.0834
  10   2.0000     -10.202157      -277.6148
  11   2.0000      -1.333671       -36.2910
  12   2.0000      -0.933263       -25.3954
  13   2.0000      -0.913042       -24.8451
  14   2.0000      -0.879207       -23.9244
  15   2.0000      -0.847279       -23.0556
  16   2.0000      -0.798569       -21.7302
  17   2.0000      -0.772754       -21.0277
  18   2.0000      -0.730417       -19.8756
  19   2.0000      -0.707030       -19.2393
  20   2.0000      -0.669840       -18.2273
  21   2.0000      -0.658164       -17.9096
  22   2.0000      -0.633317       -17.2334
  23   2.0000      -0.621600       -16.9146
  24   2.0000      -0.600009       -16.3271
  25   2.0000      -0.573014       -15.5925
  26   2.0000      -0.561732       -15.2855
  27   2.0000      -0.550796       -14.9879
  28   2.0000      -0.530555       -14.4371
  29   2.0000      -0.527741       -14.3606
  30   2.0000      -0.509833       -13.8733
  31   2.0000      -0.492015       -13.3884
  32   2.0000      -0.484776       -13.1914
  33   2.0000      -0.471530       -12.8310
  34   2.0000      -0.462511       -12.5856
  35   2.0000      -0.451845       -12.2953
  36   2.0000      -0.444087       -12.0842
  37   2.0000      -0.437564       -11.9067
  38   2.0000      -0.418245       -11.3810
  39   2.0000      -0.413230       -11.2445
  40   2.0000      -0.406567       -11.0633
  41   2.0000      -0.405528       -11.0350
  42   2.0000      -0.389820       -10.6076
  43   2.0000      -0.388405       -10.5690
  44   2.0000      -0.366478        -9.9724
  45   0.0000       0.089795         2.4434
  46   0.0000       0.098746         2.6870
  47   0.0000       0.105222         2.8632
  48   0.0000       0.110259         3.0003
  49   0.0000       0.123834         3.3697

MULLIKEN ATOMIC CHARGES
-----------------------
   0 C :   -0.118865
   1 H :    0.040655
   2 C :    2.748584
   3 C :    0.306521
   4 H :   -0.313960
   5 H :   -0.001064
   6 H :   -0.051320
   7 C :    0.322598
   8 H :   -0.532778
   9 C :   -0.029922
  10 H :   -0.041424
  11 H :   -0.100071
  12 H :   -0.147529
  13 C :    0.525932
  14 C :    0.153628
  15 H :   -0.188316
  16 H :    0.056594
  17 H :   -0.136476
  18 C :    0.089709
  19 H :   -0.199657
  20 H :   -0.059553
  21 H :   -0.110357
  22 C :    0.138540
  23 H :   -0.081395
  24 H :    0.043397
  25 C :    0.616322
  26 F :   -0.574344
  27 H :   -0.187481
  28 H :    0.145259
  29 H :    0.106210
  30 H :   -2.303299
  31 H :   -0.116137
Sum of atomic charges:   -0.0000000

LOEWDIN ATOMIC CHARGES
----------------------
   0 C :   -0.055019
   1 H :    0.014440
   2 C :    0.134313
   3 C :   -0.037366
   4 H :    0.019377
   5 H :    0.023943
   6 H :    0.017101
   7 C :   -0.023608
   8 H :   -0.008833
   9 C :   -0.030113
  10 H :    0.027013
  11 H :   -0.000303
  12 H :    0.027909
  13 C :   -0.032681
  14 C :   -0.022695
  15 H :    0.023695
  16 H :    0.023581
  17 H :   -0.005114
  18 C :   -0.022056
  19 H :    0.022384
  20 H :    0.002289
  21 H :    0.026434
  22 C :   -0.015478
  23 H :    0.036543
  24 H :    0.027995
  25 C :    0.158700
  26 F :   -0.183830
  27 H :    0.041799
  28 H :    0.032185
  29 H :   -0.023554
  30 H :   -0.175097
  31 H :   -0.023954

  Mayer bond orders larger than 0.100000
B(  0-C ,  1-H ) :   0.8000 B(  0-C ,  2-C ) :   0.6320 B(  0-C ,  3-C ) :   1.1322
B(  0-C ,  4-H ) :   1.0167 B(  0-C ,  5-H ) :   0.1113 B(  0-C ,  6-H ) :   0.1546
B(  0-C , 29-H ) :   0.1378 B(  0-C , 30-H ) :   0.8010 B(  0-C , 31-H ) :   0.3467
B(  1-H ,  2-C ) :   0.2857 B(  1-H ,  3-C ) :   0.1664 B(  1-H ,  4-H ) :  -0.1711
B(  1-H , 30-H ) :  -0.1640 B(  2-C ,  4-H ) :  -0.1739 B(  2-C , 26-F ) :  -0.3129
B(  2-C , 29-H ) :   0.7239 B(  2-C , 30-H ) :  -3.8974 B(  3-C ,  5-H ) :   0.7211
B(  3-C ,  6-H ) :   0.8664 B(  3-C ,  7-C ) :   1.2012 B(  4-H , 29-H ) :  -0.1389
B(  4-H , 30-H ) :   0.1582 B(  4-H , 31-H ) :   0.2475 B(  5-H ,  6-H ) :  -0.1243
B(  5-H ,  7-C ) :   0.2497 B(  5-H , 31-H ) :   0.1291 B(  6-H , 31-H ) :  -0.1492
B(  7-C ,  8-H ) :   0.8465 B(  7-C ,  9-C ) :   1.1702 B(  7-C , 10-H ) :   0.6805
B(  7-C , 11-H ) :   0.1056 B(  7-C , 12-H ) :   0.1508 B(  8-H ,  9-C ) :   0.1801
B(  8-H , 10-H ) :   0.1432 B(  9-C , 10-H ) :   0.1647 B(  9-C , 11-H ) :   0.8853
B(  9-C , 12-H ) :   0.9043 B(  9-C , 13-C ) :   1.1673 B(  9-C , 15-H ) :   0.2701
B(  9-C , 16-H ) :   0.1334 B( 11-H , 20-H ) :   0.1354 B( 13-C , 14-C ) :   1.1796
B( 13-C , 15-H ) :   0.7623 B( 13-C , 16-H ) :   0.6982 B( 13-C , 17-H ) :   0.1098
B( 14-C , 15-H ) :   0.1032 B( 14-C , 16-H ) :   0.2056 B( 14-C , 17-H ) :   0.8704
B( 14-C , 18-C ) :   1.1864 B( 14-C , 19-H ) :   0.8452 B( 14-C , 21-H ) :   0.2082
B( 15-H , 16-H ) :  -0.1191 B( 17-H , 18-C ) :   0.1046 B( 18-C , 19-H ) :   0.1800
B( 18-C , 20-H ) :   0.8440 B( 18-C , 21-H ) :   0.8597 B( 18-C , 22-C ) :   1.2097
B( 18-C , 23-H ) :   0.1004 B( 18-C , 24-H ) :   0.1964 B( 20-H , 22-C ) :   0.1178
B( 22-C , 23-H ) :   0.8600 B( 22-C , 24-H ) :   0.7254 B( 22-C , 25-C ) :   1.2534
B( 22-C , 27-H ) :   0.1063 B( 23-H , 25-C ) :   0.1513 B( 24-H , 25-C ) :   0.1137
B( 25-C , 26-F ) :   0.5621 B( 25-C , 27-H ) :   0.9703 B( 25-C , 28-H ) :   0.7811
B( 25-C , 30-H ) :   0.1996 B( 26-F , 30-H ) :   0.4988 B( 29-H , 30-H ) :   0.1224
B( 29-H , 31-H ) :  -0.2129 B( 30-H , 31-H ) :   0.8345

Dispersion correction           -0.014488145
FINAL SINGLE POINT ENERGY      -493.056370544223

DIPOLE MOMENT
-------------
                                X             Y             Z
Electronic contribution:     -1.97579       3.30216       4.27243
Nuclear contribution   :      1.09293      -2.80761      -4.51228
                        -----------------------------------------
Total Dipole Moment    :     -0.88286       0.49454      -0.23985
                        -----------------------------------------
Magnitude (a.u.)       :      1.03998
Magnitude (Debye)      :      2.64341

Rotational constants in cm-1:     0.040502     0.027818     0.018259
Rotational constants in MHz :  1214.218058   833.972871   547.398614

                             ****ORCA TERMINATED NORMALLY****
TOTAL RUN TIME: 0 days 0 hours 1 minutes 5 seconds 982 msec
