                         Program Version 5.0.0 -  RELEASE  -
|  1> !BLYP D3BJ RIJCOSX def2-SVP def2/J TightSCF
|  2> *xyz -1 1
|  3> C         -0.72184       -0.99951       -3.43931
|  4> C          0.28725       -1.71177       -2.52740
|  5> H          1.13178       -2.06738       -3.15940
|  6> H         -0.20414       -2.63733       -2.17048
|  7> O          0.71050       -0.92751       -1.48177
|  8> H         -1.01315       -1.65739       -4.23129
|  9> H         -0.27123       -0.12142       -3.85259
| 10> H         -1.58442       -0.72333       -2.86958
| 11> *
| 12> %MaxCore 64000
| 13>
| 14> %pal nprocs 4
| 15> end
| 16>
| 17> %scf
| 18>   MaxIter 150
| 19> end
| 20>
| 21>
| 22>                          ****END OF INPUT****

CARTESIAN COORDINATES (ANGSTROEM)
---------------------------------
  C     -0.721840   -0.999510   -3.439310
  C      0.287250   -1.711770   -2.527400
  H      1.131780   -2.067380   -3.159400
  H     -0.204140   -2.637330   -2.170480
  O      0.710500   -0.927510   -1.481770
  H     -1.013150   -1.657390   -4.231290
  H     -0.271230   -0.121420   -3.852590
  H     -1.584420   -0.723330   -2.869580

 Total Charge           Charge          ....   -1
 Multiplicity           Mult            ....    1
 Number of Electrons    NEL             ....   26
 Basis Dimension        Dim             ....   67

ORBITAL ENERGIES
----------------

  NO   OCC          E(Eh)            E(eV)
   0   2.0000     -18.405086      -500.8278
   1   2.0000      -9.709172      -264.2000
   2   2.0000      -9.697247      -263.8755
   3   2.0000      -0.537472       -14.6254
   4   2.0000      -0.420411       -11.4400
   5   2.0000      -0.278111        -7.5678
   6   2.0000      -0.176873        -4.8129
   7   2.0000      -0.155814        -4.2399
   8   2.0000      -0.102755        -2.7961
   9   2.0000      -0.086273        -2.3476
  10   2.0000      -0.018994        -0.5169
  11   2.0000       0.120931         3.2907
  12   2.0000       0.126186         3.4337
  13   0.0000       0.233077         6.3423
  14   0.0000       0.273828         7.4512
  15   0.0000       0.286195         7.7878
  16   0.0000       0.295027         8.0281
  17   0.0000       0.335468         9.1285

MULLIKEN ATOMIC CHARGES
-----------------------
   0 C :    0.186381
   1 C :    0.271133
   2 H :   -0.210093
   3 H :   -0.210129
   4 O :   -0.632991
   5 H :   -0.179014
   6 H :   -0.113815
   7 H :   -0.111473
Sum of atomic charges:   -1.0000000

LOEWDIN ATOMIC CHARGES
----------------------
   0 C :   -0.096490
   1 C :    0.010782
   2 H :   -0.094597
   3 H :   -0.093180
   4 O :   -0.614448
   5 H :   -0.054939
   6 H :   -0.029233
   7 H :   -0.027895

  Mayer bond orders larger than 0.100000
B(  0-C ,  1-C ) :   1.0125 B(  0-C ,  4-O ) :  -0.1220 B(  0-C ,  5-H ) :   0.8649
B(  0-C ,  6-H ) :   0.9304 B(  0-C ,  7-H ) :   0.9326 B(  1-C ,  2-H ) :   0.8281
B(  1-C ,  3-H ) :   0.8297 B(  1-C ,  4-O ) :   1.5628 B(  4-O ,  5-H ) :   0.1191

Dispersion correction           -0.007741611
FINAL SINGLE POINT ENERGY      -154.214545040828

DIPOLE MOMENT
-------------
                                X             Y             Z
Electronic contribution:      1.69327       0.99677       2.85109
Nuclear contribution   :     -2.24828      -1.06600      -3.62481
                        -----------------------------------------
Total Dipole Moment    :     -0.55500      -0.06922      -0.77372
                        -----------------------------------------
Magnitude (a.u.)       :      0.95470
Magnitude (Debye)      :      2.42666

Rotational constants in cm-1:     1.278116     0.325414     0.286672
Rotational constants in MHz : 38316.964654  9755.653004  8594.216906

                             ****ORCA TERMINATED NORMALLY****
TOTAL RUN TIME: 0 days 0 hours 0 minutes 6 seconds 253 msec
