                         Program Version 5.0.0 -  RELEASE  -
|  1> !BLYP D3BJ RIJCOSX def2-SVP def2/J TightSCF
|  2> *xyz 1 1
|  3> C          3.48828        1.60092       -1.52204
|  4> C          4.34297        1.31342       -2.75683
|  5> N          2.81029        0.42878       -1.01420
|  6> H          2.71455        2.33145       -1.76030
|  7> H          4.09099        2.06315       -0.73338
|  8> C          3.29098       -0.41802       -0.12908
|  9> N          2.51754       -1.43202        0.23936
| 10> N          4.53549       -0.28441        0.39580
| 11> H          5.04363        0.57189        0.22290
| 12> H          4.72335       -0.73327        1.28180
| 13> H          1.93479        0.10230       -1.40379
| 14> H          1.67464       -1.50562       -0.31610
| 15> H          2.92850       -2.21850        0.72549
| 16> H          3.73575        0.86277       -3.51385
| 17> H          5.13754        0.64699       -2.49333
| 18> H          4.75374        2.22930       -3.12740
| 19> *
| 20> %MaxCore 64000
| 21>
| 22> %pal nprocs 4
| 23> end
| 24>
| 25> %scf
| 26>   MaxIter 150
| 27> end
| 28>
| 29>
| 30>                          ****END OF INPUT****

CARTESIAN COORDINATES (ANGSTROEM)
---------------------------------
  C      3.488280    1.600920   -1.522040
  C      4.342970    1.313420   -2.756830
  N      2.810290    0.428780   -1.014200
  H      2.714550    2.331450   -1.760300
  H      4.090990    2.063150   -0.733380
  C      3.290980   -0.418020   -0.129080
  N      2.517540   -1.432020    0.239360
  N      4.535490   -0.284410    0.395800
  H      5.043630    0.571890    0.222900
  H      4.723350   -0.733270    1.281800
  H      1.934790    0.102300   -1.403790
  H      1.674640   -1.505620   -0.316100
  H      2.928500   -2.218500    0.725490
  H      3.735750    0.862770   -3.513850
  H      5.137540    0.646990   -2.493330
  H      4.753740    2.229300   -3.127400

 Total Charge           Charge          ....    1
 Multiplicity           Mult            ....    1
 Number of Electrons    NEL             ....   48
 Basis Dimension        Dim             ....  134

ORBITAL ENERGIES
----------------

  NO   OCC          E(Eh)            E(eV)
   0   2.0000     -14.245065      -387.6279
   1   2.0000     -14.242691      -387.5633
   2   2.0000     -14.239778      -387.4841
   3   2.0000     -10.242241      -278.7055
   4   2.0000     -10.130035      -275.6523
   5   2.0000     -10.059472      -273.7322
   6   2.0000      -1.114791       -30.3350
   7   2.0000      -1.010236       -27.4899
   8   2.0000      -0.997345       -27.1391
   9   2.0000      -0.849280       -23.1101
  10   2.0000      -0.764526       -20.8038
  11   2.0000      -0.737589       -20.0708
  12   2.0000      -0.717275       -19.5181
  13   2.0000      -0.683708       -18.6046
  14   2.0000      -0.636884       -17.3305
  15   2.0000      -0.627975       -17.0881
  16   2.0000      -0.599185       -16.3046
  17   2.0000      -0.579695       -15.7743
  18   2.0000      -0.548817       -14.9341
  19   2.0000      -0.509234       -13.8569
  20   2.0000      -0.482417       -13.1272
  21   2.0000      -0.465059       -12.6549
  22   2.0000      -0.426459       -11.6045
  23   2.0000      -0.405646       -11.0382
  24   0.0000      -0.188159        -5.1201
  25   0.0000      -0.167793        -4.5659
  26   0.0000      -0.135880        -3.6975
  27   0.0000      -0.118898        -3.2354
  28   0.0000      -0.096581        -2.6281

MULLIKEN ATOMIC CHARGES
-----------------------
   0 C :    0.057674
   1 C :    0.089163
   2 N :    0.002778
   3 H :    0.041877
   4 H :    0.026205
   5 C :   -0.129780
   6 N :    0.080834
   7 N :    0.038000
   8 H :    0.139213
   9 H :    0.151246
  10 H :    0.135906
  11 H :    0.142795
  12 H :    0.157553
  13 H :    0.019331
  14 H :    0.005709
  15 H :    0.041494
Sum of atomic charges:    1.0000000

LOEWDIN ATOMIC CHARGES
----------------------
   0 C :    0.042813
   1 C :   -0.033240
   2 N :    0.064271
   3 H :    0.046310
   4 H :    0.030773
   5 C :    0.111432
   6 N :    0.069521
   7 N :    0.053015
   8 H :    0.098306
   9 H :    0.105771
  10 H :    0.099671
  11 H :    0.102501
  12 H :    0.109647
  13 H :    0.031047
  14 H :    0.023402
  15 H :    0.044758

  Mayer bond orders larger than 0.100000
B(  0-C ,  1-C ) :   1.1229 B(  0-C ,  2-N ) :   0.9654 B(  0-C ,  3-H ) :   0.9327
B(  0-C ,  4-H ) :   0.9346 B(  1-C , 13-H ) :   0.9624 B(  1-C , 14-H ) :   0.9616
B(  1-C , 15-H ) :   0.9554 B(  2-N ,  5-C ) :   1.3958 B(  2-N , 10-H ) :   0.9034
B(  5-C ,  6-N ) :   1.3948 B(  5-C ,  7-N ) :   1.3794 B(  6-N , 11-H ) :   0.9207
B(  6-N , 12-H ) :   0.9246 B(  7-N ,  8-H ) :   0.9264 B(  7-N ,  9-H ) :   0.9273

Dispersion correction           -0.024961793
FINAL SINGLE POINT ENERGY      -284.076056682747

DIPOLE MOMENT
-------------
                                X             Y             Z
Electronic contribution:     -1.94728      -3.06646       3.79507
Nuclear contribution   :      1.59382       2.33278      -3.02574
                        -----------------------------------------
Total Dipole Moment    :     -0.35346      -0.73369       0.76934
                        -----------------------------------------
Magnitude (a.u.)       :      1.12032
Magnitude (Debye)      :      2.84762

Rotational constants in cm-1:     0.232230     0.073139     0.063030
Rotational constants in MHz :  6962.079716  2192.649203  1889.578947

                             ****ORCA TERMINATED NORMALLY****
TOTAL RUN TIME: 0 days 0 hours 0 minutes 8 seconds 923 msec
