                         Program Version 5.0.0 -  RELEASE  -
|  1> !BLYP D3BJ RIJCOSX def2-TZVP def2/J TightSCF xyzfile
|  2>
|  3> *xyzfile 0 1 B.xyz
|  4>
|  5> %MaxCore 64000
|  6>
|  7> %pal nprocs 18
|  8> end
|  9>
| 10> %scf
| 11>   MaxIter 150
| 12> end
| 13>
| 14>
| 15>                          ****END OF INPUT****

CARTESIAN COORDINATES (ANGSTROEM)
---------------------------------
  C      3.488276    1.600919   -1.522040
  C      4.342970    1.313419   -2.756826
  N      2.810285    0.428783   -1.014196
  H      5.132033    0.604994   -2.484466
  C      3.535896    0.749253   -3.924604
  H      4.841247    2.242136   -3.054083
  H      2.991617   -0.132199   -3.574137
  H      4.225505    0.392784   -4.695962
  C      2.564776    1.750890   -4.544523
  H      1.918749    2.171679   -3.769419
  C      1.686235    1.161657   -5.650111
  H      3.132494    2.594775   -4.951604
  C      0.839616   -0.037582   -5.220473
  H      2.323886    0.866395   -6.490796
  H      1.029518    1.951850   -6.029329
  C     -0.151019    0.254955   -4.094256
  H      1.499442   -0.857141   -4.922958
  H      0.290097   -0.410143   -6.091131
  H      0.328265    0.833022   -3.299125
  C     -0.721843   -0.999513   -3.439309
  H     -0.957367    0.884951   -4.485450
  H     -1.083403   -1.697555   -4.205656
  H     -1.581056   -0.723848   -2.820490
  C      0.287250   -1.711771   -2.527405
  H      1.131780   -2.067380   -3.159396
  H     -0.204137   -2.637326   -2.170480
  O      0.710505   -0.927506   -1.481767
  H      2.714548    2.331455   -1.760302
  H      4.090991    2.063151   -0.733382
  C      3.290978   -0.418021   -0.129083
  N      2.517536   -1.432017    0.239360
  N      4.535490   -0.284410    0.395800
  H      5.043627    0.571888    0.222899
  H      4.723346   -0.733273    1.281800
  H      1.934787    0.102305   -1.403788
  H      1.674638   -1.505616   -0.316095
  H      2.928503   -2.218502    0.725494

 Total Charge           Charge          ....    0
 Multiplicity           Mult            ....    1
 Number of Electrons    NEL             ....  112
 Basis Dimension        Dim             ....  572

ORBITAL ENERGIES
----------------

  NO   OCC          E(Eh)            E(eV)
   0   2.0000     -18.643908      -507.3265
   1   2.0000     -14.060005      -382.5922
   2   2.0000     -14.023140      -381.5890
   3   2.0000     -14.015932      -381.3929
   4   2.0000     -10.039397      -273.1859
   5   2.0000      -9.955344      -270.8987
   6   2.0000      -9.911753      -269.7125
   7   2.0000      -9.894906      -269.2541
   8   2.0000      -9.889403      -269.1043
   9   2.0000      -9.882818      -268.9251
  10   2.0000      -9.881440      -268.8877
  11   2.0000      -9.871013      -268.6039
  12   2.0000      -9.860899      -268.3287
  13   2.0000      -9.849559      -268.0201
  14   2.0000      -0.937758       -25.5177
  15   2.0000      -0.841578       -22.9005
  16   2.0000      -0.822831       -22.3904
  17   2.0000      -0.792846       -21.5744
  18   2.0000      -0.729207       -19.8427
  19   2.0000      -0.697092       -18.9688
  20   2.0000      -0.661579       -18.0025
  21   2.0000      -0.627938       -17.0871
  22   2.0000      -0.589696       -16.0465
  23   2.0000      -0.581849       -15.8329
  24   2.0000      -0.545718       -14.8497
  25   2.0000      -0.535836       -14.5808
  26   2.0000      -0.530552       -14.4370
  27   2.0000      -0.503918       -13.7123
  28   2.0000      -0.481975       -13.1152
  29   2.0000      -0.462841       -12.5945
  30   2.0000      -0.452133       -12.3032
  31   2.0000      -0.439027       -11.9465
  32   2.0000      -0.428061       -11.6481
  33   2.0000      -0.417629       -11.3643
  34   2.0000      -0.406703       -11.0670
  35   2.0000      -0.396215       -10.7816
  36   2.0000      -0.382222       -10.4008
  37   2.0000      -0.367168        -9.9912
  38   2.0000      -0.361628        -9.8404
  39   2.0000      -0.344088        -9.3631
  40   2.0000      -0.340773        -9.2729
  41   2.0000      -0.329674        -8.9709
  42   2.0000      -0.312101        -8.4927
  43   2.0000      -0.306265        -8.3339
  44   2.0000      -0.297715        -8.1012
  45   2.0000      -0.287872        -7.8334
  46   2.0000      -0.277413        -7.5488
  47   2.0000      -0.268249        -7.2994
  48   2.0000      -0.264172        -7.1885
  49   2.0000      -0.259023        -7.0484
  50   2.0000      -0.246905        -6.7186
  51   2.0000      -0.242494        -6.5986
  52   2.0000      -0.238067        -6.4781
  53   2.0000      -0.223327        -6.0770
  54   2.0000      -0.134946        -3.6721
  55   2.0000      -0.126765        -3.4495
  56   0.0000      -0.028304        -0.7702
  57   0.0000      -0.016324        -0.4442
  58   0.0000       0.006034         0.1642
  59   0.0000       0.027940         0.7603
  60   0.0000       0.031731         0.8634

MULLIKEN ATOMIC CHARGES
-----------------------
   0 C :   -0.193392
   1 C :   -0.061631
   2 N :   -0.171792
   3 H :    0.076287
   4 C :   -0.197106
   5 H :    0.069246
   6 H :    0.123242
   7 H :    0.071493
   8 C :   -0.187964
   9 H :    0.084427
  10 C :   -0.072514
  11 H :    0.064039
  12 C :   -0.205301
  13 H :    0.063356
  14 H :    0.062776
  15 C :   -0.128082
  16 H :    0.087817
  17 H :    0.064088
  18 H :    0.062163
  19 C :   -0.014826
  20 H :    0.054236
  21 H :    0.021606
  22 H :    0.037620
  23 C :    0.032415
  24 H :   -0.003916
  25 H :    0.020661
  26 O :   -0.708993
  27 H :    0.131298
  28 H :    0.083952
  29 C :    0.332636
  30 N :   -0.352838
  31 N :   -0.403216
  32 H :    0.225807
  33 H :    0.221413
  34 H :    0.251507
  35 H :    0.262416
  36 H :    0.197070
Sum of atomic charges:    0.0000000

LOEWDIN ATOMIC CHARGES
----------------------
   0 C :   -0.279538
   1 C :   -0.263188
   2 N :    0.188214
   3 H :    0.130471
   4 C :   -0.259534
   5 H :    0.135004
   6 H :    0.141220
   7 H :    0.133763
   8 C :   -0.264424
   9 H :    0.128614
  10 C :   -0.262195
  11 H :    0.129566
  12 C :   -0.265551
  13 H :    0.129470
  14 H :    0.131354
  15 C :   -0.269251
  16 H :    0.127895
  17 H :    0.129471
  18 H :    0.127880
  19 C :   -0.274914
  20 H :    0.124995
  21 H :    0.121326
  22 H :    0.125431
  23 C :   -0.466164
  24 H :    0.082025
  25 H :    0.095272
  26 O :   -0.267562
  27 H :    0.138913
  28 H :    0.121825
  29 C :   -0.433826
  30 N :    0.051130
  31 N :    0.007061
  32 H :    0.169385
  33 H :    0.171432
  34 H :    0.157598
  35 H :    0.144598
  36 H :    0.162235

  Mayer bond orders larger than 0.100000
B(  0-C ,  1-C ) :   0.9259 B(  0-C ,  2-N ) :   0.9117 B(  0-C , 27-H ) :   0.9753
B(  0-C , 28-H ) :   0.9673 B(  1-C ,  3-H ) :   0.9595 B(  1-C ,  4-C ) :   0.9622
B(  1-C ,  5-H ) :   0.9570 B(  2-N , 29-C ) :   1.4410 B(  2-N , 34-H ) :   0.7374
B(  4-C ,  6-H ) :   0.9716 B(  4-C ,  7-H ) :   0.9594 B(  4-C ,  8-C ) :   0.9604
B(  8-C ,  9-H ) :   0.9742 B(  8-C , 10-C ) :   0.9787 B(  8-C , 11-H ) :   0.9540
B( 10-C , 12-C ) :   0.9607 B( 10-C , 13-H ) :   0.9600 B( 10-C , 14-H ) :   0.9597
B( 12-C , 15-C ) :   0.9722 B( 12-C , 16-H ) :   0.9767 B( 12-C , 17-H ) :   0.9558
B( 15-C , 18-H ) :   0.9606 B( 15-C , 19-C ) :   0.9835 B( 15-C , 20-H ) :   0.9549
B( 19-C , 21-H ) :   0.9372 B( 19-C , 22-H ) :   0.9453 B( 19-C , 23-C ) :   0.9544
B( 23-C , 24-H ) :   0.9466 B( 23-C , 25-H ) :   0.9307 B( 23-C , 26-O ) :   1.1697
B( 26-O , 34-H ) :   0.2634 B( 26-O , 35-H ) :   0.2598 B( 29-C , 30-N ) :   1.3945
B( 29-C , 31-N ) :   1.1999 B( 30-N , 35-H ) :   0.7384 B( 30-N , 36-H ) :   0.9193
B( 31-N , 32-H ) :   0.9131 B( 31-N , 33-H ) :   0.9192

Dispersion correction           -0.079932517
FINAL SINGLE POINT ENERGY      -634.392106427843

DIPOLE MOMENT
-------------
                                X             Y             Z
Electronic contribution:      3.52849      -2.07308      11.39974
Nuclear contribution   :     -0.74583       2.62534      -9.91488
                        -----------------------------------------
Total Dipole Moment    :      2.78266       0.55226       1.48486
                        -----------------------------------------
Magnitude (a.u.)       :      3.20203
Magnitude (Debye)      :      8.13891

Rotational constants in cm-1:     0.027028     0.016098     0.010898
Rotational constants in MHz :   810.278072   482.590922   326.703462

                             ****ORCA TERMINATED NORMALLY****
TOTAL RUN TIME: 0 days 0 hours 0 minutes 28 seconds 23 msec
