                         Program Version 5.0.0 -  RELEASE  -
|  1> !BLYP D3BJ RIJCOSX def2-SVP def2/J TightSCF
|  2> *xyz 0 1
|  3> C         -0.72184       -0.99951       -3.43931
|  4> C          0.28725       -1.71177       -2.52740
|  5> H          1.13178       -2.06738       -3.15940
|  6> H         -0.20414       -2.63733       -2.17048
|  7> F          0.71050       -0.92751       -1.48177
|  8> H         -1.01315       -1.65739       -4.23129
|  9> H         -0.27123       -0.12142       -3.85259
| 10> H         -1.58442       -0.72333       -2.86958
| 11> *
| 12> %MaxCore 64000
| 13>
| 14> %pal nprocs 4
| 15> end
| 16>
| 17> %scf
| 18>   MaxIter 150
| 19> end
| 20>
| 21>
| 22>                          ****END OF INPUT****

CARTESIAN COORDINATES (ANGSTROEM)
---------------------------------
  C     -0.721840   -0.999510   -3.439310
  C      0.287250   -1.711770   -2.527400
  H      1.131780   -2.067380   -3.159400
  H     -0.204140   -2.637330   -2.170480
  F      0.710500   -0.927510   -1.481770
  H     -1.013150   -1.657390   -4.231290
  H     -0.271230   -0.121420   -3.852590
  H     -1.584420   -0.723330   -2.869580

 Total Charge           Charge          ....    0
 Multiplicity           Mult            ....    1
 Number of Electrons    NEL             ....   26
 Basis Dimension        Dim             ....   67

ORBITAL ENERGIES
----------------

  NO   OCC          E(Eh)            E(eV)
   0   2.0000     -24.266035      -660.3124
   1   2.0000      -9.992587      -271.9121
   2   2.0000      -9.916563      -269.8434
   3   2.0000      -1.055043       -28.7092
   4   2.0000      -0.674292       -18.3484
   5   2.0000      -0.549421       -14.9505
   6   2.0000      -0.436326       -11.8730
   7   2.0000      -0.425976       -11.5914
   8   2.0000      -0.386380       -10.5139
   9   2.0000      -0.346092        -9.4176
  10   2.0000      -0.340715        -9.2713
  11   2.0000      -0.271929        -7.3996
  12   2.0000      -0.267966        -7.2917
  13   0.0000       0.042290         1.1508
  14   0.0000       0.085319         2.3216
  15   0.0000       0.091070         2.4781
  16   0.0000       0.102316         2.7841
  17   0.0000       0.118601         3.2273

MULLIKEN ATOMIC CHARGES
-----------------------
   0 C :    0.039640
   1 C :    0.239952
   2 H :   -0.017336
   3 H :   -0.019743
   4 F :   -0.230719
   5 H :   -0.011512
   6 H :   -0.000314
   7 H :    0.000031
Sum of atomic charges:   -0.0000000

LOEWDIN ATOMIC CHARGES
----------------------
   0 C :   -0.059669
   1 C :    0.107510
   2 H :    0.003786
   3 H :    0.002896
   4 F :   -0.119238
   5 H :    0.024992
   6 H :    0.019661
   7 H :    0.020062

  Mayer bond orders larger than 0.100000
B(  0-C ,  1-C ) :   1.1204 B(  0-C ,  5-H ) :   0.9499 B(  0-C ,  6-H ) :   0.9646
B(  0-C ,  7-H ) :   0.9647 B(  1-C ,  2-H ) :   0.9464 B(  1-C ,  3-H ) :   0.9468
B(  1-C ,  4-F ) :   1.0493

Dispersion correction           -0.007133166
FINAL SINGLE POINT ENERGY      -178.859481993984

DIPOLE MOMENT
-------------
                                X             Y             Z
Electronic contribution:      2.74468       1.10415       4.31457
Nuclear contribution   :     -2.97459      -1.40206      -4.79987
                        -----------------------------------------
Total Dipole Moment    :     -0.22991      -0.29791      -0.48530
                        -----------------------------------------
Magnitude (a.u.)       :      0.61411
Magnitude (Debye)      :      1.56094

Rotational constants in cm-1:     1.257024     0.302702     0.267953
Rotational constants in MHz : 37684.643733  9074.792567  8033.038070

                             ****ORCA TERMINATED NORMALLY****
TOTAL RUN TIME: 0 days 0 hours 0 minutes 5 seconds 663 msec
