                         Program Version 5.0.0 -  RELEASE  -
|  1> !BLYP D3BJ RIJCOSX def2-SVP def2/J TightSCF
|  2> *xyz 0 1
|  3> C          3.48828        1.60092       -1.52204
|  4> C          4.34297        1.31342       -2.75683
|  5> C          2.81029        0.42878       -1.01420
|  6> H          2.71455        2.33145       -1.76030
|  7> H          4.09099        2.06315       -0.73338
|  8> C          3.29098       -0.41802       -0.12908
|  9> N          2.51754       -1.43202        0.23936
| 10> N          4.53549       -0.28441        0.39580
| 11> H          5.04363        0.57189        0.22290
| 12> H          4.72335       -0.73327        1.28180
| 13> H          1.93479        0.10230       -1.40379
| 14> H          1.67464       -1.50562       -0.31610
| 15> H          2.92850       -2.21850        0.72549
| 16> H          3.73575        0.86277       -3.51385
| 17> H          5.13754        0.64699       -2.49333
| 18> H          4.75374        2.22930       -3.12740
| 19> *
| 20> %MaxCore 64000
| 21>
| 22> %pal nprocs 4
| 23> end
| 24>
| 25> %scf
| 26>   MaxIter 150
| 27> end
| 28>
| 29>
| 30>                          ****END OF INPUT****

CARTESIAN COORDINATES (ANGSTROEM)
---------------------------------
  C      3.488280    1.600920   -1.522040
  C      4.342970    1.313420   -2.756830
  C      2.810290    0.428780   -1.014200
  H      2.714550    2.331450   -1.760300
  H      4.090990    2.063150   -0.733380
  C      3.290980   -0.418020   -0.129080
  N      2.517540   -1.432020    0.239360
  N      4.535490   -0.284410    0.395800
  H      5.043630    0.571890    0.222900
  H      4.723350   -0.733270    1.281800
  H      1.934790    0.102300   -1.403790
  H      1.674640   -1.505620   -0.316100
  H      2.928500   -2.218500    0.725490
  H      3.735750    0.862770   -3.513850
  H      5.137540    0.646990   -2.493330
  H      4.753740    2.229300   -3.127400

 Total Charge           Charge          ....    0
 Multiplicity           Mult            ....    1
 Number of Electrons    NEL             ....   48
 Basis Dimension        Dim             ....  134

ORBITAL ENERGIES
----------------

  NO   OCC          E(Eh)            E(eV)
   0   2.0000     -14.012751      -381.3063
   1   2.0000     -14.009056      -381.2058
   2   2.0000      -9.947139      -270.6754
   3   2.0000      -9.892348      -269.1845
   4   2.0000      -9.884206      -268.9629
   5   2.0000      -9.835494      -267.6374
   6   2.0000      -0.849226       -23.1086
   7   2.0000      -0.768260       -20.9054
   8   2.0000      -0.678700       -18.4684
   9   2.0000      -0.605991       -16.4899
  10   2.0000      -0.534514       -14.5449
  11   2.0000      -0.507609       -13.8127
  12   2.0000      -0.470435       -12.8012
  13   2.0000      -0.442265       -12.0346
  14   2.0000      -0.405887       -11.0448
  15   2.0000      -0.377896       -10.2831
  16   2.0000      -0.357382        -9.7249
  17   2.0000      -0.333086        -9.0637
  18   2.0000      -0.322120        -8.7653
  19   2.0000      -0.296126        -8.0580
  20   2.0000      -0.278364        -7.5747
  21   2.0000      -0.268116        -7.2958
  22   2.0000      -0.203733        -5.5439
  23   2.0000      -0.113581        -3.0907
  24   0.0000       0.022139         0.6024
  25   0.0000       0.052275         1.4225
  26   0.0000       0.061715         1.6794
  27   0.0000       0.077264         2.1025
  28   0.0000       0.088821         2.4169

MULLIKEN ATOMIC CHARGES
-----------------------
   0 C :    0.140387
   1 C :    0.138108
   2 C :   -0.084065
   3 H :   -0.052467
   4 H :   -0.062682
   5 C :   -0.208623
   6 N :    0.051275
   7 N :    0.011980
   8 H :    0.086293
   9 H :    0.075629
  10 H :   -0.155124
  11 H :    0.091795
  12 H :    0.076199
  13 H :   -0.034487
  14 H :   -0.035012
  15 H :   -0.039207
Sum of atomic charges:    0.0000000

LOEWDIN ATOMIC CHARGES
----------------------
   0 C :   -0.028189
   1 C :   -0.042064
   2 C :   -0.199603
   3 H :    0.016571
   4 H :    0.001932
   5 C :    0.005922
   6 N :   -0.005783
   7 N :   -0.016509
   8 H :    0.068815
   9 H :    0.056283
  10 H :   -0.016732
  11 H :    0.076792
  12 H :    0.058559
  13 H :    0.011673
  14 H :    0.007984
  15 H :    0.004350

  Mayer bond orders larger than 0.100000
B(  0-C ,  1-C ) :   1.1137 B(  0-C ,  2-C ) :   1.0877 B(  0-C ,  3-H ) :   0.8839
B(  0-C ,  4-H ) :   0.9060 B(  1-C , 13-H ) :   0.9558 B(  1-C , 14-H ) :   0.9621
B(  1-C , 15-H ) :   0.9479 B(  2-C ,  5-C ) :   1.6698 B(  2-C , 10-H ) :   0.9000
B(  5-C ,  6-N ) :   1.2671 B(  5-C ,  7-N ) :   1.2629 B(  6-N , 11-H ) :   0.9270
B(  6-N , 12-H ) :   0.9385 B(  7-N ,  8-H ) :   0.9371 B(  7-N ,  9-H ) :   0.9406

Dispersion correction           -0.026086621
FINAL SINGLE POINT ENERGY      -267.591642094403

DIPOLE MOMENT
-------------
                                X             Y             Z
Electronic contribution:     -1.25574      -3.06743       3.80030
Nuclear contribution   :      1.44676       2.38443      -3.07370
                        -----------------------------------------
Total Dipole Moment    :      0.19102      -0.68300       0.72660
                        -----------------------------------------
Magnitude (a.u.)       :      1.01535
Magnitude (Debye)      :      2.58081

Rotational constants in cm-1:     0.235977     0.073199     0.063283
Rotational constants in MHz :  7074.404583  2194.453291  1897.179599

                             ****ORCA TERMINATED NORMALLY****
TOTAL RUN TIME: 0 days 0 hours 0 minutes 8 seconds 881 msec
