                         Program Version 5.0.0 -  RELEASE  -
|  1> !BLYP D3BJ RIJCOSX def2-SVP def2/J TightSCF
|  2> *xyz 0 1
|  3> C          3.48828        1.60092       -1.52204
|  4> C          4.34297        1.31342       -2.75683
|  5> N          2.81029        0.42878       -1.01420
|  6> H          2.71455        2.33145       -1.76030
|  7> H          4.09099        2.06315       -0.73338
|  8> C          3.29098       -0.41802       -0.12908
|  9> C          2.51754       -1.43202        0.23936
| 10> N          4.53549       -0.28441        0.39580
| 11> H          5.04363        0.57189        0.22290
| 12> H          4.72335       -0.73327        1.28180
| 13> H          1.93479        0.10230       -1.40379
| 14> H          1.67464       -1.50562       -0.31610
| 15> H          2.92850       -2.21850        0.72549
| 16> H          3.73575        0.86277       -3.51385
| 17> H          5.13754        0.64699       -2.49333
| 18> H          4.75374        2.22930       -3.12740
| 19> *
| 20> %MaxCore 64000
| 21>
| 22> %pal nprocs 4
| 23> end
| 24>
| 25> %scf
| 26>   MaxIter 150
| 27> end
| 28>
| 29>
| 30>                          ****END OF INPUT****

CARTESIAN COORDINATES (ANGSTROEM)
---------------------------------
  C      3.488280    1.600920   -1.522040
  C      4.342970    1.313420   -2.756830
  N      2.810290    0.428780   -1.014200
  H      2.714550    2.331450   -1.760300
  H      4.090990    2.063150   -0.733380
  C      3.290980   -0.418020   -0.129080
  C      2.517540   -1.432020    0.239360
  N      4.535490   -0.284410    0.395800
  H      5.043630    0.571890    0.222900
  H      4.723350   -0.733270    1.281800
  H      1.934790    0.102300   -1.403790
  H      1.674640   -1.505620   -0.316100
  H      2.928500   -2.218500    0.725490
  H      3.735750    0.862770   -3.513850
  H      5.137540    0.646990   -2.493330
  H      4.753740    2.229300   -3.127400

 Total Charge           Charge          ....    0
 Multiplicity           Mult            ....    1
 Number of Electrons    NEL             ....   48
 Basis Dimension        Dim             ....  134

ORBITAL ENERGIES
----------------

  NO   OCC          E(Eh)            E(eV)
   0   2.0000     -14.013713      -381.3325
   1   2.0000     -14.012937      -381.3114
   2   2.0000      -9.960390      -271.0360
   3   2.0000      -9.950373      -270.7634
   4   2.0000      -9.912565      -269.7346
   5   2.0000      -9.825866      -267.3754
   6   2.0000      -0.861530       -23.4434
   7   2.0000      -0.781617       -21.2689
   8   2.0000      -0.685620       -18.6567
   9   2.0000      -0.613373       -16.6907
  10   2.0000      -0.551189       -14.9986
  11   2.0000      -0.526307       -14.3215
  12   2.0000      -0.469629       -12.7793
  13   2.0000      -0.436173       -11.8689
  14   2.0000      -0.419084       -11.4039
  15   2.0000      -0.384073       -10.4511
  16   2.0000      -0.370987       -10.0951
  17   2.0000      -0.346704        -9.4343
  18   2.0000      -0.320270        -8.7150
  19   2.0000      -0.318929        -8.6785
  20   2.0000      -0.310092        -8.4380
  21   2.0000      -0.301046        -8.1919
  22   2.0000      -0.200215        -5.4481
  23   2.0000      -0.113545        -3.0897
  24   0.0000       0.020465         0.5569
  25   0.0000       0.045683         1.2431
  26   0.0000       0.056997         1.5510
  27   0.0000       0.078436         2.1344
  28   0.0000       0.083107         2.2615

MULLIKEN ATOMIC CHARGES
-----------------------
   0 C :    0.098881
   1 C :    0.112076
   2 N :   -0.017635
   3 H :   -0.022936
   4 H :   -0.022283
   5 C :   -0.156877
   6 C :    0.005870
   7 N :   -0.006184
   8 H :    0.069918
   9 H :    0.099340
  10 H :    0.094900
  11 H :   -0.109174
  12 H :   -0.093259
  13 H :   -0.015905
  14 H :   -0.014495
  15 H :   -0.022238
Sum of atomic charges:   -0.0000000

LOEWDIN ATOMIC CHARGES
----------------------
   0 C :    0.033343
   1 C :   -0.051594
   2 N :    0.002710
   3 H :    0.017387
   4 H :    0.011066
   5 C :    0.019287
   6 C :   -0.243100
   7 N :   -0.013137
   8 H :    0.053382
   9 H :    0.076753
  10 H :    0.080071
  11 H :   -0.017916
  12 H :   -0.015460
  13 H :    0.016369
  14 H :    0.015438
  15 H :    0.015403

  Mayer bond orders larger than 0.100000
B(  0-C ,  1-C ) :   1.1109 B(  0-C ,  2-N ) :   1.0507 B(  0-C ,  3-H ) :   0.9337
B(  0-C ,  4-H ) :   0.9292 B(  1-C , 13-H ) :   0.9593 B(  1-C , 14-H ) :   0.9585
B(  1-C , 15-H ) :   0.9475 B(  2-N ,  5-C ) :   1.2356 B(  2-N , 10-H ) :   0.9127
B(  5-C ,  6-C ) :   1.7315 B(  5-C ,  7-N ) :   1.2350 B(  6-C , 11-H ) :   0.8960
B(  6-C , 12-H ) :   0.9276 B(  7-N ,  8-H ) :   0.9481 B(  7-N ,  9-H ) :   0.9449

Dispersion correction           -0.025780311
FINAL SINGLE POINT ENERGY      -267.582092538268

DIPOLE MOMENT
-------------
                                X             Y             Z
Electronic contribution:     -0.85661      -1.07321       2.50597
Nuclear contribution   :      1.38466       1.98967      -2.80776
                        -----------------------------------------
Total Dipole Moment    :      0.52804       0.91646      -0.30180
                        -----------------------------------------
Magnitude (a.u.)       :      1.09991
Magnitude (Debye)      :      2.79575

Rotational constants in cm-1:     0.235618     0.075969     0.065309
Rotational constants in MHz :  7063.646698  2277.495424  1957.925383

                             ****ORCA TERMINATED NORMALLY****
TOTAL RUN TIME: 0 days 0 hours 0 minutes 8 seconds 667 msec
