                         Program Version 5.0.0 -  RELEASE  -
|  1> !BLYP D3BJ RIJCOSX def2-SVP def2/J TightSCF
|  2> *xyz 0 1
|  3> C          3.48828        1.60092       -1.52204
|  4> C          4.34297        1.31342       -2.75683
|  5> N          2.81029        0.42878       -1.01420
|  6> H          2.71455        2.33145       -1.76030
|  7> H          4.09099        2.06315       -0.73338
|  8> C          3.29098       -0.41802       -0.12908
|  9> N          2.51754       -1.43202        0.23936
| 10> C          4.53549       -0.28441        0.39580
| 11> H          5.04363        0.57189        0.22290
| 12> H          4.72335       -0.73327        1.28180
| 13> H          1.93479        0.10230       -1.40379
| 14> H          1.67464       -1.50562       -0.31610
| 15> H          2.92850       -2.21850        0.72549
| 16> H          3.73575        0.86277       -3.51385
| 17> H          5.13754        0.64699       -2.49333
| 18> H          4.75374        2.22930       -3.12740
| 19> *
| 20> %MaxCore 64000
| 21>
| 22> %pal nprocs 4
| 23> end
| 24>
| 25> %scf
| 26>   MaxIter 150
| 27> end
| 28>
| 29>
| 30>                          ****END OF INPUT****

CARTESIAN COORDINATES (ANGSTROEM)
---------------------------------
  C      3.488280    1.600920   -1.522040
  C      4.342970    1.313420   -2.756830
  N      2.810290    0.428780   -1.014200
  H      2.714550    2.331450   -1.760300
  H      4.090990    2.063150   -0.733380
  C      3.290980   -0.418020   -0.129080
  N      2.517540   -1.432020    0.239360
  C      4.535490   -0.284410    0.395800
  H      5.043630    0.571890    0.222900
  H      4.723350   -0.733270    1.281800
  H      1.934790    0.102300   -1.403790
  H      1.674640   -1.505620   -0.316100
  H      2.928500   -2.218500    0.725490
  H      3.735750    0.862770   -3.513850
  H      5.137540    0.646990   -2.493330
  H      4.753740    2.229300   -3.127400

 Total Charge           Charge          ....    0
 Multiplicity           Mult            ....    1
 Number of Electrons    NEL             ....   48
 Basis Dimension        Dim             ....  134

ORBITAL ENERGIES
----------------

  NO   OCC          E(Eh)            E(eV)
   0   2.0000     -14.018608      -381.4657
   1   2.0000     -14.015282      -381.3752
   2   2.0000      -9.952625      -270.8247
   3   2.0000      -9.951455      -270.7929
   4   2.0000      -9.903955      -269.5003
   5   2.0000      -9.824687      -267.3433
   6   2.0000      -0.869600       -23.6630
   7   2.0000      -0.786425       -21.3997
   8   2.0000      -0.666854       -18.1460
   9   2.0000      -0.614255       -16.7147
  10   2.0000      -0.565915       -15.3993
  11   2.0000      -0.491853       -13.3840
  12   2.0000      -0.475883       -12.9494
  13   2.0000      -0.461957       -12.5705
  14   2.0000      -0.409666       -11.1476
  15   2.0000      -0.381957       -10.3936
  16   2.0000      -0.364584        -9.9208
  17   2.0000      -0.336236        -9.1494
  18   2.0000      -0.324131        -8.8201
  19   2.0000      -0.310208        -8.4412
  20   2.0000      -0.301068        -8.1925
  21   2.0000      -0.295825        -8.0498
  22   2.0000      -0.195974        -5.3327
  23   2.0000      -0.114417        -3.1134
  24   0.0000       0.013320         0.3625
  25   0.0000       0.051727         1.4076
  26   0.0000       0.060530         1.6471
  27   0.0000       0.077092         2.0978
  28   0.0000       0.093721         2.5503

MULLIKEN ATOMIC CHARGES
-----------------------
   0 C :    0.128384
   1 C :    0.099336
   2 N :   -0.037731
   3 H :   -0.030863
   4 H :    0.000208
   5 C :   -0.152394
   6 N :    0.028139
   7 C :   -0.040249
   8 H :   -0.093702
   9 H :   -0.093632
  10 H :    0.066301
  11 H :    0.069076
  12 H :    0.104011
  13 H :   -0.028109
  14 H :    0.001903
  15 H :   -0.020679
Sum of atomic charges:    0.0000000

LOEWDIN ATOMIC CHARGES
----------------------
   0 C :    0.046152
   1 C :   -0.048382
   2 N :    0.003561
   3 H :    0.013534
   4 H :    0.023776
   5 C :    0.014477
   6 N :    0.001402
   7 C :   -0.263737
   8 H :   -0.017884
   9 H :   -0.016548
  10 H :    0.056798
  11 H :    0.055139
  12 H :    0.080673
  13 H :    0.011081
  14 H :    0.022982
  15 H :    0.016975

  Mayer bond orders larger than 0.100000
B(  0-C ,  1-C ) :   1.1306 B(  0-C ,  2-N ) :   1.0305 B(  0-C ,  3-H ) :   0.9371
B(  0-C ,  4-H ) :   0.9223 B(  1-C , 13-H ) :   0.9582 B(  1-C , 14-H ) :   0.9609
B(  1-C , 15-H ) :   0.9512 B(  2-N ,  5-C ) :   1.2194 B(  2-N , 10-H ) :   0.9234
B(  5-C ,  6-N ) :   1.2582 B(  5-C ,  7-C ) :   1.7199 B(  6-N , 11-H ) :   0.9436
B(  6-N , 12-H ) :   0.9407 B(  7-C ,  8-H ) :   0.9167 B(  7-C ,  9-H ) :   0.9227

Dispersion correction           -0.025967825
FINAL SINGLE POINT ENERGY      -267.581359060203

DIPOLE MOMENT
-------------
                                X             Y             Z
Electronic contribution:     -2.91031      -2.39891       2.22032
Nuclear contribution   :      1.81275       2.23313      -2.77458
                        -----------------------------------------
Total Dipole Moment    :     -1.09756      -0.16578      -0.55426
                        -----------------------------------------
Magnitude (a.u.)       :      1.24069
Magnitude (Debye)      :      3.15359

Rotational constants in cm-1:     0.245202     0.073668     0.064348
Rotational constants in MHz :  7350.977980  2208.513334  1929.108541

                             ****ORCA TERMINATED NORMALLY****
TOTAL RUN TIME: 0 days 0 hours 0 minutes 8 seconds 853 msec
