                         Program Version 5.0.0 -  RELEASE  -
|  1> !BLYP D3BJ RIJCOSX def2-TZVP def2/J TightSCF xyzfile
|  2>
|  3> *xyzfile 0 1 D2.xyz
|  4>
|  5> %MaxCore 64000
|  6>
|  7> %pal nprocs 18
|  8> end
|  9>
| 10> %scf
| 11>   MaxIter 150
| 12> end
| 13>
| 14>
| 15>                          ****END OF INPUT****

CARTESIAN COORDINATES (ANGSTROEM)
---------------------------------
  C      3.488276    1.600919   -1.522040
  C      4.342970    1.313419   -2.756826
  N      2.810285    0.428783   -1.014196
  H      5.132033    0.604994   -2.484466
  C      3.535896    0.749253   -3.924604
  H      4.841247    2.242136   -3.054083
  H      2.991617   -0.132199   -3.574137
  H      4.225505    0.392784   -4.695962
  C      2.564776    1.750890   -4.544523
  H      1.918749    2.171679   -3.769419
  C      1.686235    1.161657   -5.650111
  H      3.132494    2.594775   -4.951604
  C      0.839616   -0.037582   -5.220473
  H      2.323886    0.866395   -6.490796
  H      1.029518    1.951850   -6.029329
  C     -0.151019    0.254955   -4.094256
  H      1.499442   -0.857141   -4.922958
  H      0.290097   -0.410143   -6.091131
  H      0.328265    0.833022   -3.299125
  C     -0.721843   -0.999513   -3.439309
  H     -0.957367    0.884951   -4.485450
  H     -1.083403   -1.697555   -4.205656
  H     -1.581056   -0.723848   -2.820490
  C      0.287250   -1.711771   -2.527405
  H      1.131780   -2.067380   -3.159396
  H     -0.204137   -2.637326   -2.170480
  F      0.710505   -0.927506   -1.481767
  H      2.714548    2.331455   -1.760302
  H      4.090991    2.063151   -0.733382
  C      3.290978   -0.418021   -0.129083
  C      2.517536   -1.432017    0.239360
  N      4.535490   -0.284410    0.395800
  H      5.043627    0.571888    0.222899
  H      4.723346   -0.733273    1.281800
  H      1.934787    0.102305   -1.403788
  H      1.674638   -1.505616   -0.316095
  H      2.928503   -2.218502    0.725494

 Total Charge           Charge          ....    0
 Multiplicity           Mult            ....    1
 Number of Electrons    NEL             ....  112
 Basis Dimension        Dim             ....  572

ORBITAL ENERGIES
----------------

  NO   OCC          E(Eh)            E(eV)
   0   2.0000     -24.298023      -661.1828
   1   2.0000     -13.987413      -380.6169
   2   2.0000     -13.978978      -380.3873
   3   2.0000      -9.989757      -271.8351
   4   2.0000      -9.929403      -270.1928
   5   2.0000      -9.921848      -269.9872
   6   2.0000      -9.916485      -269.8413
   7   2.0000      -9.906701      -269.5750
   8   2.0000      -9.903099      -269.4770
   9   2.0000      -9.901111      -269.4229
  10   2.0000      -9.897902      -269.3356
  11   2.0000      -9.895825      -269.2791
  12   2.0000      -9.894956      -269.2554
  13   2.0000      -9.785895      -266.2877
  14   2.0000      -1.125621       -30.6297
  15   2.0000      -0.859731       -23.3945
  16   2.0000      -0.782977       -21.3059
  17   2.0000      -0.743907       -20.2427
  18   2.0000      -0.718578       -19.5535
  19   2.0000      -0.693663       -18.8755
  20   2.0000      -0.651658       -17.7325
  21   2.0000      -0.629660       -17.1339
  22   2.0000      -0.597475       -16.2581
  23   2.0000      -0.573601       -15.6085
  24   2.0000      -0.545342       -14.8395
  25   2.0000      -0.532289       -14.4843
  26   2.0000      -0.513595       -13.9756
  27   2.0000      -0.497383       -13.5345
  28   2.0000      -0.474499       -12.9118
  29   2.0000      -0.462267       -12.5789
  30   2.0000      -0.452803       -12.3214
  31   2.0000      -0.437398       -11.9022
  32   2.0000      -0.428206       -11.6521
  33   2.0000      -0.418359       -11.3841
  34   2.0000      -0.412310       -11.2195
  35   2.0000      -0.400314       -10.8931
  36   2.0000      -0.384432       -10.4609
  37   2.0000      -0.379099       -10.3158
  38   2.0000      -0.375822       -10.2266
  39   2.0000      -0.363310        -9.8862
  40   2.0000      -0.344367        -9.3707
  41   2.0000      -0.334284        -9.0963
  42   2.0000      -0.325642        -8.8612
  43   2.0000      -0.325034        -8.8446
  44   2.0000      -0.315804        -8.5935
  45   2.0000      -0.311439        -8.4747
  46   2.0000      -0.300104        -8.1662
  47   2.0000      -0.297876        -8.1056
  48   2.0000      -0.290443        -7.9033
  49   2.0000      -0.284149        -7.7321
  50   2.0000      -0.274828        -7.4784
  51   2.0000      -0.272347        -7.4109
  52   2.0000      -0.271511        -7.3882
  53   2.0000      -0.267566        -7.2808
  54   2.0000      -0.195034        -5.3071
  55   2.0000      -0.107131        -2.9152
  56   0.0000       0.006887         0.1874
  57   0.0000       0.012993         0.3535
  58   0.0000       0.020130         0.5478
  59   0.0000       0.025780         0.7015
  60   0.0000       0.034673         0.9435

MULLIKEN ATOMIC CHARGES
-----------------------
   0 C :   -0.196690
   1 C :   -0.006627
   2 N :   -0.245551
   3 H :    0.076042
   4 C :   -0.214888
   5 H :    0.050879
   6 H :    0.096331
   7 H :    0.072490
   8 C :   -0.190684
   9 H :    0.083923
  10 C :   -0.078696
  11 H :    0.072692
  12 C :   -0.211036
  13 H :    0.073315
  14 H :    0.070428
  15 C :   -0.161215
  16 H :    0.090793
  17 H :    0.079358
  18 H :    0.087217
  19 C :   -0.104864
  20 H :    0.081433
  21 H :    0.076995
  22 H :    0.088878
  23 C :    0.010936
  24 H :    0.089504
  25 H :    0.105988
  26 F :   -0.223518
  27 H :    0.104172
  28 H :    0.087295
  29 C :    0.320286
  30 C :   -0.530590
  31 N :   -0.441232
  32 H :    0.189382
  33 H :    0.213338
  34 H :    0.224910
  35 H :    0.099080
  36 H :    0.059926
Sum of atomic charges:    0.0000000

LOEWDIN ATOMIC CHARGES
----------------------
   0 C :   -0.295457
   1 C :   -0.264568
   2 N :    0.135966
   3 H :    0.132653
   4 C :   -0.263302
   5 H :    0.129505
   6 H :    0.131567
   7 H :    0.133314
   8 C :   -0.263924
   9 H :    0.127374
  10 C :   -0.259725
  11 H :    0.133056
  12 C :   -0.264155
  13 H :    0.133433
  14 H :    0.132893
  15 C :   -0.263085
  16 H :    0.129157
  17 H :    0.132778
  18 H :    0.133674
  19 C :   -0.266700
  20 H :    0.134436
  21 H :    0.140969
  22 H :    0.136870
  23 C :   -0.340542
  24 H :    0.120786
  25 H :    0.126373
  26 F :    0.162997
  27 H :    0.127303
  28 H :    0.124156
  29 C :   -0.462985
  30 C :   -0.359854
  31 N :   -0.021769
  32 H :    0.149549
  33 H :    0.168421
  34 H :    0.169345
  35 H :    0.090795
  36 H :    0.088699

  Mayer bond orders larger than 0.100000
B(  0-C ,  1-C ) :   0.9108 B(  0-C ,  2-N ) :   0.9588 B(  0-C , 27-H ) :   0.9830
B(  0-C , 28-H ) :   0.9723 B(  1-C ,  3-H ) :   0.9534 B(  1-C ,  4-C ) :   0.9606
B(  1-C ,  5-H ) :   0.9490 B(  2-N , 29-C ) :   1.2168 B(  2-N , 34-H ) :   0.8805
B(  4-C ,  6-H ) :   0.9751 B(  4-C ,  7-H ) :   0.9585 B(  4-C ,  8-C ) :   0.9548
B(  8-C ,  9-H ) :   0.9793 B(  8-C , 10-C ) :   0.9703 B(  8-C , 11-H ) :   0.9568
B( 10-C , 12-C ) :   0.9636 B( 10-C , 13-H ) :   0.9591 B( 10-C , 14-H ) :   0.9631
B( 12-C , 15-C ) :   0.9554 B( 12-C , 16-H ) :   0.9795 B( 12-C , 17-H ) :   0.9554
B( 15-C , 18-H ) :   0.9777 B( 15-C , 19-C ) :   0.9610 B( 15-C , 20-H ) :   0.9575
B( 19-C , 21-H ) :   0.9445 B( 19-C , 22-H ) :   0.9596 B( 19-C , 23-C ) :   0.9812
B( 23-C , 24-H ) :   0.9680 B( 23-C , 25-H ) :   0.9610 B( 23-C , 26-F ) :   0.8979
B( 29-C , 30-C ) :   1.6093 B( 29-C , 31-N ) :   1.1134 B( 30-C , 35-H ) :   1.0116
B( 30-C , 36-H ) :   0.9935 B( 31-N , 32-H ) :   0.9296 B( 31-N , 33-H ) :   0.9287

Dispersion correction           -0.079329546
FINAL SINGLE POINT ENERGY      -642.300522232755

DIPOLE MOMENT
-------------
                                X             Y             Z
Electronic contribution:     -1.26009      -3.13834       9.50909
Nuclear contribution   :      1.09892       3.58083     -10.64472
                        -----------------------------------------
Total Dipole Moment    :     -0.16117       0.44249      -1.13563
                        -----------------------------------------
Magnitude (a.u.)       :      1.22940
Magnitude (Debye)      :      3.12489

Rotational constants in cm-1:     0.026768     0.016312     0.010954
Rotational constants in MHz :   802.489946   489.033275   328.388904

                             ****ORCA TERMINATED NORMALLY****
TOTAL RUN TIME: 0 days 0 hours 0 minutes 25 seconds 735 msec
