                         Program Version 5.0.0 -  RELEASE  -
|  1> !BLYP D3BJ RIJCOSX def2-TZVP def2/J TightSCF xyzfile
|  2>
|  3> *xyzfile 0 1 D3.xyz
|  4>
|  5> %MaxCore 64000
|  6>
|  7> %pal nprocs 18
|  8> end
|  9>
| 10> %scf
| 11>   MaxIter 150
| 12> end
| 13>
| 14>
| 15>                          ****END OF INPUT****

CARTESIAN COORDINATES (ANGSTROEM)
---------------------------------
  C      3.488276    1.600919   -1.522040
  C      4.342970    1.313419   -2.756826
  N      2.810285    0.428783   -1.014196
  H      5.132033    0.604994   -2.484466
  C      3.535896    0.749253   -3.924604
  H      4.841247    2.242136   -3.054083
  H      2.991617   -0.132199   -3.574137
  H      4.225505    0.392784   -4.695962
  C      2.564776    1.750890   -4.544523
  H      1.918749    2.171679   -3.769419
  C      1.686235    1.161657   -5.650111
  H      3.132494    2.594775   -4.951604
  C      0.839616   -0.037582   -5.220473
  H      2.323886    0.866395   -6.490796
  H      1.029518    1.951850   -6.029329
  C     -0.151019    0.254955   -4.094256
  H      1.499442   -0.857141   -4.922958
  H      0.290097   -0.410143   -6.091131
  H      0.328265    0.833022   -3.299125
  C     -0.721843   -0.999513   -3.439309
  H     -0.957367    0.884951   -4.485450
  H     -1.083403   -1.697555   -4.205656
  H     -1.581056   -0.723848   -2.820490
  C      0.287250   -1.711771   -2.527405
  H      1.131780   -2.067380   -3.159396
  H     -0.204137   -2.637326   -2.170480
  F      0.710505   -0.927506   -1.481767
  H      2.714548    2.331455   -1.760302
  H      4.090991    2.063151   -0.733382
  C      3.290978   -0.418021   -0.129083
  N      2.517536   -1.432017    0.239360
  C      4.535490   -0.284410    0.395800
  H      5.043627    0.571888    0.222899
  H      4.723346   -0.733273    1.281800
  H      1.934787    0.102305   -1.403788
  H      1.674638   -1.505616   -0.316095
  H      2.928503   -2.218502    0.725494

 Total Charge           Charge          ....    0
 Multiplicity           Mult            ....    1
 Number of Electrons    NEL             ....  112
 Basis Dimension        Dim             ....  572

ORBITAL ENERGIES
----------------

  NO   OCC          E(Eh)            E(eV)
   0   2.0000     -24.327464      -661.9839
   1   2.0000     -13.982203      -380.4751
   2   2.0000     -13.975685      -380.2977
   3   2.0000     -10.008084      -272.3338
   4   2.0000      -9.928705      -270.1738
   5   2.0000      -9.923399      -270.0294
   6   2.0000      -9.921275      -269.9716
   7   2.0000      -9.914252      -269.7805
   8   2.0000      -9.908148      -269.6144
   9   2.0000      -9.903125      -269.4777
  10   2.0000      -9.897419      -269.3225
  11   2.0000      -9.893479      -269.2152
  12   2.0000      -9.887831      -269.0615
  13   2.0000      -9.796143      -266.5666
  14   2.0000      -1.153812       -31.3968
  15   2.0000      -0.864825       -23.5331
  16   2.0000      -0.782954       -21.3053
  17   2.0000      -0.750499       -20.4221
  18   2.0000      -0.722074       -19.6486
  19   2.0000      -0.690762       -18.7966
  20   2.0000      -0.652395       -17.7526
  21   2.0000      -0.622544       -16.9403
  22   2.0000      -0.612131       -16.6569
  23   2.0000      -0.584506       -15.9052
  24   2.0000      -0.555161       -15.1067
  25   2.0000      -0.530119       -14.4253
  26   2.0000      -0.512207       -13.9379
  27   2.0000      -0.498373       -13.5614
  28   2.0000      -0.492514       -13.4020
  29   2.0000      -0.468630       -12.7521
  30   2.0000      -0.460973       -12.5437
  31   2.0000      -0.450938       -12.2706
  32   2.0000      -0.437344       -11.9007
  33   2.0000      -0.421140       -11.4598
  34   2.0000      -0.408835       -11.1250
  35   2.0000      -0.401600       -10.9281
  36   2.0000      -0.388936       -10.5835
  37   2.0000      -0.384610       -10.4658
  38   2.0000      -0.376271       -10.2389
  39   2.0000      -0.361304        -9.8316
  40   2.0000      -0.349765        -9.5176
  41   2.0000      -0.336656        -9.1609
  42   2.0000      -0.332229        -9.0404
  43   2.0000      -0.324830        -8.8391
  44   2.0000      -0.320946        -8.7334
  45   2.0000      -0.313080        -8.5193
  46   2.0000      -0.305963        -8.3257
  47   2.0000      -0.301255        -8.1976
  48   2.0000      -0.294060        -8.0018
  49   2.0000      -0.291375        -7.9287
  50   2.0000      -0.286303        -7.7907
  51   2.0000      -0.274771        -7.4769
  52   2.0000      -0.273129        -7.4322
  53   2.0000      -0.266464        -7.2508
  54   2.0000      -0.185632        -5.0513
  55   2.0000      -0.110928        -3.0185
  56   0.0000      -0.002060        -0.0561
  57   0.0000       0.011509         0.3132
  58   0.0000       0.020621         0.5611
  59   0.0000       0.023401         0.6368
  60   0.0000       0.033269         0.9053

MULLIKEN ATOMIC CHARGES
-----------------------
   0 C :   -0.142169
   1 C :   -0.032609
   2 N :   -0.264283
   3 H :    0.098186
   4 C :   -0.210611
   5 H :    0.056224
   6 H :    0.079937
   7 H :    0.072156
   8 C :   -0.194918
   9 H :    0.084186
  10 C :   -0.079857
  11 H :    0.074470
  12 C :   -0.209680
  13 H :    0.074718
  14 H :    0.070991
  15 C :   -0.165426
  16 H :    0.089578
  17 H :    0.081068
  18 H :    0.091747
  19 C :   -0.110950
  20 H :    0.085871
  21 H :    0.083990
  22 H :    0.092948
  23 C :   -0.002809
  24 H :    0.101756
  25 H :    0.111669
  26 F :   -0.243231
  27 H :    0.097328
  28 H :    0.102100
  29 C :    0.302860
  30 N :   -0.431058
  31 C :   -0.512479
  32 H :    0.050674
  33 H :    0.057534
  34 H :    0.212234
  35 H :    0.216761
  36 H :    0.211094
Sum of atomic charges:   -0.0000000

LOEWDIN ATOMIC CHARGES
----------------------
   0 C :   -0.277334
   1 C :   -0.259328
   2 N :    0.133312
   3 H :    0.140254
   4 C :   -0.264874
   5 H :    0.131354
   6 H :    0.127144
   7 H :    0.132911
   8 C :   -0.264043
   9 H :    0.126985
  10 C :   -0.259598
  11 H :    0.133900
  12 C :   -0.264218
  13 H :    0.134014
  14 H :    0.132932
  15 C :   -0.262064
  16 H :    0.128724
  17 H :    0.133026
  18 H :    0.134626
  19 C :   -0.264862
  20 H :    0.135948
  21 H :    0.143545
  22 H :    0.137916
  23 C :   -0.343712
  24 H :    0.123226
  25 H :    0.126531
  26 F :    0.154675
  27 H :    0.124651
  28 H :    0.134743
  29 C :   -0.469764
  30 N :   -0.011434
  31 C :   -0.375459
  32 H :    0.089139
  33 H :    0.089284
  34 H :    0.157573
  35 H :    0.142113
  36 H :    0.168163

  Mayer bond orders larger than 0.100000
B(  0-C ,  1-C ) :   0.9338 B(  0-C ,  2-N ) :   0.9436 B(  0-C , 27-H ) :   0.9846
B(  0-C , 28-H ) :   0.9580 B(  1-C ,  3-H ) :   0.9526 B(  1-C ,  4-C ) :   0.9654
B(  1-C ,  5-H ) :   0.9570 B(  2-N , 29-C ) :   1.2161 B(  2-N , 34-H ) :   0.8831
B(  4-C ,  6-H ) :   0.9730 B(  4-C ,  7-H ) :   0.9584 B(  4-C ,  8-C ) :   0.9523
B(  8-C ,  9-H ) :   0.9803 B(  8-C , 10-C ) :   0.9679 B(  8-C , 11-H ) :   0.9577
B( 10-C , 12-C ) :   0.9648 B( 10-C , 13-H ) :   0.9590 B( 10-C , 14-H ) :   0.9631
B( 12-C , 15-C ) :   0.9527 B( 12-C , 16-H ) :   0.9795 B( 12-C , 17-H ) :   0.9550
B( 15-C , 18-H ) :   0.9784 B( 15-C , 19-C ) :   0.9603 B( 15-C , 20-H ) :   0.9584
B( 19-C , 21-H ) :   0.9436 B( 19-C , 22-H ) :   0.9605 B( 19-C , 23-C ) :   0.9856
B( 23-C , 24-H ) :   0.9691 B( 23-C , 25-H ) :   0.9582 B( 23-C , 26-F ) :   0.8764
B( 29-C , 30-N ) :   1.1608 B( 29-C , 31-C ) :   1.5718 B( 30-N , 35-H ) :   0.8966
B( 30-N , 36-H ) :   0.9290 B( 31-C , 32-H ) :   1.0075 B( 31-C , 33-H ) :   0.9898

Dispersion correction           -0.079330557
FINAL SINGLE POINT ENERGY      -642.312352891450

DIPOLE MOMENT
-------------
                                X             Y             Z
Electronic contribution:     -3.25145      -4.32373       9.13431
Nuclear contribution   :      1.49917       3.80845     -10.61369
                        -----------------------------------------
Total Dipole Moment    :     -1.75228      -0.51527      -1.47937
                        -----------------------------------------
Magnitude (a.u.)       :      2.35043
Magnitude (Debye)      :      5.97432

Rotational constants in cm-1:     0.026547     0.016542     0.011018
Rotational constants in MHz :   795.873737   495.912559   330.323979

                             ****ORCA TERMINATED NORMALLY****
TOTAL RUN TIME: 0 days 0 hours 0 minutes 28 seconds 697 msec
