                         Program Version 5.0.0 -  RELEASE  -
|  1> !wB97X-D3 RIJCOSX def2-TZVP def2/J TightSCF
|  2> *xyz -1 1
|  3> C         -0.05915        1.50352        3.41058
|  4> C          1.08303        0.74964        4.08571
|  5> O          2.22817        1.26348        4.01983
|  6> O          0.81003       -0.34541        4.63627
|  7> H          0.31461        2.41205        2.98658
|  8> H         -0.81316        1.73160        4.13470
|  9> H         -0.47977        0.89552        2.63708
| 10> *
| 11>
| 12> %MaxCore 64000
| 13>
| 14> %pal nprocs 18
| 15> end
| 16>
| 17> %scf
| 18>   MaxIter 150
| 19> end
| 20>
| 21>
| 22>                          ****END OF INPUT****

CARTESIAN COORDINATES (ANGSTROEM)
---------------------------------
  C     -0.059150    1.503520    3.410580
  C      1.083030    0.749640    4.085710
  O      2.228170    1.263480    4.019830
  O      0.810030   -0.345410    4.636270
  H      0.314610    2.412050    2.986580
  H     -0.813160    1.731600    4.134700
  H     -0.479770    0.895520    2.637080

 Total Charge           Charge          ....   -1
 Multiplicity           Mult            ....    1
 Number of Electrons    NEL             ....   32
 Basis Dimension        Dim             ....  142

ORBITAL ENERGIES
----------------

  NO   OCC          E(Eh)            E(eV)
   0   2.0000     -18.946815      -515.5691
   1   2.0000     -18.945961      -515.5458
   2   2.0000     -10.146736      -276.1067
   3   2.0000     -10.078884      -274.2604
   4   2.0000      -0.921180       -25.0666
   5   2.0000      -0.826028       -22.4774
   6   2.0000      -0.653407       -17.7801
   7   2.0000      -0.402385       -10.9495
   8   2.0000      -0.354702        -9.6519
   9   2.0000      -0.340137        -9.2556
  10   2.0000      -0.316109        -8.6018
  11   2.0000      -0.271766        -7.3951
  12   2.0000      -0.252511        -6.8712
  13   2.0000      -0.126944        -3.4543
  14   2.0000      -0.123651        -3.3647
  15   2.0000      -0.108822        -2.9612
  16   0.0000       0.286214         7.7883
  17   0.0000       0.330511         8.9937
  18   0.0000       0.357500         9.7281
  19   0.0000       0.386397        10.5144
  20   0.0000       0.393151        10.6982

MULLIKEN ATOMIC CHARGES
-----------------------
   0 C :   -0.302954
   1 C :    0.274656
   2 O :   -0.576187
   3 O :   -0.579143
   4 H :    0.061170
   5 H :    0.060467
   6 H :    0.061991
Sum of atomic charges:   -1.0000000

LOEWDIN ATOMIC CHARGES
----------------------
   0 C :   -0.324319
   1 C :   -0.716080
   2 O :   -0.131986
   3 O :   -0.132602
   4 H :    0.099375
   5 H :    0.102467
   6 H :    0.103144

  Mayer bond orders larger than 0.100000
B(  0-C ,  1-C ) :   0.9287 B(  0-C ,  4-H ) :   0.9744 B(  0-C ,  5-H ) :   0.9711
B(  0-C ,  6-H ) :   0.9712 B(  1-C ,  2-O ) :   1.8427 B(  1-C ,  3-O ) :   1.8327

Dispersion correction           -0.000903992
FINAL SINGLE POINT ENERGY      -228.547580215610

DIPOLE MOMENT
-------------
                                X             Y             Z
Electronic contribution:      2.71048      -1.78983       1.59321
Nuclear contribution   :     -3.75920       2.48542      -2.19871
                        -----------------------------------------
Total Dipole Moment    :     -1.04872       0.69559      -0.60550
                        -----------------------------------------
Magnitude (a.u.)       :      1.39653
Magnitude (Debye)      :      3.54969

Rotational constants in cm-1:     0.392838     0.334689     0.186890
Rotational constants in MHz : 11776.984954 10033.729666  5602.815156

                             ****ORCA TERMINATED NORMALLY****
TOTAL RUN TIME: 0 days 0 hours 0 minutes 7 seconds 656 msec
