                         Program Version 5.0.0 -  RELEASE  -
|  1> !wB97X-D3 RIJCOSX def2-TZVP def2/J TightSCF
|  2> *xyz 1 1
|  3> C          4.60295       -2.44010        2.63478
|  4> C          3.86085       -1.59157        3.62289
|  5> N          2.75650       -2.04616        4.16633
|  6> N          4.25433       -0.36291        3.86046
|  7> H          3.56526        0.31099        4.16898
|  8> H          5.05429       -0.01606        3.33784
|  9> H          2.43970       -2.97389        3.89740
| 10> H          2.06687       -1.41253        4.54981
| 11> H          5.47239       -1.91604        2.29664
| 12> H          3.96816       -2.65362        1.80030
| 13> H          4.89801       -3.35632        3.10209
| 14> *
| 15>
| 16> %MaxCore 64000
| 17>
| 18> %pal nprocs 18
| 19> end
| 20>
| 21> %scf
| 22>   MaxIter 150
| 23> end
| 24>
| 25>
| 26>                          ****END OF INPUT****

CARTESIAN COORDINATES (ANGSTROEM)
---------------------------------
  C      4.602950   -2.440100    2.634780
  C      3.860850   -1.591570    3.622890
  N      2.756500   -2.046160    4.166330
  N      4.254330   -0.362910    3.860460
  H      3.565260    0.310990    4.168980
  H      5.054290   -0.016060    3.337840
  H      2.439700   -2.973890    3.897400
  H      2.066870   -1.412530    4.549810
  H      5.472390   -1.916040    2.296640
  H      3.968160   -2.653620    1.800300
  H      4.898010   -3.356320    3.102090

 Total Charge           Charge          ....    1
 Multiplicity           Mult            ....    1
 Number of Electrons    NEL             ....   32
 Basis Dimension        Dim             ....  166

ORBITAL ENERGIES
----------------

  NO   OCC          E(Eh)            E(eV)
   0   2.0000     -14.672718      -399.2650
   1   2.0000     -14.671993      -399.2452
   2   2.0000     -10.610937      -288.7383
   3   2.0000     -10.475087      -285.0416
   4   2.0000      -1.333251       -36.2796
   5   2.0000      -1.232722       -33.5441
   6   2.0000      -1.072682       -29.1892
   7   2.0000      -0.951744       -25.8983
   8   2.0000      -0.881083       -23.9755
   9   2.0000      -0.877488       -23.8777
  10   2.0000      -0.801500       -21.8099
  11   2.0000      -0.769302       -20.9338
  12   2.0000      -0.718082       -19.5400
  13   2.0000      -0.703921       -19.1547
  14   2.0000      -0.673280       -18.3209
  15   2.0000      -0.595449       -16.2030
  16   0.0000      -0.138770        -3.7761
  17   0.0000      -0.078035        -2.1234
  18   0.0000      -0.032767        -0.8916
  19   0.0000      -0.026894        -0.7318
  20   0.0000      -0.005237        -0.1425

MULLIKEN ATOMIC CHARGES
-----------------------
   0 C :   -0.344751
   1 C :    0.335749
   2 N :   -0.382109
   3 N :   -0.373349
   4 H :    0.296191
   5 H :    0.311546
   6 H :    0.317569
   7 H :    0.298874
   8 H :    0.147163
   9 H :    0.197974
  10 H :    0.195144
Sum of atomic charges:    1.0000000

LOEWDIN ATOMIC CHARGES
----------------------
   0 C :   -0.199798
   1 C :   -0.305168
   2 N :    0.107604
   3 N :    0.108369
   4 H :    0.204073
   5 H :    0.212171
   6 H :    0.213666
   7 H :    0.202871
   8 H :    0.144345
   9 H :    0.156764
  10 H :    0.155103

  Mayer bond orders larger than 0.100000
B(  0-C ,  1-C ) :   0.9989 B(  0-C ,  8-H ) :   0.9649 B(  0-C ,  9-H ) :   0.9326
B(  0-C , 10-H ) :   0.9430 B(  1-C ,  2-N ) :   1.4423 B(  1-C ,  3-N ) :   1.4513
B(  2-N ,  6-H ) :   0.8830 B(  2-N ,  7-H ) :   0.8866 B(  3-N ,  4-H ) :   0.8874
B(  3-N ,  5-H ) :   0.8804

Dispersion correction           -0.001674059
FINAL SINGLE POINT ENERGY      -189.733004731398

DIPOLE MOMENT
-------------
                                X             Y             Z
Electronic contribution:     -0.96274       1.14802       1.59411
Nuclear contribution   :      0.47466      -0.79212      -1.71537
                        -----------------------------------------
Total Dipole Moment    :     -0.48808       0.35590      -0.12126
                        -----------------------------------------
Magnitude (a.u.)       :      0.61611
Magnitude (Debye)      :      1.56603

Rotational constants in cm-1:     0.335502     0.299428     0.163704
Rotational constants in MHz : 10058.111638  8976.630214  4907.722182

                             ****ORCA TERMINATED NORMALLY****
TOTAL RUN TIME: 0 days 0 hours 0 minutes 9 seconds 404 msec
