                         Program Version 5.0.0 -  RELEASE  -
|  1> !wB97X-D3 RIJCOSX def2-TZVP def2/J TightSCF
|  2> *xyz 0 1
|  3> C         -0.05915        1.50352        3.41058
|  4> C          1.08303        0.74964        4.08571
|  5> F          2.22817        1.26348        4.01983
|  6> O          0.81003       -0.34541        4.63627
|  7> H          0.31461        2.41205        2.98658
|  8> H         -0.81316        1.73160        4.13470
|  9> H         -0.47977        0.89552        2.63708
| 10> *
| 11>
| 12> %MaxCore 64000
| 13>
| 14> %pal nprocs 18
| 15> end
| 16>
| 17> %scf
| 18>   MaxIter 150
| 19> end
| 20>
| 21>
| 22>                          ****END OF INPUT****

CARTESIAN COORDINATES (ANGSTROEM)
---------------------------------
  C     -0.059150    1.503520    3.410580
  C      1.083030    0.749640    4.085710
  F      2.228170    1.263480    4.019830
  O      0.810030   -0.345410    4.636270
  H      0.314610    2.412050    2.986580
  H     -0.813160    1.731600    4.134700
  H     -0.479770    0.895520    2.637080

 Total Charge           Charge          ....    0
 Multiplicity           Mult            ....    1
 Number of Electrons    NEL             ....   32
 Basis Dimension        Dim             ....  142

ORBITAL ENERGIES
----------------

  NO   OCC          E(Eh)            E(eV)
   0   2.0000     -24.855977      -676.3655
   1   2.0000     -19.235280      -523.4186
   2   2.0000     -10.459123      -284.6072
   3   2.0000     -10.299582      -280.2659
   4   2.0000      -1.436191       -39.0808
   5   2.0000      -1.148690       -31.2575
   6   2.0000      -0.889148       -24.1949
   7   2.0000      -0.767333       -20.8802
   8   2.0000      -0.652939       -17.7674
   9   2.0000      -0.649764       -17.6810
  10   2.0000      -0.608772       -16.5655
  11   2.0000      -0.545528       -14.8446
  12   2.0000      -0.532142       -14.4803
  13   2.0000      -0.499927       -13.6037
  14   2.0000      -0.448006       -12.1909
  15   2.0000      -0.391191       -10.6449
  16   0.0000       0.057475         1.5640
  17   0.0000       0.117621         3.2006
  18   0.0000       0.181979         4.9519
  19   0.0000       0.199386         5.4256
  20   0.0000       0.207703         5.6519

MULLIKEN ATOMIC CHARGES
-----------------------
   0 C :   -0.351171
   1 C :    0.389698
   2 F :   -0.106065
   3 O :   -0.359808
   4 H :    0.125779
   5 H :    0.150448
   6 H :    0.151118
Sum of atomic charges:    0.0000000

LOEWDIN ATOMIC CHARGES
----------------------
   0 C :   -0.261284
   1 C :   -0.510452
   2 F :    0.319243
   3 O :    0.053306
   4 H :    0.122718
   5 H :    0.138063
   6 H :    0.138405

  Mayer bond orders larger than 0.100000
B(  0-C ,  1-C ) :   0.9925 B(  0-C ,  4-H ) :   0.9672 B(  0-C ,  5-H ) :   0.9534
B(  0-C ,  6-H ) :   0.9526 B(  1-C ,  2-F ) :   1.1576 B(  1-C ,  3-O ) :   2.0379

Dispersion correction           -0.000908877
FINAL SINGLE POINT ENERGY      -253.120454403489

DIPOLE MOMENT
-------------
                                X             Y             Z
Electronic contribution:      4.68797      -1.02877       1.57035
Nuclear contribution   :     -5.01294       1.99942      -2.18092
                        -----------------------------------------
Total Dipole Moment    :     -0.32497       0.97065      -0.61057
                        -----------------------------------------
Magnitude (a.u.)       :      1.19187
Magnitude (Debye)      :      3.02950

Rotational constants in cm-1:     0.368501     0.321908     0.177384
Rotational constants in MHz : 11047.396090  9650.552559  5317.833075

                             ****ORCA TERMINATED NORMALLY****
TOTAL RUN TIME: 0 days 0 hours 0 minutes 7 seconds 867 msec
