                         Program Version 5.0.0 -  RELEASE  -
|  1> !wB97X-D3 RIJCOSX def2-TZVP def2/J TightSCF
|  2> *xyz 0 1
|  3> C          4.60295       -2.44010        2.63478
|  4> C          3.86085       -1.59157        3.62289
|  5> C          2.75650       -2.04616        4.16633
|  6> N          4.25433       -0.36291        3.86046
|  7> H          3.56526        0.31099        4.16898
|  8> H          5.05429       -0.01606        3.33784
|  9> H          2.43970       -2.97389        3.89740
| 10> H          2.06687       -1.41253        4.54981
| 11> H          5.47239       -1.91604        2.29664
| 12> H          3.96816       -2.65362        1.80030
| 13> H          4.89801       -3.35632        3.10209
| 14> *
| 15>
| 16> %MaxCore 64000
| 17>
| 18> %pal nprocs 18
| 19> end
| 20>
| 21> %scf
| 22>   MaxIter 150
| 23> end
| 24>
| 25>
| 26>                          ****END OF INPUT****

CARTESIAN COORDINATES (ANGSTROEM)
---------------------------------
  C      4.602950   -2.440100    2.634780
  C      3.860850   -1.591570    3.622890
  C      2.756500   -2.046160    4.166330
  N      4.254330   -0.362910    3.860460
  H      3.565260    0.310990    4.168980
  H      5.054290   -0.016060    3.337840
  H      2.439700   -2.973890    3.897400
  H      2.066870   -1.412530    4.549810
  H      5.472390   -1.916040    2.296640
  H      3.968160   -2.653620    1.800300
  H      4.898010   -3.356320    3.102090

 Total Charge           Charge          ....    0
 Multiplicity           Mult            ....    1
 Number of Electrons    NEL             ....   32
 Basis Dimension        Dim             ....  166

ORBITAL ENERGIES
----------------

  NO   OCC          E(Eh)            E(eV)
   0   2.0000     -14.420122      -392.3915
   1   2.0000     -10.295883      -280.1652
   2   2.0000     -10.265276      -279.3324
   3   2.0000     -10.198562      -277.5170
   4   2.0000      -1.050030       -28.5728
   5   2.0000      -0.873662       -23.7736
   6   2.0000      -0.803631       -21.8679
   7   2.0000      -0.675163       -18.3721
   8   2.0000      -0.627768       -17.0824
   9   2.0000      -0.574189       -15.6245
  10   2.0000      -0.533779       -14.5249
  11   2.0000      -0.496405       -13.5079
  12   2.0000      -0.483793       -13.1647
  13   2.0000      -0.456934       -12.4338
  14   2.0000      -0.426096       -11.5947
  15   2.0000      -0.277101        -7.5403
  16   0.0000       0.106741         2.9046
  17   0.0000       0.124594         3.3904
  18   0.0000       0.154418         4.2019
  19   0.0000       0.161841         4.4039
  20   0.0000       0.200213         5.4481

MULLIKEN ATOMIC CHARGES
-----------------------
   0 C :   -0.321419
   1 C :    0.211467
   2 C :   -0.427833
   3 N :   -0.486374
   4 H :    0.243470
   5 H :    0.232876
   6 H :    0.097126
   7 H :    0.088842
   8 H :    0.087431
   9 H :    0.136519
  10 H :    0.137895
Sum of atomic charges:    0.0000000

LOEWDIN ATOMIC CHARGES
----------------------
   0 C :   -0.242145
   1 C :   -0.391454
   2 C :   -0.285444
   3 N :   -0.008129
   4 H :    0.176145
   5 H :    0.169154
   6 H :    0.106153
   7 H :    0.097883
   8 H :    0.115101
   9 H :    0.130821
  10 H :    0.131916

  Mayer bond orders larger than 0.100000
B(  0-C ,  1-C ) :   0.9320 B(  0-C ,  8-H ) :   0.9847 B(  0-C ,  9-H ) :   0.9679
B(  0-C , 10-H ) :   0.9845 B(  1-C ,  2-C ) :   1.7704 B(  1-C ,  3-N ) :   1.1506
B(  2-C ,  6-H ) :   1.0026 B(  2-C ,  7-H ) :   0.9957 B(  3-N ,  4-H ) :   0.9184
B(  3-N ,  5-H ) :   0.9245

Dispersion correction           -0.001671841
FINAL SINGLE POINT ENERGY      -173.260732496008

DIPOLE MOMENT
-------------
                                X             Y             Z
Electronic contribution:      0.15444       1.47636       1.03771
Nuclear contribution   :      0.22927      -0.89318      -1.58153
                        -----------------------------------------
Total Dipole Moment    :      0.38371       0.58318      -0.54382
                        -----------------------------------------
Magnitude (a.u.)       :      0.88491
Magnitude (Debye)      :      2.24926

Rotational constants in cm-1:     0.356805     0.302813     0.169682
Rotational constants in MHz : 10696.748191  9078.116910  5086.926242

                             ****ORCA TERMINATED NORMALLY****
TOTAL RUN TIME: 0 days 0 hours 0 minutes 10 seconds 710 msec
