                         Program Version 5.0.0 -  RELEASE  -
|  1> !wB97X-D3 RIJCOSX def2-TZVP def2/J TightSCF
|  2> *xyz 0 1
|  3> C         -0.05915        1.50352        3.41058
|  4> C          1.08303        0.74964        4.08571
|  5> O          2.22817        1.26348        4.01983
|  6> F          0.81003       -0.34541        4.63627
|  7> H          0.31461        2.41205        2.98658
|  8> H         -0.81316        1.73160        4.13470
|  9> H         -0.47977        0.89552        2.63708
| 10> *
| 11>
| 12> %MaxCore 64000
| 13>
| 14> %pal nprocs 18
| 15> end
| 16>
| 17> %scf
| 18>   MaxIter 150
| 19> end
| 20>
| 21>
| 22>                          ****END OF INPUT****

CARTESIAN COORDINATES (ANGSTROEM)
---------------------------------
  C     -0.059150    1.503520    3.410580
  C      1.083030    0.749640    4.085710
  O      2.228170    1.263480    4.019830
  F      0.810030   -0.345410    4.636270
  H      0.314610    2.412050    2.986580
  H     -0.813160    1.731600    4.134700
  H     -0.479770    0.895520    2.637080

 Total Charge           Charge          ....    0
 Multiplicity           Mult            ....    1
 Number of Electrons    NEL             ....   32
 Basis Dimension        Dim             ....  142

ORBITAL ENERGIES
----------------

  NO   OCC          E(Eh)            E(eV)
   0   2.0000     -24.856722      -676.3858
   1   2.0000     -19.235281      -523.4186
   2   2.0000     -10.458926      -284.6019
   3   2.0000     -10.299333      -280.2591
   4   2.0000      -1.437147       -39.1068
   5   2.0000      -1.148188       -31.2438
   6   2.0000      -0.888974       -24.1902
   7   2.0000      -0.767807       -20.8931
   8   2.0000      -0.654237       -17.8027
   9   2.0000      -0.649818       -17.6824
  10   2.0000      -0.608172       -16.5492
  11   2.0000      -0.544717       -14.8225
  12   2.0000      -0.532735       -14.4965
  13   2.0000      -0.499533       -13.5930
  14   2.0000      -0.450094       -12.2477
  15   2.0000      -0.389364       -10.5951
  16   0.0000       0.061293         1.6679
  17   0.0000       0.117142         3.1876
  18   0.0000       0.188783         5.1370
  19   0.0000       0.189100         5.1457
  20   0.0000       0.206774         5.6266

MULLIKEN ATOMIC CHARGES
-----------------------
   0 C :   -0.347409
   1 C :    0.387738
   2 O :   -0.361950
   3 F :   -0.105654
   4 H :    0.152992
   5 H :    0.136550
   6 H :    0.137733
Sum of atomic charges:   -0.0000000

LOEWDIN ATOMIC CHARGES
----------------------
   0 C :   -0.260340
   1 C :   -0.511001
   2 O :    0.051825
   3 F :    0.321181
   4 H :    0.136093
   5 H :    0.130754
   6 H :    0.131487

  Mayer bond orders larger than 0.100000
B(  0-C ,  1-C ) :   1.0032 B(  0-C ,  4-H ) :   0.9707 B(  0-C ,  5-H ) :   0.9502
B(  0-C ,  6-H ) :   0.9494 B(  1-C ,  2-O ) :   2.0371 B(  1-C ,  3-F ) :   1.1553

Dispersion correction           -0.000897369
FINAL SINGLE POINT ENERGY      -253.120371606994

DIPOLE MOMENT
-------------
                                X             Y             Z
Electronic contribution:      2.37161      -3.66155       2.57975
Nuclear contribution   :     -3.54758       3.66189      -2.81789
                        -----------------------------------------
Total Dipole Moment    :     -1.17596       0.00034      -0.23814
                        -----------------------------------------
Magnitude (a.u.)       :      1.19983
Magnitude (Debye)      :      3.04974

Rotational constants in cm-1:     0.369278     0.321254     0.177365
Rotational constants in MHz : 11070.686557  9630.951649  5317.254673

                             ****ORCA TERMINATED NORMALLY****
TOTAL RUN TIME: 0 days 0 hours 0 minutes 7 seconds 948 msec
