                         Program Version 5.0.0 -  RELEASE  -
|  1> !wB97X-D3 RIJCOSX def2-TZVP def2/J TightSCF
|  2> *xyz 0 1
|  3> C          4.60295       -2.44010        2.63478
|  4> C          3.86085       -1.59157        3.62289
|  5> N          2.75650       -2.04616        4.16633
|  6> C          4.25433       -0.36291        3.86046
|  7> H          3.56526        0.31099        4.16898
|  8> H          5.05429       -0.01606        3.33784
|  9> H          2.43970       -2.97389        3.89740
| 10> H          2.06687       -1.41253        4.54981
| 11> H          5.47239       -1.91604        2.29664
| 12> H          3.96816       -2.65362        1.80030
| 13> H          4.89801       -3.35632        3.10209
| 14> *
| 15>
| 16> %MaxCore 64000
| 17>
| 18> %pal nprocs 18
| 19> end
| 20>
| 21> %scf
| 22>   MaxIter 150
| 23> end
| 24>
| 25>
| 26>                          ****END OF INPUT****

CARTESIAN COORDINATES (ANGSTROEM)
---------------------------------
  C      4.602950   -2.440100    2.634780
  C      3.860850   -1.591570    3.622890
  N      2.756500   -2.046160    4.166330
  C      4.254330   -0.362910    3.860460
  H      3.565260    0.310990    4.168980
  H      5.054290   -0.016060    3.337840
  H      2.439700   -2.973890    3.897400
  H      2.066870   -1.412530    4.549810
  H      5.472390   -1.916040    2.296640
  H      3.968160   -2.653620    1.800300
  H      4.898010   -3.356320    3.102090

 Total Charge           Charge          ....    0
 Multiplicity           Mult            ....    1
 Number of Electrons    NEL             ....   32
 Basis Dimension        Dim             ....  166

ORBITAL ENERGIES
----------------

  NO   OCC          E(Eh)            E(eV)
   0   2.0000     -14.420323      -392.3969
   1   2.0000     -10.297232      -280.2019
   2   2.0000     -10.265077      -279.3269
   3   2.0000     -10.200643      -277.5736
   4   2.0000      -1.049392       -28.5554
   5   2.0000      -0.874307       -23.7911
   6   2.0000      -0.804765       -21.8988
   7   2.0000      -0.678259       -18.4564
   8   2.0000      -0.626388       -17.0449
   9   2.0000      -0.573530       -15.6065
  10   2.0000      -0.535535       -14.5726
  11   2.0000      -0.495557       -13.4848
  12   2.0000      -0.485578       -13.2133
  13   2.0000      -0.455382       -12.3916
  14   2.0000      -0.424288       -11.5455
  15   2.0000      -0.279860        -7.6154
  16   0.0000       0.107421         2.9231
  17   0.0000       0.127482         3.4690
  18   0.0000       0.154091         4.1930
  19   0.0000       0.168835         4.5942
  20   0.0000       0.185729         5.0539

MULLIKEN ATOMIC CHARGES
-----------------------
   0 C :   -0.333227
   1 C :    0.222449
   2 N :   -0.496778
   3 C :   -0.407850
   4 H :    0.083943
   5 H :    0.087419
   6 H :    0.239604
   7 H :    0.243516
   8 H :    0.119404
   9 H :    0.123854
  10 H :    0.117666
Sum of atomic charges:   -0.0000000

LOEWDIN ATOMIC CHARGES
----------------------
   0 C :   -0.243265
   1 C :   -0.389722
   2 N :   -0.007671
   3 C :   -0.284730
   4 H :    0.099464
   5 H :    0.104734
   6 H :    0.171441
   7 H :    0.174520
   8 H :    0.130730
   9 H :    0.123681
  10 H :    0.120817

  Mayer bond orders larger than 0.100000
B(  0-C ,  1-C ) :   0.9527 B(  0-C ,  8-H ) :   0.9868 B(  0-C ,  9-H ) :   0.9652
B(  0-C , 10-H ) :   0.9746 B(  1-C ,  2-N ) :   1.1481 B(  1-C ,  3-C ) :   1.7718
B(  2-N ,  6-H ) :   0.9268 B(  2-N ,  7-H ) :   0.9185 B(  3-C ,  4-H ) :   0.9997
B(  3-C ,  5-H ) :   0.9968

Dispersion correction           -0.001684059
FINAL SINGLE POINT ENERGY      -173.261615067144

DIPOLE MOMENT
-------------
                                X             Y             Z
Electronic contribution:     -1.22027      -0.04892       1.35438
Nuclear contribution   :      0.56519      -0.51568      -1.65012
                        -----------------------------------------
Total Dipole Moment    :     -0.65509      -0.56460      -0.29574
                        -----------------------------------------
Magnitude (a.u.)       :      0.91399
Magnitude (Debye)      :      2.32319

Rotational constants in cm-1:     0.356673     0.303029     0.169717
Rotational constants in MHz : 10692.789749  9084.577259  5087.998414

                             ****ORCA TERMINATED NORMALLY****
TOTAL RUN TIME: 0 days 0 hours 0 minutes 10 seconds 89 msec
