                         Program Version 5.0.0 -  RELEASE  -
|  1> !wB97X-D3 RIJCOSX def2-TZVP def2/J TightSCF xyzfile
|  2>
|  3> *xyzfile 0 1 D3.xyz
|  4>
|  5> %MaxCore 64000
|  6>
|  7> %pal nprocs 18
|  8> end
|  9>
| 10> %scf
| 11>   MaxIter 150
| 12> end
| 13>
| 14>
| 15>                          ****END OF INPUT****

CARTESIAN COORDINATES (ANGSTROEM)
---------------------------------
  C      4.602954   -2.440100    2.634780
  C     -0.914947    0.615112    2.505538
  C     -0.059146    1.503524    3.410578
  H      0.365364    2.344315    2.861161
  H     -0.692261    1.920207    4.198985
  C      1.083027    0.749640    4.085705
  C      3.860851   -1.591565    3.622893
  C      2.756502   -2.046159    4.166333
  N      4.254325   -0.362905    3.860455
  H      3.565256    0.310994    4.168983
  H      5.054292   -0.016059    3.337838
  H      2.439696   -2.973894    3.897395
  H      2.066869   -1.412532    4.549813
  O      2.228167    1.263475    4.019826
  F      0.810034   -0.345411    4.636269
  C      3.744685   -2.580557    1.361882
  C      0.772139    0.636882    0.562129
  C     -0.130740   -0.193985    1.470763
  H     -0.840563   -0.760165    0.856377
  H      0.466691   -0.938942    2.006959
  H     -1.647961    1.245963    1.991076
  H     -1.478180   -0.081046    3.130424
  C      3.203721   -1.256004    0.826211
  H      2.898939   -3.239289    1.583074
  H      4.334962   -3.095523    0.600188
  C      2.107815   -1.442385   -0.216865
  H      2.786775   -0.672760    1.650711
  H      4.021008   -0.652993    0.414046
  C      1.390662   -0.145912   -0.602422
  H      1.372179   -2.152184    0.176151
  H      2.523302   -1.906787   -1.117115
  H      1.561361    1.100094    1.161831
  H      0.195516    1.468325    0.142758
  H      0.602893   -0.398214   -1.319716
  H      2.087247    0.508272   -1.137335
  H      5.561557   -1.971347    2.407084
  H      4.810498   -3.422552    3.063099

 Total Charge           Charge          ....    0
 Multiplicity           Mult            ....    1
 Number of Electrons    NEL             ....  118
 Basis Dimension        Dim             ....  597

ORBITAL ENERGIES
----------------

  NO   OCC          E(Eh)            E(eV)
   0   2.0000     -24.871013      -676.7747
   1   2.0000     -19.258200      -524.0423
   2   2.0000     -14.382540      -391.3688
   3   2.0000     -10.476574      -285.0821
   4   2.0000     -10.314121      -280.6615
   5   2.0000     -10.296125      -280.1718
   6   2.0000     -10.280057      -279.7346
   7   2.0000     -10.274330      -279.5787
   8   2.0000     -10.273583      -279.5584
   9   2.0000     -10.269414      -279.4450
  10   2.0000     -10.263314      -279.2790
  11   2.0000     -10.262134      -279.2469
  12   2.0000     -10.261606      -279.2325
  13   2.0000     -10.257591      -279.1232
  14   2.0000     -10.174751      -276.8690
  15   2.0000      -1.455900       -39.6170
  16   2.0000      -1.176018       -32.0011
  17   2.0000      -1.023758       -27.8579
  18   2.0000      -0.953426       -25.9440
  19   2.0000      -0.924086       -25.1457
  20   2.0000      -0.896870       -24.4051
  21   2.0000      -0.860650       -23.4195
  22   2.0000      -0.827363       -22.5137
  23   2.0000      -0.808175       -21.9916
  24   2.0000      -0.781433       -21.2639
  25   2.0000      -0.761562       -20.7232
  26   2.0000      -0.724994       -19.7281
  27   2.0000      -0.699652       -19.0385
  28   2.0000      -0.676251       -18.4017
  29   2.0000      -0.673601       -18.3296
  30   2.0000      -0.662115       -18.0171
  31   2.0000      -0.648168       -17.6375
  32   2.0000      -0.625121       -17.0104
  33   2.0000      -0.595557       -16.2059
  34   2.0000      -0.587571       -15.9886
  35   2.0000      -0.581303       -15.8181
  36   2.0000      -0.569416       -15.4946
  37   2.0000      -0.549331       -14.9481
  38   2.0000      -0.544872       -14.8267
  39   2.0000      -0.529997       -14.4219
  40   2.0000      -0.523347       -14.2410
  41   2.0000      -0.508098       -13.8261
  42   2.0000      -0.506205       -13.7745
  43   2.0000      -0.488414       -13.2904
  44   2.0000      -0.482517       -13.1300
  45   2.0000      -0.472183       -12.8488
  46   2.0000      -0.467346       -12.7171
  47   2.0000      -0.460252       -12.5241
  48   2.0000      -0.447700       -12.1825
  49   2.0000      -0.437299       -11.8995
  50   2.0000      -0.434053       -11.8112
  51   2.0000      -0.428154       -11.6507
  52   2.0000      -0.416419       -11.3313
  53   2.0000      -0.411510       -11.1978
  54   2.0000      -0.404061       -10.9951
  55   2.0000      -0.401143       -10.9157
  56   2.0000      -0.392918       -10.6918
  57   2.0000      -0.385107       -10.4793
  58   2.0000      -0.255919        -6.9639
  59   0.0000       0.038501         1.0477
  60   0.0000       0.101793         2.7699
  61   0.0000       0.121350         3.3021
  62   0.0000       0.123991         3.3740
  63   0.0000       0.128093         3.4856

MULLIKEN ATOMIC CHARGES
-----------------------
   0 C :   -0.208047
   1 C :   -0.208717
   2 C :   -0.217498
   3 H :    0.156660
   4 H :    0.146273
   5 C :    0.421441
   6 C :    0.179240
   7 C :   -0.446528
   8 N :   -0.448886
   9 H :    0.251137
  10 H :    0.217067
  11 H :    0.084485
  12 H :    0.093656
  13 O :   -0.397313
  14 F :   -0.095800
  15 C :   -0.168149
  16 C :   -0.275376
  17 C :   -0.254499
  18 H :    0.116859
  19 H :    0.140421
  20 H :    0.120321
  21 H :    0.125300
  22 C :   -0.252653
  23 H :    0.101848
  24 H :    0.095452
  25 C :   -0.182725
  26 H :    0.093346
  27 H :    0.090918
  28 C :   -0.172223
  29 H :    0.107262
  30 H :    0.105098
  31 H :    0.144364
  32 H :    0.107938
  33 H :    0.106186
  34 H :    0.102260
  35 H :    0.094673
  36 H :    0.126208
Sum of atomic charges:   -0.0000000

LOEWDIN ATOMIC CHARGES
----------------------
   0 C :   -0.211795
   1 C :   -0.263912
   2 C :   -0.225690
   3 H :    0.156354
   4 H :    0.156138
   5 C :   -0.465144
   6 C :   -0.382765
   7 C :   -0.302036
   8 N :    0.003616
   9 H :    0.147671
  10 H :    0.163192
  11 H :    0.102329
  12 H :    0.088646
  13 O :    0.072818
  14 F :    0.351993
  15 C :   -0.251768
  16 C :   -0.271914
  17 C :   -0.269447
  18 H :    0.141077
  19 H :    0.140750
  20 H :    0.142245
  21 H :    0.141340
  22 C :   -0.265006
  23 H :    0.136874
  24 H :    0.130884
  25 C :   -0.269608
  26 H :    0.141807
  27 H :    0.132712
  28 C :   -0.266120
  29 H :    0.135503
  30 H :    0.134637
  31 H :    0.137171
  32 H :    0.136005
  33 H :    0.135517
  34 H :    0.136059
  35 H :    0.132909
  36 H :    0.146960

  Mayer bond orders larger than 0.100000
B(  0-C ,  6-C ) :   0.9251 B(  0-C , 15-C ) :   0.9669 B(  0-C , 35-H ) :   0.9904
B(  0-C , 36-H ) :   0.9845 B(  1-C ,  2-C ) :   0.9425 B(  1-C , 17-C ) :   0.9691
B(  1-C , 20-H ) :   0.9722 B(  1-C , 21-H ) :   0.9805 B(  2-C ,  3-H ) :   0.9710
B(  2-C ,  4-H ) :   0.9462 B(  2-C ,  5-C ) :   0.9904 B(  5-C , 13-O ) :   1.9053
B(  5-C , 14-F ) :   1.1371 B(  6-C ,  7-C ) :   1.7244 B(  6-C ,  8-N ) :   1.2026
B(  7-C , 11-H ) :   1.0091 B(  7-C , 12-H ) :   1.0043 B(  8-N ,  9-H ) :   0.8652
B(  8-N , 10-H ) :   0.9322 B(  9-H , 13-O ) :   0.1033 B( 15-C , 22-C ) :   0.9643
B( 15-C , 23-H ) :   0.9806 B( 15-C , 24-H ) :   0.9742 B( 16-C , 17-C ) :   0.9154
B( 16-C , 28-C ) :   0.9842 B( 16-C , 31-H ) :   0.9743 B( 16-C , 32-H ) :   0.9725
B( 17-C , 18-H ) :   0.9726 B( 17-C , 19-H ) :   0.9786 B( 22-C , 25-C ) :   0.9686
B( 22-C , 26-H ) :   0.9891 B( 22-C , 27-H ) :   0.9661 B( 25-C , 28-C ) :   0.9673
B( 25-C , 29-H ) :   0.9818 B( 25-C , 30-H ) :   0.9764 B( 28-C , 33-H ) :   0.9830
B( 28-C , 34-H ) :   0.9826

Dispersion correction           -0.019741224
FINAL SINGLE POINT ENERGY      -700.388263833145

DIPOLE MOMENT
-------------
                                X             Y             Z
Electronic contribution:     -1.22048       4.76852      15.95163
Nuclear contribution   :      0.05905      -3.94566     -16.70013
                        -----------------------------------------
Total Dipole Moment    :     -1.16143       0.82287      -0.74850
                        -----------------------------------------
Magnitude (a.u.)       :      1.60819
Magnitude (Debye)      :      4.08771

Rotational constants in cm-1:     0.021602     0.017295     0.011353
Rotational constants in MHz :   647.614981   518.478934   340.359556

                             ****ORCA TERMINATED NORMALLY****
TOTAL RUN TIME: 0 days 0 hours 2 minutes 8 seconds 380 msec
