                         Program Version 5.0.0 -  RELEASE  -
|  1> !PBE0 D3BJ RIJCOSX def2-SVPD def2/J TightSCF
|  2> *xyz -1 1
|  3> C         -0.98480        1.28474       -2.92869
|  4> C         -0.10608        1.76991       -4.08984
|  5> H         -0.34774        2.82220       -4.26294
|  6> H          0.94968        1.74588       -3.80878
|  7> C         -0.25875        1.00432       -5.40983
|  8> C          0.39596       -0.37070       -5.33994
|  9> H          0.23915        1.56939       -6.20125
| 10> H         -1.30936        0.88869       -5.68245
| 11> O         -0.32633       -1.39040       -5.49128
| 12> O          1.61941       -0.40073       -5.03683
| 13> H         -2.01317        1.31546       -3.22263
| 14> H         -0.83724        1.91975       -2.08023
| 15> H         -0.71656        0.28077       -2.67373
| 16> *
| 17> %MaxCore 64000
| 18>
| 19> %pal nprocs 4
| 20> end
| 21>
| 22> %scf
| 23>   MaxIter 150
| 24> end
| 25>
| 26>
| 27>                          ****END OF INPUT****

CARTESIAN COORDINATES (ANGSTROEM)
---------------------------------
  C     -0.984800    1.284740   -2.928690
  C     -0.106080    1.769910   -4.089840
  H     -0.347740    2.822200   -4.262940
  H      0.949680    1.745880   -3.808780
  C     -0.258750    1.004320   -5.409830
  C      0.395960   -0.370700   -5.339940
  H      0.239150    1.569390   -6.201250
  H     -1.309360    0.888690   -5.682450
  O     -0.326330   -1.390400   -5.491280
  O      1.619410   -0.400730   -5.036830
  H     -2.013170    1.315460   -3.222630
  H     -0.837240    1.919750   -2.080230
  H     -0.716560    0.280770   -2.673730

 Total Charge           Charge          ....   -1
 Multiplicity           Mult            ....    1
 Number of Electrons    NEL             ....   48
 Basis Dimension        Dim             ....  182

ORBITAL ENERGIES
----------------

  NO   OCC          E(Eh)            E(eV)
   0   2.0000     -18.956349      -515.8285
   1   2.0000     -18.955315      -515.8004
   2   2.0000     -10.118261      -275.3319
   3   2.0000     -10.085420      -274.4382
   4   2.0000     -10.083717      -274.3919
   5   2.0000     -10.061380      -273.7841
   6   2.0000      -0.840503       -22.8713
   7   2.0000      -0.744722       -20.2649
   8   2.0000      -0.655563       -17.8388
   9   2.0000      -0.561698       -15.2846
  10   2.0000      -0.460380       -12.5276
  11   2.0000      -0.345428        -9.3996
  12   2.0000      -0.319364        -8.6903
  13   2.0000      -0.302072        -8.2198
  14   2.0000      -0.274229        -7.4622
  15   2.0000      -0.250669        -6.8211
  16   2.0000      -0.233069        -6.3421
  17   2.0000      -0.222434        -6.0527
  18   2.0000      -0.205058        -5.5799
  19   2.0000      -0.188980        -5.1424
  20   2.0000      -0.176774        -4.8103
  21   2.0000      -0.064027        -1.7423
  22   2.0000      -0.058265        -1.5855
  23   2.0000      -0.042957        -1.1689
  24   0.0000       0.151683         4.1275
  25   0.0000       0.177313         4.8249
  26   0.0000       0.191905         5.2220
  27   0.0000       0.205653         5.5961
  28   0.0000       0.228135         6.2079

MULLIKEN ATOMIC CHARGES
-----------------------
   0 C :    0.507268
   1 C :   -0.564509
   2 H :   -0.059584
   3 H :    0.040956
   4 C :   -0.067245
   5 C :    0.603813
   6 H :    0.050798
   7 H :    0.046961
   8 O :   -0.759753
   9 O :   -0.797238
  10 H :    0.023914
  11 H :   -0.021618
  12 H :   -0.003763
Sum of atomic charges:   -1.0000000

LOEWDIN ATOMIC CHARGES
----------------------
   0 C :    0.110065
   1 C :   -0.090893
   2 H :   -0.002602
   3 H :    0.011714
   4 C :   -0.003897
   5 C :   -0.293202
   6 H :    0.011867
   7 H :    0.005015
   8 O :   -0.337235
   9 O :   -0.334452
  10 H :   -0.026446
  11 H :   -0.035129
  12 H :   -0.014803

  Mayer bond orders larger than 0.100000
B(  0-C ,  1-C ) :   1.2991 B(  0-C , 10-H ) :   0.8172 B(  0-C , 11-H ) :   0.8069
B(  0-C , 12-H ) :   0.8656 B(  1-C ,  2-H ) :   0.9840 B(  1-C ,  3-H ) :   0.9435
B(  1-C ,  4-C ) :   1.2425 B(  1-C ,  6-H ) :   0.1188 B(  1-C ,  7-H ) :   0.1189
B(  1-C , 10-H ) :   0.1877 B(  1-C , 11-H ) :   0.1871 B(  1-C , 12-H ) :   0.1966
B(  3-H ,  4-C ) :   0.1412 B(  4-C ,  5-C ) :   1.0174 B(  4-C ,  6-H ) :   0.8574
B(  4-C ,  7-H ) :   0.9137 B(  5-C ,  7-H ) :   0.1730 B(  5-C ,  8-O ) :   1.3697
B(  5-C ,  9-O ) :   1.3746

Dispersion correction           -0.008217588
FINAL SINGLE POINT ENERGY      -306.604238405209

DIPOLE MOMENT
-------------
                                X             Y             Z
Electronic contribution:      3.12876      -5.65767      -3.87551
Nuclear contribution   :     -4.15791       7.87420       4.69333
                        -----------------------------------------
Total Dipole Moment    :     -1.02915       2.21654       0.81782
                        -----------------------------------------
Magnitude (a.u.)       :      2.57702
Magnitude (Debye)      :      6.55027

Rotational constants in cm-1:     0.200385     0.078723     0.072676
Rotational constants in MHz :  6007.394681  2360.059351  2178.761275

                             ****ORCA TERMINATED NORMALLY****
TOTAL RUN TIME: 0 days 0 hours 0 minutes 17 seconds 350 msec
