                         Program Version 5.0.0 -  RELEASE  -
|  1> !PBE0 D3BJ RIJCOSX def2-SVPD def2/J TightSCF
|  2> *xyz 1 1
|  3> C          0.81607       -2.10149       -2.18655
|  4> H          1.69623       -2.36869       -1.60046
|  5> N          1.10055       -2.46749       -3.59927
|  6> C          0.51624       -0.61363       -2.03937
|  7> H         -0.02007       -2.71285       -1.84084
|  8> C         -0.86862       -0.19392       -2.54630
|  9> H          1.70061       -1.75723       -4.07838
| 10> H          0.29386       -2.35977       -4.25632
| 11> H          1.50132       -3.42848       -3.69491
| 12> H          1.29904       -0.05680       -2.55898
| 13> H          0.61239       -0.36558       -0.97917
| 14> H         -0.95781       -0.43872       -3.58410
| 15> H         -0.99113        0.86113       -2.41690
| 16> H         -1.62334       -0.71130       -1.99167
| 17> *
| 18> %MaxCore 64000
| 19>
| 20> %pal nprocs 4
| 21> end
| 22>
| 23> %scf
| 24>   MaxIter 150
| 25> end
| 26>
| 27>
| 28>                          ****END OF INPUT****

CARTESIAN COORDINATES (ANGSTROEM)
---------------------------------
  C      0.816070   -2.101490   -2.186550
  H      1.696230   -2.368690   -1.600460
  N      1.100550   -2.467490   -3.599270
  C      0.516240   -0.613630   -2.039370
  H     -0.020070   -2.712850   -1.840840
  C     -0.868620   -0.193920   -2.546300
  H      1.700610   -1.757230   -4.078380
  H      0.293860   -2.359770   -4.256320
  H      1.501320   -3.428480   -3.694910
  H      1.299040   -0.056800   -2.558980
  H      0.612390   -0.365580   -0.979170
  H     -0.957810   -0.438720   -3.584100
  H     -0.991130    0.861130   -2.416900
  H     -1.623340   -0.711300   -1.991670

 Total Charge           Charge          ....    1
 Multiplicity           Mult            ....    1
 Number of Electrons    NEL             ....   34
 Basis Dimension        Dim             ....  160

ORBITAL ENERGIES
----------------

  NO   OCC          E(Eh)            E(eV)
   0   2.0000     -14.730156      -400.8279
   1   2.0000     -10.480666      -285.1934
   2   2.0000     -10.413472      -283.3650
   3   2.0000     -10.377055      -282.3740
   4   2.0000      -1.223460       -33.2920
   5   2.0000      -0.990525       -26.9535
   6   2.0000      -0.900644       -24.5078
   7   2.0000      -0.821921       -22.3656
   8   2.0000      -0.792352       -21.5610
   9   2.0000      -0.774965       -21.0879
  10   2.0000      -0.709918       -19.3179
  11   2.0000      -0.640283       -17.4230
  12   2.0000      -0.622594       -16.9416
  13   2.0000      -0.598739       -16.2925
  14   2.0000      -0.537886       -14.6366
  15   2.0000      -0.531440       -14.4612
  16   2.0000      -0.526626       -14.3302
  17   0.0000      -0.184126        -5.0103
  18   0.0000      -0.129373        -3.5204
  19   0.0000      -0.126133        -3.4323
  20   0.0000      -0.109231        -2.9723
  21   0.0000      -0.083352        -2.2681

MULLIKEN ATOMIC CHARGES
-----------------------
   0 C :    0.604822
   1 H :   -0.003093
   2 N :   -0.999981
   3 C :   -0.462235
   4 H :   -0.000622
   5 C :    0.598118
   6 H :    0.484127
   7 H :    0.371774
   8 H :    0.410952
   9 H :    0.002489
  10 H :   -0.001702
  11 H :   -0.091103
  12 H :    0.023526
  13 H :    0.062928
Sum of atomic charges:    1.0000000

LOEWDIN ATOMIC CHARGES
----------------------
   0 C :    0.083258
   1 H :    0.054012
   2 N :    0.305767
   3 C :   -0.049986
   4 H :    0.056879
   5 C :    0.148022
   6 H :    0.111913
   7 H :    0.106953
   8 H :    0.122171
   9 H :    0.030680
  10 H :    0.047073
  11 H :   -0.023327
  12 H :    0.006198
  13 H :    0.000388

  Mayer bond orders larger than 0.100000
B(  0-C ,  1-H ) :   0.9073 B(  0-C ,  2-N ) :   0.6336 B(  0-C ,  3-C ) :   1.1498
B(  0-C ,  4-H ) :   0.9048 B(  0-C , 10-H ) :   0.1015 B(  1-H ,  2-N ) :   0.1072
B(  2-N ,  4-H ) :   0.1227 B(  2-N ,  6-H ) :   0.6002 B(  2-N ,  7-H ) :   0.7643
B(  2-N ,  8-H ) :   0.6741 B(  3-C ,  5-C ) :   1.2744 B(  3-C ,  9-H ) :   0.9604
B(  3-C , 10-H ) :   0.9848 B(  3-C , 11-H ) :   0.1662 B(  3-C , 12-H ) :   0.1758
B(  3-C , 13-H ) :   0.1604 B(  5-C , 11-H ) :   0.8618 B(  5-C , 12-H ) :   0.8200
B(  5-C , 13-H ) :   0.8187

Dispersion correction           -0.007722304
FINAL SINGLE POINT ENERGY      -174.523171760857

DIPOLE MOMENT
-------------
                                X             Y             Z
Electronic contribution:      1.48644      -1.83954      -0.70258
Nuclear contribution   :     -0.52914       0.42437      -0.52967
                        -----------------------------------------
Total Dipole Moment    :      0.95731      -1.41518      -1.23225
                        -----------------------------------------
Magnitude (a.u.)       :      2.10656
Magnitude (Debye)      :      5.35446

Rotational constants in cm-1:     0.462856     0.150885     0.132529
Rotational constants in MHz : 13876.083919  4523.416930  3973.119974

                             ****ORCA TERMINATED NORMALLY****
TOTAL RUN TIME: 0 days 0 hours 0 minutes 12 seconds 396 msec
