                         Program Version 5.0.0 -  RELEASE  -
|  1> !PBE0 D3BJ RIJCOSX def2-SVPD def2/J TightSCF
|  2> *xyz 0 1
|  3> C         -0.98480        1.28474       -2.92869
|  4> C         -0.10608        1.76991       -4.08984
|  5> H         -0.34774        2.82220       -4.26294
|  6> H          0.94968        1.74588       -3.80878
|  7> C         -0.25875        1.00432       -5.40983
|  8> C          0.39596       -0.37070       -5.33994
|  9> H          0.23915        1.56939       -6.20125
| 10> H         -1.30936        0.88869       -5.68245
| 11> F         -0.32633       -1.39040       -5.49128
| 12> O          1.61941       -0.40073       -5.03683
| 13> H         -2.01317        1.31546       -3.22263
| 14> H         -0.83724        1.91975       -2.08023
| 15> H         -0.71656        0.28077       -2.67373
| 16> *
| 17> %MaxCore 64000
| 18>
| 19> %pal nprocs 4
| 20> end
| 21>
| 22> %scf
| 23>   MaxIter 150
| 24> end
| 25>
| 26>
| 27>                          ****END OF INPUT****

CARTESIAN COORDINATES (ANGSTROEM)
---------------------------------
  C     -0.984800    1.284740   -2.928690
  C     -0.106080    1.769910   -4.089840
  H     -0.347740    2.822200   -4.262940
  H      0.949680    1.745880   -3.808780
  C     -0.258750    1.004320   -5.409830
  C      0.395960   -0.370700   -5.339940
  H      0.239150    1.569390   -6.201250
  H     -1.309360    0.888690   -5.682450
  F     -0.326330   -1.390400   -5.491280
  O      1.619410   -0.400730   -5.036830
  H     -2.013170    1.315460   -3.222630
  H     -0.837240    1.919750   -2.080230
  H     -0.716560    0.280770   -2.673730

 Total Charge           Charge          ....    0
 Multiplicity           Mult            ....    1
 Number of Electrons    NEL             ....   48
 Basis Dimension        Dim             ....  182

ORBITAL ENERGIES
----------------

  NO   OCC          E(Eh)            E(eV)
   0   2.0000     -24.855973      -676.3654
   1   2.0000     -19.226035      -523.1670
   2   2.0000     -10.415581      -283.4224
   3   2.0000     -10.266200      -279.3575
   4   2.0000     -10.249637      -278.9068
   5   2.0000     -10.228978      -278.3446
   6   2.0000      -1.337961       -36.4078
   7   2.0000      -1.052024       -28.6270
   8   2.0000      -0.832389       -22.6505
   9   2.0000      -0.748931       -20.3794
  10   2.0000      -0.683074       -18.5874
  11   2.0000      -0.627863       -17.0850
  12   2.0000      -0.569077       -15.4854
  13   2.0000      -0.552656       -15.0385
  14   2.0000      -0.527843       -14.3633
  15   2.0000      -0.479377       -13.0445
  16   2.0000      -0.470866       -12.8129
  17   2.0000      -0.437487       -11.9046
  18   2.0000      -0.419386       -11.4121
  19   2.0000      -0.394248       -10.7280
  20   2.0000      -0.367726       -10.0063
  21   2.0000      -0.361919        -9.8483
  22   2.0000      -0.357679        -9.7329
  23   2.0000      -0.310271        -8.4429
  24   0.0000      -0.032275        -0.8783
  25   0.0000       0.020936         0.5697
  26   0.0000       0.048631         1.3233
  27   0.0000       0.055866         1.5202
  28   0.0000       0.064049         1.7429

MULLIKEN ATOMIC CHARGES
-----------------------
   0 C :    0.527367
   1 C :   -0.513725
   2 H :   -0.032188
   3 H :    0.043315
   4 C :   -0.130605
   5 C :    0.901025
   6 H :    0.098184
   7 H :    0.085589
   8 F :   -0.411715
   9 O :   -0.582255
  10 H :    0.040155
  11 H :   -0.002896
  12 H :   -0.022251
Sum of atomic charges:    0.0000000

LOEWDIN ATOMIC CHARGES
----------------------
   0 C :    0.128934
   1 C :   -0.065555
   2 H :    0.024335
   3 H :    0.026221
   4 C :    0.039180
   5 C :    0.006014
   6 H :    0.042866
   7 H :    0.026882
   8 F :   -0.041011
   9 O :   -0.144632
  10 H :   -0.014984
  11 H :   -0.013141
  12 H :   -0.015109

  Mayer bond orders larger than 0.100000
B(  0-C ,  1-C ) :   1.3267 B(  0-C , 10-H ) :   0.8091 B(  0-C , 11-H ) :   0.8088
B(  0-C , 12-H ) :   0.8681 B(  1-C ,  2-H ) :   0.9753 B(  1-C ,  3-H ) :   0.9398
B(  1-C ,  4-C ) :   1.2506 B(  1-C ,  6-H ) :   0.1169 B(  1-C ,  7-H ) :   0.1191
B(  1-C , 10-H ) :   0.1810 B(  1-C , 11-H ) :   0.1788 B(  1-C , 12-H ) :   0.1832
B(  3-H ,  4-C ) :   0.1180 B(  4-C ,  5-C ) :   1.0763 B(  4-C ,  6-H ) :   0.8571
B(  4-C ,  7-H ) :   0.9024 B(  5-C ,  8-F ) :   0.6614 B(  5-C ,  9-O ) :   1.7125

Dispersion correction           -0.007886585
FINAL SINGLE POINT ENERGY      -331.123803544253

DIPOLE MOMENT
-------------
                                X             Y             Z
Electronic contribution:      2.76039      -9.07930      -5.67345
Nuclear contribution   :     -3.72230       9.78546       5.57872
                        -----------------------------------------
Total Dipole Moment    :     -0.96191       0.70616      -0.09473
                        -----------------------------------------
Magnitude (a.u.)       :      1.19704
Magnitude (Debye)      :      3.04264

Rotational constants in cm-1:     0.192703     0.076176     0.069525
Rotational constants in MHz :  5777.081080  2283.698999  2084.312921

                             ****ORCA TERMINATED NORMALLY****
TOTAL RUN TIME: 0 days 0 hours 0 minutes 17 seconds 2 msec
