                         Program Version 5.0.0 -  RELEASE  -
|  1> !PBE0 D3BJ RIJCOSX def2-SVPD def2/J TightSCF
|  2> *xyz 0 1
|  3> C          0.81607       -2.10149       -2.18655
|  4> H          1.69623       -2.36869       -1.60046
|  5> C          1.10055       -2.46749       -3.59927
|  6> C          0.51624       -0.61363       -2.03937
|  7> H         -0.02007       -2.71285       -1.84084
|  8> C         -0.86862       -0.19392       -2.54630
|  9> H          1.70061       -1.75723       -4.07838
| 10> H          0.29386       -2.35977       -4.25632
| 11> H          1.50132       -3.42848       -3.69491
| 12> H          1.29904       -0.05680       -2.55898
| 13> H          0.61239       -0.36558       -0.97917
| 14> H         -0.95781       -0.43872       -3.58410
| 15> H         -0.99113        0.86113       -2.41690
| 16> H         -1.62334       -0.71130       -1.99167
| 17> *
| 18> %MaxCore 64000
| 19>
| 20> %pal nprocs 4
| 21> end
| 22>
| 23> %scf
| 24>   MaxIter 150
| 25> end
| 26>
| 27>
| 28>                          ****END OF INPUT****

CARTESIAN COORDINATES (ANGSTROEM)
---------------------------------
  C      0.816070   -2.101490   -2.186550
  H      1.696230   -2.368690   -1.600460
  C      1.100550   -2.467490   -3.599270
  C      0.516240   -0.613630   -2.039370
  H     -0.020070   -2.712850   -1.840840
  C     -0.868620   -0.193920   -2.546300
  H      1.700610   -1.757230   -4.078380
  H      0.293860   -2.359770   -4.256320
  H      1.501320   -3.428480   -3.694910
  H      1.299040   -0.056800   -2.558980
  H      0.612390   -0.365580   -0.979170
  H     -0.957810   -0.438720   -3.584100
  H     -0.991130    0.861130   -2.416900
  H     -1.623340   -0.711300   -1.991670

 Total Charge           Charge          ....    0
 Multiplicity           Mult            ....    1
 Number of Electrons    NEL             ....   34
 Basis Dimension        Dim             ....  160

ORBITAL ENERGIES
----------------

  NO   OCC          E(Eh)            E(eV)
   0   2.0000     -10.223257      -278.1890
   1   2.0000     -10.220221      -278.1063
   2   2.0000     -10.212991      -277.9096
   3   2.0000     -10.199008      -277.5291
   4   2.0000      -0.818398       -22.2697
   5   2.0000      -0.743154       -20.2222
   6   2.0000      -0.657766       -17.8987
   7   2.0000      -0.584496       -15.9050
   8   2.0000      -0.477056       -12.9813
   9   2.0000      -0.471131       -12.8201
  10   2.0000      -0.436369       -11.8742
  11   2.0000      -0.407538       -11.0897
  12   2.0000      -0.397692       -10.8217
  13   2.0000      -0.367468        -9.9993
  14   2.0000      -0.338851        -9.2206
  15   2.0000      -0.333844        -9.0844
  16   2.0000      -0.325915        -8.8686
  17   0.0000       0.032724         0.8905
  18   0.0000       0.059482         1.6186
  19   0.0000       0.059728         1.6253
  20   0.0000       0.067281         1.8308
  21   0.0000       0.106655         2.9022

MULLIKEN ATOMIC CHARGES
-----------------------
   0 C :   -0.312371
   1 H :   -0.029305
   2 C :    0.725997
   3 C :   -0.438551
   4 H :   -0.008272
   5 C :    0.580392
   6 H :   -0.084597
   7 H :   -0.210698
   8 H :   -0.123913
   9 H :    0.030893
  10 H :   -0.067846
  11 H :   -0.094177
  12 H :   -0.000305
  13 H :    0.032754
Sum of atomic charges:    0.0000000

LOEWDIN ATOMIC CHARGES
----------------------
   0 C :   -0.084968
   1 H :    0.023118
   2 C :    0.103618
   3 C :   -0.085596
   4 H :    0.025835
   5 C :    0.123725
   6 H :   -0.027375
   7 H :   -0.033511
   8 H :   -0.021152
   9 H :    0.019676
  10 H :    0.016036
  11 H :   -0.024802
  12 H :   -0.018862
  13 H :   -0.015742

  Mayer bond orders larger than 0.100000
B(  0-C ,  1-H ) :   0.9492 B(  0-C ,  2-C ) :   1.2629 B(  0-C ,  3-C ) :   1.1675
B(  0-C ,  4-H ) :   0.9330 B(  0-C ,  6-H ) :   0.1745 B(  0-C ,  7-H ) :   0.1780
B(  0-C ,  8-H ) :   0.1947 B(  0-C , 10-H ) :   0.1193 B(  2-C ,  4-H ) :   0.1093
B(  2-C ,  6-H ) :   0.7320 B(  2-C ,  7-H ) :   0.7515 B(  2-C ,  8-H ) :   0.7954
B(  3-C ,  4-H ) :   0.1028 B(  3-C ,  5-C ) :   1.2682 B(  3-C ,  9-H ) :   0.9275
B(  3-C , 10-H ) :   0.9991 B(  3-C , 11-H ) :   0.1850 B(  3-C , 12-H ) :   0.1763
B(  3-C , 13-H ) :   0.1743 B(  5-C , 11-H ) :   0.8722 B(  5-C , 12-H ) :   0.7999
B(  5-C , 13-H ) :   0.8182 B(  6-H ,  7-H ) :   0.2997

Dispersion correction           -0.007755184
FINAL SINGLE POINT ENERGY      -158.138915071541

DIPOLE MOMENT
-------------
                                X             Y             Z
Electronic contribution:      0.32151      -0.06735       0.83032
Nuclear contribution   :     -0.30980       0.07990      -0.83209
                        -----------------------------------------
Total Dipole Moment    :      0.01170       0.01255      -0.00177
                        -----------------------------------------
Magnitude (a.u.)       :      0.01725
Magnitude (Debye)      :      0.04385

Rotational constants in cm-1:     0.470198     0.157622     0.138278
Rotational constants in MHz : 14096.185772  4725.380109  4145.481686

                             ****ORCA TERMINATED NORMALLY****
TOTAL RUN TIME: 0 days 0 hours 0 minutes 11 seconds 623 msec
