                         Program Version 5.0.0 -  RELEASE  -
|  1> !PBE0 D3BJ RIJCOSX def2-SVPD def2/J TightSCF
|  2> *xyz 0 1
|  3> C         -0.98480        1.28474       -2.92869
|  4> C         -0.10608        1.76991       -4.08984
|  5> H         -0.34774        2.82220       -4.26294
|  6> H          0.94968        1.74588       -3.80878
|  7> C         -0.25875        1.00432       -5.40983
|  8> C          0.39596       -0.37070       -5.33994
|  9> H          0.23915        1.56939       -6.20125
| 10> H         -1.30936        0.88869       -5.68245
| 11> O         -0.32633       -1.39040       -5.49128
| 12> F          1.61941       -0.40073       -5.03683
| 13> H         -2.01317        1.31546       -3.22263
| 14> H         -0.83724        1.91975       -2.08023
| 15> H         -0.71656        0.28077       -2.67373
| 16> *
| 17> %MaxCore 64000
| 18>
| 19> %pal nprocs 4
| 20> end
| 21>
| 22> %scf
| 23>   MaxIter 150
| 24> end
| 25>
| 26>
| 27>                          ****END OF INPUT****

CARTESIAN COORDINATES (ANGSTROEM)
---------------------------------
  C     -0.984800    1.284740   -2.928690
  C     -0.106080    1.769910   -4.089840
  H     -0.347740    2.822200   -4.262940
  H      0.949680    1.745880   -3.808780
  C     -0.258750    1.004320   -5.409830
  C      0.395960   -0.370700   -5.339940
  H      0.239150    1.569390   -6.201250
  H     -1.309360    0.888690   -5.682450
  O     -0.326330   -1.390400   -5.491280
  F      1.619410   -0.400730   -5.036830
  H     -2.013170    1.315460   -3.222630
  H     -0.837240    1.919750   -2.080230
  H     -0.716560    0.280770   -2.673730

 Total Charge           Charge          ....    0
 Multiplicity           Mult            ....    1
 Number of Electrons    NEL             ....   48
 Basis Dimension        Dim             ....  182

ORBITAL ENERGIES
----------------

  NO   OCC          E(Eh)            E(eV)
   0   2.0000     -24.854865      -676.3353
   1   2.0000     -19.226444      -523.1781
   2   2.0000     -10.414519      -283.3935
   3   2.0000     -10.265891      -279.3491
   4   2.0000     -10.254790      -279.0470
   5   2.0000     -10.229752      -278.3657
   6   2.0000      -1.336610       -36.3710
   7   2.0000      -1.051765       -28.6200
   8   2.0000      -0.836627       -22.7658
   9   2.0000      -0.749255       -20.3883
  10   2.0000      -0.679833       -18.4992
  11   2.0000      -0.631696       -17.1893
  12   2.0000      -0.571144       -15.5416
  13   2.0000      -0.559356       -15.2208
  14   2.0000      -0.514341       -13.9959
  15   2.0000      -0.481155       -13.0929
  16   2.0000      -0.475366       -12.9354
  17   2.0000      -0.437926       -11.9166
  18   2.0000      -0.416817       -11.3422
  19   2.0000      -0.393435       -10.7059
  20   2.0000      -0.375822       -10.2266
  21   2.0000      -0.370189       -10.0734
  22   2.0000      -0.361058        -9.8249
  23   2.0000      -0.304975        -8.2988
  24   0.0000      -0.028383        -0.7724
  25   0.0000       0.018629         0.5069
  26   0.0000       0.048997         1.3333
  27   0.0000       0.058410         1.5894
  28   0.0000       0.058948         1.6041

MULLIKEN ATOMIC CHARGES
-----------------------
   0 C :    0.528421
   1 C :   -0.527392
   2 H :   -0.039813
   3 H :    0.030292
   4 C :   -0.110696
   5 C :    0.927101
   6 H :    0.100335
   7 H :    0.059793
   8 O :   -0.558339
   9 F :   -0.437892
  10 H :    0.041533
  11 H :    0.003736
  12 H :   -0.017080
Sum of atomic charges:   -0.0000000

LOEWDIN ATOMIC CHARGES
----------------------
   0 C :    0.131703
   1 C :   -0.072560
   2 H :    0.023499
   3 H :    0.021740
   4 C :    0.042858
   5 C :    0.000423
   6 H :    0.037894
   7 H :    0.038777
   8 O :   -0.142921
   9 F :   -0.042617
  10 H :   -0.011149
  11 H :   -0.013745
  12 H :   -0.013902

  Mayer bond orders larger than 0.100000
B(  0-C ,  1-C ) :   1.3306 B(  0-C , 10-H ) :   0.8134 B(  0-C , 11-H ) :   0.8091
B(  0-C , 12-H ) :   0.8649 B(  1-C ,  2-H ) :   0.9930 B(  1-C ,  3-H ) :   0.9263
B(  1-C ,  4-C ) :   1.2233 B(  1-C ,  6-H ) :   0.1126 B(  1-C ,  7-H ) :   0.1051
B(  1-C , 10-H ) :   0.1835 B(  1-C , 11-H ) :   0.1783 B(  1-C , 12-H ) :   0.1855
B(  3-H ,  4-C ) :   0.1086 B(  4-C ,  5-C ) :   1.0336 B(  4-C ,  6-H ) :   0.8506
B(  4-C ,  7-H ) :   0.9454 B(  5-C ,  7-H ) :   0.1153 B(  5-C ,  8-O ) :   1.7186
B(  5-C ,  9-F ) :   0.6379

Dispersion correction           -0.007862568
FINAL SINGLE POINT ENERGY      -331.124977240194

DIPOLE MOMENT
-------------
                                X             Y             Z
Electronic contribution:      6.04146      -7.37914      -4.89266
Nuclear contribution   :     -5.92016       8.66755       5.06539
                        -----------------------------------------
Total Dipole Moment    :      0.12130       1.28842       0.17273
                        -----------------------------------------
Magnitude (a.u.)       :      1.30559
Magnitude (Debye)      :      3.31855

Rotational constants in cm-1:     0.191324     0.076691     0.070269
Rotational constants in MHz :  5735.753800  2299.148675  2106.608556

                             ****ORCA TERMINATED NORMALLY****
TOTAL RUN TIME: 0 days 0 hours 0 minutes 16 seconds 329 msec
