                         Program Version 5.0.0 -  RELEASE  -
|  1> !PBE0 D3BJ RIJCOSX def2-TZVPD def2/J TightSCF
|  2> *xyz -1 1
|  3> C          0.96805        1.63064       -3.71575
|  4> C         -0.50835        1.72268       -4.12430
|  5> S         -1.32861        0.14674       -4.43578
|  6> H         -0.59151        2.29496       -5.04722
|  7> H         -1.11411        2.23561       -3.37436
|  8> O         -2.57135        0.47573       -5.06834
|  9> O         -1.51496       -0.40051       -3.06342
| 10> O         -0.37793       -0.62756       -5.20114
| 11> H          1.51840        1.12197       -4.47946
| 12> H          1.05062        1.08971       -2.79625
| 13> H          1.36450        2.61606       -3.58668
| 14> *
| 15> %MaxCore 64000
| 16>
| 17> %pal nprocs 4
| 18> end
| 19>
| 20> %scf
| 21>   MaxIter 150
| 22> end
| 23>
| 24>
| 25>                          ****END OF INPUT****

CARTESIAN COORDINATES (ANGSTROEM)
---------------------------------
  C      0.968050    1.630640   -3.715750
  C     -0.508350    1.722680   -4.124300
  S     -1.328610    0.146740   -4.435780
  H     -0.591510    2.294960   -5.047220
  H     -1.114110    2.235610   -3.374360
  O     -2.571350    0.475730   -5.068340
  O     -1.514960   -0.400510   -3.063420
  O     -0.377930   -0.627560   -5.201140
  H      1.518400    1.121970   -4.479460
  H      1.050620    1.089710   -2.796250
  H      1.364500    2.616060   -3.586680

 Total Charge           Charge          ....   -1
 Multiplicity           Mult            ....    1
 Number of Electrons    NEL             ....   58
 Basis Dimension        Dim             ....  285

ORBITAL ENERGIES
----------------

  NO   OCC          E(Eh)            E(eV)
   0   2.0000     -88.999400     -2421.7968
   1   2.0000     -18.989930      -516.7423
   2   2.0000     -18.986519      -516.6495
   3   2.0000     -18.971224      -516.2333
   4   2.0000     -10.079304      -274.2718
   5   2.0000     -10.072643      -274.0905
   6   2.0000      -7.945298      -216.2025
   7   2.0000      -5.882683      -160.0759
   8   2.0000      -5.881355      -160.0398
   9   2.0000      -5.881122      -160.0335
  10   2.0000      -0.953567       -25.9479
  11   2.0000      -0.827050       -22.5052
  12   2.0000      -0.796479       -21.6733
  13   2.0000      -0.649747       -17.6805
  14   2.0000      -0.522784       -14.2257
  15   2.0000      -0.396876       -10.7996
  16   2.0000      -0.328890        -8.9495
  17   2.0000      -0.327267        -8.9054
  18   2.0000      -0.288878        -7.8608
  19   2.0000      -0.276521        -7.5245
  20   2.0000      -0.268381        -7.3030
  21   2.0000      -0.238879        -6.5002
  22   2.0000      -0.223586        -6.0841
  23   2.0000      -0.167179        -4.5492
  24   2.0000      -0.166282        -4.5248
  25   2.0000      -0.133342        -3.6284
  26   2.0000      -0.121809        -3.3146
  27   2.0000      -0.108973        -2.9653
  28   2.0000      -0.078105        -2.1253
  29   0.0000       0.129976         3.5368
  30   0.0000       0.150222         4.0878
  31   0.0000       0.154595         4.2068
  32   0.0000       0.162554         4.4233
  33   0.0000       0.180668         4.9162

MULLIKEN ATOMIC CHARGES
-----------------------
   0 C :   -0.811762
   1 C :   -0.167144
   2 S :    1.086373
   3 H :    0.174779
   4 H :    0.162503
   5 O :   -0.656536
   6 O :   -0.723932
   7 O :   -0.680742
   8 H :    0.214959
   9 H :    0.214249
  10 H :    0.187254
Sum of atomic charges:   -1.0000000

LOEWDIN ATOMIC CHARGES
----------------------
   0 C :   -0.147198
   1 C :   -0.328102
   2 S :    0.336008
   3 H :    0.077325
   4 H :    0.082524
   5 O :   -0.378799
   6 O :   -0.422876
   7 O :   -0.382923
   8 H :    0.055821
   9 H :    0.060941
  10 H :    0.047278

  Mayer bond orders larger than 0.100000
B(  0-C ,  1-C ) :   0.8951 B(  0-C ,  8-H ) :   0.9886 B(  0-C ,  9-H ) :   0.9903
B(  0-C , 10-H ) :   0.9720 B(  1-C ,  2-S ) :   0.8324 B(  1-C ,  3-H ) :   0.9673
B(  1-C ,  4-H ) :   0.9731 B(  1-C ,  5-O ) :   0.1307 B(  1-C ,  6-O ) :   0.1197
B(  2-S ,  5-O ) :   1.5703 B(  2-S ,  6-O ) :   1.4971 B(  2-S ,  7-O ) :   1.5512

Dispersion correction           -0.008254975
FINAL SINGLE POINT ENERGY      -702.847204110803

DIPOLE MOMENT
-------------
                                X             Y             Z
Electronic contribution:     -5.60056      -5.31483      -1.93819
Nuclear contribution   :      6.64523       6.80157       2.07300
                        -----------------------------------------
Total Dipole Moment    :      1.04467       1.48675       0.13481
                        -----------------------------------------
Magnitude (a.u.)       :      1.82206
Magnitude (Debye)      :      4.63132

Rotational constants in cm-1:     0.163070     0.082807     0.081541
Rotational constants in MHz :  4888.719902  2482.497026  2444.541148

                             ****ORCA TERMINATED NORMALLY****
TOTAL RUN TIME: 0 days 0 hours 0 minutes 40 seconds 126 msec
