                         Program Version 5.0.0 -  RELEASE  -
|  1> !PBE0 D3BJ RIJCOSX def2-TZVPD def2/J TightSCF
|  2> *xyz 1 1
|  3> C          1.36401        0.46874       -2.81376
|  4> N          0.42884        0.32140       -1.65531
|  5> C          0.96805        1.63064       -3.71575
|  6> H          0.74858       -0.40054       -1.00134
|  7> H         -0.46105        0.02333       -2.07773
|  8> H          0.31026        1.20137       -1.13495
|  9> H          1.29485       -0.46874       -3.36468
| 10> H          2.37622        0.59740       -2.43149
| 11> H          1.65923        1.70213       -4.52942
| 12> H          0.98421        2.54058       -3.15304
| 13> H         -0.01744        1.46536       -4.09838
| 14> *
| 15> %MaxCore 64000
| 16>
| 17> %pal nprocs 4
| 18> end
| 19>
| 20> %scf
| 21>   MaxIter 150
| 22> end
| 23>
| 24>
| 25>                          ****END OF INPUT****

CARTESIAN COORDINATES (ANGSTROEM)
---------------------------------
  C      1.364010    0.468740   -2.813760
  N      0.428840    0.321400   -1.655310
  C      0.968050    1.630640   -3.715750
  H      0.748580   -0.400540   -1.001340
  H     -0.461050    0.023330   -2.077730
  H      0.310260    1.201370   -1.134950
  H      1.294850   -0.468740   -3.364680
  H      2.376220    0.597400   -2.431490
  H      1.659230    1.702130   -4.529420
  H      0.984210    2.540580   -3.153040
  H     -0.017440    1.465360   -4.098380

 Total Charge           Charge          ....    1
 Multiplicity           Mult            ....    1
 Number of Electrons    NEL             ....   26
 Basis Dimension        Dim             ....  183

ORBITAL ENERGIES
----------------

  NO   OCC          E(Eh)            E(eV)
   0   2.0000     -14.718685      -400.5158
   1   2.0000     -10.475996      -285.0663
   2   2.0000     -10.395387      -282.8729
   3   2.0000      -1.241602       -33.7857
   4   2.0000      -0.988518       -26.8989
   5   2.0000      -0.862476       -23.4692
   6   2.0000      -0.819373       -22.2963
   7   2.0000      -0.803543       -21.8655
   8   2.0000      -0.708324       -19.2745
   9   2.0000      -0.658104       -17.9079
  10   2.0000      -0.597611       -16.2618
  11   2.0000      -0.580433       -15.7944
  12   2.0000      -0.565262       -15.3815
  13   0.0000      -0.192107        -5.2275
  14   0.0000      -0.132803        -3.6137
  15   0.0000      -0.129430        -3.5220
  16   0.0000      -0.122823        -3.3422
  17   0.0000      -0.092236        -2.5099

MULLIKEN ATOMIC CHARGES
-----------------------
   0 C :   -0.198281
   1 N :   -0.211407
   2 C :   -0.775441
   3 H :    0.324410
   4 H :    0.341818
   5 H :    0.317952
   6 H :    0.217025
   7 H :    0.209306
   8 H :    0.209220
   9 H :    0.278603
  10 H :    0.286796
Sum of atomic charges:    1.0000000

LOEWDIN ATOMIC CHARGES
----------------------
   0 C :   -0.200375
   1 N :    0.184105
   2 C :   -0.056208
   3 H :    0.179283
   4 H :    0.180325
   5 H :    0.181702
   6 H :    0.135501
   7 H :    0.135221
   8 H :    0.094062
   9 H :    0.083257
  10 H :    0.083125

  Mayer bond orders larger than 0.100000
B(  0-C ,  1-N ) :   0.9937 B(  0-C ,  2-C ) :   0.8460 B(  0-C ,  6-H ) :   0.9478
B(  0-C ,  7-H ) :   0.9614 B(  1-N ,  3-H ) :   0.8785 B(  1-N ,  4-H ) :   0.8591
B(  1-N ,  5-H ) :   0.8789 B(  2-C ,  8-H ) :   1.0111 B(  2-C ,  9-H ) :   0.9356
B(  2-C , 10-H ) :   0.9280

Dispersion correction           -0.005023740
FINAL SINGLE POINT ENERGY      -135.423658487314

DIPOLE MOMENT
-------------
                                X             Y             Z
Electronic contribution:     -0.34106      -0.93900       1.55635
Nuclear contribution   :     -0.20470       0.31427      -0.31587
                        -----------------------------------------
Total Dipole Moment    :     -0.54576      -0.62474       1.24048
                        -----------------------------------------
Magnitude (a.u.)       :      1.49229
Magnitude (Debye)      :      3.79311

Rotational constants in cm-1:     1.011480     0.279280     0.248378
Rotational constants in MHz : 30323.408050  8372.602834  7446.185305

                             ****ORCA TERMINATED NORMALLY****
TOTAL RUN TIME: 0 days 0 hours 0 minutes 16 seconds 896 msec
