                         Program Version 5.0.0 -  RELEASE  -
|  1> !PBE0 D3BJ RIJCOSX def2-TZVPD def2/J TightSCF xyzfile
|  2>
|  3> *xyzfile 0 1 B.xyz
|  4>
|  5> %MaxCore 64000
|  6>
|  7> %pal nprocs 4
|  8> end
|  9>
| 10> %scf
| 11>   MaxIter 150
| 12> end
| 13>
| 14>
| 15>                          ****END OF INPUT****

CARTESIAN COORDINATES (ANGSTROEM)
---------------------------------
  C      1.364014    0.468742   -2.813764
  N      0.428844    0.321402   -1.655312
  C      0.968045    1.630639   -3.715749
  C     -0.508347    1.722679   -4.124300
  S     -1.328608    0.146737   -4.435781
  H     -0.591511    2.294958   -5.047219
  H     -1.114114    2.235610   -3.374362
  H      0.748578   -0.400542   -1.001345
  H     -0.461053    0.023332   -2.077731
  H      0.310258    1.201375   -1.134948
  O     -2.571347    0.475733   -5.068341
  O     -1.514963   -0.400512   -3.063420
  H      1.294847   -0.468742   -3.364684
  H      2.376216    0.597400   -2.431495
  H      1.578688    1.520652   -4.612733
  H      1.266653    2.575988   -3.250448
  O     -0.377928   -0.627558   -5.201141

 Total Charge           Charge          ....    0
 Multiplicity           Mult            ....    1
 Number of Electrons    NEL             ....   74
 Basis Dimension        Dim             ....  395

ORBITAL ENERGIES
----------------

  NO   OCC          E(Eh)            E(eV)
   0   2.0000     -89.167612     -2426.3741
   1   2.0000     -19.162491      -521.4379
   2   2.0000     -19.146326      -520.9980
   3   2.0000     -19.144232      -520.9411
   4   2.0000     -14.518224      -395.0610
   5   2.0000     -10.313445      -280.6431
   6   2.0000     -10.264873      -279.3214
   7   2.0000     -10.243463      -278.7388
   8   2.0000      -8.113687      -220.7846
   9   2.0000      -6.051352      -164.6657
  10   2.0000      -6.050157      -164.6331
  11   2.0000      -6.048764      -164.5952
  12   2.0000      -1.122748       -30.5515
  13   2.0000      -1.057603       -28.7788
  14   2.0000      -0.985026       -26.8039
  15   2.0000      -0.983424       -26.7603
  16   2.0000      -0.849468       -23.1152
  17   2.0000      -0.760260       -20.6877
  18   2.0000      -0.672975       -18.3126
  19   2.0000      -0.640796       -17.4369
  20   2.0000      -0.628076       -17.0908
  21   2.0000      -0.563298       -15.3281
  22   2.0000      -0.540233       -14.7005
  23   2.0000      -0.502845       -13.6831
  24   2.0000      -0.485853       -13.2207
  25   2.0000      -0.475601       -12.9417
  26   2.0000      -0.445651       -12.1268
  27   2.0000      -0.437132       -11.8950
  28   2.0000      -0.415372       -11.3028
  29   2.0000      -0.405462       -11.0332
  30   2.0000      -0.388955       -10.5840
  31   2.0000      -0.338563        -9.2128
  32   2.0000      -0.329834        -8.9752
  33   2.0000      -0.300322        -8.1722
  34   2.0000      -0.289615        -7.8808
  35   2.0000      -0.280219        -7.6252
  36   2.0000      -0.250204        -6.8084
  37   0.0000      -0.043709        -1.1894
  38   0.0000      -0.001325        -0.0361
  39   0.0000       0.002448         0.0666
  40   0.0000       0.028043         0.7631
  41   0.0000       0.040042         1.0896

MULLIKEN ATOMIC CHARGES
-----------------------
   0 C :   -0.532335
   1 N :   -0.023960
   2 C :   -0.010891
   3 C :   -0.464472
   4 S :    1.150529
   5 H :    0.121892
   6 H :    0.236674
   7 H :    0.334220
   8 H :    0.162421
   9 H :    0.326227
  10 O :   -0.606621
  11 O :   -0.803884
  12 H :    0.314901
  13 H :    0.162073
  14 H :    0.142928
  15 H :    0.137330
  16 O :   -0.647033
Sum of atomic charges:   -0.0000000

LOEWDIN ATOMIC CHARGES
----------------------
   0 C :   -0.169574
   1 N :    0.156183
   2 C :   -0.207043
   3 C :   -0.243463
   4 S :    0.420694
   5 H :    0.102641
   6 H :    0.098043
   7 H :    0.167749
   8 H :    0.028781
   9 H :    0.170779
  10 O :   -0.310755
  11 O :   -0.369328
  12 H :    0.123450
  13 H :    0.124283
  14 H :    0.122727
  15 H :    0.113180
  16 O :   -0.328349

  Mayer bond orders larger than 0.100000
B(  0-C ,  1-N ) :   1.0336 B(  0-C ,  2-C ) :   0.9464 B(  0-C , 12-H ) :   0.9109
B(  0-C , 13-H ) :   0.9572 B(  1-N ,  7-H ) :   0.8421 B(  1-N ,  8-H ) :   0.8622
B(  1-N ,  9-H ) :   0.8357 B(  2-C ,  3-C ) :   1.0442 B(  2-C , 14-H ) :   0.9025
B(  2-C , 15-H ) :   0.9315 B(  3-C ,  4-S ) :   0.8287 B(  3-C ,  5-H ) :   1.0263
B(  3-C ,  6-H ) :   0.9201 B(  3-C , 10-O ) :   0.1546 B(  3-C , 11-O ) :   0.1213
B(  4-S , 10-O ) :   1.6035 B(  4-S , 11-O ) :   1.3282 B(  4-S , 16-O ) :   1.5633
B(  8-H , 11-O ) :   0.2065

Dispersion correction           -0.015694283
FINAL SINGLE POINT ENERGY      -797.963988893800

DIPOLE MOMENT
-------------
                                X             Y             Z
Electronic contribution:     -6.92950      -4.15937      -4.30802
Nuclear contribution   :      9.95459       5.57517       7.68169
                        -----------------------------------------
Total Dipole Moment    :      3.02509       1.41580       3.37366
                        -----------------------------------------
Magnitude (a.u.)       :      4.74734
Magnitude (Debye)      :     12.06679

Rotational constants in cm-1:     0.102119     0.045768     0.041299
Rotational constants in MHz :  3061.441288  1372.093000  1238.124534

                             ****ORCA TERMINATED NORMALLY****
TOTAL RUN TIME: 0 days 0 hours 1 minutes 22 seconds 304 msec
