                         Program Version 5.0.0 -  RELEASE  -
|  1> !PBE0 D3BJ RIJCOSX def2-TZVPD def2/J TightSCF
|  2> *xyz 0 1
|  3> C          0.96805        1.63064       -3.71575
|  4> C         -0.50835        1.72268       -4.12430
|  5> S         -1.32861        0.14674       -4.43578
|  6> H         -0.59151        2.29496       -5.04722
|  7> H         -1.11411        2.23561       -3.37436
|  8> F         -2.57135        0.47573       -5.06834
|  9> O         -1.51496       -0.40051       -3.06342
| 10> O         -0.37793       -0.62756       -5.20114
| 11> H          1.51840        1.12197       -4.47946
| 12> H          1.05062        1.08971       -2.79625
| 13> H          1.36450        2.61606       -3.58668
| 14> *
| 15> %MaxCore 64000
| 16>
| 17> %pal nprocs 4
| 18> end
| 19>
| 20> %scf
| 21>   MaxIter 150
| 22> end
| 23>
| 24>
| 25>                          ****END OF INPUT****

CARTESIAN COORDINATES (ANGSTROEM)
---------------------------------
  C      0.968050    1.630640   -3.715750
  C     -0.508350    1.722680   -4.124300
  S     -1.328610    0.146740   -4.435780
  H     -0.591510    2.294960   -5.047220
  H     -1.114110    2.235610   -3.374360
  F     -2.571350    0.475730   -5.068340
  O     -1.514960   -0.400510   -3.063420
  O     -0.377930   -0.627560   -5.201140
  H      1.518400    1.121970   -4.479460
  H      1.050620    1.089710   -2.796250
  H      1.364500    2.616060   -3.586680

 Total Charge           Charge          ....    0
 Multiplicity           Mult            ....    1
 Number of Electrons    NEL             ....   58
 Basis Dimension        Dim             ....  285

ORBITAL ENERGIES
----------------

  NO   OCC          E(Eh)            E(eV)
   0   2.0000     -89.263417     -2428.9811
   1   2.0000     -24.900063      -677.5652
   2   2.0000     -19.221740      -523.0501
   3   2.0000     -19.206276      -522.6293
   4   2.0000     -10.281575      -279.7759
   5   2.0000     -10.236787      -278.5571
   6   2.0000      -8.209721      -223.3979
   7   2.0000      -6.149952      -167.3487
   8   2.0000      -6.143949      -167.1854
   9   2.0000      -6.143435      -167.1714
  10   2.0000      -1.426880       -38.8274
  11   2.0000      -1.132136       -30.8070
  12   2.0000      -1.030926       -28.0529
  13   2.0000      -0.840773       -22.8786
  14   2.0000      -0.762217       -20.7410
  15   2.0000      -0.696355       -18.9488
  16   2.0000      -0.613000       -16.6806
  17   2.0000      -0.610316       -16.6075
  18   2.0000      -0.574148       -15.6234
  19   2.0000      -0.505891       -13.7660
  20   2.0000      -0.498035       -13.5522
  21   2.0000      -0.459043       -12.4912
  22   2.0000      -0.443475       -12.0676
  23   2.0000      -0.420108       -11.4317
  24   2.0000      -0.400131       -10.8881
  25   2.0000      -0.398159       -10.8345
  26   2.0000      -0.348892        -9.4938
  27   2.0000      -0.332123        -9.0375
  28   2.0000      -0.319322        -8.6892
  29   0.0000      -0.004431        -0.1206
  30   0.0000       0.015753         0.4287
  31   0.0000       0.028557         0.7771
  32   0.0000       0.031455         0.8559
  33   0.0000       0.048706         1.3254

MULLIKEN ATOMIC CHARGES
-----------------------
   0 C :   -0.850322
   1 C :   -0.162782
   2 S :    1.032672
   3 H :    0.232066
   4 H :    0.224340
   5 F :   -0.084197
   6 O :   -0.564413
   7 O :   -0.532374
   8 H :    0.254705
   9 H :    0.250951
  10 H :    0.199354
Sum of atomic charges:   -0.0000000

LOEWDIN ATOMIC CHARGES
----------------------
   0 C :   -0.101029
   1 C :   -0.285428
   2 S :    0.586223
   3 H :    0.094401
   4 H :    0.100581
   5 F :   -0.042303
   6 O :   -0.305146
   7 O :   -0.270356
   8 H :    0.071761
   9 H :    0.077123
  10 H :    0.074171

  Mayer bond orders larger than 0.100000
B(  0-C ,  1-C ) :   0.9493 B(  0-C ,  8-H ) :   0.9563 B(  0-C ,  9-H ) :   0.9608
B(  0-C , 10-H ) :   0.9709 B(  1-C ,  2-S ) :   0.8310 B(  1-C ,  3-H ) :   0.9065
B(  1-C ,  4-H ) :   0.9275 B(  2-S ,  5-F ) :   1.0721 B(  2-S ,  6-O ) :   1.6980
B(  2-S ,  7-O ) :   1.7556

Dispersion correction           -0.007893210
FINAL SINGLE POINT ENERGY      -727.347693916776

DIPOLE MOMENT
-------------
                                X             Y             Z
Electronic contribution:     -8.31738      -5.15638      -3.23080
Nuclear contribution   :      8.31000       6.74109       2.87442
                        -----------------------------------------
Total Dipole Moment    :     -0.00737       1.58471      -0.35638
                        -----------------------------------------
Magnitude (a.u.)       :      1.62431
Magnitude (Debye)      :      4.12866

Rotational constants in cm-1:     0.158705     0.080192     0.078179
Rotational constants in MHz :  4757.865601  2404.095079  2343.752507

                             ****ORCA TERMINATED NORMALLY****
TOTAL RUN TIME: 0 days 0 hours 0 minutes 45 seconds 723 msec
