                         Program Version 5.0.0 -  RELEASE  -
|  1> !PBE0 D3BJ RIJCOSX def2-TZVPD def2/J TightSCF
|  2> *xyz 0 1
|  3> C          1.36401        0.46874       -2.81376
|  4> C          0.42884        0.32140       -1.65531
|  5> C          0.96805        1.63064       -3.71575
|  6> H          0.74858       -0.40054       -1.00134
|  7> H         -0.46105        0.02333       -2.07773
|  8> H          0.31026        1.20137       -1.13495
|  9> H          1.29485       -0.46874       -3.36468
| 10> H          2.37622        0.59740       -2.43149
| 11> H          1.65923        1.70213       -4.52942
| 12> H          0.98421        2.54058       -3.15304
| 13> H         -0.01744        1.46536       -4.09838
| 14> *
| 15> %MaxCore 64000
| 16>
| 17> %pal nprocs 4
| 18> end
| 19>
| 20> %scf
| 21>   MaxIter 150
| 22> end
| 23>
| 24>
| 25>                          ****END OF INPUT****

CARTESIAN COORDINATES (ANGSTROEM)
---------------------------------
  C      1.364010    0.468740   -2.813760
  C      0.428840    0.321400   -1.655310
  C      0.968050    1.630640   -3.715750
  H      0.748580   -0.400540   -1.001340
  H     -0.461050    0.023330   -2.077730
  H      0.310260    1.201370   -1.134950
  H      1.294850   -0.468740   -3.364680
  H      2.376220    0.597400   -2.431490
  H      1.659230    1.702130   -4.529420
  H      0.984210    2.540580   -3.153040
  H     -0.017440    1.465360   -4.098380

 Total Charge           Charge          ....    0
 Multiplicity           Mult            ....    1
 Number of Electrons    NEL             ....   26
 Basis Dimension        Dim             ....  183

ORBITAL ENERGIES
----------------

  NO   OCC          E(Eh)            E(eV)
   0   2.0000     -10.206922      -277.7445
   1   2.0000     -10.196498      -277.4608
   2   2.0000     -10.178354      -276.9671
   3   2.0000      -0.814576       -22.1657
   4   2.0000      -0.710558       -19.3353
   5   2.0000      -0.601732       -16.3740
   6   2.0000      -0.484537       -13.1849
   7   2.0000      -0.458045       -12.4640
   8   2.0000      -0.414810       -11.2876
   9   2.0000      -0.402544       -10.9538
  10   2.0000      -0.348032        -9.4704
  11   2.0000      -0.343276        -9.3410
  12   2.0000      -0.339230        -9.2309
  13   0.0000       0.020416         0.5555
  14   0.0000       0.044682         1.2159
  15   0.0000       0.047708         1.2982
  16   0.0000       0.067065         1.8249
  17   0.0000       0.087983         2.3941

MULLIKEN ATOMIC CHARGES
-----------------------
   0 C :    0.188801
   1 C :   -0.923300
   2 C :   -0.805631
   3 H :    0.200472
   4 H :    0.235563
   5 H :    0.245820
   6 H :    0.118100
   7 H :    0.128274
   8 H :    0.166145
   9 H :    0.221991
  10 H :    0.223765
Sum of atomic charges:    0.0000000

LOEWDIN ATOMIC CHARGES
----------------------
   0 C :   -0.318922
   1 C :   -0.125437
   2 C :   -0.118602
   3 H :    0.050553
   4 H :    0.056260
   5 H :    0.055751
   6 H :    0.103420
   7 H :    0.102106
   8 H :    0.061375
   9 H :    0.066488
  10 H :    0.067007

  Mayer bond orders larger than 0.100000
B(  0-C ,  1-C ) :   0.7423 B(  0-C ,  2-C ) :   0.7598 B(  0-C ,  6-H ) :   0.9791
B(  0-C ,  7-H ) :   0.9754 B(  1-C ,  2-C ) :   0.1956 B(  1-C ,  3-H ) :   1.0268
B(  1-C ,  4-H ) :   1.0008 B(  1-C ,  5-H ) :   0.9666 B(  2-C ,  8-H ) :   1.0307
B(  2-C ,  9-H ) :   0.9905 B(  2-C , 10-H ) :   0.9846

Dispersion correction           -0.005043461
FINAL SINGLE POINT ENERGY      -119.020807143801

DIPOLE MOMENT
-------------
                                X             Y             Z
Electronic contribution:      0.36654      -0.18467      -0.01705
Nuclear contribution   :     -0.35842       0.15752       0.02695
                        -----------------------------------------
Total Dipole Moment    :      0.00812      -0.02715       0.00990
                        -----------------------------------------
Magnitude (a.u.)       :      0.03002
Magnitude (Debye)      :      0.07630

Rotational constants in cm-1:     1.019891     0.293671     0.260247
Rotational constants in MHz : 30575.551403  8804.039097  7802.009261

                             ****ORCA TERMINATED NORMALLY****
TOTAL RUN TIME: 0 days 0 hours 0 minutes 18 seconds 276 msec
