                         Program Version 5.0.0 -  RELEASE  -
|  1> !PBE0 D3BJ RIJCOSX def2-TZVPD def2/J TightSCF
|  2> *xyz 0 1
|  3> C          0.96805        1.63064       -3.71575
|  4> C         -0.50835        1.72268       -4.12430
|  5> S         -1.32861        0.14674       -4.43578
|  6> H         -0.59151        2.29496       -5.04722
|  7> H         -1.11411        2.23561       -3.37436
|  8> O         -2.57135        0.47573       -5.06834
|  9> F         -1.51496       -0.40051       -3.06342
| 10> O         -0.37793       -0.62756       -5.20114
| 11> H          1.51840        1.12197       -4.47946
| 12> H          1.05062        1.08971       -2.79625
| 13> H          1.36450        2.61606       -3.58668
| 14> *
| 15> %MaxCore 64000
| 16>
| 17> %pal nprocs 4
| 18> end
| 19>
| 20> %scf
| 21>   MaxIter 150
| 22> end
| 23>
| 24>
| 25>                          ****END OF INPUT****

CARTESIAN COORDINATES (ANGSTROEM)
---------------------------------
  C      0.968050    1.630640   -3.715750
  C     -0.508350    1.722680   -4.124300
  S     -1.328610    0.146740   -4.435780
  H     -0.591510    2.294960   -5.047220
  H     -1.114110    2.235610   -3.374360
  O     -2.571350    0.475730   -5.068340
  F     -1.514960   -0.400510   -3.063420
  O     -0.377930   -0.627560   -5.201140
  H      1.518400    1.121970   -4.479460
  H      1.050620    1.089710   -2.796250
  H      1.364500    2.616060   -3.586680

 Total Charge           Charge          ....    0
 Multiplicity           Mult            ....    1
 Number of Electrons    NEL             ....   58
 Basis Dimension        Dim             ....  285

ORBITAL ENERGIES
----------------

  NO   OCC          E(Eh)            E(eV)
   0   2.0000     -89.260201     -2428.8936
   1   2.0000     -24.870842      -676.7700
   2   2.0000     -19.224795      -523.1333
   3   2.0000     -19.221358      -523.0397
   4   2.0000     -10.280622      -279.7500
   5   2.0000     -10.238045      -278.5914
   6   2.0000      -8.206592      -223.3127
   7   2.0000      -6.146988      -167.2681
   8   2.0000      -6.140938      -167.1034
   9   2.0000      -6.140203      -167.0834
  10   2.0000      -1.379510       -37.5384
  11   2.0000      -1.147718       -31.2310
  12   2.0000      -1.057155       -28.7667
  13   2.0000      -0.842302       -22.9202
  14   2.0000      -0.741934       -20.1891
  15   2.0000      -0.688862       -18.7449
  16   2.0000      -0.593308       -16.1447
  17   2.0000      -0.579280       -15.7630
  18   2.0000      -0.566515       -15.4157
  19   2.0000      -0.507586       -13.8121
  20   2.0000      -0.492428       -13.3996
  21   2.0000      -0.474826       -12.9207
  22   2.0000      -0.448581       -12.2065
  23   2.0000      -0.420123       -11.4321
  24   2.0000      -0.415954       -11.3187
  25   2.0000      -0.395788       -10.7699
  26   2.0000      -0.358942        -9.7673
  27   2.0000      -0.346484        -9.4283
  28   2.0000      -0.339164        -9.2291
  29   0.0000      -0.004683        -0.1274
  30   0.0000       0.022387         0.6092
  31   0.0000       0.028234         0.7683
  32   0.0000       0.030375         0.8265
  33   0.0000       0.049299         1.3415

MULLIKEN ATOMIC CHARGES
-----------------------
   0 C :   -0.827676
   1 C :   -0.153029
   2 S :    1.033043
   3 H :    0.213633
   4 H :    0.232329
   5 O :   -0.517725
   6 F :   -0.146303
   7 O :   -0.535502
   8 H :    0.252499
   9 H :    0.252092
  10 H :    0.196640
Sum of atomic charges:    0.0000000

LOEWDIN ATOMIC CHARGES
----------------------
   0 C :   -0.111757
   1 C :   -0.275873
   2 S :    0.585436
   3 H :    0.106365
   4 H :    0.100088
   5 O :   -0.263580
   6 F :   -0.086492
   7 O :   -0.268411
   8 H :    0.070577
   9 H :    0.071404
  10 H :    0.072242

  Mayer bond orders larger than 0.100000
B(  0-C ,  1-C ) :   0.9101 B(  0-C ,  8-H ) :   0.9800 B(  0-C ,  9-H ) :   0.9414
B(  0-C , 10-H ) :   0.9825 B(  1-C ,  2-S ) :   0.8265 B(  1-C ,  3-H ) :   0.9374
B(  1-C ,  4-H ) :   0.9219 B(  1-C ,  5-O ) :   0.1022 B(  2-S ,  5-O ) :   1.7694
B(  2-S ,  6-F ) :   1.0052 B(  2-S ,  7-O ) :   1.7541

Dispersion correction           -0.007858204
FINAL SINGLE POINT ENERGY      -727.371661049392

DIPOLE MOMENT
-------------
                                X             Y             Z
Electronic contribution:     -6.54587      -6.63752       0.16801
Nuclear contribution   :      7.20921       7.65416       0.78523
                        -----------------------------------------
Total Dipole Moment    :      0.66334       1.01663       0.95325
                        -----------------------------------------
Magnitude (a.u.)       :      1.54345
Magnitude (Debye)      :      3.92315

Rotational constants in cm-1:     0.153780     0.081282     0.079816
Rotational constants in MHz :  4610.199589  2436.778679  2392.820729

                             ****ORCA TERMINATED NORMALLY****
TOTAL RUN TIME: 0 days 0 hours 0 minutes 42 seconds 419 msec
