                         Program Version 5.0.0 -  RELEASE  -
|  1> !PBE0 D3BJ RIJCOSX def2-TZVPD def2/J TightSCF
|  2> *xyz 0 1
|  3> C          0.96805        1.63064       -3.71575
|  4> C         -0.50835        1.72268       -4.12430
|  5> S         -1.32861        0.14674       -4.43578
|  6> H         -0.59151        2.29496       -5.04722
|  7> H         -1.11411        2.23561       -3.37436
|  8> O         -2.57135        0.47573       -5.06834
|  9> O         -1.51496       -0.40051       -3.06342
| 10> F         -0.37793       -0.62756       -5.20114
| 11> H          1.51840        1.12197       -4.47946
| 12> H          1.05062        1.08971       -2.79625
| 13> H          1.36450        2.61606       -3.58668
| 14> *
| 15> %MaxCore 64000
| 16>
| 17> %pal nprocs 4
| 18> end
| 19>
| 20> %scf
| 21>   MaxIter 150
| 22> end
| 23>
| 24>
| 25>                          ****END OF INPUT****

CARTESIAN COORDINATES (ANGSTROEM)
---------------------------------
  C      0.968050    1.630640   -3.715750
  C     -0.508350    1.722680   -4.124300
  S     -1.328610    0.146740   -4.435780
  H     -0.591510    2.294960   -5.047220
  H     -1.114110    2.235610   -3.374360
  O     -2.571350    0.475730   -5.068340
  O     -1.514960   -0.400510   -3.063420
  F     -0.377930   -0.627560   -5.201140
  H      1.518400    1.121970   -4.479460
  H      1.050620    1.089710   -2.796250
  H      1.364500    2.616060   -3.586680

 Total Charge           Charge          ....    0
 Multiplicity           Mult            ....    1
 Number of Electrons    NEL             ....   58
 Basis Dimension        Dim             ....  285

ORBITAL ENERGIES
----------------

  NO   OCC          E(Eh)            E(eV)
   0   2.0000     -89.262636     -2428.9598
   1   2.0000     -24.893862      -677.3964
   2   2.0000     -19.225366      -523.1488
   3   2.0000     -19.206354      -522.6315
   4   2.0000     -10.281392      -279.7709
   5   2.0000     -10.241615      -278.6885
   6   2.0000      -8.208975      -223.3776
   7   2.0000      -6.149370      -167.3329
   8   2.0000      -6.143107      -167.1624
   9   2.0000      -6.142666      -167.1504
  10   2.0000      -1.416269       -38.5386
  11   2.0000      -1.138240       -30.9731
  12   2.0000      -1.033771       -28.1303
  13   2.0000      -0.844627       -22.9835
  14   2.0000      -0.755141       -20.5484
  15   2.0000      -0.698592       -19.0097
  16   2.0000      -0.615423       -16.7465
  17   2.0000      -0.604893       -16.4600
  18   2.0000      -0.565959       -15.4005
  19   2.0000      -0.507646       -13.8137
  20   2.0000      -0.492542       -13.4027
  21   2.0000      -0.467726       -12.7275
  22   2.0000      -0.452774       -12.3206
  23   2.0000      -0.424163       -11.5421
  24   2.0000      -0.409458       -11.1419
  25   2.0000      -0.396596       -10.7919
  26   2.0000      -0.351708        -9.5705
  27   2.0000      -0.332827        -9.0567
  28   2.0000      -0.322256        -8.7690
  29   0.0000      -0.008089        -0.2201
  30   0.0000       0.021098         0.5741
  31   0.0000       0.026462         0.7201
  32   0.0000       0.031118         0.8468
  33   0.0000       0.048602         1.3225

MULLIKEN ATOMIC CHARGES
-----------------------
   0 C :   -0.858361
   1 C :   -0.117095
   2 S :    1.021727
   3 H :    0.226424
   4 H :    0.203192
   5 O :   -0.509823
   6 O :   -0.567403
   7 F :   -0.110408
   8 H :    0.261365
   9 H :    0.255835
  10 H :    0.194547
Sum of atomic charges:    0.0000000

LOEWDIN ATOMIC CHARGES
----------------------
   0 C :   -0.112569
   1 C :   -0.276007
   2 S :    0.583991
   3 H :    0.097324
   4 H :    0.111003
   5 O :   -0.262645
   6 O :   -0.304071
   7 F :   -0.050729
   8 H :    0.066814
   9 H :    0.074093
  10 H :    0.072797

  Mayer bond orders larger than 0.100000
B(  0-C ,  1-C ) :   0.8836 B(  0-C ,  8-H ) :   0.9344 B(  0-C ,  9-H ) :   0.9810
B(  0-C , 10-H ) :   0.9848 B(  1-C ,  2-S ) :   0.8202 B(  1-C ,  3-H ) :   0.9406
B(  1-C ,  4-H ) :   0.9406 B(  2-S ,  5-O ) :   1.7762 B(  2-S ,  6-O ) :   1.7029
B(  2-S ,  7-F ) :   1.0632

Dispersion correction           -0.007845164
FINAL SINGLE POINT ENERGY      -727.352488252885

DIPOLE MOMENT
-------------
                                X             Y             Z
Electronic contribution:     -4.62825      -6.99473      -3.44128
Nuclear contribution   :      6.02439       7.89075       3.01280
                        -----------------------------------------
Total Dipole Moment    :      1.39614       0.89602      -0.42848
                        -----------------------------------------
Magnitude (a.u.)       :      1.71337
Magnitude (Debye)      :      4.35505

Rotational constants in cm-1:     0.153652     0.082400     0.079295
Rotational constants in MHz :  4606.361242  2470.285703  2377.214112

                             ****ORCA TERMINATED NORMALLY****
TOTAL RUN TIME: 0 days 0 hours 0 minutes 46 seconds 850 msec
