                         Program Version 5.0.0 -  RELEASE  -
|  1> !PBE0 D3BJ RIJCOSX def2-TZVPD def2/J TightSCF xyzfile
|  2>
|  3> *xyzfile 0 1 D1.xyz
|  4>
|  5> %MaxCore 64000
|  6>
|  7> %pal nprocs 4
|  8> end
|  9>
| 10> %scf
| 11>   MaxIter 150
| 12> end
| 13>
| 14>
| 15>                          ****END OF INPUT****

CARTESIAN COORDINATES (ANGSTROEM)
---------------------------------
  C      1.364014    0.468742   -2.813764
  C      0.428844    0.321402   -1.655312
  C      0.968045    1.630639   -3.715749
  C     -0.508347    1.722679   -4.124300
  S     -1.328608    0.146737   -4.435781
  H     -0.591511    2.294958   -5.047219
  H     -1.114114    2.235610   -3.374362
  H      0.748578   -0.400542   -1.001345
  H     -0.461053    0.023332   -2.077731
  H      0.310258    1.201375   -1.134948
  F     -2.571347    0.475733   -5.068341
  O     -1.514963   -0.400512   -3.063420
  H      1.294847   -0.468742   -3.364684
  H      2.376216    0.597400   -2.431495
  H      1.578688    1.520652   -4.612733
  H      1.266653    2.575988   -3.250448
  O     -0.377928   -0.627558   -5.201141

 Total Charge           Charge          ....    0
 Multiplicity           Mult            ....    1
 Number of Electrons    NEL             ....   74
 Basis Dimension        Dim             ....  395

ORBITAL ENERGIES
----------------

  NO   OCC          E(Eh)            E(eV)
   0   2.0000     -89.269334     -2429.1421
   1   2.0000     -24.903324      -677.6539
   2   2.0000     -19.226524      -523.1803
   3   2.0000     -19.214291      -522.8474
   4   2.0000     -10.282145      -279.7914
   5   2.0000     -10.242862      -278.7224
   6   2.0000     -10.206482      -277.7325
   7   2.0000     -10.147208      -276.1196
   8   2.0000      -8.215857      -223.5648
   9   2.0000      -6.156088      -167.5157
  10   2.0000      -6.149890      -167.3470
  11   2.0000      -6.149771      -167.3438
  12   2.0000      -1.430520       -38.9264
  13   2.0000      -1.141264       -31.0554
  14   2.0000      -1.044897       -28.4331
  15   2.0000      -0.854142       -23.2424
  16   2.0000      -0.798022       -21.7153
  17   2.0000      -0.746127       -20.3032
  18   2.0000      -0.697869       -18.9900
  19   2.0000      -0.628283       -17.0965
  20   2.0000      -0.618103       -16.8194
  21   2.0000      -0.598062       -16.2741
  22   2.0000      -0.565552       -15.3894
  23   2.0000      -0.522397       -14.2151
  24   2.0000      -0.509152       -13.8547
  25   2.0000      -0.477058       -12.9814
  26   2.0000      -0.473181       -12.8759
  27   2.0000      -0.437028       -11.8921
  28   2.0000      -0.418556       -11.3895
  29   2.0000      -0.414277       -11.2731
  30   2.0000      -0.400166       -10.8891
  31   2.0000      -0.370098       -10.0709
  32   2.0000      -0.360401        -9.8070
  33   2.0000      -0.334827        -9.1111
  34   2.0000      -0.333699        -9.0804
  35   2.0000      -0.328341        -8.9346
  36   2.0000      -0.290569        -7.9068
  37   0.0000      -0.005192        -0.1413
  38   0.0000       0.011573         0.3149
  39   0.0000       0.024708         0.6723
  40   0.0000       0.031307         0.8519
  41   0.0000       0.045367         1.2345

MULLIKEN ATOMIC CHARGES
-----------------------
   0 C :   -0.155625
   1 C :   -0.877083
   2 C :   -0.107584
   3 C :   -0.406577
   4 S :    1.022077
   5 H :    0.168186
   6 H :    0.275573
   7 H :    0.210577
   8 H :    0.266698
   9 H :    0.239067
  10 F :   -0.070947
  11 O :   -0.569194
  12 H :    0.212968
  13 H :    0.080155
  14 H :    0.116107
  15 H :    0.146411
  16 O :   -0.550810
Sum of atomic charges:    0.0000000

LOEWDIN ATOMIC CHARGES
----------------------
   0 C :   -0.251750
   1 C :   -0.116210
   2 C :   -0.214641
   3 C :   -0.216576
   4 S :    0.632176
   5 H :    0.100195
   6 H :    0.109925
   7 H :    0.062366
   8 H :   -0.032225
   9 H :    0.065302
  10 F :   -0.035151
  11 O :   -0.299946
  12 H :    0.105026
  13 H :    0.111216
  14 H :    0.112194
  15 H :    0.122342
  16 O :   -0.254244

  Mayer bond orders larger than 0.100000
B(  0-C ,  1-C ) :   0.7964 B(  0-C ,  2-C ) :   1.0217 B(  0-C , 12-H ) :   0.9283
B(  0-C , 13-H ) :   0.9624 B(  1-C ,  2-C ) :   0.1136 B(  1-C ,  3-C ) :   0.1053
B(  1-C ,  7-H ) :   0.9470 B(  1-C ,  8-H ) :   1.1292 B(  1-C ,  9-H ) :   0.9525
B(  2-C ,  3-C ) :   1.1466 B(  2-C , 14-H ) :   0.8965 B(  2-C , 15-H ) :   0.9162
B(  3-C ,  4-S ) :   0.8275 B(  3-C ,  5-H ) :   0.9357 B(  3-C ,  6-H ) :   0.8538
B(  3-C , 11-O ) :   0.1307 B(  4-S , 10-F ) :   1.0612 B(  4-S , 11-O ) :   1.6859
B(  4-S , 16-O ) :   1.7435 B(  7-H ,  8-H ) :   0.1346 B(  8-H , 11-O ) :  -0.1841

Dispersion correction           -0.015340523
FINAL SINGLE POINT ENERGY      -805.866170077670

DIPOLE MOMENT
-------------
                                X             Y             Z
Electronic contribution:    -12.46886      -4.09373      -9.71738
Nuclear contribution   :     12.25227       5.48563       9.26621
                        -----------------------------------------
Total Dipole Moment    :     -0.21658       1.39190      -0.45117
                        -----------------------------------------
Magnitude (a.u.)       :      1.47913
Magnitude (Debye)      :      3.75966

Rotational constants in cm-1:     0.103176     0.044975     0.040960
Rotational constants in MHz :  3093.138469  1348.317425  1227.945122

                             ****ORCA TERMINATED NORMALLY****
TOTAL RUN TIME: 0 days 0 hours 1 minutes 40 seconds 663 msec
