                         Program Version 5.0.0 -  RELEASE  -
|  1> !PBE0 D3BJ RIJCOSX def2-TZVPD def2/J TightSCF xyzfile
|  2>
|  3> *xyzfile 0 1 D2.xyz
|  4>
|  5> %MaxCore 64000
|  6>
|  7> %pal nprocs 4
|  8> end
|  9>
| 10> %scf
| 11>   MaxIter 150
| 12> end
| 13>
| 14>
| 15>                          ****END OF INPUT****

CARTESIAN COORDINATES (ANGSTROEM)
---------------------------------
  C      1.364014    0.468742   -2.813764
  C      0.428844    0.321402   -1.655312
  C      0.968045    1.630639   -3.715749
  C     -0.508347    1.722679   -4.124300
  S     -1.328608    0.146737   -4.435781
  H     -0.591511    2.294958   -5.047219
  H     -1.114114    2.235610   -3.374362
  H      0.748578   -0.400542   -1.001345
  H     -0.461053    0.023332   -2.077731
  H      0.310258    1.201375   -1.134948
  O     -2.571347    0.475733   -5.068341
  F     -1.514963   -0.400512   -3.063420
  H      1.294847   -0.468742   -3.364684
  H      2.376216    0.597400   -2.431495
  H      1.578688    1.520652   -4.612733
  H      1.266653    2.575988   -3.250448
  O     -0.377928   -0.627558   -5.201141

 Total Charge           Charge          ....    0
 Multiplicity           Mult            ....    1
 Number of Electrons    NEL             ....   74
 Basis Dimension        Dim             ....  395

ORBITAL ENERGIES
----------------

  NO   OCC          E(Eh)            E(eV)
   0   2.0000     -89.263640     -2428.9871
   1   2.0000     -24.877388      -676.9481
   2   2.0000     -19.227439      -523.2052
   3   2.0000     -19.224271      -523.1190
   4   2.0000     -10.280025      -279.7337
   5   2.0000     -10.244067      -278.7552
   6   2.0000     -10.220749      -278.1207
   7   2.0000     -10.177494      -276.9437
   8   2.0000      -8.210324      -223.4143
   9   2.0000      -6.150853      -167.3732
  10   2.0000      -6.144513      -167.2007
  11   2.0000      -6.143845      -167.1825
  12   2.0000      -1.393775       -37.9265
  13   2.0000      -1.151905       -31.3449
  14   2.0000      -1.060420       -28.8555
  15   2.0000      -0.861597       -23.4452
  16   2.0000      -0.802266       -21.8308
  17   2.0000      -0.736677       -20.0460
  18   2.0000      -0.714543       -19.4437
  19   2.0000      -0.618382       -16.8270
  20   2.0000      -0.606838       -16.5129
  21   2.0000      -0.589414       -16.0388
  22   2.0000      -0.567982       -15.4556
  23   2.0000      -0.513649       -13.9771
  24   2.0000      -0.496918       -13.5218
  25   2.0000      -0.491072       -13.3627
  26   2.0000      -0.477897       -13.0042
  27   2.0000      -0.444947       -12.1076
  28   2.0000      -0.427370       -11.6293
  29   2.0000      -0.417115       -11.3503
  30   2.0000      -0.410320       -11.1654
  31   2.0000      -0.369768       -10.0619
  32   2.0000      -0.365663        -9.9502
  33   2.0000      -0.353004        -9.6057
  34   2.0000      -0.346973        -9.4416
  35   2.0000      -0.341514        -9.2931
  36   2.0000      -0.331242        -9.0136
  37   0.0000      -0.000629        -0.0171
  38   0.0000       0.017276         0.4701
  39   0.0000       0.024149         0.6571
  40   0.0000       0.026169         0.7121
  41   0.0000       0.042257         1.1499

MULLIKEN ATOMIC CHARGES
-----------------------
   0 C :   -0.178940
   1 C :   -0.939909
   2 C :   -0.040458
   3 C :   -0.390677
   4 S :    1.004848
   5 H :    0.136698
   6 H :    0.264360
   7 H :    0.219732
   8 H :    0.322146
   9 H :    0.260383
  10 O :   -0.534941
  11 F :   -0.153508
  12 H :    0.223508
  13 H :    0.079842
  14 H :    0.112509
  15 H :    0.155847
  16 O :   -0.541441
Sum of atomic charges:   -0.0000000

LOEWDIN ATOMIC CHARGES
----------------------
   0 C :   -0.254701
   1 C :   -0.104460
   2 C :   -0.222119
   3 C :   -0.211628
   4 S :    0.609536
   5 H :    0.111677
   6 H :    0.109183
   7 H :    0.064437
   8 H :   -0.003076
   9 H :    0.069225
  10 O :   -0.254230
  11 F :   -0.110915
  12 H :    0.103149
  13 H :    0.113652
  14 H :    0.113071
  15 H :    0.119790
  16 O :   -0.252593

  Mayer bond orders larger than 0.100000
B(  0-C ,  1-C ) :   0.8005 B(  0-C ,  2-C ) :   0.9841 B(  0-C , 12-H ) :   0.9481
B(  0-C , 13-H ) :   0.9629 B(  1-C ,  3-C ) :   0.1274 B(  1-C ,  7-H ) :   0.9360
B(  1-C ,  8-H ) :   1.1054 B(  1-C ,  9-H ) :   0.9125 B(  1-C , 11-F ) :   0.1155
B(  2-C ,  3-C ) :   1.0561 B(  2-C , 14-H ) :   0.9134 B(  2-C , 15-H ) :   0.9313
B(  3-C ,  4-S ) :   0.8252 B(  3-C ,  5-H ) :   0.9660 B(  3-C ,  6-H ) :   0.8820
B(  3-C , 10-O ) :   0.1066 B(  4-S , 10-O ) :   1.7165 B(  4-S , 11-F ) :   1.0514
B(  4-S , 16-O ) :   1.7450 B(  7-H ,  8-H ) :   0.1275 B(  8-H , 11-F ) :  -0.1585

Dispersion correction           -0.015172798
FINAL SINGLE POINT ENERGY      -805.887188948500

DIPOLE MOMENT
-------------
                                X             Y             Z
Electronic contribution:    -10.50529      -5.57329      -6.16534
Nuclear contribution   :     11.08796       6.45140       7.05645
                        -----------------------------------------
Total Dipole Moment    :      0.58267       0.87811       0.89111
                        -----------------------------------------
Magnitude (a.u.)       :      1.38010
Magnitude (Debye)      :      3.50792

Rotational constants in cm-1:     0.100113     0.046890     0.041843
Rotational constants in MHz :  3001.313402  1405.711946  1254.411771

                             ****ORCA TERMINATED NORMALLY****
TOTAL RUN TIME: 0 days 0 hours 1 minutes 33 seconds 205 msec
