                         Program Version 5.0.0 -  RELEASE  -
|  1> !PBE0 D3BJ RIJCOSX def2-TZVPD def2/J TightSCF xyzfile
|  2>
|  3> *xyzfile 0 1 D3.xyz
|  4>
|  5> %MaxCore 64000
|  6>
|  7> %pal nprocs 4
|  8> end
|  9>
| 10> %scf
| 11>   MaxIter 150
| 12> end
| 13>
| 14>
| 15>                          ****END OF INPUT****

CARTESIAN COORDINATES (ANGSTROEM)
---------------------------------
  C      1.364014    0.468742   -2.813764
  C      0.428844    0.321402   -1.655312
  C      0.968045    1.630639   -3.715749
  C     -0.508347    1.722679   -4.124300
  S     -1.328608    0.146737   -4.435781
  H     -0.591511    2.294958   -5.047219
  H     -1.114114    2.235610   -3.374362
  H      0.748578   -0.400542   -1.001345
  H     -0.461053    0.023332   -2.077731
  H      0.310258    1.201375   -1.134948
  O     -2.571347    0.475733   -5.068341
  O     -1.514963   -0.400512   -3.063420
  H      1.294847   -0.468742   -3.364684
  H      2.376216    0.597400   -2.431495
  H      1.578688    1.520652   -4.612733
  H      1.266653    2.575988   -3.250448
  F     -0.377928   -0.627558   -5.201141

 Total Charge           Charge          ....    0
 Multiplicity           Mult            ....    1
 Number of Electrons    NEL             ....   74
 Basis Dimension        Dim             ....  395

ORBITAL ENERGIES
----------------

  NO   OCC          E(Eh)            E(eV)
   0   2.0000     -89.269197     -2429.1383
   1   2.0000     -24.898323      -677.5178
   2   2.0000     -19.229648      -523.2653
   3   2.0000     -19.213273      -522.8197
   4   2.0000     -10.281790      -279.7817
   5   2.0000     -10.246623      -278.8248
   6   2.0000     -10.218372      -278.0560
   7   2.0000     -10.151384      -276.2332
   8   2.0000      -8.215685      -223.5601
   9   2.0000      -6.156068      -167.5151
  10   2.0000      -6.149776      -167.3439
  11   2.0000      -6.149425      -167.3344
  12   2.0000      -1.421188       -38.6725
  13   2.0000      -1.145962       -31.1832
  14   2.0000      -1.048426       -28.5291
  15   2.0000      -0.860272       -23.4092
  16   2.0000      -0.797045       -21.6887
  17   2.0000      -0.745819       -20.2948
  18   2.0000      -0.700085       -19.0503
  19   2.0000      -0.632284       -17.2053
  20   2.0000      -0.612150       -16.6574
  21   2.0000      -0.604059       -16.4373
  22   2.0000      -0.563284       -15.3277
  23   2.0000      -0.516912       -14.0659
  24   2.0000      -0.511186       -13.9101
  25   2.0000      -0.485830       -13.2201
  26   2.0000      -0.475270       -12.9327
  27   2.0000      -0.442324       -12.0363
  28   2.0000      -0.425730       -11.5847
  29   2.0000      -0.412196       -11.2164
  30   2.0000      -0.405765       -11.0414
  31   2.0000      -0.381241       -10.3741
  32   2.0000      -0.359111        -9.7719
  33   2.0000      -0.346413        -9.4264
  34   2.0000      -0.344532        -9.3752
  35   2.0000      -0.334950        -9.1144
  36   2.0000      -0.286003        -7.7825
  37   0.0000      -0.007381        -0.2009
  38   0.0000       0.015745         0.4284
  39   0.0000       0.021253         0.5783
  40   0.0000       0.029973         0.8156
  41   0.0000       0.042727         1.1626

MULLIKEN ATOMIC CHARGES
-----------------------
   0 C :   -0.082830
   1 C :   -0.873615
   2 C :   -0.129466
   3 C :   -0.337008
   4 S :    1.011933
   5 H :    0.144624
   6 H :    0.247241
   7 H :    0.213919
   8 H :    0.275922
   9 H :    0.245486
  10 O :   -0.521975
  11 O :   -0.561219
  12 H :    0.154093
  13 H :    0.070435
  14 H :    0.116881
  15 H :    0.149397
  16 F :   -0.123819
Sum of atomic charges:    0.0000000

LOEWDIN ATOMIC CHARGES
----------------------
   0 C :   -0.256998
   1 C :   -0.118032
   2 C :   -0.225927
   3 C :   -0.205386
   4 S :    0.629488
   5 H :    0.102983
   6 H :    0.120429
   7 H :    0.062355
   8 H :   -0.034132
   9 H :    0.066882
  10 O :   -0.251633
  11 O :   -0.294198
  12 H :    0.101790
  13 H :    0.111839
  14 H :    0.108140
  15 H :    0.121105
  16 F :   -0.038705

  Mayer bond orders larger than 0.100000
B(  0-C ,  1-C ) :   0.7905 B(  0-C ,  2-C ) :   0.9573 B(  0-C , 12-H ) :   0.9598
B(  0-C , 13-H ) :   0.9682 B(  1-C ,  2-C ) :   0.1051 B(  1-C ,  3-C ) :   0.1030
B(  1-C ,  7-H ) :   0.9576 B(  1-C ,  8-H ) :   1.1534 B(  1-C ,  9-H ) :   0.9504
B(  2-C ,  3-C ) :   1.1074 B(  2-C , 14-H ) :   0.9405 B(  2-C , 15-H ) :   0.9134
B(  3-C ,  4-S ) :   0.8003 B(  3-C ,  5-H ) :   0.9964 B(  3-C ,  6-H ) :   0.8790
B(  3-C , 10-O ) :   0.1007 B(  3-C , 11-O ) :   0.1238 B(  4-S , 10-O ) :   1.7479
B(  4-S , 11-O ) :   1.7014 B(  4-S , 16-F ) :   1.0694 B(  7-H ,  8-H ) :   0.1314
B(  8-H , 11-O ) :  -0.2143

Dispersion correction           -0.015219315
FINAL SINGLE POINT ENERGY      -805.869996355492

DIPOLE MOMENT
-------------
                                X             Y             Z
Electronic contribution:     -8.67044      -5.97301      -9.89776
Nuclear contribution   :      9.83476       6.70164       9.41257
                        -----------------------------------------
Total Dipole Moment    :      1.16432       0.72863      -0.48519
                        -----------------------------------------
Magnitude (a.u.)       :      1.45669
Magnitude (Debye)      :      3.70262

Rotational constants in cm-1:     0.099832     0.045916     0.042219
Rotational constants in MHz :  2992.874960  1376.530174  1265.693813

                             ****ORCA TERMINATED NORMALLY****
TOTAL RUN TIME: 0 days 0 hours 1 minutes 43 seconds 918 msec
