                         Program Version 5.0.0 -  RELEASE  -
|  1> !wB97X-D3 RIJCOSX def2-TZVPD def2/J TightSCF
|  2> *xyz -1 1
|  3> C         -2.45380        0.05510        6.94145
|  4> C         -2.07842        1.48042        6.56410
|  5> O         -0.90125        1.85816        6.82810
|  6> O         -2.93658        2.17731        5.96415
|  7> H         -3.47026       -0.13135        6.66407
|  8> H         -2.34265       -0.07527        7.99765
|  9> H         -1.81248       -0.63046        6.42801
| 10> *
| 11> %MaxCore 64000
| 12>
| 13> %pal nprocs 18
| 14> end
| 15>
| 16> %scf
| 17>   MaxIter 150
| 18> end
| 19>
| 20>
| 21>                          ****END OF INPUT****

CARTESIAN COORDINATES (ANGSTROEM)
---------------------------------
  C     -2.453800    0.055100    6.941450
  C     -2.078420    1.480420    6.564100
  O     -0.901250    1.858160    6.828100
  O     -2.936580    2.177310    5.964150
  H     -3.470260   -0.131350    6.664070
  H     -2.342650   -0.075270    7.997650
  H     -1.812480   -0.630460    6.428010

 Total Charge           Charge          ....   -1
 Multiplicity           Mult            ....    1
 Number of Electrons    NEL             ....   32
 Basis Dimension        Dim             ....  181

ORBITAL ENERGIES
----------------

  NO   OCC          E(Eh)            E(eV)
   0   2.0000     -18.961231      -515.9613
   1   2.0000     -18.958500      -515.8870
   2   2.0000     -10.157311      -276.3945
   3   2.0000     -10.084947      -274.4254
   4   2.0000      -0.929410       -25.2905
   5   2.0000      -0.833974       -22.6936
   6   2.0000      -0.660034       -17.9604
   7   2.0000      -0.410666       -11.1748
   8   2.0000      -0.360501        -9.8097
   9   2.0000      -0.346368        -9.4251
  10   2.0000      -0.324374        -8.8267
  11   2.0000      -0.279192        -7.5972
  12   2.0000      -0.259274        -7.0552
  13   2.0000      -0.136149        -3.7048
  14   2.0000      -0.133579        -3.6349
  15   2.0000      -0.117796        -3.2054
  16   0.0000       0.203055         5.5254
  17   0.0000       0.223654         6.0859
  18   0.0000       0.236129         6.4254
  19   0.0000       0.253810         6.9065
  20   0.0000       0.275220         7.4891

MULLIKEN ATOMIC CHARGES
-----------------------
   0 C :   -0.695511
   1 C :    0.539258
   2 O :   -0.763796
   3 O :   -0.748316
   4 H :    0.240582
   5 H :    0.217204
   6 H :    0.210578
Sum of atomic charges:   -1.0000000

LOEWDIN ATOMIC CHARGES
----------------------
   0 C :   -0.072812
   1 C :   -0.801668
   2 O :   -0.139771
   3 O :   -0.128745
   4 H :    0.044351
   5 H :    0.048656
   6 H :    0.049989

  Mayer bond orders larger than 0.100000
B(  0-C ,  1-C ) :   0.8954 B(  0-C ,  4-H ) :   0.9889 B(  0-C ,  5-H ) :   0.9447
B(  0-C ,  6-H ) :   0.9382 B(  1-C ,  2-O ) :   1.4658 B(  1-C ,  3-O ) :   1.4709

Dispersion correction           -0.000905266
FINAL SINGLE POINT ENERGY      -228.553111079582

DIPOLE MOMENT
-------------
                                X             Y             Z
Electronic contribution:      0.86387       3.33314      -0.90422
Nuclear contribution   :     -1.26064      -4.68337       1.27880
                        -----------------------------------------
Total Dipole Moment    :     -0.39677      -1.35024       0.37457
                        -----------------------------------------
Magnitude (a.u.)       :      1.45632
Magnitude (Debye)      :      3.70167

Rotational constants in cm-1:     0.391994     0.333933     0.186475
Rotational constants in MHz : 11751.676689 10011.065304  5590.392476

                             ****ORCA TERMINATED NORMALLY****
TOTAL RUN TIME: 0 days 0 hours 0 minutes 10 seconds 992 msec
