                         Program Version 5.0.0 -  RELEASE  -
|  1> !wB97X-D3 RIJCOSX def2-TZVPD def2/J TightSCF
|  2> *xyz 1 1
|  3> C         -0.69912        3.48945        3.75516
|  4> N         -1.08067        3.79296        5.15686
|  5> H         -0.87449        4.76274        5.42734
|  6> H         -0.68079        3.13476        5.83900
|  7> H         -2.05755        3.53169        5.34620
|  8> H         -1.14600        4.20803        3.10030
|  9> H         -1.04188        2.50941        3.49644
| 10> H          0.36562        3.53208        3.65813
| 11> *
| 12> %MaxCore 64000
| 13>
| 14> %pal nprocs 18
| 15> end
| 16>
| 17> %scf
| 18>   MaxIter 150
| 19> end
| 20>
| 21>
| 22>                          ****END OF INPUT****

CARTESIAN COORDINATES (ANGSTROEM)
---------------------------------
  C     -0.699120    3.489450    3.755160
  N     -1.080670    3.792960    5.156860
  H     -0.874490    4.762740    5.427340
  H     -0.680790    3.134760    5.839000
  H     -2.057550    3.531690    5.346200
  H     -1.146000    4.208030    3.100300
  H     -1.041880    2.509410    3.496440
  H      0.365620    3.532080    3.658130

 Total Charge           Charge          ....    1
 Multiplicity           Mult            ....    1
 Number of Electrons    NEL             ....   18
 Basis Dimension        Dim             ....  128

ORBITAL ENERGIES
----------------

  NO   OCC          E(Eh)            E(eV)
   0   2.0000     -14.771492      -401.9527
   1   2.0000     -10.530547      -286.5507
   2   2.0000      -1.344252       -36.5790
   3   2.0000      -1.055317       -28.7166
   4   2.0000      -0.926570       -25.2133
   5   2.0000      -0.888498       -24.1773
   6   2.0000      -0.816247       -22.2112
   7   2.0000      -0.726198       -19.7608
   8   2.0000      -0.719840       -19.5878
   9   0.0000      -0.132003        -3.5920
  10   0.0000      -0.070244        -1.9114
  11   0.0000      -0.063265        -1.7215
  12   0.0000      -0.062526        -1.7014
  13   0.0000      -0.020436        -0.5561

MULLIKEN ATOMIC CHARGES
-----------------------
   0 C :   -0.803149
   1 N :   -0.360046
   2 H :    0.370953
   3 H :    0.375275
   4 H :    0.376860
   5 H :    0.345447
   6 H :    0.347974
   7 H :    0.346684
Sum of atomic charges:    1.0000000

LOEWDIN ATOMIC CHARGES
----------------------
   0 C :   -0.007905
   1 N :    0.144522
   2 H :    0.185378
   3 H :    0.181435
   4 H :    0.181217
   5 H :    0.105221
   6 H :    0.105456
   7 H :    0.104676

  Mayer bond orders larger than 0.100000
B(  0-C ,  1-N ) :   0.9282 B(  0-C ,  5-H ) :   0.8915 B(  0-C ,  6-H ) :   0.8806
B(  0-C ,  7-H ) :   0.8929 B(  1-N ,  2-H ) :   0.8549 B(  1-N ,  3-H ) :   0.8560
B(  1-N ,  4-H ) :   0.8537

Dispersion correction           -0.000518568
FINAL SINGLE POINT ENERGY       -96.222571161479

DIPOLE MOMENT
-------------
                                X             Y             Z
Electronic contribution:     -0.24915       0.28338       0.99248
Nuclear contribution   :     -0.00699      -0.18064      -0.14199
                        -----------------------------------------
Total Dipole Moment    :     -0.25614       0.10274       0.85049
                        -----------------------------------------
Magnitude (a.u.)       :      0.89414
Magnitude (Debye)      :      2.27273

Rotational constants in cm-1:     2.906310     0.688008     0.676648
Rotational constants in MHz : 87128.982229 20625.947414 20285.402367

                             ****ORCA TERMINATED NORMALLY****
TOTAL RUN TIME: 0 days 0 hours 0 minutes 6 seconds 131 msec
