                         Program Version 5.0.0 -  RELEASE  -
|  1> !wB97X-D3 RIJCOSX def2-TZVPD def2/J TightSCF
|  2> *xyz 0 1
|  3> C         -2.45380        0.05510        6.94145
|  4> C         -2.07842        1.48042        6.56410
|  5> F         -0.90125        1.85816        6.82810
|  6> O         -2.93658        2.17731        5.96415
|  7> H         -3.47026       -0.13135        6.66407
|  8> H         -2.34265       -0.07527        7.99765
|  9> H         -1.81248       -0.63046        6.42801
| 10> *
| 11> %MaxCore 64000
| 12>
| 13> %pal nprocs 18
| 14> end
| 15>
| 16> %scf
| 17>   MaxIter 150
| 18> end
| 19>
| 20>
| 21>                          ****END OF INPUT****

CARTESIAN COORDINATES (ANGSTROEM)
---------------------------------
  C     -2.453800    0.055100    6.941450
  C     -2.078420    1.480420    6.564100
  F     -0.901250    1.858160    6.828100
  O     -2.936580    2.177310    5.964150
  H     -3.470260   -0.131350    6.664070
  H     -2.342650   -0.075270    7.997650
  H     -1.812480   -0.630460    6.428010

 Total Charge           Charge          ....    0
 Multiplicity           Mult            ....    1
 Number of Electrons    NEL             ....   32
 Basis Dimension        Dim             ....  181

ORBITAL ENERGIES
----------------

  NO   OCC          E(Eh)            E(eV)
   0   2.0000     -24.855885      -676.3630
   1   2.0000     -19.239104      -523.5226
   2   2.0000     -10.461245      -284.6649
   3   2.0000     -10.301036      -280.3054
   4   2.0000      -1.432764       -38.9875
   5   2.0000      -1.150138       -31.2969
   6   2.0000      -0.891632       -24.2625
   7   2.0000      -0.766068       -20.8458
   8   2.0000      -0.652128       -17.7453
   9   2.0000      -0.648407       -17.6441
  10   2.0000      -0.610010       -16.5992
  11   2.0000      -0.546063       -14.8591
  12   2.0000      -0.533993       -14.5307
  13   2.0000      -0.502000       -13.6601
  14   2.0000      -0.452208       -12.3052
  15   2.0000      -0.392442       -10.6789
  16   0.0000       0.054720         1.4890
  17   0.0000       0.061466         1.6726
  18   0.0000       0.093467         2.5434
  19   0.0000       0.107121         2.9149
  20   0.0000       0.115916         3.1542

MULLIKEN ATOMIC CHARGES
-----------------------
   0 C :   -0.800942
   1 C :    0.718792
   2 F :   -0.221008
   3 O :   -0.547969
   4 H :    0.269793
   5 H :    0.293994
   6 H :    0.287340
Sum of atomic charges:   -0.0000000

LOEWDIN ATOMIC CHARGES
----------------------
   0 C :    0.007493
   1 C :   -0.501004
   2 F :    0.188265
   3 O :    0.063518
   4 H :    0.081451
   5 H :    0.079369
   6 H :    0.080909

  Mayer bond orders larger than 0.100000
B(  0-C ,  1-C ) :   0.8785 B(  0-C ,  4-H ) :   0.9795 B(  0-C ,  5-H ) :   0.9154
B(  0-C ,  6-H ) :   0.9099 B(  1-C ,  2-F ) :   0.9744 B(  1-C ,  3-O ) :   1.6977

Dispersion correction           -0.000899388
FINAL SINGLE POINT ENERGY      -253.123173470210

DIPOLE MOMENT
-------------
                                X             Y             Z
Electronic contribution:      2.83505       4.12458      -0.48681
Nuclear contribution   :     -2.49112      -5.16552       1.01592
                        -----------------------------------------
Total Dipole Moment    :      0.34393      -1.04094       0.52910
                        -----------------------------------------
Magnitude (a.u.)       :      1.21729
Magnitude (Debye)      :      3.09410

Rotational constants in cm-1:     0.367635     0.321184     0.176974
Rotational constants in MHz : 11021.414238  9628.842971  5305.560130

                             ****ORCA TERMINATED NORMALLY****
TOTAL RUN TIME: 0 days 0 hours 0 minutes 11 seconds 776 msec
