                         Program Version 5.0.0 -  RELEASE  -
|  1> !wB97X-D3 RIJCOSX def2-TZVPD def2/J TightSCF
|  2> *xyz 0 1
|  3> C         -0.69912        3.48945        3.75516
|  4> C         -1.08067        3.79296        5.15686
|  5> H         -0.87449        4.76274        5.42734
|  6> H         -0.68079        3.13476        5.83900
|  7> H         -2.05755        3.53169        5.34620
|  8> H         -1.14600        4.20803        3.10030
|  9> H         -1.04188        2.50941        3.49644
| 10> H          0.36562        3.53208        3.65813
| 11> *
| 12> %MaxCore 64000
| 13>
| 14> %pal nprocs 18
| 15> end
| 16>
| 17> %scf
| 18>   MaxIter 150
| 19> end
| 20>
| 21>
| 22>                          ****END OF INPUT****

CARTESIAN COORDINATES (ANGSTROEM)
---------------------------------
  C     -0.699120    3.489450    3.755160
  C     -1.080670    3.792960    5.156860
  H     -0.874490    4.762740    5.427340
  H     -0.680790    3.134760    5.839000
  H     -2.057550    3.531690    5.346200
  H     -1.146000    4.208030    3.100300
  H     -1.041880    2.509410    3.496440
  H      0.365620    3.532080    3.658130

 Total Charge           Charge          ....    0
 Multiplicity           Mult            ....    1
 Number of Electrons    NEL             ....   18
 Basis Dimension        Dim             ....  128

ORBITAL ENERGIES
----------------

  NO   OCC          E(Eh)            E(eV)
   0   2.0000     -10.248914      -278.8871
   1   2.0000     -10.233503      -278.4678
   2   2.0000      -0.885380       -24.0924
   3   2.0000      -0.736427       -20.0392
   4   2.0000      -0.558302       -15.1922
   5   2.0000      -0.536926       -14.6105
   6   2.0000      -0.468367       -12.7449
   7   2.0000      -0.448391       -12.2013
   8   2.0000      -0.425705       -11.5840
   9   0.0000       0.078194         2.1278
  10   0.0000       0.098498         2.6803
  11   0.0000       0.141030         3.8376
  12   0.0000       0.146617         3.9896
  13   0.0000       0.169550         4.6137

MULLIKEN ATOMIC CHARGES
-----------------------
   0 C :   -0.767942
   1 C :   -1.052193
   2 H :    0.325479
   3 H :    0.349056
   4 H :    0.333779
   5 H :    0.266002
   6 H :    0.284988
   7 H :    0.260830
Sum of atomic charges:   -0.0000000

LOEWDIN ATOMIC CHARGES
----------------------
   0 C :   -0.160531
   1 C :   -0.173462
   2 H :    0.050894
   3 H :    0.047280
   4 H :    0.047261
   5 H :    0.062659
   6 H :    0.063866
   7 H :    0.062034

  Mayer bond orders larger than 0.100000
B(  0-C ,  1-C ) :   0.5970 B(  0-C ,  5-H ) :   0.9743 B(  0-C ,  6-H ) :   0.9637
B(  0-C ,  7-H ) :   0.9749 B(  1-C ,  2-H ) :   0.9210 B(  1-C ,  3-H ) :   0.9409
B(  1-C ,  4-H ) :   0.9442

Dispersion correction           -0.000507793
FINAL SINGLE POINT ENERGY       -79.819345266663

DIPOLE MOMENT
-------------
                                X             Y             Z
Electronic contribution:      0.05288       0.10281      -0.06111
Nuclear contribution   :     -0.07174      -0.12630       0.09844
                        -----------------------------------------
Total Dipole Moment    :     -0.01886      -0.02349       0.03733
                        -----------------------------------------
Magnitude (a.u.)       :      0.04797
Magnitude (Debye)      :      0.12193

Rotational constants in cm-1:     2.906543     0.717882     0.705537
Rotational constants in MHz : 87135.978289 21521.550473 21151.459355

                             ****ORCA TERMINATED NORMALLY****
TOTAL RUN TIME: 0 days 0 hours 0 minutes 5 seconds 928 msec
