                         Program Version 5.0.0 -  RELEASE  -
|  1> !wB97X-D3 RIJCOSX def2-TZVPD def2/J TightSCF
|  2> *xyz 0 1
|  3> C         -2.45380        0.05510        6.94145
|  4> C         -2.07842        1.48042        6.56410
|  5> O         -0.90125        1.85816        6.82810
|  6> F         -2.93658        2.17731        5.96415
|  7> H         -3.47026       -0.13135        6.66407
|  8> H         -2.34265       -0.07527        7.99765
|  9> H         -1.81248       -0.63046        6.42801
| 10> *
| 11> %MaxCore 64000
| 12>
| 13> %pal nprocs 18
| 14> end
| 15>
| 16> %scf
| 17>   MaxIter 150
| 18> end
| 19>
| 20>
| 21>                          ****END OF INPUT****

CARTESIAN COORDINATES (ANGSTROEM)
---------------------------------
  C     -2.453800    0.055100    6.941450
  C     -2.078420    1.480420    6.564100
  O     -0.901250    1.858160    6.828100
  F     -2.936580    2.177310    5.964150
  H     -3.470260   -0.131350    6.664070
  H     -2.342650   -0.075270    7.997650
  H     -1.812480   -0.630460    6.428010

 Total Charge           Charge          ....    0
 Multiplicity           Mult            ....    1
 Number of Electrons    NEL             ....   32
 Basis Dimension        Dim             ....  181

ORBITAL ENERGIES
----------------

  NO   OCC          E(Eh)            E(eV)
   0   2.0000     -24.858812      -676.4427
   1   2.0000     -19.237287      -523.4732
   2   2.0000     -10.461957      -284.6843
   3   2.0000     -10.301210      -280.3102
   4   2.0000      -1.437840       -39.1256
   5   2.0000      -1.145863       -31.1805
   6   2.0000      -0.891496       -24.2588
   7   2.0000      -0.769115       -20.9287
   8   2.0000      -0.654260       -17.8033
   9   2.0000      -0.651112       -17.7176
  10   2.0000      -0.610480       -16.6120
  11   2.0000      -0.547228       -14.8908
  12   2.0000      -0.533373       -14.5138
  13   2.0000      -0.501093       -13.6354
  14   2.0000      -0.446988       -12.1632
  15   2.0000      -0.391813       -10.6618
  16   0.0000       0.050888         1.3847
  17   0.0000       0.061235         1.6663
  18   0.0000       0.093364         2.5406
  19   0.0000       0.107449         2.9238
  20   0.0000       0.117494         3.1972

MULLIKEN ATOMIC CHARGES
-----------------------
   0 C :   -0.773813
   1 C :    0.698143
   2 O :   -0.554374
   3 F :   -0.211824
   4 H :    0.304982
   5 H :    0.270346
   6 H :    0.266540
Sum of atomic charges:    0.0000000

LOEWDIN ATOMIC CHARGES
----------------------
   0 C :    0.007273
   1 C :   -0.500005
   2 O :    0.055239
   3 F :    0.196307
   4 H :    0.071373
   5 H :    0.084513
   6 H :    0.085301

  Mayer bond orders larger than 0.100000
B(  0-C ,  1-C ) :   0.8878 B(  0-C ,  4-H ) :   0.9351 B(  0-C ,  5-H ) :   0.9303
B(  0-C ,  6-H ) :   0.9235 B(  1-C ,  2-O ) :   1.6996 B(  1-C ,  3-F ) :   0.9984

Dispersion correction           -0.000909221
FINAL SINGLE POINT ENERGY      -253.120371504966

DIPOLE MOMENT
-------------
                                X             Y             Z
Electronic contribution:     -0.49186       4.64755      -1.89911
Nuclear contribution   :     -0.38801      -5.49530       1.90863
                        -----------------------------------------
Total Dipole Moment    :     -0.87987      -0.84775       0.00952
                        -----------------------------------------
Magnitude (a.u.)       :      1.22186
Magnitude (Debye)      :      3.10572

Rotational constants in cm-1:     0.368583     0.320435     0.176966
Rotational constants in MHz : 11049.843408  9606.394840  5305.299921

                             ****ORCA TERMINATED NORMALLY****
TOTAL RUN TIME: 0 days 0 hours 0 minutes 8 seconds 670 msec
