                         Program Version 5.0.0 -  RELEASE  -
|  1> !M062X D3Zero RIJCOSX def2-SVPD def2/J TightSCF
|  2> *xyz -1 1
|  3> C          1.87218        0.42790       -2.07750
|  4> S          0.57902        0.14047       -3.29794
|  5> O          0.22886       -1.24687       -3.12787
|  6> O         -0.43927        1.11897       -3.01455
|  7> O          1.24788        0.40347       -4.59565
|  8> H          2.66832       -0.27048       -2.23022
|  9> H          1.46951        0.30034       -1.09440
| 10> H          2.24690        1.42458       -2.18288
| 11> *
| 12>
| 13> %MaxCore 64000
| 14>
| 15> %pal nprocs 8
| 16> end
| 17>
| 18> %scf
| 19>   MaxIter 150
| 20> end
| 21>
| 22>
| 23>                          ****END OF INPUT****

CARTESIAN COORDINATES (ANGSTROEM)
---------------------------------
  C      1.872180    0.427900   -2.077500
  S      0.579020    0.140470   -3.297940
  O      0.228860   -1.246870   -3.127870
  O     -0.439270    1.118970   -3.014550
  O      1.247880    0.403470   -4.595650
  H      2.668320   -0.270480   -2.230220
  H      1.469510    0.300340   -1.094400
  H      2.246900    1.424580   -2.182880

 Total Charge           Charge          ....   -1
 Multiplicity           Mult            ....    1
 Number of Electrons    NEL             ....   50
 Basis Dimension        Dim             ....  140

ORBITAL ENERGIES
----------------

  NO   OCC          E(Eh)            E(eV)
   0   2.0000     -89.936918     -2447.3080
   1   2.0000     -19.417082      -528.3657
   2   2.0000     -19.416910      -528.3610
   3   2.0000     -19.402988      -527.9821
   4   2.0000     -10.399225      -282.9773
   5   2.0000      -8.260171      -224.7707
   6   2.0000      -6.185483      -168.3155
   7   2.0000      -6.185348      -168.3119
   8   2.0000      -6.185133      -168.3060
   9   2.0000      -1.050106       -28.5748
  10   2.0000      -0.908342       -24.7172
  11   2.0000      -0.880335       -23.9551
  12   2.0000      -0.667430       -18.1617
  13   2.0000      -0.468032       -12.7358
  14   2.0000      -0.383486       -10.4352
  15   2.0000      -0.363447        -9.8899
  16   2.0000      -0.362846        -9.8735
  17   2.0000      -0.322046        -8.7633
  18   2.0000      -0.319433        -8.6922
  19   2.0000      -0.227866        -6.2006
  20   2.0000      -0.225210        -6.1283
  21   2.0000      -0.188743        -5.1360
  22   2.0000      -0.176287        -4.7970
  23   2.0000      -0.167094        -4.5468
  24   2.0000      -0.136466        -3.7134
  25   0.0000       0.164756         4.4832
  26   0.0000       0.186497         5.0749
  27   0.0000       0.186825         5.0838
  28   0.0000       0.192239         5.2311
  29   0.0000       0.226226         6.1559

MULLIKEN ATOMIC CHARGES
-----------------------
   0 C :    0.458461
   1 S :    1.208667
   2 O :   -0.800924
   3 O :   -0.798847
   4 O :   -0.836881
   5 H :   -0.074782
   6 H :   -0.080205
   7 H :   -0.075489
Sum of atomic charges:   -1.0000000

LOEWDIN ATOMIC CHARGES
----------------------
   0 C :    0.055777
   1 S :    0.871372
   2 O :   -0.595891
   3 O :   -0.595074
   4 O :   -0.618524
   5 H :   -0.038394
   6 H :   -0.040520
   7 H :   -0.038747

  Mayer bond orders larger than 0.100000
B(  0-C ,  1-S ) :   0.9248 B(  0-C ,  5-H ) :   0.9315 B(  0-C ,  6-H ) :   0.9315
B(  0-C ,  7-H ) :   0.9314 B(  1-S ,  2-O ) :   1.3059 B(  1-S ,  3-O ) :   1.3052
B(  1-S ,  4-O ) :   1.2770 B(  1-S ,  5-H ) :   0.1178 B(  1-S ,  6-H ) :   0.1090
B(  1-S ,  7-H ) :   0.1173

Dispersion correction           -0.000041893
FINAL SINGLE POINT ENERGY      -663.359531832510

DIPOLE MOMENT
-------------
                                X             Y             Z
Electronic contribution:     -3.18386      -0.71880      -2.81715
Nuclear contribution   :      4.08143       0.90272       3.93680
                        -----------------------------------------
Total Dipole Moment    :      0.89756       0.18392       1.11966
                        -----------------------------------------
Magnitude (a.u.)       :      1.44675
Magnitude (Debye)      :      3.67734

Rotational constants in cm-1:     0.171796     0.158241     0.155560
Rotational constants in MHz :  5150.307583  4743.954688  4663.569252

                             ****ORCA TERMINATED NORMALLY****
TOTAL RUN TIME: 0 days 0 hours 0 minutes 8 seconds 147 msec
