                         Program Version 5.0.0 -  RELEASE  -
|  1> !M062X D3Zero RIJCOSX def2-SVPD def2/J TightSCF
|  2> *xyz 1 1
|  3> C          3.38093        2.08304       -3.35013
|  4> N          4.53592        1.18245       -3.42852
|  5> C          4.67196        0.12227       -4.22060
|  6> N          5.86602       -0.50785       -4.22428
|  7> N          3.69888       -0.31284       -4.98699
|  8> H          2.73141       -0.05009       -4.84900
|  9> H          3.89005       -1.05517       -5.64373
| 10> H          5.25193        1.30346       -2.72101
| 11> H          6.69516       -0.06232       -3.85160
| 12> H          5.97538       -1.39688       -4.69141
| 13> H          2.69962        1.85926       -4.14426
| 14> H          3.71221        3.09654       -3.43937
| 15> H          2.88835        1.95032       -2.40957
| 16> *
| 17>
| 18> %MaxCore 64000
| 19>
| 20> %pal nprocs 8
| 21> end
| 22>
| 23> %scf
| 24>   MaxIter 150
| 25> end
| 26>
| 27>
| 28>                          ****END OF INPUT****

CARTESIAN COORDINATES (ANGSTROEM)
---------------------------------
  C      3.380930    2.083040   -3.350130
  N      4.535920    1.182450   -3.428520
  C      4.671960    0.122270   -4.220600
  N      5.866020   -0.507850   -4.224280
  N      3.698880   -0.312840   -4.986990
  H      2.731410   -0.050090   -4.849000
  H      3.890050   -1.055170   -5.643730
  H      5.251930    1.303460   -2.721010
  H      6.695160   -0.062320   -3.851600
  H      5.975380   -1.396880   -4.691410
  H      2.699620    1.859260   -4.144260
  H      3.712210    3.096540   -3.439370
  H      2.888350    1.950320   -2.409570

 Total Charge           Charge          ....    1
 Multiplicity           Mult            ....    1
 Number of Electrons    NEL             ....   40
 Basis Dimension        Dim             ....  164

ORBITAL ENERGIES
----------------

  NO   OCC          E(Eh)            E(eV)
   0   2.0000     -14.993057      -407.9818
   1   2.0000     -14.991784      -407.9472
   2   2.0000     -14.984487      -407.7486
   3   2.0000     -10.897261      -296.5296
   4   2.0000     -10.757894      -292.7372
   5   2.0000      -1.321091       -35.9487
   6   2.0000      -1.202647       -32.7257
   7   2.0000      -1.186213       -32.2785
   8   2.0000      -0.993209       -27.0266
   9   2.0000      -0.912870       -24.8405
  10   2.0000      -0.869337       -23.6559
  11   2.0000      -0.829580       -22.5740
  12   2.0000      -0.773609       -21.0510
  13   2.0000      -0.767659       -20.8891
  14   2.0000      -0.724559       -19.7163
  15   2.0000      -0.705201       -19.1895
  16   2.0000      -0.662709       -18.0332
  17   2.0000      -0.648578       -17.6487
  18   2.0000      -0.546550       -14.8724
  19   2.0000      -0.516546       -14.0559
  20   0.0000      -0.134139        -3.6501
  21   0.0000      -0.131508        -3.5785
  22   0.0000      -0.098090        -2.6692
  23   0.0000      -0.093644        -2.5482
  24   0.0000      -0.066512        -1.8099

MULLIKEN ATOMIC CHARGES
-----------------------
   0 C :    1.110870
   1 N :   -0.682554
   2 C :    1.544971
   3 N :   -0.185037
   4 N :   -0.098874
   5 H :   -0.047947
   6 H :   -0.052526
   7 H :   -0.240581
   8 H :   -0.054856
   9 H :   -0.009849
  10 H :   -0.144620
  11 H :   -0.068234
  12 H :   -0.070765
Sum of atomic charges:    1.0000000

LOEWDIN ATOMIC CHARGES
----------------------
   0 C :    0.275921
   1 N :    0.003966
   2 C :   -0.022870
   3 N :    0.250773
   4 N :    0.269234
   5 H :    0.034022
   6 H :    0.044947
   7 H :    0.060402
   8 H :    0.038528
   9 H :    0.035409
  10 H :   -0.012729
  11 H :    0.011754
  12 H :    0.010643

  Mayer bond orders larger than 0.100000
B(  0-C ,  1-N ) :   0.9005 B(  0-C ,  7-H ) :  -0.1739 B(  0-C , 10-H ) :   0.8525
B(  0-C , 11-H ) :   0.8101 B(  0-C , 12-H ) :   0.8236 B(  1-N ,  2-C ) :   0.9884
B(  1-N ,  3-N ) :   0.2450 B(  1-N ,  4-N ) :   0.2342 B(  1-N ,  7-H ) :   1.3568
B(  1-N , 10-H ) :   0.1773 B(  1-N , 11-H ) :   0.1804 B(  1-N , 12-H ) :   0.1570
B(  2-C ,  3-N ) :   0.7401 B(  2-C ,  4-N ) :   0.9353 B(  2-C ,  5-H ) :  -0.1616
B(  2-C ,  6-H ) :  -0.1476 B(  2-C ,  7-H ) :  -0.2401 B(  2-C ,  8-H ) :  -0.1773
B(  2-C ,  9-H ) :  -0.1072 B(  3-N ,  4-N ) :   0.1783 B(  3-N ,  8-H ) :   1.2098
B(  3-N ,  9-H ) :   1.1670 B(  4-N ,  5-H ) :   1.1729 B(  4-N ,  6-H ) :   1.1973
B(  5-H ,  6-H ) :  -0.1892 B(  8-H ,  9-H ) :  -0.1730

Dispersion correction           -0.000175026
FINAL SINGLE POINT ENERGY      -244.797993830466

DIPOLE MOMENT
-------------
                                X             Y             Z
Electronic contribution:      1.68102      -1.97074      -0.72309
Nuclear contribution   :     -1.49827       1.51766       0.59175
                        -----------------------------------------
Total Dipole Moment    :      0.18275      -0.45307      -0.13134
                        -----------------------------------------
Magnitude (a.u.)       :      0.50589
Magnitude (Debye)      :      1.28586

Rotational constants in cm-1:     0.316446     0.130424     0.094259
Rotational constants in MHz :  9486.821695  3910.013387  2825.801764

                             ****ORCA TERMINATED NORMALLY****
TOTAL RUN TIME: 0 days 0 hours 0 minutes 10 seconds 54 msec
