                         Program Version 5.0.0 -  RELEASE  -
|  1> !M062X D3Zero RIJCOSX def2-SVPD def2/J TightSCF
|  2> *xyz 0 1
|  3> C          1.87218        0.42790       -2.07750
|  4> S          0.57902        0.14047       -3.29794
|  5> F          0.22886       -1.24687       -3.12787
|  6> O         -0.43927        1.11897       -3.01455
|  7> O          1.24788        0.40347       -4.59565
|  8> H          2.66832       -0.27048       -2.23022
|  9> H          1.46951        0.30034       -1.09440
| 10> H          2.24690        1.42458       -2.18288
| 11> *
| 12>
| 13> %MaxCore 64000
| 14>
| 15> %pal nprocs 8
| 16> end
| 17>
| 18> %scf
| 19>   MaxIter 150
| 20> end
| 21>
| 22>
| 23>                          ****END OF INPUT****

CARTESIAN COORDINATES (ANGSTROEM)
---------------------------------
  C      1.872180    0.427900   -2.077500
  S      0.579020    0.140470   -3.297940
  F      0.228860   -1.246870   -3.127870
  O     -0.439270    1.118970   -3.014550
  O      1.247880    0.403470   -4.595650
  H      2.668320   -0.270480   -2.230220
  H      1.469510    0.300340   -1.094400
  H      2.246900    1.424580   -2.182880

 Total Charge           Charge          ....    0
 Multiplicity           Mult            ....    1
 Number of Electrons    NEL             ....   50
 Basis Dimension        Dim             ....  140

ORBITAL ENERGIES
----------------

  NO   OCC          E(Eh)            E(eV)
   0   2.0000     -90.205836     -2454.6256
   1   2.0000     -25.386322      -690.7969
   2   2.0000     -19.658749      -534.9418
   3   2.0000     -19.644281      -534.5481
   4   2.0000     -10.611786      -288.7614
   5   2.0000      -8.529932      -232.1113
   6   2.0000      -6.458419      -175.7425
   7   2.0000      -6.452990      -175.5948
   8   2.0000      -6.452152      -175.5720
   9   2.0000      -1.525499       -41.5109
  10   2.0000      -1.233558       -33.5668
  11   2.0000      -1.122594       -30.5473
  12   2.0000      -0.897337       -24.4178
  13   2.0000      -0.822030       -22.3686
  14   2.0000      -0.705917       -19.2090
  15   2.0000      -0.697085       -18.9686
  16   2.0000      -0.646200       -17.5840
  17   2.0000      -0.561464       -15.2782
  18   2.0000      -0.554661       -15.0931
  19   2.0000      -0.538378       -14.6500
  20   2.0000      -0.516469       -14.0538
  21   2.0000      -0.468850       -12.7581
  22   2.0000      -0.414588       -11.2815
  23   2.0000      -0.399947       -10.8831
  24   2.0000      -0.385778       -10.4976
  25   0.0000       0.005038         0.1371
  26   0.0000       0.038934         1.0595
  27   0.0000       0.044795         1.2189
  28   0.0000       0.046821         1.2741
  29   0.0000       0.069503         1.8913

MULLIKEN ATOMIC CHARGES
-----------------------
   0 C :    0.371893
   1 S :    1.356004
   2 F :   -0.399291
   3 O :   -0.658461
   4 O :   -0.695565
   5 H :    0.011754
   6 H :    0.010216
   7 H :    0.003451
Sum of atomic charges:    0.0000000

LOEWDIN ATOMIC CHARGES
----------------------
   0 C :    0.126974
   1 S :    1.140193
   2 F :   -0.267368
   3 O :   -0.476781
   4 O :   -0.498986
   5 H :   -0.012103
   6 H :   -0.013334
   7 H :    0.001405

  Mayer bond orders larger than 0.100000
B(  0-C ,  1-S ) :   0.9920 B(  0-C ,  5-H ) :   0.9343 B(  0-C ,  6-H ) :   0.9350
B(  0-C ,  7-H ) :   0.9347 B(  1-S ,  2-F ) :   0.6608 B(  1-S ,  3-O ) :   1.5242
B(  1-S ,  4-O ) :   1.4947 B(  1-S ,  7-H ) :   0.1139

Dispersion correction           -0.000046802
FINAL SINGLE POINT ENERGY      -687.838559558499

DIPOLE MOMENT
-------------
                                X             Y             Z
Electronic contribution:     -3.76211      -3.04011      -2.47752
Nuclear contribution   :      4.52607       2.31146       3.82544
                        -----------------------------------------
Total Dipole Moment    :      0.76396      -0.72865       1.34792
                        -----------------------------------------
Magnitude (a.u.)       :      1.71215
Magnitude (Debye)      :      4.35194

Rotational constants in cm-1:     0.162724     0.156586     0.147157
Rotational constants in MHz :  4878.333818  4694.318771  4411.658495

                             ****ORCA TERMINATED NORMALLY****
TOTAL RUN TIME: 0 days 0 hours 0 minutes 7 seconds 672 msec
