                         Program Version 5.0.0 -  RELEASE  -
|  1> !M062X D3Zero RIJCOSX def2-SVPD def2/J TightSCF
|  2> *xyz 0 1
|  3> C          3.38093        2.08304       -3.35013
|  4> C          4.53592        1.18245       -3.42852
|  5> C          4.67196        0.12227       -4.22060
|  6> N          5.86602       -0.50785       -4.22428
|  7> N          3.69888       -0.31284       -4.98699
|  8> H          2.73141       -0.05009       -4.84900
|  9> H          3.89005       -1.05517       -5.64373
| 10> H          5.25193        1.30346       -2.72101
| 11> H          6.69516       -0.06232       -3.85160
| 12> H          5.97538       -1.39688       -4.69141
| 13> H          2.69962        1.85926       -4.14426
| 14> H          3.71221        3.09654       -3.43937
| 15> H          2.88835        1.95032       -2.40957
| 16> *
| 17>
| 18> %MaxCore 64000
| 19>
| 20> %pal nprocs 8
| 21> end
| 22>
| 23> %scf
| 24>   MaxIter 150
| 25> end
| 26>
| 27>
| 28>                          ****END OF INPUT****

CARTESIAN COORDINATES (ANGSTROEM)
---------------------------------
  C      3.380930    2.083040   -3.350130
  C      4.535920    1.182450   -3.428520
  C      4.671960    0.122270   -4.220600
  N      5.866020   -0.507850   -4.224280
  N      3.698880   -0.312840   -4.986990
  H      2.731410   -0.050090   -4.849000
  H      3.890050   -1.055170   -5.643730
  H      5.251930    1.303460   -2.721010
  H      6.695160   -0.062320   -3.851600
  H      5.975380   -1.396880   -4.691410
  H      2.699620    1.859260   -4.144260
  H      3.712210    3.096540   -3.439370
  H      2.888350    1.950320   -2.409570

 Total Charge           Charge          ....    0
 Multiplicity           Mult            ....    1
 Number of Electrons    NEL             ....   40
 Basis Dimension        Dim             ....  164

ORBITAL ENERGIES
----------------

  NO   OCC          E(Eh)            E(eV)
   0   2.0000     -14.763012      -401.7220
   1   2.0000     -14.755458      -401.5164
   2   2.0000     -10.593425      -288.2618
   3   2.0000     -10.514277      -286.1080
   4   2.0000     -10.473559      -285.0000
   5   2.0000      -1.059072       -28.8188
   6   2.0000      -0.959200       -26.1011
   7   2.0000      -0.836980       -22.7754
   8   2.0000      -0.738605       -20.0985
   9   2.0000      -0.661977       -18.0133
  10   2.0000      -0.617102       -16.7922
  11   2.0000      -0.576917       -15.6987
  12   2.0000      -0.547643       -14.9021
  13   2.0000      -0.494981       -13.4691
  14   2.0000      -0.472293       -12.8517
  15   2.0000      -0.440497       -11.9865
  16   2.0000      -0.423153       -11.5146
  17   2.0000      -0.401516       -10.9258
  18   2.0000      -0.328074        -8.9273
  19   2.0000      -0.207205        -5.6383
  20   0.0000       0.036719         0.9992
  21   0.0000       0.063787         1.7357
  22   0.0000       0.073074         1.9884
  23   0.0000       0.103096         2.8054
  24   0.0000       0.106212         2.8902

MULLIKEN ATOMIC CHARGES
-----------------------
   0 C :    0.895272
   1 C :   -0.752670
   2 C :    1.126552
   3 N :   -0.093869
   4 N :   -0.043820
   5 H :   -0.085429
   6 H :   -0.201169
   7 H :   -0.396873
   8 H :   -0.083518
   9 H :   -0.106251
  10 H :   -0.195292
  11 H :   -0.012642
  12 H :   -0.050290
Sum of atomic charges:    0.0000000

LOEWDIN ATOMIC CHARGES
----------------------
   0 C :    0.100065
   1 C :   -0.064008
   2 C :   -0.228157
   3 N :    0.165441
   4 N :    0.180515
   5 H :    0.000687
   6 H :   -0.004672
   7 H :   -0.053985
   8 H :    0.003767
   9 H :   -0.015189
  10 H :   -0.041460
  11 H :   -0.021781
  12 H :   -0.021224

  Mayer bond orders larger than 0.100000
B(  0-C ,  1-C ) :   1.1367 B(  0-C ,  7-H ) :   0.1505 B(  0-C , 10-H ) :   0.7871
B(  0-C , 11-H ) :   0.7174 B(  0-C , 12-H ) :   0.7125 B(  1-C ,  2-C ) :   1.5842
B(  1-C ,  3-N ) :   0.4353 B(  1-C ,  4-N ) :   0.2831 B(  1-C ,  7-H ) :   0.9516
B(  1-C , 10-H ) :   0.3887 B(  1-C , 11-H ) :   0.2013 B(  1-C , 12-H ) :   0.1827
B(  2-C ,  3-N ) :   0.7015 B(  2-C ,  4-N ) :   0.9441 B(  2-C ,  5-H ) :  -0.1001
B(  2-C ,  6-H ) :  -0.1593 B(  2-C ,  7-H ) :   0.1442 B(  2-C ,  8-H ) :  -0.1529
B(  2-C , 10-H ) :  -0.1077 B(  3-N ,  4-N ) :   0.1201 B(  3-N ,  8-H ) :   1.2108
B(  3-N ,  9-H ) :   1.1439 B(  4-N ,  5-H ) :   1.1637 B(  4-N ,  6-H ) :   1.2840
B(  5-H ,  6-H ) :  -0.1840 B(  8-H ,  9-H ) :  -0.1662 B( 10-H , 11-H ) :   0.1354

Dispersion correction           -0.000174034
FINAL SINGLE POINT ENERGY      -228.335721120938

DIPOLE MOMENT
-------------
                                X             Y             Z
Electronic contribution:      1.56420      -2.45154      -1.21834
Nuclear contribution   :     -1.47697       1.65537       0.71722
                        -----------------------------------------
Total Dipole Moment    :      0.08724      -0.79617      -0.50113
                        -----------------------------------------
Magnitude (a.u.)       :      0.94479
Magnitude (Debye)      :      2.40146

Rotational constants in cm-1:     0.321284     0.131400     0.095192
Rotational constants in MHz :  9631.850868  3939.260061  2853.789421

                             ****ORCA TERMINATED NORMALLY****
TOTAL RUN TIME: 0 days 0 hours 0 minutes 10 seconds 319 msec
