                         Program Version 5.0.0 -  RELEASE  -
|  1> !M062X D3Zero RIJCOSX def2-SVPD def2/J TightSCF
|  2> *xyz 0 1
|  3> C          1.87218        0.42790       -2.07750
|  4> S          0.57902        0.14047       -3.29794
|  5> O          0.22886       -1.24687       -3.12787
|  6> F         -0.43927        1.11897       -3.01455
|  7> O          1.24788        0.40347       -4.59565
|  8> H          2.66832       -0.27048       -2.23022
|  9> H          1.46951        0.30034       -1.09440
| 10> H          2.24690        1.42458       -2.18288
| 11> *
| 12>
| 13> %MaxCore 64000
| 14>
| 15> %pal nprocs 8
| 16> end
| 17>
| 18> %scf
| 19>   MaxIter 150
| 20> end
| 21>
| 22>
| 23>                          ****END OF INPUT****

CARTESIAN COORDINATES (ANGSTROEM)
---------------------------------
  C      1.872180    0.427900   -2.077500
  S      0.579020    0.140470   -3.297940
  O      0.228860   -1.246870   -3.127870
  F     -0.439270    1.118970   -3.014550
  O      1.247880    0.403470   -4.595650
  H      2.668320   -0.270480   -2.230220
  H      1.469510    0.300340   -1.094400
  H      2.246900    1.424580   -2.182880

 Total Charge           Charge          ....    0
 Multiplicity           Mult            ....    1
 Number of Electrons    NEL             ....   50
 Basis Dimension        Dim             ....  140

ORBITAL ENERGIES
----------------

  NO   OCC          E(Eh)            E(eV)
   0   2.0000     -90.205983     -2454.6296
   1   2.0000     -25.386501      -690.8018
   2   2.0000     -19.658915      -534.9463
   3   2.0000     -19.644394      -534.5511
   4   2.0000     -10.611619      -288.7568
   5   2.0000      -8.530053      -232.1145
   6   2.0000      -6.458534      -175.7456
   7   2.0000      -6.453094      -175.5976
   8   2.0000      -6.452302      -175.5761
   9   2.0000      -1.525681       -41.5159
  10   2.0000      -1.233100       -33.5544
  11   2.0000      -1.123464       -30.5710
  12   2.0000      -0.896459       -24.3939
  13   2.0000      -0.822246       -22.3744
  14   2.0000      -0.706145       -19.2152
  15   2.0000      -0.697108       -18.9693
  16   2.0000      -0.646444       -17.5906
  17   2.0000      -0.560884       -15.2624
  18   2.0000      -0.554758       -15.0957
  19   2.0000      -0.538968       -14.6661
  20   2.0000      -0.516557       -14.0562
  21   2.0000      -0.468130       -12.7385
  22   2.0000      -0.414330       -11.2745
  23   2.0000      -0.399577       -10.8731
  24   2.0000      -0.386741       -10.5238
  25   0.0000       0.005011         0.1364
  26   0.0000       0.038981         1.0607
  27   0.0000       0.044840         1.2202
  28   0.0000       0.046754         1.2722
  29   0.0000       0.068846         1.8734

MULLIKEN ATOMIC CHARGES
-----------------------
   0 C :    0.372880
   1 S :    1.357076
   2 O :   -0.660331
   3 F :   -0.397376
   4 O :   -0.697273
   5 H :    0.004549
   6 H :    0.008613
   7 H :    0.011862
Sum of atomic charges:    0.0000000

LOEWDIN ATOMIC CHARGES
----------------------
   0 C :    0.126815
   1 S :    1.140403
   2 O :   -0.477667
   3 F :   -0.266173
   4 O :   -0.499128
   5 H :    0.001639
   6 H :   -0.013800
   7 H :   -0.012089

  Mayer bond orders larger than 0.100000
B(  0-C ,  1-S ) :   0.9924 B(  0-C ,  5-H ) :   0.9340 B(  0-C ,  6-H ) :   0.9345
B(  0-C ,  7-H ) :   0.9353 B(  1-S ,  2-O ) :   1.5253 B(  1-S ,  3-F ) :   0.6594
B(  1-S ,  4-O ) :   1.4935 B(  1-S ,  5-H ) :   0.1140

Dispersion correction           -0.000046892
FINAL SINGLE POINT ENERGY      -687.838539314075

DIPOLE MOMENT
-------------
                                X             Y             Z
Electronic contribution:     -4.88122       0.91778      -2.28485
Nuclear contribution   :      5.19357      -0.05217       3.71223
                        -----------------------------------------
Total Dipole Moment    :      0.31236       0.86561       1.42738
                        -----------------------------------------
Magnitude (a.u.)       :      1.69831
Magnitude (Debye)      :      4.31676

Rotational constants in cm-1:     0.163837     0.155047     0.147593
Rotational constants in MHz :  4911.724022  4648.196128  4424.713532

                             ****ORCA TERMINATED NORMALLY****
TOTAL RUN TIME: 0 days 0 hours 0 minutes 7 seconds 588 msec
