                         Program Version 5.0.0 -  RELEASE  -
|  1> !M062X D3Zero RIJCOSX def2-SVPD def2/J TightSCF
|  2> *xyz 0 1
|  3> C          3.38093        2.08304       -3.35013
|  4> N          4.53592        1.18245       -3.42852
|  5> C          4.67196        0.12227       -4.22060
|  6> C          5.86602       -0.50785       -4.22428
|  7> N          3.69888       -0.31284       -4.98699
|  8> H          2.73141       -0.05009       -4.84900
|  9> H          3.89005       -1.05517       -5.64373
| 10> H          5.25193        1.30346       -2.72101
| 11> H          6.69516       -0.06232       -3.85160
| 12> H          5.97538       -1.39688       -4.69141
| 13> H          2.69962        1.85926       -4.14426
| 14> H          3.71221        3.09654       -3.43937
| 15> H          2.88835        1.95032       -2.40957
| 16> *
| 17>
| 18> %MaxCore 64000
| 19>
| 20> %pal nprocs 8
| 21> end
| 22>
| 23> %scf
| 24>   MaxIter 150
| 25> end
| 26>
| 27>
| 28>                          ****END OF INPUT****

CARTESIAN COORDINATES (ANGSTROEM)
---------------------------------
  C      3.380930    2.083040   -3.350130
  N      4.535920    1.182450   -3.428520
  C      4.671960    0.122270   -4.220600
  C      5.866020   -0.507850   -4.224280
  N      3.698880   -0.312840   -4.986990
  H      2.731410   -0.050090   -4.849000
  H      3.890050   -1.055170   -5.643730
  H      5.251930    1.303460   -2.721010
  H      6.695160   -0.062320   -3.851600
  H      5.975380   -1.396880   -4.691410
  H      2.699620    1.859260   -4.144260
  H      3.712210    3.096540   -3.439370
  H      2.888350    1.950320   -2.409570

 Total Charge           Charge          ....    0
 Multiplicity           Mult            ....    1
 Number of Electrons    NEL             ....   40
 Basis Dimension        Dim             ....  164

ORBITAL ENERGIES
----------------

  NO   OCC          E(Eh)            E(eV)
   0   2.0000     -14.764637      -401.7662
   1   2.0000     -14.762311      -401.7029
   2   2.0000     -10.599884      -288.4375
   3   2.0000     -10.584432      -288.0170
   4   2.0000     -10.458519      -284.5908
   5   2.0000      -1.068082       -29.0640
   6   2.0000      -0.978811       -26.6348
   7   2.0000      -0.827334       -22.5129
   8   2.0000      -0.745889       -20.2967
   9   2.0000      -0.680902       -18.5283
  10   2.0000      -0.618013       -16.8170
  11   2.0000      -0.564128       -15.3507
  12   2.0000      -0.548187       -14.9169
  13   2.0000      -0.522292       -14.2123
  14   2.0000      -0.472705       -12.8630
  15   2.0000      -0.460529       -12.5316
  16   2.0000      -0.446049       -12.1376
  17   2.0000      -0.423464       -11.5231
  18   2.0000      -0.317313        -8.6345
  19   2.0000      -0.207967        -5.6591
  20   0.0000       0.030811         0.8384
  21   0.0000       0.064646         1.7591
  22   0.0000       0.067448         1.8354
  23   0.0000       0.100928         2.7464
  24   0.0000       0.107129         2.9151

MULLIKEN ATOMIC CHARGES
-----------------------
   0 C :    1.161597
   1 N :   -0.626498
   2 C :    0.866106
   3 C :    0.382319
   4 N :    0.004331
   5 H :   -0.145182
   6 H :   -0.078018
   7 H :   -0.291335
   8 H :   -0.432096
   9 H :   -0.370014
  10 H :   -0.194780
  11 H :   -0.136428
  12 H :   -0.140002
Sum of atomic charges:   -0.0000000

LOEWDIN ATOMIC CHARGES
----------------------
   0 C :    0.222336
   1 N :   -0.054696
   2 C :   -0.238099
   3 C :    0.141724
   4 N :    0.181559
   5 H :   -0.012193
   6 H :    0.013537
   7 H :    0.034666
   8 H :   -0.108483
   9 H :   -0.112191
  10 H :   -0.031118
  11 H :   -0.018033
  12 H :   -0.019009

  Mayer bond orders larger than 0.100000
B(  0-C ,  1-N ) :   0.8911 B(  0-C ,  7-H ) :  -0.1803 B(  0-C , 10-H ) :   0.8470
B(  0-C , 11-H ) :   0.8029 B(  0-C , 12-H ) :   0.8144 B(  1-N ,  2-C ) :   0.9946
B(  1-N ,  3-C ) :   0.2522 B(  1-N ,  4-N ) :   0.1802 B(  1-N ,  7-H ) :   1.3161
B(  1-N , 10-H ) :   0.1980 B(  1-N , 11-H ) :   0.1859 B(  1-N , 12-H ) :   0.1736
B(  2-C ,  3-C ) :   1.3961 B(  2-C ,  4-N ) :   1.0061 B(  2-C ,  5-H ) :  -0.1064
B(  2-C ,  7-H ) :  -0.2367 B(  2-C ,  9-H ) :   0.1725 B(  3-C ,  4-N ) :   0.2008
B(  3-C ,  8-H ) :   0.9243 B(  3-C ,  9-H ) :   0.7975 B(  4-N ,  5-H ) :   1.1863
B(  4-N ,  6-H ) :   1.1717 B(  5-H ,  6-H ) :  -0.1856

Dispersion correction           -0.000171215
FINAL SINGLE POINT ENERGY      -228.321705914784

DIPOLE MOMENT
-------------
                                X             Y             Z
Electronic contribution:      0.15726      -0.80805      -0.45866
Nuclear contribution   :     -1.20756       1.31300       0.55604
                        -----------------------------------------
Total Dipole Moment    :     -1.05030       0.50495       0.09738
                        -----------------------------------------
Magnitude (a.u.)       :      1.16944
Magnitude (Debye)      :      2.97248

Rotational constants in cm-1:     0.323683     0.135884     0.097747
Rotational constants in MHz :  9703.770798  4073.695357  2930.389562

                             ****ORCA TERMINATED NORMALLY****
TOTAL RUN TIME: 0 days 0 hours 0 minutes 10 seconds 308 msec
