                         Program Version 5.0.0 -  RELEASE  -
|  1> !M062X D3Zero RIJCOSX def2-SVPD def2/J TightSCF
|  2> *xyz 0 1
|  3> C          1.87218        0.42790       -2.07750
|  4> S          0.57902        0.14047       -3.29794
|  5> O          0.22886       -1.24687       -3.12787
|  6> O         -0.43927        1.11897       -3.01455
|  7> F          1.24788        0.40347       -4.59565
|  8> H          2.66832       -0.27048       -2.23022
|  9> H          1.46951        0.30034       -1.09440
| 10> H          2.24690        1.42458       -2.18288
| 11> *
| 12>
| 13> %MaxCore 64000
| 14>
| 15> %pal nprocs 8
| 16> end
| 17>
| 18> %scf
| 19>   MaxIter 150
| 20> end
| 21>
| 22>
| 23>                          ****END OF INPUT****

CARTESIAN COORDINATES (ANGSTROEM)
---------------------------------
  C      1.872180    0.427900   -2.077500
  S      0.579020    0.140470   -3.297940
  O      0.228860   -1.246870   -3.127870
  O     -0.439270    1.118970   -3.014550
  F      1.247880    0.403470   -4.595650
  H      2.668320   -0.270480   -2.230220
  H      1.469510    0.300340   -1.094400
  H      2.246900    1.424580   -2.182880

 Total Charge           Charge          ....    0
 Multiplicity           Mult            ....    1
 Number of Electrons    NEL             ....   50
 Basis Dimension        Dim             ....  140

ORBITAL ENERGIES
----------------

  NO   OCC          E(Eh)            E(eV)
   0   2.0000     -90.204182     -2454.5806
   1   2.0000     -25.364434      -690.2013
   2   2.0000     -19.658388      -534.9319
   3   2.0000     -19.658326      -534.9302
   4   2.0000     -10.610570      -288.7283
   5   2.0000      -8.528038      -232.0597
   6   2.0000      -6.456301      -175.6849
   7   2.0000      -6.451334      -175.5497
   8   2.0000      -6.450521      -175.5276
   9   2.0000      -1.488359       -40.5003
  10   2.0000      -1.244135       -33.8546
  11   2.0000      -1.145741       -31.1772
  12   2.0000      -0.892990       -24.2995
  13   2.0000      -0.802993       -21.8505
  14   2.0000      -0.685297       -18.6479
  15   2.0000      -0.670883       -18.2556
  16   2.0000      -0.645362       -17.5612
  17   2.0000      -0.564759       -15.3679
  18   2.0000      -0.556825       -15.1520
  19   2.0000      -0.537368       -14.6225
  20   2.0000      -0.522999       -14.2315
  21   2.0000      -0.474568       -12.9137
  22   2.0000      -0.423028       -11.5112
  23   2.0000      -0.409372       -11.1396
  24   2.0000      -0.401914       -10.9366
  25   0.0000       0.007930         0.2158
  26   0.0000       0.040372         1.0986
  27   0.0000       0.045903         1.2491
  28   0.0000       0.046160         1.2561
  29   0.0000       0.069108         1.8805

MULLIKEN ATOMIC CHARGES
-----------------------
   0 C :    0.369998
   1 S :    1.370172
   2 O :   -0.672913
   3 O :   -0.672385
   4 F :   -0.418011
   5 H :    0.012518
   6 H :    0.000791
   7 H :    0.009830
Sum of atomic charges:    0.0000000

LOEWDIN ATOMIC CHARGES
----------------------
   0 C :    0.127118
   1 S :    1.137561
   2 O :   -0.478068
   3 O :   -0.477260
   4 F :   -0.284985
   5 H :   -0.011816
   6 H :    0.000089
   7 H :   -0.012639

  Mayer bond orders larger than 0.100000
B(  0-C ,  1-S ) :   0.9931 B(  0-C ,  5-H ) :   0.9365 B(  0-C ,  6-H ) :   0.9332
B(  0-C ,  7-H ) :   0.9357 B(  1-S ,  2-O ) :   1.5229 B(  1-S ,  3-O ) :   1.5218
B(  1-S ,  4-F ) :   0.6171 B(  1-S ,  6-H ) :   0.1076

Dispersion correction           -0.000046843
FINAL SINGLE POINT ENERGY      -687.857280376372

DIPOLE MOMENT
-------------
                                X             Y             Z
Electronic contribution:     -2.04066      -0.27501      -4.95743
Nuclear contribution   :      3.50800       0.66266       5.29185
                        -----------------------------------------
Total Dipole Moment    :      1.46735       0.38765       0.33442
                        -----------------------------------------
Magnitude (a.u.)       :      1.55409
Magnitude (Debye)      :      3.95020

Rotational constants in cm-1:     0.163942     0.153101     0.149133
Rotational constants in MHz :  4914.860621  4589.839477  4470.901507

                             ****ORCA TERMINATED NORMALLY****
TOTAL RUN TIME: 0 days 0 hours 0 minutes 7 seconds 591 msec
