                         Program Version 5.0.0 -  RELEASE  -
|  1> !M062X D3Zero RIJCOSX def2-SVPD def2/J TightSCF
|  2> *xyz 0 1
|  3> C          3.38093        2.08304       -3.35013
|  4> N          4.53592        1.18245       -3.42852
|  5> C          4.67196        0.12227       -4.22060
|  6> N          5.86602       -0.50785       -4.22428
|  7> C          3.69888       -0.31284       -4.98699
|  8> H          2.73141       -0.05009       -4.84900
|  9> H          3.89005       -1.05517       -5.64373
| 10> H          5.25193        1.30346       -2.72101
| 11> H          6.69516       -0.06232       -3.85160
| 12> H          5.97538       -1.39688       -4.69141
| 13> H          2.69962        1.85926       -4.14426
| 14> H          3.71221        3.09654       -3.43937
| 15> H          2.88835        1.95032       -2.40957
| 16> *
| 17>
| 18> %MaxCore 64000
| 19>
| 20> %pal nprocs 8
| 21> end
| 22>
| 23> %scf
| 24>   MaxIter 150
| 25> end
| 26>
| 27>
| 28>                          ****END OF INPUT****

CARTESIAN COORDINATES (ANGSTROEM)
---------------------------------
  C      3.380930    2.083040   -3.350130
  N      4.535920    1.182450   -3.428520
  C      4.671960    0.122270   -4.220600
  N      5.866020   -0.507850   -4.224280
  C      3.698880   -0.312840   -4.986990
  H      2.731410   -0.050090   -4.849000
  H      3.890050   -1.055170   -5.643730
  H      5.251930    1.303460   -2.721010
  H      6.695160   -0.062320   -3.851600
  H      5.975380   -1.396880   -4.691410
  H      2.699620    1.859260   -4.144260
  H      3.712210    3.096540   -3.439370
  H      2.888350    1.950320   -2.409570

 Total Charge           Charge          ....    0
 Multiplicity           Mult            ....    1
 Number of Electrons    NEL             ....   40
 Basis Dimension        Dim             ....  164

ORBITAL ENERGIES
----------------

  NO   OCC          E(Eh)            E(eV)
   0   2.0000     -14.762659      -401.7124
   1   2.0000     -14.757797      -401.5801
   2   2.0000     -10.597352      -288.3686
   3   2.0000     -10.575965      -287.7866
   4   2.0000     -10.463358      -284.7224
   5   2.0000      -1.061283       -28.8790
   6   2.0000      -0.969183       -26.3728
   7   2.0000      -0.809368       -22.0240
   8   2.0000      -0.780298       -21.2330
   9   2.0000      -0.643060       -17.4985
  10   2.0000      -0.619363       -16.8537
  11   2.0000      -0.587828       -15.9956
  12   2.0000      -0.524415       -14.2701
  13   2.0000      -0.507182       -13.8011
  14   2.0000      -0.484466       -13.1830
  15   2.0000      -0.452013       -12.2999
  16   2.0000      -0.447765       -12.1843
  17   2.0000      -0.423035       -11.5114
  18   2.0000      -0.309958        -8.4344
  19   2.0000      -0.221344        -6.0231
  20   0.0000       0.037861         1.0302
  21   0.0000       0.057947         1.5768
  22   0.0000       0.071450         1.9443
  23   0.0000       0.101407         2.7594
  24   0.0000       0.107549         2.9266

MULLIKEN ATOMIC CHARGES
-----------------------
   0 C :    1.132207
   1 N :   -0.606087
   2 C :    1.016704
   3 N :   -0.076702
   4 C :    0.096546
   5 H :   -0.202595
   6 H :   -0.399037
   7 H :   -0.361711
   8 H :   -0.176068
   9 H :   -0.020156
  10 H :   -0.137473
  11 H :   -0.119847
  12 H :   -0.145779
Sum of atomic charges:   -0.0000000

LOEWDIN ATOMIC CHARGES
----------------------
   0 C :    0.231648
   1 N :   -0.065332
   2 C :   -0.238927
   3 N :    0.169772
   4 C :    0.152142
   5 H :   -0.104185
   6 H :   -0.098270
   7 H :    0.019466
   8 H :   -0.010981
   9 H :    0.002881
  10 H :   -0.026045
  11 H :   -0.016739
  12 H :   -0.015429

  Mayer bond orders larger than 0.100000
B(  0-C ,  1-N ) :   0.8948 B(  0-C ,  7-H ) :  -0.1619 B(  0-C , 10-H ) :   0.8658
B(  0-C , 11-H ) :   0.7852 B(  0-C , 12-H ) :   0.7954 B(  1-N ,  2-C ) :   0.9004
B(  1-N ,  3-N ) :   0.1736 B(  1-N ,  4-C ) :   0.3067 B(  1-N ,  7-H ) :   1.3816
B(  1-N , 10-H ) :   0.1593 B(  1-N , 11-H ) :   0.1867 B(  1-N , 12-H ) :   0.1914
B(  2-C ,  3-N ) :   0.8302 B(  2-C ,  4-C ) :   1.5315 B(  2-C ,  5-H ) :   0.1101
B(  2-C ,  6-H ) :   0.1243 B(  2-C ,  7-H ) :  -0.2445 B(  2-C ,  8-H ) :  -0.1307
B(  3-N ,  4-C ) :   0.2438 B(  3-N ,  8-H ) :   1.2382 B(  3-N ,  9-H ) :   1.1402
B(  4-C ,  5-H ) :   0.7585 B(  4-C ,  6-H ) :   0.9614 B(  8-H ,  9-H ) :  -0.1738

Dispersion correction           -0.000172223
FINAL SINGLE POINT ENERGY      -228.326616374965

DIPOLE MOMENT
-------------
                                X             Y             Z
Electronic contribution:      2.29705      -1.01034       0.23222
Nuclear contribution   :     -1.64651       1.35250       0.40156
                        -----------------------------------------
Total Dipole Moment    :      0.65055       0.34216       0.63377
                        -----------------------------------------
Magnitude (a.u.)       :      0.97054
Magnitude (Debye)      :      2.46693

Rotational constants in cm-1:     0.339624     0.131069     0.096565
Rotational constants in MHz : 10181.679558  3929.342810  2894.941560

                             ****ORCA TERMINATED NORMALLY****
TOTAL RUN TIME: 0 days 0 hours 0 minutes 10 seconds 163 msec
