                         Program Version 5.0.0 -  RELEASE  -
|  1> !M062X D3Zero RIJCOSX def2-SVPD def2/J TightSCF xyzfile
|  2>
|  3> *xyzfile 0 1 D4.xyz
|  4>
|  5> %MaxCore 64000
|  6>
|  7> %pal nprocs 4
|  8> end
|  9>
| 10> %scf
| 11>   MaxIter 150
| 12> end
| 13>
| 14>
| 15>                          ****END OF INPUT****

CARTESIAN COORDINATES (ANGSTROEM)
---------------------------------
  C      3.380928    2.083045   -3.350127
  C      4.535924    1.182447   -3.428518
  C      2.495557    1.816150   -2.136364
  C      1.872181    0.427903   -2.077497
  H      2.614270   -0.365825   -2.198894
  H      1.389953    0.273087   -1.112360
  S      0.579024    0.140472   -3.297943
  C      4.671956    0.122273   -4.220598
  N      5.866023   -0.507849   -4.224284
  N      3.698881   -0.312844   -4.986988
  H      2.731405   -0.050091   -4.849000
  H      3.890046   -1.055172   -5.643730
  H      5.251933    1.303459   -2.721014
  H      6.695165   -0.062322   -3.851596
  H      5.975383   -1.396884   -4.691414
  O      0.228860   -1.246868   -3.127871
  F     -0.439269    1.118966   -3.014550
  O      1.247881    0.403474   -4.595647
  H      1.697003    2.561969   -2.141109
  H      3.080787    1.987436   -1.225838
  H      2.806463    1.986511   -4.268484
  H      3.778714    3.098282   -3.307383

 Total Charge           Charge          ....    0
 Multiplicity           Mult            ....    1
 Number of Electrons    NEL             ....   96
 Basis Dimension        Dim             ....  324

ORBITAL ENERGIES
----------------

  NO   OCC          E(Eh)            E(eV)
   0   2.0000     -90.209119     -2454.7149
   1   2.0000     -25.389604      -690.8863
   2   2.0000     -19.663141      -535.0613
   3   2.0000     -19.656765      -534.8878
   4   2.0000     -14.755217      -401.5099
   5   2.0000     -14.738154      -401.0456
   6   2.0000     -10.606872      -288.6277
   7   2.0000     -10.594456      -288.2898
   8   2.0000     -10.565613      -287.5050
   9   2.0000     -10.530618      -286.5527
  10   2.0000     -10.473279      -284.9924
  11   2.0000      -8.532978      -232.1941
  12   2.0000      -6.461437      -175.8246
  13   2.0000      -6.456413      -175.6879
  14   2.0000      -6.454752      -175.6427
  15   2.0000      -1.527819       -41.5741
  16   2.0000      -1.241429       -33.7810
  17   2.0000      -1.138308       -30.9749
  18   2.0000      -1.051967       -28.6255
  19   2.0000      -0.951862       -25.9015
  20   2.0000      -0.923856       -25.1394
  21   2.0000      -0.858968       -23.3737
  22   2.0000      -0.823010       -22.3953
  23   2.0000      -0.771723       -20.9997
  24   2.0000      -0.716660       -19.5013
  25   2.0000      -0.703632       -19.1468
  26   2.0000      -0.685410       -18.6510
  27   2.0000      -0.665900       -18.1201
  28   2.0000      -0.631049       -17.1717
  29   2.0000      -0.609987       -16.5986
  30   2.0000      -0.591536       -16.0965
  31   2.0000      -0.562289       -15.3007
  32   2.0000      -0.560734       -15.2583
  33   2.0000      -0.552426       -15.0323
  34   2.0000      -0.528114       -14.3707
  35   2.0000      -0.516343       -14.0504
  36   2.0000      -0.480004       -13.0616
  37   2.0000      -0.473711       -12.8903
  38   2.0000      -0.471900       -12.8411
  39   2.0000      -0.450651       -12.2628
  40   2.0000      -0.427151       -11.6234
  41   2.0000      -0.415104       -11.2956
  42   2.0000      -0.414100       -11.2682
  43   2.0000      -0.401357       -10.9215
  44   2.0000      -0.394526       -10.7356
  45   2.0000      -0.373267       -10.1571
  46   2.0000      -0.318545        -8.6681
  47   2.0000      -0.210573        -5.7300
  48   0.0000       0.009941         0.2705
  49   0.0000       0.036415         0.9909
  50   0.0000       0.037753         1.0273
  51   0.0000       0.045906         1.2492
  52   0.0000       0.061938         1.6854

MULLIKEN ATOMIC CHARGES
-----------------------
   0 C :    0.383940
   1 C :   -0.154861
   2 C :    0.256622
   3 C :    0.071700
   4 H :    0.087036
   5 H :   -0.095142
   6 S :    1.706883
   7 C :    1.045982
   8 N :   -0.127455
   9 N :    0.433314
  10 H :   -0.387718
  11 H :   -0.259095
  12 H :   -0.380997
  13 H :   -0.097267
  14 H :   -0.110725
  15 O :   -0.696751
  16 F :   -0.500087
  17 O :   -0.883284
  18 H :   -0.019795
  19 H :   -0.049134
  20 H :   -0.067876
  21 H :   -0.155290
Sum of atomic charges:    0.0000000

LOEWDIN ATOMIC CHARGES
----------------------
   0 C :   -0.040851
   1 C :   -0.025255
   2 C :   -0.032977
   3 C :   -0.029381
   4 H :    0.033491
   5 H :    0.020414
   6 S :    1.201843
   7 C :   -0.209446
   8 N :    0.171223
   9 N :    0.225714
  10 H :   -0.136311
  11 H :    0.004443
  12 H :   -0.053152
  13 H :    0.003000
  14 H :   -0.012188
  15 O :   -0.462054
  16 F :   -0.253361
  17 O :   -0.475128
  18 H :    0.020224
  19 H :    0.035345
  20 H :   -0.005237
  21 H :    0.019644

  Mayer bond orders larger than 0.100000
B(  0-C ,  1-C ) :   1.1154 B(  0-C ,  2-C ) :   1.1311 B(  0-C , 12-H ) :   0.2122
B(  0-C , 18-H ) :   0.1775 B(  0-C , 19-H ) :   0.1562 B(  0-C , 20-H ) :   0.8023
B(  0-C , 21-H ) :   0.7882 B(  1-C ,  7-C ) :   1.5652 B(  1-C ,  8-N ) :   0.4103
B(  1-C ,  9-N ) :   0.1917 B(  1-C , 12-H ) :   0.8009 B(  1-C , 20-H ) :   0.2750
B(  1-C , 21-H ) :   0.1245 B(  2-C ,  3-C ) :   1.2549 B(  2-C ,  4-H ) :   0.1299
B(  2-C ,  5-H ) :   0.1456 B(  2-C , 18-H ) :   0.7808 B(  2-C , 19-H ) :   0.7849
B(  2-C , 20-H ) :   0.1428 B(  3-C ,  4-H ) :   0.9668 B(  3-C ,  5-H ) :   0.8172
B(  3-C ,  6-S ) :   0.9465 B(  3-C , 17-O ) :   0.1103 B(  3-C , 18-H ) :   0.1370
B(  3-C , 19-H ) :   0.1171 B(  5-H ,  6-S ) :   0.1008 B(  6-S , 15-O ) :   1.5077
B(  6-S , 16-F ) :   0.5562 B(  6-S , 17-O ) :   1.3348 B(  7-C ,  8-N ) :   0.6576
B(  7-C ,  9-N ) :   1.0027 B(  7-C , 10-H ) :  -0.1409 B(  7-C , 11-H ) :  -0.2219
B(  7-C , 12-H ) :   0.1054 B(  7-C , 13-H ) :  -0.2007 B(  7-C , 20-H ) :  -0.1245
B(  8-N , 12-H ) :   0.1044 B(  8-N , 13-H ) :   1.2494 B(  8-N , 14-H ) :   1.1663
B(  9-N , 10-H ) :   1.1543 B(  9-N , 11-H ) :   1.2385 B(  9-N , 17-O ) :  -0.1301
B( 10-H , 11-H ) :  -0.2060 B( 10-H , 17-O ) :   0.1252 B( 13-H , 14-H ) :  -0.1720
B( 18-H , 19-H ) :  -0.1229

Dispersion correction           -0.000928282
FINAL SINGLE POINT ENERGY      -954.267211364891

DIPOLE MOMENT
-------------
                                X             Y             Z
Electronic contribution:    -16.35540      -2.62259      -0.92775
Nuclear contribution   :     16.65743       2.74852       1.69529
                        -----------------------------------------
Total Dipole Moment    :      0.30203       0.12593       0.76753
                        -----------------------------------------
Magnitude (a.u.)       :      0.83438
Magnitude (Debye)      :      2.12082

Rotational constants in cm-1:     0.059907     0.020458     0.017675
Rotational constants in MHz :  1795.978106   613.328205   529.885290

                             ****ORCA TERMINATED NORMALLY****
TOTAL RUN TIME: 0 days 0 hours 1 minutes 27 seconds 597 msec
