                         Program Version 5.0.0 -  RELEASE  -
|  1> !M062X D3Zero RIJCOSX def2-SVPD def2/J TightSCF xyzfile
|  2>
|  3> *xyzfile 0 1 D5.xyz
|  4>
|  5> %MaxCore 64000
|  6>
|  7> %pal nprocs 4
|  8> end
|  9>
| 10> %scf
| 11>   MaxIter 150
| 12> end
| 13>
| 14>
| 15>                          ****END OF INPUT****

CARTESIAN COORDINATES (ANGSTROEM)
---------------------------------
  C      3.380928    2.083045   -3.350127
  N      4.535924    1.182447   -3.428518
  C      2.495557    1.816150   -2.136364
  C      1.872181    0.427903   -2.077497
  H      2.614270   -0.365825   -2.198894
  H      1.389953    0.273087   -1.112360
  S      0.579024    0.140472   -3.297943
  C      4.671956    0.122273   -4.220598
  C      5.866023   -0.507849   -4.224284
  N      3.698881   -0.312844   -4.986988
  H      2.731405   -0.050091   -4.849000
  H      3.890046   -1.055172   -5.643730
  H      5.251933    1.303459   -2.721014
  H      6.695165   -0.062322   -3.851596
  H      5.975383   -1.396884   -4.691414
  O      0.228860   -1.246868   -3.127871
  F     -0.439269    1.118966   -3.014550
  O      1.247881    0.403474   -4.595647
  H      1.697003    2.561969   -2.141109
  H      3.080787    1.987436   -1.225838
  H      2.806463    1.986511   -4.268484
  H      3.778714    3.098282   -3.307383

 Total Charge           Charge          ....    0
 Multiplicity           Mult            ....    1
 Number of Electrons    NEL             ....   96
 Basis Dimension        Dim             ....  324

ORBITAL ENERGIES
----------------

  NO   OCC          E(Eh)            E(eV)
   0   2.0000     -90.222240     -2455.0720
   1   2.0000     -25.402070      -691.2255
   2   2.0000     -19.674613      -535.3734
   3   2.0000     -19.668990      -535.2204
   4   2.0000     -14.764420      -401.7603
   5   2.0000     -14.734400      -400.9434
   6   2.0000     -10.625820      -289.1433
   7   2.0000     -10.598536      -288.4008
   8   2.0000     -10.593085      -288.2525
   9   2.0000     -10.592055      -288.2245
  10   2.0000     -10.452111      -284.4164
  11   2.0000      -8.545974      -232.5478
  12   2.0000      -6.474423      -176.1780
  13   2.0000      -6.469358      -176.0402
  14   2.0000      -6.467894      -176.0004
  15   2.0000      -1.540402       -41.9165
  16   2.0000      -1.253168       -34.1004
  17   2.0000      -1.150103       -31.2959
  18   2.0000      -1.063134       -28.9294
  19   2.0000      -0.975454       -26.5435
  20   2.0000      -0.933597       -25.4045
  21   2.0000      -0.866735       -23.5851
  22   2.0000      -0.823653       -22.4127
  23   2.0000      -0.776690       -21.1348
  24   2.0000      -0.726585       -19.7714
  25   2.0000      -0.714363       -19.4388
  26   2.0000      -0.702335       -19.1115
  27   2.0000      -0.675340       -18.3769
  28   2.0000      -0.659262       -17.9394
  29   2.0000      -0.620084       -16.8734
  30   2.0000      -0.584696       -15.9104
  31   2.0000      -0.578295       -15.7362
  32   2.0000      -0.564343       -15.3566
  33   2.0000      -0.553587       -15.0639
  34   2.0000      -0.539168       -14.6715
  35   2.0000      -0.523837       -14.2543
  36   2.0000      -0.494013       -13.4428
  37   2.0000      -0.483753       -13.1636
  38   2.0000      -0.476771       -12.9736
  39   2.0000      -0.458710       -12.4821
  40   2.0000      -0.451632       -12.2895
  41   2.0000      -0.432917       -11.7803
  42   2.0000      -0.423075       -11.5125
  43   2.0000      -0.411944       -11.2096
  44   2.0000      -0.409088       -11.1319
  45   2.0000      -0.401441       -10.9238
  46   2.0000      -0.310490        -8.4489
  47   2.0000      -0.202379        -5.5070
  48   0.0000      -0.000991        -0.0270
  49   0.0000       0.026221         0.7135
  50   0.0000       0.031993         0.8706
  51   0.0000       0.037429         1.0185
  52   0.0000       0.052125         1.4184

MULLIKEN ATOMIC CHARGES
-----------------------
   0 C :    0.947165
   1 N :   -0.462960
   2 C :    0.216867
   3 C :    0.110856
   4 H :    0.147367
   5 H :   -0.140881
   6 S :    1.693213
   7 C :    0.676033
   8 C :    0.362508
   9 N :    0.553587
  10 H :   -0.464847
  11 H :   -0.189634
  12 H :   -0.251789
  13 H :   -0.410526
  14 H :   -0.268598
  15 O :   -0.686726
  16 F :   -0.491751
  17 O :   -0.890983
  18 H :   -0.014858
  19 H :   -0.059485
  20 H :   -0.018805
  21 H :   -0.355754
Sum of atomic charges:   -0.0000000

LOEWDIN ATOMIC CHARGES
----------------------
   0 C :    0.076354
   1 N :   -0.016125
   2 C :   -0.023030
   3 C :   -0.026615
   4 H :    0.038838
   5 H :    0.022968
   6 S :    1.203298
   7 C :   -0.236846
   8 C :    0.141575
   9 N :    0.224247
  10 H :   -0.144856
  11 H :    0.020554
  12 H :    0.036386
  13 H :   -0.112108
  14 H :   -0.110629
  15 O :   -0.453626
  16 F :   -0.252164
  17 O :   -0.475285
  18 H :    0.025977
  19 H :    0.034718
  20 H :    0.001939
  21 H :    0.024427

  Mayer bond orders larger than 0.100000
B(  0-C ,  1-N ) :   0.9347 B(  0-C ,  2-C ) :   1.0850 B(  0-C , 12-H ) :  -0.2101
B(  0-C , 18-H ) :   0.1449 B(  0-C , 19-H ) :   0.1351 B(  0-C , 20-H ) :   0.7250
B(  0-C , 21-H ) :   0.8879 B(  1-N ,  7-C ) :   0.9673 B(  1-N ,  8-C ) :   0.2317
B(  1-N ,  9-N ) :   0.1264 B(  1-N , 12-H ) :   1.2721 B(  1-N , 20-H ) :   0.2218
B(  1-N , 21-H ) :   0.1510 B(  2-C ,  3-C ) :   1.2333 B(  2-C ,  4-H ) :   0.1276
B(  2-C ,  5-H ) :   0.1405 B(  2-C , 18-H ) :   0.8353 B(  2-C , 19-H ) :   0.8110
B(  2-C , 20-H ) :   0.1390 B(  3-C ,  4-H ) :   0.9183 B(  3-C ,  5-H ) :   0.8396
B(  3-C ,  6-S ) :   0.9529 B(  3-C , 17-O ) :   0.1102 B(  3-C , 18-H ) :   0.1077
B(  3-C , 19-H ) :   0.1039 B(  6-S , 15-O ) :   1.5178 B(  6-S , 16-F ) :   0.5689
B(  6-S , 17-O ) :   1.3420 B(  7-C ,  8-C ) :   1.4265 B(  7-C ,  9-N ) :   1.0475
B(  7-C , 10-H ) :  -0.1147 B(  7-C , 11-H ) :  -0.1186 B(  7-C , 12-H ) :  -0.2248
B(  7-C , 13-H ) :   0.1068 B(  7-C , 14-H ) :   0.2223 B(  8-C ,  9-N ) :   0.1497
B(  8-C , 13-H ) :   0.7957 B(  8-C , 14-H ) :   0.7839 B(  9-N , 10-H ) :   1.0048
B(  9-N , 11-H ) :   1.1526 B(  9-N , 17-O ) :  -0.1314 B(  9-N , 20-H ) :   0.1207
B( 10-H , 11-H ) :  -0.2284 B( 10-H , 17-O ) :   0.1392 B( 20-H , 21-H ) :  -0.1865

Dispersion correction           -0.000924973
FINAL SINGLE POINT ENERGY      -954.249731179970

DIPOLE MOMENT
-------------
                                X             Y             Z
Electronic contribution:    -17.81336      -1.16930      -0.14314
Nuclear contribution   :     16.78714       2.58368       1.61768
                        -----------------------------------------
Total Dipole Moment    :     -1.02622       1.41438       1.47455
                        -----------------------------------------
Magnitude (a.u.)       :      2.28646
Magnitude (Debye)      :      5.81172

Rotational constants in cm-1:     0.059928     0.020911     0.017993
Rotational constants in MHz :  1796.610847   626.896941   539.414615

                             ****ORCA TERMINATED NORMALLY****
TOTAL RUN TIME: 0 days 0 hours 1 minutes 37 seconds 520 msec
