                         Program Version 5.0.0 -  RELEASE  -
|  1> !M062X D3Zero RIJCOSX def2-SVPD def2/J TightSCF xyzfile
|  2>
|  3> *xyzfile 0 1 D6.xyz
|  4>
|  5> %MaxCore 64000
|  6>
|  7> %pal nprocs 4
|  8> end
|  9>
| 10> %scf
| 11>   MaxIter 150
| 12> end
| 13>
| 14>
| 15>                          ****END OF INPUT****

CARTESIAN COORDINATES (ANGSTROEM)
---------------------------------
  C      3.380928    2.083045   -3.350127
  N      4.535924    1.182447   -3.428518
  C      2.495557    1.816150   -2.136364
  C      1.872181    0.427903   -2.077497
  H      2.614270   -0.365825   -2.198894
  H      1.389953    0.273087   -1.112360
  S      0.579024    0.140472   -3.297943
  C      4.671956    0.122273   -4.220598
  N      5.866023   -0.507849   -4.224284
  C      3.698881   -0.312844   -4.986988
  H      2.731405   -0.050091   -4.849000
  H      3.890046   -1.055172   -5.643730
  H      5.251933    1.303459   -2.721014
  H      6.695165   -0.062322   -3.851596
  H      5.975383   -1.396884   -4.691414
  O      0.228860   -1.246868   -3.127871
  F     -0.439269    1.118966   -3.014550
  O      1.247881    0.403474   -4.595647
  H      1.697003    2.561969   -2.141109
  H      3.080787    1.987436   -1.225838
  H      2.806463    1.986511   -4.268484
  H      3.778714    3.098282   -3.307383

 Total Charge           Charge          ....    0
 Multiplicity           Mult            ....    1
 Number of Electrons    NEL             ....   96
 Basis Dimension        Dim             ....  324

ORBITAL ENERGIES
----------------

  NO   OCC          E(Eh)            E(eV)
   0   2.0000     -90.199951     -2454.4654
   1   2.0000     -25.382601      -690.6957
   2   2.0000     -19.655121      -534.8430
   3   2.0000     -19.641389      -534.4694
   4   2.0000     -14.764942      -401.7745
   5   2.0000     -14.752738      -401.4424
   6   2.0000     -10.611545      -288.7548
   7   2.0000     -10.592040      -288.2241
   8   2.0000     -10.588804      -288.1360
   9   2.0000     -10.584863      -288.0288
  10   2.0000     -10.441917      -284.1390
  11   2.0000      -8.523703      -231.9418
  12   2.0000      -6.452248      -175.5746
  13   2.0000      -6.446928      -175.4298
  14   2.0000      -6.445698      -175.3964
  15   2.0000      -1.521274       -41.3960
  16   2.0000      -1.230882       -33.4940
  17   2.0000      -1.125584       -30.6287
  18   2.0000      -1.061737       -28.8913
  19   2.0000      -0.974154       -26.5081
  20   2.0000      -0.920684       -25.0531
  21   2.0000      -0.847242       -23.0546
  22   2.0000      -0.811661       -22.0864
  23   2.0000      -0.784370       -21.3438
  24   2.0000      -0.730273       -19.8717
  25   2.0000      -0.697231       -18.9726
  26   2.0000      -0.689740       -18.7688
  27   2.0000      -0.650666       -17.7055
  28   2.0000      -0.634782       -17.2733
  29   2.0000      -0.610771       -16.6199
  30   2.0000      -0.591487       -16.0952
  31   2.0000      -0.569878       -15.5072
  32   2.0000      -0.564085       -15.3495
  33   2.0000      -0.541725       -14.7411
  34   2.0000      -0.526504       -14.3269
  35   2.0000      -0.516509       -14.0549
  36   2.0000      -0.489275       -13.3138
  37   2.0000      -0.471332       -12.8256
  38   2.0000      -0.462485       -12.5849
  39   2.0000      -0.453187       -12.3318
  40   2.0000      -0.441306       -12.0085
  41   2.0000      -0.436349       -11.8737
  42   2.0000      -0.421484       -11.4692
  43   2.0000      -0.391819       -10.6619
  44   2.0000      -0.381771       -10.3885
  45   2.0000      -0.365256        -9.9391
  46   2.0000      -0.311365        -8.4727
  47   2.0000      -0.213907        -5.8207
  48   0.0000       0.009113         0.2480
  49   0.0000       0.031265         0.8508
  50   0.0000       0.040160         1.0928
  51   0.0000       0.044047         1.1986
  52   0.0000       0.059394         1.6162

MULLIKEN ATOMIC CHARGES
-----------------------
   0 C :    0.927225
   1 N :   -0.629582
   2 C :    0.198699
   3 C :    0.182314
   4 H :    0.088679
   5 H :   -0.144590
   6 S :    1.680006
   7 C :    1.098830
   8 N :   -0.073311
   9 C :    0.763744
  10 H :   -0.784541
  11 H :   -0.406661
  12 H :   -0.300682
  13 H :   -0.143787
  14 H :   -0.011164
  15 O :   -0.693312
  16 F :   -0.499381
  17 O :   -0.900432
  18 H :   -0.037748
  19 H :   -0.064419
  20 H :    0.086972
  21 H :   -0.336858
Sum of atomic charges:    0.0000000

LOEWDIN ATOMIC CHARGES
----------------------
   0 C :    0.084065
   1 N :   -0.027698
   2 C :   -0.021989
   3 C :   -0.027153
   4 H :    0.034284
   5 H :    0.019880
   6 S :    1.194641
   7 C :   -0.229457
   8 N :    0.168208
   9 C :    0.198653
  10 H :   -0.204742
  11 H :   -0.081849
  12 H :    0.021760
  13 H :   -0.014357
  14 H :    0.002660
  15 O :   -0.461418
  16 F :   -0.261094
  17 O :   -0.484137
  18 H :    0.025721
  19 H :    0.030855
  20 H :    0.008247
  21 H :    0.024920

  Mayer bond orders larger than 0.100000
B(  0-C ,  1-N ) :   0.8827 B(  0-C ,  2-C ) :   1.0689 B(  0-C , 12-H ) :  -0.1891
B(  0-C , 18-H ) :   0.1351 B(  0-C , 19-H ) :   0.1207 B(  0-C , 20-H ) :   0.6834
B(  0-C , 21-H ) :   0.9177 B(  1-N ,  7-C ) :   0.7598 B(  1-N ,  8-N ) :   0.1915
B(  1-N ,  9-C ) :   0.2961 B(  1-N , 12-H ) :   1.4554 B(  1-N , 20-H ) :   0.1681
B(  1-N , 21-H ) :   0.1411 B(  2-C ,  3-C ) :   1.2241 B(  2-C ,  4-H ) :   0.1295
B(  2-C ,  5-H ) :   0.1508 B(  2-C , 18-H ) :   0.8522 B(  2-C , 19-H ) :   0.8207
B(  2-C , 20-H ) :   0.1292 B(  3-C ,  4-H ) :   0.9566 B(  3-C ,  5-H ) :   0.8011
B(  3-C ,  6-S ) :   0.9587 B(  3-C , 17-O ) :   0.1128 B(  3-C , 18-H ) :   0.1125
B(  3-C , 19-H ) :   0.1068 B(  6-S , 15-O ) :   1.4936 B(  6-S , 16-F ) :   0.5509
B(  6-S , 17-O ) :   1.3800 B(  7-C ,  8-N ) :   0.7913 B(  7-C ,  9-C ) :   1.7343
B(  7-C , 10-H ) :  -0.1420 B(  7-C , 11-H ) :   0.3536 B(  7-C , 12-H ) :  -0.3233
B(  7-C , 20-H ) :  -0.1126 B(  8-N ,  9-C ) :   0.3522 B(  8-N , 13-H ) :   1.1930
B(  8-N , 14-H ) :   1.1346 B(  9-C , 11-H ) :   0.7130 B( 10-H , 11-H ) :  -0.1262
B( 10-H , 17-O ) :   0.1363 B( 10-H , 20-H ) :   0.1369 B( 13-H , 14-H ) :  -0.1792
B( 20-H , 21-H ) :  -0.2160

Dispersion correction           -0.000925972
FINAL SINGLE POINT ENERGY      -954.233824746045

DIPOLE MOMENT
-------------
                                X             Y             Z
Electronic contribution:    -15.78409      -1.39755       0.26747
Nuclear contribution   :     16.57580       2.60270       1.54331
                        -----------------------------------------
Total Dipole Moment    :      0.79171       1.20515       1.81078
                        -----------------------------------------
Magnitude (a.u.)       :      2.31476
Magnitude (Debye)      :      5.88365

Rotational constants in cm-1:     0.060402     0.020377     0.017632
Rotational constants in MHz :  1810.792194   610.900365   528.582827

                             ****ORCA TERMINATED NORMALLY****
TOTAL RUN TIME: 0 days 0 hours 1 minutes 27 seconds 747 msec
