                         Program Version 5.0.0 -  RELEASE  -
|  1> !M062X D3Zero RIJCOSX def2-SVPD def2/J TightSCF xyzfile
|  2>
|  3> *xyzfile 0 1 D9.xyz
|  4>
|  5> %MaxCore 64000
|  6>
|  7> %pal nprocs 4
|  8> end
|  9>
| 10> %scf
| 11>   MaxIter 150
| 12> end
| 13>
| 14>
| 15>                          ****END OF INPUT****

CARTESIAN COORDINATES (ANGSTROEM)
---------------------------------
  C      3.380928    2.083045   -3.350127
  N      4.535924    1.182447   -3.428518
  C      2.495557    1.816150   -2.136364
  C      1.872181    0.427903   -2.077497
  H      2.614270   -0.365825   -2.198894
  H      1.389953    0.273087   -1.112360
  S      0.579024    0.140472   -3.297943
  C      4.671956    0.122273   -4.220598
  N      5.866023   -0.507849   -4.224284
  C      3.698881   -0.312844   -4.986988
  H      2.731405   -0.050091   -4.849000
  H      3.890046   -1.055172   -5.643730
  H      5.251933    1.303459   -2.721014
  H      6.695165   -0.062322   -3.851596
  H      5.975383   -1.396884   -4.691414
  O      0.228860   -1.246868   -3.127871
  O     -0.439269    1.118966   -3.014550
  F      1.247881    0.403474   -4.595647
  H      1.697003    2.561969   -2.141109
  H      3.080787    1.987436   -1.225838
  H      2.806463    1.986511   -4.268484
  H      3.778714    3.098282   -3.307383

 Total Charge           Charge          ....    0
 Multiplicity           Mult            ....    1
 Number of Electrons    NEL             ....   96
 Basis Dimension        Dim             ....  324

ORBITAL ENERGIES
----------------

  NO   OCC          E(Eh)            E(eV)
   0   2.0000     -90.194938     -2454.3290
   1   2.0000     -25.357910      -690.0238
   2   2.0000     -19.652937      -534.7836
   3   2.0000     -19.651110      -534.7339
   4   2.0000     -14.779525      -402.1713
   5   2.0000     -14.768731      -401.8776
   6   2.0000     -10.609948      -288.7114
   7   2.0000     -10.607908      -288.6559
   8   2.0000     -10.606012      -288.6043
   9   2.0000     -10.583988      -288.0049
  10   2.0000     -10.468660      -284.8667
  11   2.0000      -8.518455      -231.7989
  12   2.0000      -6.446888      -175.4287
  13   2.0000      -6.441792      -175.2901
  14   2.0000      -6.440692      -175.2601
  15   2.0000      -1.486903       -40.4607
  16   2.0000      -1.237946       -33.6862
  17   2.0000      -1.138794       -30.9882
  18   2.0000      -1.077957       -29.3327
  19   2.0000      -0.988629       -26.9020
  20   2.0000      -0.920199       -25.0399
  21   2.0000      -0.842702       -22.9311
  22   2.0000      -0.824334       -22.4313
  23   2.0000      -0.787379       -21.4257
  24   2.0000      -0.739009       -20.1094
  25   2.0000      -0.679020       -18.4771
  26   2.0000      -0.677143       -18.4260
  27   2.0000      -0.651434       -17.7264
  28   2.0000      -0.637860       -17.3571
  29   2.0000      -0.625983       -17.0339
  30   2.0000      -0.593889       -16.1605
  31   2.0000      -0.575155       -15.6508
  32   2.0000      -0.558613       -15.2006
  33   2.0000      -0.545478       -14.8432
  34   2.0000      -0.536899       -14.6098
  35   2.0000      -0.523630       -14.2487
  36   2.0000      -0.491204       -13.3664
  37   2.0000      -0.480596       -13.0777
  38   2.0000      -0.472799       -12.8655
  39   2.0000      -0.451982       -12.2991
  40   2.0000      -0.448200       -12.1961
  41   2.0000      -0.441880       -12.0242
  42   2.0000      -0.425947       -11.5906
  43   2.0000      -0.413764       -11.2591
  44   2.0000      -0.396598       -10.7920
  45   2.0000      -0.390472       -10.6253
  46   2.0000      -0.325060        -8.8453
  47   2.0000      -0.234745        -6.3877
  48   0.0000       0.018473         0.5027
  49   0.0000       0.032685         0.8894
  50   0.0000       0.040522         1.1027
  51   0.0000       0.042006         1.1430
  52   0.0000       0.062260         1.6942

MULLIKEN ATOMIC CHARGES
-----------------------
   0 C :    0.921222
   1 N :   -0.616572
   2 C :    0.187276
   3 C :    0.236340
   4 H :    0.079013
   5 H :   -0.155508
   6 S :    1.579781
   7 C :    1.124385
   8 N :   -0.068095
   9 C :    0.788614
  10 H :   -0.765815
  11 H :   -0.423666
  12 H :   -0.300543
  13 H :   -0.139242
  14 H :   -0.006154
  15 O :   -0.719123
  16 O :   -0.759751
  17 F :   -0.610716
  18 H :   -0.007215
  19 H :   -0.042985
  20 H :    0.029937
  21 H :   -0.331183
Sum of atomic charges:   -0.0000000

LOEWDIN ATOMIC CHARGES
----------------------
   0 C :    0.083280
   1 N :   -0.024743
   2 C :   -0.020134
   3 C :   -0.028948
   4 H :    0.022279
   5 H :    0.032839
   6 S :    1.159437
   7 C :   -0.222862
   8 N :    0.175383
   9 C :    0.193476
  10 H :   -0.174316
  11 H :   -0.081322
  12 H :    0.026639
  13 H :   -0.008968
  14 H :    0.005992
  15 O :   -0.464604
  16 O :   -0.468597
  17 F :   -0.305976
  18 H :    0.029930
  19 H :    0.031886
  20 H :    0.011479
  21 H :    0.027850

  Mayer bond orders larger than 0.100000
B(  0-C ,  1-N ) :   0.8842 B(  0-C ,  2-C ) :   1.0585 B(  0-C , 12-H ) :  -0.1957
B(  0-C , 18-H ) :   0.1279 B(  0-C , 19-H ) :   0.1300 B(  0-C , 20-H ) :   0.6880
B(  0-C , 21-H ) :   0.9242 B(  1-N ,  7-C ) :   0.7836 B(  1-N ,  8-N ) :   0.1914
B(  1-N ,  9-C ) :   0.3033 B(  1-N , 12-H ) :   1.4534 B(  1-N , 20-H ) :   0.1700
B(  1-N , 21-H ) :   0.1405 B(  2-C ,  3-C ) :   1.2363 B(  2-C ,  4-H ) :   0.1378
B(  2-C ,  5-H ) :   0.1597 B(  2-C , 18-H ) :   0.8750 B(  2-C , 19-H ) :   0.8041
B(  2-C , 20-H ) :   0.1303 B(  3-C ,  4-H ) :   0.9561 B(  3-C ,  5-H ) :   0.7697
B(  3-C ,  6-S ) :   0.9844 B(  3-C , 18-H ) :   0.1292 B(  3-C , 19-H ) :   0.1188
B(  5-H ,  6-S ) :   0.1040 B(  6-S , 15-O ) :   1.4881 B(  6-S , 16-O ) :   1.4692
B(  6-S , 17-F ) :   0.6085 B(  7-C ,  8-N ) :   0.8041 B(  7-C ,  9-C ) :   1.7020
B(  7-C , 10-H ) :  -0.1213 B(  7-C , 11-H ) :   0.3472 B(  7-C , 12-H ) :  -0.3282
B(  7-C , 20-H ) :  -0.1020 B(  8-N ,  9-C ) :   0.3403 B(  8-N , 13-H ) :   1.1881
B(  8-N , 14-H ) :   1.1294 B(  9-C , 11-H ) :   0.7482 B( 10-H , 11-H ) :  -0.1723
B( 10-H , 17-F ) :   0.1402 B( 10-H , 20-H ) :   0.1194 B( 13-H , 14-H ) :  -0.1793
B( 20-H , 21-H ) :  -0.2227

Dispersion correction           -0.000933801
FINAL SINGLE POINT ENERGY      -954.255032170825

DIPOLE MOMENT
-------------
                                X             Y             Z
Electronic contribution:    -12.56842      -2.61262      -2.41586
Nuclear contribution   :     14.72648       3.38697       3.27638
                        -----------------------------------------
Total Dipole Moment    :      2.15806       0.77435       0.86052
                        -----------------------------------------
Magnitude (a.u.)       :      2.44894
Magnitude (Debye)      :      6.22472

Rotational constants in cm-1:     0.059651     0.020833     0.018010
Rotational constants in MHz :  1788.283887   624.555661   539.921162

                             ****ORCA TERMINATED NORMALLY****
TOTAL RUN TIME: 0 days 0 hours 1 minutes 26 seconds 818 msec
