                         Program Version 5.0.0 -  RELEASE  -
|  1> !TPSS D3BJ RIJCOSX def2-SVPD def2/J TightSCF
|  2> *xyz -1 1
|  3> C         -7.33044       -2.67899       -3.20681
|  4> S         -6.01966       -2.92697       -4.41913
|  5> O         -5.64583       -1.58838       -4.91931
|  6> O         -4.88196       -3.50370       -3.66724
|  7> O         -6.54927       -3.80515       -5.42507
|  8> C         -7.46900       -1.24615       -2.71383
|  9> H         -7.11825       -3.37982       -2.39805
| 10> H         -8.24184       -3.00474       -3.70651
| 11> H         -7.67580       -0.60214       -3.54292
| 12> H         -6.55749       -0.94096       -2.24382
| 13> H         -8.27114       -1.18777       -2.00810
| 14> *
| 15> %MaxCore 64000
| 16>
| 17> %pal nprocs 4
| 18> end
| 19>
| 20> %scf
| 21>   MaxIter 150
| 22> end
| 23>
| 24>
| 25>                          ****END OF INPUT****

CARTESIAN COORDINATES (ANGSTROEM)
---------------------------------
  C     -7.330440   -2.678990   -3.206810
  S     -6.019660   -2.926970   -4.419130
  O     -5.645830   -1.588380   -4.919310
  O     -4.881960   -3.503700   -3.667240
  O     -6.549270   -3.805150   -5.425070
  C     -7.469000   -1.246150   -2.713830
  H     -7.118250   -3.379820   -2.398050
  H     -8.241840   -3.004740   -3.706510
  H     -7.675800   -0.602140   -3.542920
  H     -6.557490   -0.940960   -2.243820
  H     -8.271140   -1.187770   -2.008100

 Total Charge           Charge          ....   -1
 Multiplicity           Mult            ....    1
 Number of Electrons    NEL             ....   58
 Basis Dimension        Dim             ....  176

ORBITAL ENERGIES
----------------

  NO   OCC          E(Eh)            E(eV)
   0   2.0000     -88.364531     -2404.5211
   1   2.0000     -18.681504      -508.3496
   2   2.0000     -18.671286      -508.0715
   3   2.0000     -18.667971      -507.9813
   4   2.0000      -9.863854      -268.4091
   5   2.0000      -9.860558      -268.3194
   6   2.0000      -7.724589      -210.1968
   7   2.0000      -5.710632      -155.3942
   8   2.0000      -5.710472      -155.3898
   9   2.0000      -5.709612      -155.3664
  10   2.0000      -0.849016       -23.1029
  11   2.0000      -0.716101       -19.4861
  12   2.0000      -0.693971       -18.8839
  13   2.0000      -0.573261       -15.5992
  14   2.0000      -0.454199       -12.3594
  15   2.0000      -0.332537        -9.0488
  16   2.0000      -0.279956        -7.6180
  17   2.0000      -0.268260        -7.2997
  18   2.0000      -0.232908        -6.3378
  19   2.0000      -0.214512        -5.8372
  20   2.0000      -0.211633        -5.7588
  21   2.0000      -0.189890        -5.1672
  22   2.0000      -0.183477        -4.9927
  23   2.0000      -0.103083        -2.8050
  24   2.0000      -0.101218        -2.7543
  25   2.0000      -0.071794        -1.9536
  26   2.0000      -0.064906        -1.7662
  27   2.0000      -0.055120        -1.4999
  28   2.0000      -0.019047        -0.5183
  29   0.0000       0.131408         3.5758
  30   0.0000       0.160437         4.3657
  31   0.0000       0.168362         4.5814
  32   0.0000       0.174201         4.7402
  33   0.0000       0.195821         5.3286

MULLIKEN ATOMIC CHARGES
-----------------------
   0 C :   -0.395593
   1 S :    1.245310
   2 O :   -0.818203
   3 O :   -0.809651
   4 O :   -0.760473
   5 C :    0.685154
   6 H :   -0.005321
   7 H :    0.008760
   8 H :    0.011468
   9 H :   -0.016156
  10 H :   -0.145294
Sum of atomic charges:   -1.0000000

LOEWDIN ATOMIC CHARGES
----------------------
   0 C :   -0.121116
   1 S :    0.853833
   2 O :   -0.577314
   3 O :   -0.592077
   4 O :   -0.567881
   5 C :    0.101711
   6 H :   -0.004557
   7 H :   -0.010905
   8 H :   -0.025236
   9 H :   -0.016782
  10 H :   -0.039676

  Mayer bond orders larger than 0.100000
B(  0-C ,  1-S ) :   0.8555 B(  0-C ,  5-C ) :   1.2912 B(  0-C ,  6-H ) :   0.9878
B(  0-C ,  7-H ) :   0.9896 B(  0-C ,  8-H ) :   0.1921 B(  0-C ,  9-H ) :   0.1838
B(  0-C , 10-H ) :   0.2079 B(  1-S ,  2-O ) :   1.3024 B(  1-S ,  3-O ) :   1.3042
B(  1-S ,  4-O ) :   1.3593 B(  5-C ,  8-H ) :   0.8135 B(  5-C ,  9-H ) :   0.8237
B(  5-C , 10-H ) :   0.8078

Dispersion correction           -0.012074418
FINAL SINGLE POINT ENERGY      -702.848902310421

DIPOLE MOMENT
-------------
                                X             Y             Z
Electronic contribution:      4.70062      -3.51086      -5.11297
Nuclear contribution   :     -6.18165       4.01759       6.33106
                        -----------------------------------------
Total Dipole Moment    :     -1.48103       0.50673       1.21809
                        -----------------------------------------
Magnitude (a.u.)       :      1.98343
Magnitude (Debye)      :      5.04147

Rotational constants in cm-1:     0.161711     0.082788     0.081165
Rotational constants in MHz :  4847.971521  2481.906910  2433.276832

                             ****ORCA TERMINATED NORMALLY****
TOTAL RUN TIME: 0 days 0 hours 0 minutes 13 seconds 852 msec
