                         Program Version 5.0.0 -  RELEASE  -
|  1> !TPSS D3BJ RIJCOSX def2-SVPD def2/J TightSCF
|  2> *xyz 1 1
|  3> C         -2.16038       -1.36949       -3.46710
|  4> N         -3.03011       -1.91086       -4.54107
|  5> C         -2.04772        0.14658       -3.51177
|  6> H         -3.47744       -2.79151       -4.25710
|  7> H         -2.53801       -2.01786       -5.43808
|  8> H         -3.89159       -1.37604       -4.71437
|  9> H         -1.18444       -1.84400       -3.56639
| 10> H         -2.59819       -1.70838       -2.52848
| 11> H         -1.61525        0.44478       -4.44395
| 12> H         -1.42718        0.48198       -2.70720
| 13> H         -3.02145        0.57958       -3.41560
| 14> *
| 15> %MaxCore 64000
| 16>
| 17> %pal nprocs 4
| 18> end
| 19>
| 20> %scf
| 21>   MaxIter 150
| 22> end
| 23>
| 24>
| 25>                          ****END OF INPUT****

CARTESIAN COORDINATES (ANGSTROEM)
---------------------------------
  C     -2.160380   -1.369490   -3.467100
  N     -3.030110   -1.910860   -4.541070
  C     -2.047720    0.146580   -3.511770
  H     -3.477440   -2.791510   -4.257100
  H     -2.538010   -2.017860   -5.438080
  H     -3.891590   -1.376040   -4.714370
  H     -1.184440   -1.844000   -3.566390
  H     -2.598190   -1.708380   -2.528480
  H     -1.615250    0.444780   -4.443950
  H     -1.427180    0.481980   -2.707200
  H     -3.021450    0.579580   -3.415600

 Total Charge           Charge          ....    1
 Multiplicity           Mult            ....    1
 Number of Electrons    NEL             ....   26
 Basis Dimension        Dim             ....  124

ORBITAL ENERGIES
----------------

  NO   OCC          E(Eh)            E(eV)
   0   2.0000     -14.453837      -393.3089
   1   2.0000     -10.256001      -279.0800
   2   2.0000     -10.178506      -276.9712
   3   2.0000      -1.148736       -31.2587
   4   2.0000      -0.908315       -24.7165
   5   2.0000      -0.795230       -21.6393
   6   2.0000      -0.766268       -20.8512
   7   2.0000      -0.726649       -19.7731
   8   2.0000      -0.660333       -17.9686
   9   2.0000      -0.604647       -16.4533
  10   2.0000      -0.545631       -14.8474
  11   2.0000      -0.532072       -14.4784
  12   2.0000      -0.516275       -14.0486
  13   0.0000      -0.208894        -5.6843
  14   0.0000      -0.153400        -4.1742
  15   0.0000      -0.150956        -4.1077
  16   0.0000      -0.135437        -3.6854
  17   0.0000      -0.104138        -2.8337

MULLIKEN ATOMIC CHARGES
-----------------------
   0 C :    0.222008
   1 N :   -0.890361
   2 C :    0.539338
   3 H :    0.377777
   4 H :    0.426687
   5 H :    0.394593
   6 H :   -0.061134
   7 H :   -0.031426
   8 H :    0.032746
   9 H :    0.006743
  10 H :   -0.016971
Sum of atomic charges:    1.0000000

LOEWDIN ATOMIC CHARGES
----------------------
   0 C :    0.065339
   1 N :    0.325402
   2 C :    0.183784
   3 H :    0.103430
   4 H :    0.111537
   5 H :    0.102917
   6 H :    0.051315
   7 H :    0.048788
   8 H :   -0.001374
   9 H :    0.012332
  10 H :   -0.003470

  Mayer bond orders larger than 0.100000
B(  0-C ,  1-N ) :   0.6951 B(  0-C ,  2-C ) :   1.3317 B(  0-C ,  6-H ) :   0.9250
B(  0-C ,  7-H ) :   0.9268 B(  0-C ,  8-H ) :   0.1451 B(  0-C ,  9-H ) :   0.1728
B(  0-C , 10-H ) :   0.1578 B(  1-N ,  3-H ) :   0.7402 B(  1-N ,  4-H ) :   0.6617
B(  1-N ,  5-H ) :   0.7139 B(  1-N ,  6-H ) :   0.1134 B(  2-C ,  8-H ) :   0.8258
B(  2-C ,  9-H ) :   0.8362 B(  2-C , 10-H ) :   0.8571

Dispersion correction           -0.007409671
FINAL SINGLE POINT ENERGY      -135.470046357889

DIPOLE MOMENT
-------------
                                X             Y             Z
Electronic contribution:     -0.63795      -1.47933      -0.76781
Nuclear contribution   :     -0.15215       0.37393      -0.04773
                        -----------------------------------------
Total Dipole Moment    :     -0.79010      -1.10539      -0.81555
                        -----------------------------------------
Magnitude (a.u.)       :      1.58470
Magnitude (Debye)      :      4.02798

Rotational constants in cm-1:     1.020762     0.277172     0.247319
Rotational constants in MHz : 30601.664035  8309.399682  7414.438136

                             ****ORCA TERMINATED NORMALLY****
TOTAL RUN TIME: 0 days 0 hours 0 minutes 9 seconds 181 msec
