                         Program Version 5.0.0 -  RELEASE  -
|  1> !TPSS D3BJ RIJCOSX def2-SVPD def2/J TightSCF
|  2> *xyz 0 1
|  3> C         -7.33044       -2.67899       -3.20681
|  4> S         -6.01966       -2.92697       -4.41913
|  5> F         -5.64583       -1.58838       -4.91931
|  6> O         -4.88196       -3.50370       -3.66724
|  7> O         -6.54927       -3.80515       -5.42507
|  8> C         -7.46900       -1.24615       -2.71383
|  9> H         -7.11825       -3.37982       -2.39805
| 10> H         -8.24184       -3.00474       -3.70651
| 11> H         -7.67580       -0.60214       -3.54292
| 12> H         -6.55749       -0.94096       -2.24382
| 13> H         -8.27114       -1.18777       -2.00810
| 14> *
| 15> %MaxCore 64000
| 16>
| 17> %pal nprocs 4
| 18> end
| 19>
| 20> %scf
| 21>   MaxIter 150
| 22> end
| 23>
| 24>
| 25>                          ****END OF INPUT****

CARTESIAN COORDINATES (ANGSTROEM)
---------------------------------
  C     -7.330440   -2.678990   -3.206810
  S     -6.019660   -2.926970   -4.419130
  F     -5.645830   -1.588380   -4.919310
  O     -4.881960   -3.503700   -3.667240
  O     -6.549270   -3.805150   -5.425070
  C     -7.469000   -1.246150   -2.713830
  H     -7.118250   -3.379820   -2.398050
  H     -8.241840   -3.004740   -3.706510
  H     -7.675800   -0.602140   -3.542920
  H     -6.557490   -0.940960   -2.243820
  H     -8.271140   -1.187770   -2.008100

 Total Charge           Charge          ....    0
 Multiplicity           Mult            ....    1
 Number of Electrons    NEL             ....   58
 Basis Dimension        Dim             ....  176

ORBITAL ENERGIES
----------------

  NO   OCC          E(Eh)            E(eV)
   0   2.0000     -88.618795     -2411.4400
   1   2.0000     -24.525820      -667.3815
   2   2.0000     -18.914882      -514.7001
   3   2.0000     -18.900842      -514.3181
   4   2.0000     -10.065546      -273.8974
   5   2.0000     -10.031884      -272.9814
   6   2.0000      -7.980067      -217.1487
   7   2.0000      -5.970280      -162.4596
   8   2.0000      -5.963930      -162.2868
   9   2.0000      -5.962070      -162.2362
  10   2.0000      -1.264766       -34.4160
  11   2.0000      -1.036037       -28.1920
  12   2.0000      -0.937488       -25.5104
  13   2.0000      -0.768667       -20.9165
  14   2.0000      -0.666865       -18.1463
  15   2.0000      -0.623817       -16.9749
  16   2.0000      -0.535105       -14.5610
  17   2.0000      -0.510104       -13.8806
  18   2.0000      -0.492842       -13.4109
  19   2.0000      -0.459186       -12.4951
  20   2.0000      -0.429543       -11.6885
  21   2.0000      -0.410102       -11.1594
  22   2.0000      -0.400628       -10.9016
  23   2.0000      -0.379421       -10.3246
  24   2.0000      -0.364025        -9.9056
  25   2.0000      -0.343457        -9.3459
  26   2.0000      -0.296247        -8.0613
  27   2.0000      -0.282407        -7.6847
  28   2.0000      -0.268022        -7.2932
  29   0.0000      -0.029831        -0.8117
  30   0.0000       0.013591         0.3698
  31   0.0000       0.020370         0.5543
  32   0.0000       0.025924         0.7054
  33   0.0000       0.030058         0.8179

MULLIKEN ATOMIC CHARGES
-----------------------
   0 C :   -0.375773
   1 S :    1.409633
   2 F :   -0.416552
   3 O :   -0.680758
   4 O :   -0.632502
   5 C :    0.684398
   6 H :    0.043039
   7 H :    0.057758
   8 H :    0.014153
   9 H :   -0.002998
  10 H :   -0.100396
Sum of atomic charges:    0.0000000

LOEWDIN ATOMIC CHARGES
----------------------
   0 C :   -0.072029
   1 S :    1.113115
   2 F :   -0.267434
   3 O :   -0.473744
   4 O :   -0.450980
   5 C :    0.134059
   6 H :    0.027090
   7 H :    0.015637
   8 H :   -0.012510
   9 H :   -0.004878
  10 H :   -0.008325

  Mayer bond orders larger than 0.100000
B(  0-C ,  1-S ) :   0.9320 B(  0-C ,  5-C ) :   1.3163 B(  0-C ,  6-H ) :   0.9723
B(  0-C ,  7-H ) :   0.9804 B(  0-C ,  8-H ) :   0.1736 B(  0-C ,  9-H ) :   0.1657
B(  0-C , 10-H ) :   0.2011 B(  1-S ,  2-F ) :   0.6549 B(  1-S ,  3-O ) :   1.5030
B(  1-S ,  4-O ) :   1.5588 B(  5-C ,  8-H ) :   0.8197 B(  5-C ,  9-H ) :   0.8295
B(  5-C , 10-H ) :   0.8055

Dispersion correction           -0.011468084
FINAL SINGLE POINT ENERGY      -727.351767214500

DIPOLE MOMENT
-------------
                                X             Y             Z
Electronic contribution:      5.65676      -1.75445      -6.37828
Nuclear contribution   :     -6.81251       2.87933       7.15058
                        -----------------------------------------
Total Dipole Moment    :     -1.15575       1.12488       0.77230
                        -----------------------------------------
Magnitude (a.u.)       :      1.78817
Magnitude (Debye)      :      4.54517

Rotational constants in cm-1:     0.152543     0.082494     0.078987
Rotational constants in MHz :  4573.135887  2473.116216  2367.980829

                             ****ORCA TERMINATED NORMALLY****
TOTAL RUN TIME: 0 days 0 hours 0 minutes 14 seconds 267 msec
