                         Program Version 5.0.0 -  RELEASE  -
|  1> !TPSS D3BJ RIJCOSX def2-SVPD def2/J TightSCF
|  2> *xyz 0 1
|  3> C         -2.16038       -1.36949       -3.46710
|  4> C         -3.03011       -1.91086       -4.54107
|  5> C         -2.04772        0.14658       -3.51177
|  6> H         -3.47744       -2.79151       -4.25710
|  7> H         -2.53801       -2.01786       -5.43808
|  8> H         -3.89159       -1.37604       -4.71437
|  9> H         -1.18444       -1.84400       -3.56639
| 10> H         -2.59819       -1.70838       -2.52848
| 11> H         -1.61525        0.44478       -4.44395
| 12> H         -1.42718        0.48198       -2.70720
| 13> H         -3.02145        0.57958       -3.41560
| 14> *
| 15> %MaxCore 64000
| 16>
| 17> %pal nprocs 4
| 18> end
| 19>
| 20> %scf
| 21>   MaxIter 150
| 22> end
| 23>
| 24>
| 25>                          ****END OF INPUT****

CARTESIAN COORDINATES (ANGSTROEM)
---------------------------------
  C     -2.160380   -1.369490   -3.467100
  C     -3.030110   -1.910860   -4.541070
  C     -2.047720    0.146580   -3.511770
  H     -3.477440   -2.791510   -4.257100
  H     -2.538010   -2.017860   -5.438080
  H     -3.891590   -1.376040   -4.714370
  H     -1.184440   -1.844000   -3.566390
  H     -2.598190   -1.708380   -2.528480
  H     -1.615250    0.444780   -4.443950
  H     -1.427180    0.481980   -2.707200
  H     -3.021450    0.579580   -3.415600

 Total Charge           Charge          ....    0
 Multiplicity           Mult            ....    1
 Number of Electrons    NEL             ....   26
 Basis Dimension        Dim             ....  124

ORBITAL ENERGIES
----------------

  NO   OCC          E(Eh)            E(eV)
   0   2.0000      -9.988347      -271.7967
   1   2.0000      -9.981366      -271.6068
   2   2.0000      -9.963840      -271.1299
   3   2.0000      -0.726917       -19.7804
   4   2.0000      -0.633633       -17.2420
   5   2.0000      -0.536512       -14.5992
   6   2.0000      -0.427594       -11.6354
   7   2.0000      -0.398225       -10.8363
   8   2.0000      -0.362656        -9.8684
   9   2.0000      -0.355830        -9.6826
  10   2.0000      -0.303882        -8.2691
  11   2.0000      -0.293658        -7.9908
  12   2.0000      -0.291371        -7.9286
  13   0.0000       0.017033         0.4635
  14   0.0000       0.046478         1.2647
  15   0.0000       0.052673         1.4333
  16   0.0000       0.071304         1.9403
  17   0.0000       0.094475         2.5708

MULLIKEN ATOMIC CHARGES
-----------------------
   0 C :   -0.584795
   1 C :    0.845007
   2 C :    0.569739
   3 H :   -0.178334
   4 H :   -0.164885
   5 H :   -0.236137
   6 H :   -0.096175
   7 H :   -0.038067
   8 H :   -0.038316
   9 H :   -0.065244
  10 H :   -0.012793
Sum of atomic charges:   -0.0000000

LOEWDIN ATOMIC CHARGES
----------------------
   0 C :   -0.104871
   1 C :    0.119029
   2 C :    0.126325
   3 H :   -0.039991
   4 H :   -0.030172
   5 H :   -0.038661
   6 H :    0.017778
   7 H :    0.016098
   8 H :   -0.019125
   9 H :   -0.026025
  10 H :   -0.020384

  Mayer bond orders larger than 0.100000
B(  0-C ,  1-C ) :   1.3109 B(  0-C ,  2-C ) :   1.2654 B(  0-C ,  3-H ) :   0.2092
B(  0-C ,  4-H ) :   0.2214 B(  0-C ,  5-H ) :   0.1869 B(  0-C ,  6-H ) :   0.9628
B(  0-C ,  7-H ) :   0.9301 B(  0-C ,  8-H ) :   0.1781 B(  0-C ,  9-H ) :   0.1862
B(  0-C , 10-H ) :   0.1483 B(  1-C ,  3-H ) :   0.6731 B(  1-C ,  4-H ) :   0.7379
B(  1-C ,  5-H ) :   0.7058 B(  1-C ,  6-H ) :   0.1139 B(  1-C ,  7-H ) :   0.1087
B(  2-C ,  8-H ) :   0.8447 B(  2-C ,  9-H ) :   0.8337 B(  2-C , 10-H ) :   0.8520
B(  3-H ,  5-H ) :   0.2388 B(  4-H ,  5-H ) :   0.1239

Dispersion correction           -0.007434343
FINAL SINGLE POINT ENERGY      -119.070221675805

DIPOLE MOMENT
-------------
                                X             Y             Z
Electronic contribution:      0.32091      -0.12881       0.27446
Nuclear contribution   :     -0.34625       0.09603      -0.26933
                        -----------------------------------------
Total Dipole Moment    :     -0.02533      -0.03278       0.00513
                        -----------------------------------------
Magnitude (a.u.)       :      0.04174
Magnitude (Debye)      :      0.10611

Rotational constants in cm-1:     1.028617     0.291238     0.258956
Rotational constants in MHz : 30837.159054  8731.095379  7763.318586

                             ****ORCA TERMINATED NORMALLY****
TOTAL RUN TIME: 0 days 0 hours 0 minutes 8 seconds 961 msec
