                         Program Version 5.0.0 -  RELEASE  -
|  1> !TPSS D3BJ RIJCOSX def2-SVPD def2/J TightSCF
|  2> *xyz 0 1
|  3> C         -7.33044       -2.67899       -3.20681
|  4> S         -6.01966       -2.92697       -4.41913
|  5> O         -5.64583       -1.58838       -4.91931
|  6> F         -4.88196       -3.50370       -3.66724
|  7> O         -6.54927       -3.80515       -5.42507
|  8> C         -7.46900       -1.24615       -2.71383
|  9> H         -7.11825       -3.37982       -2.39805
| 10> H         -8.24184       -3.00474       -3.70651
| 11> H         -7.67580       -0.60214       -3.54292
| 12> H         -6.55749       -0.94096       -2.24382
| 13> H         -8.27114       -1.18777       -2.00810
| 14> *
| 15> %MaxCore 64000
| 16>
| 17> %pal nprocs 4
| 18> end
| 19>
| 20> %scf
| 21>   MaxIter 150
| 22> end
| 23>
| 24>
| 25>                          ****END OF INPUT****

CARTESIAN COORDINATES (ANGSTROEM)
---------------------------------
  C     -7.330440   -2.678990   -3.206810
  S     -6.019660   -2.926970   -4.419130
  O     -5.645830   -1.588380   -4.919310
  F     -4.881960   -3.503700   -3.667240
  O     -6.549270   -3.805150   -5.425070
  C     -7.469000   -1.246150   -2.713830
  H     -7.118250   -3.379820   -2.398050
  H     -8.241840   -3.004740   -3.706510
  H     -7.675800   -0.602140   -3.542920
  H     -6.557490   -0.940960   -2.243820
  H     -8.271140   -1.187770   -2.008100

 Total Charge           Charge          ....    0
 Multiplicity           Mult            ....    1
 Number of Electrons    NEL             ....   58
 Basis Dimension        Dim             ....  176

ORBITAL ENERGIES
----------------

  NO   OCC          E(Eh)            E(eV)
   0   2.0000     -88.618735     -2411.4384
   1   2.0000     -24.522942      -667.3032
   2   2.0000     -18.914837      -514.6989
   3   2.0000     -18.903997      -514.4039
   4   2.0000     -10.065697      -273.9016
   5   2.0000     -10.023651      -272.7574
   6   2.0000      -7.980025      -217.1475
   7   2.0000      -5.970144      -162.4559
   8   2.0000      -5.963902      -162.2860
   9   2.0000      -5.962106      -162.2372
  10   2.0000      -1.261106       -34.3164
  11   2.0000      -1.036900       -28.2155
  12   2.0000      -0.940765       -25.5995
  13   2.0000      -0.764558       -20.8047
  14   2.0000      -0.667903       -18.1746
  15   2.0000      -0.616873       -16.7860
  16   2.0000      -0.527014       -14.3408
  17   2.0000      -0.506078       -13.7711
  18   2.0000      -0.500286       -13.6135
  19   2.0000      -0.453820       -12.3491
  20   2.0000      -0.436742       -11.8844
  21   2.0000      -0.410429       -11.1684
  22   2.0000      -0.389795       -10.6069
  23   2.0000      -0.368960       -10.0399
  24   2.0000      -0.361644        -9.8408
  25   2.0000      -0.343332        -9.3425
  26   2.0000      -0.295850        -8.0505
  27   2.0000      -0.288017        -7.8373
  28   2.0000      -0.270756        -7.3676
  29   0.0000      -0.021401        -0.5823
  30   0.0000      -0.002343        -0.0638
  31   0.0000       0.016522         0.4496
  32   0.0000       0.028676         0.7803
  33   0.0000       0.032004         0.8709

MULLIKEN ATOMIC CHARGES
-----------------------
   0 C :   -0.409095
   1 S :    1.430118
   2 O :   -0.695048
   3 F :   -0.406431
   4 O :   -0.638748
   5 C :    0.715674
   6 H :    0.034643
   7 H :    0.054585
   8 H :    0.034382
   9 H :   -0.011934
  10 H :   -0.108147
Sum of atomic charges:    0.0000000

LOEWDIN ATOMIC CHARGES
----------------------
   0 C :   -0.078337
   1 S :    1.115835
   2 O :   -0.464279
   3 F :   -0.272683
   4 O :   -0.451694
   5 C :    0.138968
   6 H :    0.013873
   7 H :    0.020075
   8 H :   -0.007150
   9 H :   -0.005636
  10 H :   -0.008972

  Mayer bond orders larger than 0.100000
B(  0-C ,  1-S ) :   0.9218 B(  0-C ,  5-C ) :   1.3397 B(  0-C ,  6-H ) :   0.9579
B(  0-C ,  7-H ) :   0.9853 B(  0-C ,  8-H ) :   0.1856 B(  0-C ,  9-H ) :   0.1794
B(  0-C , 10-H ) :   0.1984 B(  1-S ,  2-O ) :   1.5055 B(  1-S ,  3-F ) :   0.6433
B(  1-S ,  4-O ) :   1.5575 B(  5-C ,  8-H ) :   0.8157 B(  5-C ,  9-H ) :   0.8209
B(  5-C , 10-H ) :   0.7994

Dispersion correction           -0.011524402
FINAL SINGLE POINT ENERGY      -727.354927293155

DIPOLE MOMENT
-------------
                                X             Y             Z
Electronic contribution:      6.96885      -4.95195      -4.30827
Nuclear contribution   :     -7.60849       4.87515       5.84588
                        -----------------------------------------
Total Dipole Moment    :     -0.63964      -0.07680       1.53761
                        -----------------------------------------
Magnitude (a.u.)       :      1.66712
Magnitude (Debye)      :      4.23748

Rotational constants in cm-1:     0.153704     0.080342     0.079431
Rotational constants in MHz :  4607.928650  2408.599360  2381.267225

                             ****ORCA TERMINATED NORMALLY****
TOTAL RUN TIME: 0 days 0 hours 0 minutes 15 seconds 478 msec
