                         Program Version 5.0.0 -  RELEASE  -
|  1> !TPSS D3BJ RIJCOSX def2-SVPD def2/J TightSCF
|  2> *xyz 0 1
|  3> C         -7.33044       -2.67899       -3.20681
|  4> S         -6.01966       -2.92697       -4.41913
|  5> O         -5.64583       -1.58838       -4.91931
|  6> O         -4.88196       -3.50370       -3.66724
|  7> F         -6.54927       -3.80515       -5.42507
|  8> C         -7.46900       -1.24615       -2.71383
|  9> H         -7.11825       -3.37982       -2.39805
| 10> H         -8.24184       -3.00474       -3.70651
| 11> H         -7.67580       -0.60214       -3.54292
| 12> H         -6.55749       -0.94096       -2.24382
| 13> H         -8.27114       -1.18777       -2.00810
| 14> *
| 15> %MaxCore 64000
| 16>
| 17> %pal nprocs 4
| 18> end
| 19>
| 20> %scf
| 21>   MaxIter 150
| 22> end
| 23>
| 24>
| 25>                          ****END OF INPUT****

CARTESIAN COORDINATES (ANGSTROEM)
---------------------------------
  C     -7.330440   -2.678990   -3.206810
  S     -6.019660   -2.926970   -4.419130
  O     -5.645830   -1.588380   -4.919310
  O     -4.881960   -3.503700   -3.667240
  F     -6.549270   -3.805150   -5.425070
  C     -7.469000   -1.246150   -2.713830
  H     -7.118250   -3.379820   -2.398050
  H     -8.241840   -3.004740   -3.706510
  H     -7.675800   -0.602140   -3.542920
  H     -6.557490   -0.940960   -2.243820
  H     -8.271140   -1.187770   -2.008100

 Total Charge           Charge          ....    0
 Multiplicity           Mult            ....    1
 Number of Electrons    NEL             ....   58
 Basis Dimension        Dim             ....  176

ORBITAL ENERGIES
----------------

  NO   OCC          E(Eh)            E(eV)
   0   2.0000     -88.621052     -2411.5014
   1   2.0000     -24.544021      -667.8768
   2   2.0000     -18.904305      -514.4123
   3   2.0000     -18.901360      -514.3322
   4   2.0000     -10.066545      -273.9246
   5   2.0000     -10.024030      -272.7677
   6   2.0000      -7.982300      -217.2094
   7   2.0000      -5.972715      -162.5258
   8   2.0000      -5.965919      -162.3409
   9   2.0000      -5.964161      -162.2931
  10   2.0000      -1.297519       -35.3073
  11   2.0000      -1.021650       -27.8005
  12   2.0000      -0.924024       -25.1440
  13   2.0000      -0.764964       -20.8157
  14   2.0000      -0.680841       -18.5266
  15   2.0000      -0.624340       -16.9892
  16   2.0000      -0.537917       -14.6375
  17   2.0000      -0.531630       -14.4664
  18   2.0000      -0.507150       -13.8002
  19   2.0000      -0.455778       -12.4024
  20   2.0000      -0.436685       -11.8828
  21   2.0000      -0.402696       -10.9579
  22   2.0000      -0.387354       -10.5405
  23   2.0000      -0.371325       -10.1043
  24   2.0000      -0.356653        -9.7050
  25   2.0000      -0.336385        -9.1535
  26   2.0000      -0.287750        -7.8301
  27   2.0000      -0.280172        -7.6239
  28   2.0000      -0.257480        -7.0064
  29   0.0000      -0.021165        -0.5759
  30   0.0000      -0.003717        -0.1011
  31   0.0000       0.015219         0.4141
  32   0.0000       0.027276         0.7422
  33   0.0000       0.031418         0.8549

MULLIKEN ATOMIC CHARGES
-----------------------
   0 C :   -0.410000
   1 S :    1.427668
   2 O :   -0.684914
   3 O :   -0.672990
   4 F :   -0.376864
   5 C :    0.691227
   6 H :    0.036563
   7 H :    0.052370
   8 H :    0.033943
   9 H :    0.010018
  10 H :   -0.107021
Sum of atomic charges:    0.0000000

LOEWDIN ATOMIC CHARGES
----------------------
   0 C :   -0.083690
   1 S :    1.118567
   2 O :   -0.465133
   3 O :   -0.472767
   4 F :   -0.254063
   5 C :    0.145660
   6 H :    0.019490
   7 H :    0.007705
   8 H :   -0.008950
   9 H :    0.000523
  10 H :   -0.007342

  Mayer bond orders larger than 0.100000
B(  0-C ,  1-S ) :   0.9134 B(  0-C ,  5-C ) :   1.3536 B(  0-C ,  6-H ) :   0.9835
B(  0-C ,  7-H ) :   0.9479 B(  0-C ,  8-H ) :   0.1886 B(  0-C ,  9-H ) :   0.1724
B(  0-C , 10-H ) :   0.1982 B(  1-S ,  2-O ) :   1.5006 B(  1-S ,  3-O ) :   1.5043
B(  1-S ,  4-F ) :   0.7005 B(  5-C ,  8-H ) :   0.8103 B(  5-C ,  9-H ) :   0.8249
B(  5-C , 10-H ) :   0.8010

Dispersion correction           -0.011543629
FINAL SINGLE POINT ENERGY      -727.336667920158

DIPOLE MOMENT
-------------
                                X             Y             Z
Electronic contribution:      4.18134      -5.43548      -7.24476
Nuclear contribution   :     -5.87110       5.18927       7.67759
                        -----------------------------------------
Total Dipole Moment    :     -1.68976      -0.24620       0.43283
                        -----------------------------------------
Magnitude (a.u.)       :      1.76161
Magnitude (Debye)      :      4.47765

Rotational constants in cm-1:     0.155988     0.080452     0.078187
Rotational constants in MHz :  4676.405251  2411.902056  2343.983816

                             ****ORCA TERMINATED NORMALLY****
TOTAL RUN TIME: 0 days 0 hours 0 minutes 14 seconds 434 msec
