                         Program Version 5.0.0 -  RELEASE  -
|  1> !TPSS D3BJ RIJCOSX def2-SVPD def2/J TightSCF xyzfile
|  2>
|  3> *xyzfile 0 1 D3.xyz
|  4>
|  5> %MaxCore 64000
|  6>
|  7> %pal nprocs 4
|  8> end
|  9>
| 10> %scf
| 11>   MaxIter 150
| 12> end
| 13>
| 14>
| 15>                          ****END OF INPUT****

CARTESIAN COORDINATES (ANGSTROEM)
---------------------------------
  C     -2.160376   -1.369486   -3.467104
  C     -3.030108   -1.910857   -4.541074
  C     -2.047717    0.146583   -3.511774
  C     -7.330440   -2.678991   -3.206811
  S     -6.019659   -2.926965   -4.419128
  H     -3.477443   -2.791513   -4.257096
  H     -2.538013   -2.017860   -5.438075
  H     -3.891589   -1.376039   -4.714365
  O     -5.645830   -1.588384   -4.919307
  O     -4.881961   -3.503697   -3.667235
  H     -1.184438   -1.843997   -3.566393
  H     -2.598195   -1.708376   -2.528477
  F     -6.549267   -3.805150   -5.425071
  C     -3.328755    0.875037   -3.103669
  H     -1.740034    0.452343   -4.517126
  H     -1.232611    0.434938   -2.842208
  C     -3.628487    0.771601   -1.609363
  H     -4.175106    0.490791   -3.682203
  H     -3.237812    1.928663   -3.381480
  C     -4.975718    1.361432   -1.190644
  H     -2.830700    1.276234   -1.054766
  H     -3.594312   -0.275838   -1.294603
  C     -6.184720    0.784347   -1.926464
  H     -4.956292    2.445725   -1.342200
  H     -5.097256    1.205252   -0.114136
  C     -6.286921   -0.735882   -1.893531
  H     -6.163994    1.100199   -2.974250
  H     -7.094530    1.223459   -1.504509
  C     -7.468999   -1.246153   -2.713833
  H     -6.360641   -1.090347   -0.859176
  H     -5.369848   -1.171853   -2.295982
  H     -7.601914   -0.601349   -3.585329
  H     -8.389791   -1.173436   -2.126922
  H     -7.118254   -3.379818   -2.398055
  H     -8.241838   -3.004745   -3.706513

 Total Charge           Charge          ....    0
 Multiplicity           Mult            ....    1
 Number of Electrons    NEL             ....  122
 Basis Dimension        Dim             ....  464

ORBITAL ENERGIES
----------------

  NO   OCC          E(Eh)            E(eV)
   0   2.0000     -88.630805     -2411.7668
   1   2.0000     -24.550742      -668.0597
   2   2.0000     -18.912964      -514.6479
   3   2.0000     -18.909715      -514.5595
   4   2.0000     -10.066318      -273.9184
   5   2.0000     -10.028976      -272.9023
   6   2.0000     -10.003693      -272.2143
   7   2.0000      -9.995964      -272.0040
   8   2.0000      -9.990173      -271.8464
   9   2.0000      -9.982604      -271.6405
  10   2.0000      -9.976976      -271.4873
  11   2.0000      -9.970981      -271.3242
  12   2.0000      -9.960246      -271.0321
  13   2.0000      -9.908875      -269.6342
  14   2.0000      -7.990521      -217.4331
  15   2.0000      -5.981089      -162.7537
  16   2.0000      -5.974298      -162.5689
  17   2.0000      -5.972399      -162.5172
  18   2.0000      -1.302937       -35.4547
  19   2.0000      -1.033843       -28.1323
  20   2.0000      -0.936239       -25.4764
  21   2.0000      -0.777892       -21.1675
  22   2.0000      -0.743219       -20.2240
  23   2.0000      -0.715609       -19.4727
  24   2.0000      -0.696657       -18.9570
  25   2.0000      -0.664673       -18.0867
  26   2.0000      -0.641013       -17.4428
  27   2.0000      -0.607891       -16.5416
  28   2.0000      -0.574881       -15.6433
  29   2.0000      -0.556185       -15.1346
  30   2.0000      -0.540425       -14.7057
  31   2.0000      -0.535030       -14.5589
  32   2.0000      -0.515584       -14.0298
  33   2.0000      -0.510338       -13.8870
  34   2.0000      -0.484620       -13.1872
  35   2.0000      -0.455215       -12.3870
  36   2.0000      -0.446665       -12.1544
  37   2.0000      -0.428330       -11.6555
  38   2.0000      -0.424264       -11.5448
  39   2.0000      -0.417842       -11.3701
  40   2.0000      -0.403912       -10.9910
  41   2.0000      -0.392069       -10.6687
  42   2.0000      -0.382850       -10.4179
  43   2.0000      -0.377658       -10.2766
  44   2.0000      -0.363069        -9.8796
  45   2.0000      -0.348986        -9.4964
  46   2.0000      -0.342020        -9.3068
  47   2.0000      -0.340442        -9.2639
  48   2.0000      -0.329714        -8.9720
  49   2.0000      -0.315376        -8.5818
  50   2.0000      -0.310554        -8.4506
  51   2.0000      -0.302252        -8.2247
  52   2.0000      -0.297495        -8.0952
  53   2.0000      -0.292205        -7.9513
  54   2.0000      -0.285608        -7.7718
  55   2.0000      -0.276965        -7.5366
  56   2.0000      -0.273036        -7.4297
  57   2.0000      -0.269700        -7.3389
  58   2.0000      -0.256786        -6.9875
  59   2.0000      -0.245581        -6.6826
  60   2.0000      -0.230422        -6.2701
  61   0.0000      -0.024347        -0.6625
  62   0.0000      -0.007900        -0.2150
  63   0.0000       0.011991         0.3263
  64   0.0000       0.016355         0.4450
  65   0.0000       0.019441         0.5290

MULLIKEN ATOMIC CHARGES
-----------------------
   0 C :   -0.011332
   1 C :    1.775774
   2 C :    0.498641
   3 C :    0.346725
   4 S :    1.526618
   5 H :   -0.440195
   6 H :   -0.239813
   7 H :   -0.883677
   8 O :   -0.719897
   9 O :   -0.750196
  10 H :   -0.262577
  11 H :    0.004833
  12 F :   -0.542099
  13 C :    0.371631
  14 H :   -0.055688
  15 H :   -0.088479
  16 C :   -0.192122
  17 H :   -0.542888
  18 H :   -0.033867
  19 C :    0.619882
  20 H :   -0.319323
  21 H :    0.143064
  22 C :   -0.168865
  23 H :   -0.005591
  24 H :    0.026541
  25 C :    0.267479
  26 H :    0.236013
  27 H :   -0.389662
  28 C :    0.210313
  29 H :   -0.028317
  30 H :   -0.337503
  31 H :    0.145195
  32 H :   -0.189377
  33 H :    0.020876
  34 H :    0.007881
Sum of atomic charges:    0.0000000

LOEWDIN ATOMIC CHARGES
----------------------
   0 C :   -0.033210
   1 C :    0.134546
   2 C :   -0.021185
   3 C :   -0.032110
   4 S :    1.176736
   5 H :   -0.122295
   6 H :   -0.019473
   7 H :   -0.114866
   8 O :   -0.441137
   9 O :   -0.445269
  10 H :    0.016096
  11 H :    0.006245
  12 F :   -0.241802
  13 C :   -0.011429
  14 H :    0.020548
  15 H :    0.010879
  16 C :   -0.027140
  17 H :   -0.004911
  18 H :    0.020773
  19 C :   -0.022514
  20 H :    0.019316
  21 H :    0.001409
  22 C :   -0.027253
  23 H :    0.018389
  24 H :    0.016662
  25 C :   -0.011504
  26 H :    0.016633
  27 H :    0.019713
  28 C :   -0.024647
  29 H :    0.033726
  30 H :   -0.000745
  31 H :    0.021568
  32 H :    0.033468
  33 H :    0.024640
  34 H :    0.010140

  Mayer bond orders larger than 0.100000
B(  0-C ,  1-C ) :   1.0011 B(  0-C ,  2-C ) :   1.1994 B(  0-C ,  5-H ) :   0.4079
B(  0-C ,  6-H ) :   0.1166 B(  0-C ,  7-H ) :   0.3983 B(  0-C , 10-H ) :   0.9153
B(  0-C , 11-H ) :   0.7589 B(  0-C , 13-C ) :   0.1004 B(  0-C , 14-H ) :   0.1495
B(  0-C , 15-H ) :   0.1782 B(  1-C ,  5-H ) :  -0.1039 B(  1-C ,  6-H ) :   0.6344
B(  1-C ,  7-H ) :  -0.3880 B(  1-C , 11-H ) :   0.2263 B(  2-C ,  7-H ) :  -0.1059
B(  2-C , 11-H ) :   0.1084 B(  2-C , 13-C ) :   1.1839 B(  2-C , 14-H ) :   0.7173
B(  2-C , 15-H ) :   0.7460 B(  2-C , 17-H ) :   0.1661 B(  3-C ,  4-S ) :   0.8743
B(  3-C , 12-F ) :   0.1259 B(  3-C , 28-C ) :   1.2786 B(  3-C , 33-H ) :   0.9126
B(  3-C , 34-H ) :   0.7268 B(  4-S ,  8-O ) :   1.3679 B(  4-S ,  9-O ) :   1.3763
B(  4-S , 12-F ) :   0.4873 B(  5-H ,  6-H ) :  -0.1602 B(  5-H ,  7-H ) :   0.8996
B(  5-H ,  9-O ) :   0.1255 B(  6-H ,  7-H ) :   0.1666 B(  7-H ,  9-O ) :   0.1460
B(  7-H , 10-H ) :   0.1015 B(  7-H , 17-H ) :   0.1721 B(  8-O ,  9-O ) :   0.1193
B( 11-H , 21-H ) :   0.1059 B( 13-C , 14-H ) :   0.1878 B( 13-C , 15-H ) :   0.1482
B( 13-C , 16-C ) :   1.1695 B( 13-C , 17-H ) :   0.7640 B( 13-C , 18-H ) :   0.7481
B( 13-C , 20-H ) :   0.1863 B( 14-H , 15-H ) :  -0.1349 B( 16-C , 17-H ) :   0.2071
B( 16-C , 18-H ) :   0.1865 B( 16-C , 19-C ) :   1.1771 B( 16-C , 20-H ) :   1.0080
B( 16-C , 21-H ) :   0.8521 B( 16-C , 22-C ) :   0.1509 B( 16-C , 23-H ) :   0.1510
B( 16-C , 24-H ) :   0.2491 B( 19-C , 22-C ) :   1.1466 B( 19-C , 23-H ) :   0.6928
B( 19-C , 24-H ) :   0.6885 B( 22-C , 23-H ) :   0.2170 B( 22-C , 24-H ) :   0.1206
B( 22-C , 25-C ) :   1.2635 B( 22-C , 26-H ) :   0.7767 B( 22-C , 27-H ) :   1.0555
B( 22-C , 28-C ) :   0.1428 B( 22-C , 29-H ) :   0.1045 B( 22-C , 30-H ) :   0.1377
B( 25-C , 26-H ) :   0.1020 B( 25-C , 27-H ) :   0.1792 B( 25-C , 28-C ) :   1.1482
B( 25-C , 29-H ) :   0.7298 B( 25-C , 30-H ) :   0.8488 B( 25-C , 32-H ) :   0.1852
B( 28-C , 29-H ) :   0.1219 B( 28-C , 31-H ) :   0.8397 B( 28-C , 32-H ) :   0.8276
B( 28-C , 34-H ) :   0.2205 B( 29-H , 30-H ) :   0.2441

Dispersion correction           -0.051697919
FINAL SINGLE POINT ENERGY     -1041.674795428390

DIPOLE MOMENT
-------------
                                X             Y             Z
Electronic contribution:    -12.58036     -20.23142     -14.28786
Nuclear contribution   :     10.70731      19.84772      14.63855
                        -----------------------------------------
Total Dipole Moment    :     -1.87305      -0.38371       0.35070
                        -----------------------------------------
Magnitude (a.u.)       :      1.94385
Magnitude (Debye)      :      4.94087

Rotational constants in cm-1:     0.026014     0.014812     0.010477
Rotational constants in MHz :   779.874765   444.063394   314.081855

                             ****ORCA TERMINATED NORMALLY****
TOTAL RUN TIME: 0 days 0 hours 1 minutes 17 seconds 897 msec
