                         Program Version 5.0.0 -  RELEASE  -
|  1> !PBE D3BJ RIJCOSX def2-TZVPD def2/J TightSCF
|  2> *xyz -1 1
|  3> C          0.13297        2.38587       -4.02462
|  4> C         -1.36646        2.47911       -4.31393
|  5> C         -2.35773        2.30686       -3.13675
|  6> H         -1.63680        1.72709       -5.06399
|  7> H         -1.58235        3.44561       -4.76869
|  8> O         -3.44376        2.84652       -3.25274
|  9> O         -1.97092        1.58304       -2.15123
| 10> H          0.68084        2.52514       -4.93310
| 11> H          0.35823        1.42282       -3.61633
| 12> H          0.40851        3.14443       -3.32208
| 13> *
| 14> %MaxCore 64000
| 15>
| 16> %pal nprocs 4
| 17> end
| 18>
| 19> %scf
| 20>   MaxIter 150
| 21> end
| 22>
| 23>
| 24>                          ****END OF INPUT****

CARTESIAN COORDINATES (ANGSTROEM)
---------------------------------
  C      0.132970    2.385870   -4.024620
  C     -1.366460    2.479110   -4.313930
  C     -2.357730    2.306860   -3.136750
  H     -1.636800    1.727090   -5.063990
  H     -1.582350    3.445610   -4.768690
  O     -3.443760    2.846520   -3.252740
  O     -1.970920    1.583040   -2.151230
  H      0.680840    2.525140   -4.933100
  H      0.358230    1.422820   -3.616330
  H      0.408510    3.144430   -3.322080

 Total Charge           Charge          ....   -1
 Multiplicity           Mult            ....    1
 Number of Electrons    NEL             ....   40
 Basis Dimension        Dim             ....  236

ORBITAL ENERGIES
----------------

  NO   OCC          E(Eh)            E(eV)
   0   2.0000     -18.493828      -503.2426
   1   2.0000     -18.485798      -503.0241
   2   2.0000      -9.756001      -265.4743
   3   2.0000      -9.712975      -264.3035
   4   2.0000      -9.706230      -264.1199
   5   2.0000      -0.741074       -20.1656
   6   2.0000      -0.646212       -17.5843
   7   2.0000      -0.530305       -14.4303
   8   2.0000      -0.408293       -11.1102
   9   2.0000      -0.261908        -7.1269
  10   2.0000      -0.244169        -6.6442
  11   2.0000      -0.210183        -5.7194
  12   2.0000      -0.181311        -4.9337
  13   2.0000      -0.169262        -4.6058
  14   2.0000      -0.159769        -4.3475
  15   2.0000      -0.133304        -3.6274
  16   2.0000      -0.119017        -3.2386
  17   2.0000      -0.013929        -0.3790
  18   2.0000       0.000269         0.0073
  19   2.0000       0.015701         0.4273
  20   0.0000       0.119749         3.2585
  21   0.0000       0.145459         3.9581
  22   0.0000       0.159284         4.3343
  23   0.0000       0.168426         4.5831
  24   0.0000       0.188871         5.1395

MULLIKEN ATOMIC CHARGES
-----------------------
   0 C :   -0.762152
   1 C :   -0.024461
   2 C :    0.215478
   3 H :    0.095422
   4 H :    0.163533
   5 O :   -0.615154
   6 O :   -0.678109
   7 H :    0.229801
   8 H :    0.192705
   9 H :    0.182938
Sum of atomic charges:   -1.0000000

LOEWDIN ATOMIC CHARGES
----------------------
   0 C :   -0.145396
   1 C :   -0.214359
   2 C :   -0.798021
   3 H :    0.092512
   4 H :    0.081562
   5 O :   -0.052589
   6 O :   -0.107852
   7 H :    0.038291
   8 H :    0.050464
   9 H :    0.055388

  Mayer bond orders larger than 0.100000
B(  0-C ,  1-C ) :   0.7571 B(  0-C ,  7-H ) :   0.9804 B(  0-C ,  8-H ) :   1.0111
B(  0-C ,  9-H ) :   1.0002 B(  1-C ,  2-C ) :   0.9876 B(  1-C ,  3-H ) :   0.9460
B(  1-C ,  4-H ) :   0.9881 B(  2-C ,  5-O ) :   1.5304 B(  2-C ,  6-O ) :   1.4577

Dispersion correction           -0.006464762
FINAL SINGLE POINT ENERGY      -267.641908962625

DIPOLE MOMENT
-------------
                                X             Y             Z
Electronic contribution:     -5.35409      -0.38774       3.28979
Nuclear contribution   :      6.75610       0.63068      -4.53972
                        -----------------------------------------
Total Dipole Moment    :      1.40201       0.24294      -1.24994
                        -----------------------------------------
Magnitude (a.u.)       :      1.89393
Magnitude (Debye)      :      4.81399

Rotational constants in cm-1:     0.335096     0.130241     0.099025
Rotational constants in MHz : 10045.924902  3904.536250  2968.708333

                             ****ORCA TERMINATED NORMALLY****
TOTAL RUN TIME: 0 days 0 hours 0 minutes 12 seconds 466 msec
