                         Program Version 5.0.0 -  RELEASE  -
|  1> !PBE D3BJ RIJCOSX def2-TZVPD def2/J TightSCF
|  2> *xyz 1 1
|  3> C          0.64866        1.00359       -3.64560
|  4> N          0.28128        0.67645       -2.24018
|  5> C          0.13297        2.38587       -4.02462
|  6> H          0.39079       -0.31925       -2.02649
|  7> H         -0.69269        0.99010       -2.13812
|  8> H          0.85421        1.21221       -1.57528
|  9> H          0.19099        0.23965       -4.27575
| 10> H          1.73157        0.93173       -3.75075
| 11> H          0.40589        2.60338       -5.03610
| 12> H          0.56342        3.11797       -3.37374
| 13> H         -0.93265        2.40724       -3.93025
| 14> *
| 15> %MaxCore 64000
| 16>
| 17> %pal nprocs 4
| 18> end
| 19>
| 20> %scf
| 21>   MaxIter 150
| 22> end
| 23>
| 24>
| 25>                          ****END OF INPUT****

CARTESIAN COORDINATES (ANGSTROEM)
---------------------------------
  C      0.648660    1.003590   -3.645600
  N      0.281280    0.676450   -2.240180
  C      0.132970    2.385870   -4.024620
  H      0.390790   -0.319250   -2.026490
  H     -0.692690    0.990100   -2.138120
  H      0.854210    1.212210   -1.575280
  H      0.190990    0.239650   -4.275750
  H      1.731570    0.931730   -3.750750
  H      0.405890    2.603380   -5.036100
  H      0.563420    3.117970   -3.373740
  H     -0.932650    2.407240   -3.930250

 Total Charge           Charge          ....    1
 Multiplicity           Mult            ....    1
 Number of Electrons    NEL             ....   26
 Basis Dimension        Dim             ....  183

ORBITAL ENERGIES
----------------

  NO   OCC          E(Eh)            E(eV)
   0   2.0000     -14.317416      -389.5967
   1   2.0000     -10.134848      -275.7832
   2   2.0000     -10.058526      -273.7064
   3   2.0000      -1.137692       -30.9582
   4   2.0000      -0.897866       -24.4322
   5   2.0000      -0.785809       -21.3829
   6   2.0000      -0.748708       -20.3734
   7   2.0000      -0.741570       -20.1791
   8   2.0000      -0.648449       -17.6452
   9   2.0000      -0.595787       -16.2122
  10   2.0000      -0.542518       -14.7627
  11   2.0000      -0.529203       -14.4003
  12   2.0000      -0.511151       -13.9091
  13   0.0000      -0.222227        -6.0471
  14   0.0000      -0.163841        -4.4583
  15   0.0000      -0.161446        -4.3932
  16   0.0000      -0.152393        -4.1468
  17   0.0000      -0.120242        -3.2719

MULLIKEN ATOMIC CHARGES
-----------------------
   0 C :   -0.192740
   1 N :   -0.155845
   2 C :   -0.860601
   3 H :    0.305504
   4 H :    0.295965
   5 H :    0.310837
   6 H :    0.224367
   7 H :    0.225321
   8 H :    0.219579
   9 H :    0.293861
  10 H :    0.333753
Sum of atomic charges:    1.0000000

LOEWDIN ATOMIC CHARGES
----------------------
   0 C :   -0.205154
   1 N :    0.188447
   2 C :   -0.051995
   3 H :    0.178752
   4 H :    0.173598
   5 H :    0.180508
   6 H :    0.136258
   7 H :    0.136640
   8 H :    0.094587
   9 H :    0.084609
  10 H :    0.083750

  Mayer bond orders larger than 0.100000
B(  0-C ,  1-N ) :   1.0029 B(  0-C ,  2-C ) :   0.7965 B(  0-C ,  6-H ) :   0.9444
B(  0-C ,  7-H ) :   0.9524 B(  1-N ,  3-H ) :   0.8840 B(  1-N ,  4-H ) :   0.8795
B(  1-N ,  5-H ) :   0.8833 B(  2-C ,  8-H ) :   1.0064 B(  2-C ,  9-H ) :   0.9467
B(  2-C , 10-H ) :   0.8997

Dispersion correction           -0.006192585
FINAL SINGLE POINT ENERGY      -135.400226248994

DIPOLE MOMENT
-------------
                                X             Y             Z
Electronic contribution:      0.17062      -1.28214       1.29469
Nuclear contribution   :     -0.22655       0.48066      -0.09136
                        -----------------------------------------
Total Dipole Moment    :     -0.05593      -0.80148       1.20334
                        -----------------------------------------
Magnitude (a.u.)       :      1.44690
Magnitude (Debye)      :      3.67773

Rotational constants in cm-1:     0.998155     0.284845     0.251232
Rotational constants in MHz : 29923.943568  8539.431565  7531.732866

                             ****ORCA TERMINATED NORMALLY****
TOTAL RUN TIME: 0 days 0 hours 0 minutes 9 seconds 702 msec
