                         Program Version 5.0.0 -  RELEASE  -
|  1> !PBE D3BJ RIJCOSX def2-TZVPD def2/J TightSCF xyzfile
|  2>
|  3> *xyzfile 0 1 B.xyz
|  4>
|  5> %MaxCore 64000
|  6>
|  7> %pal nprocs 4
|  8> end
|  9>
| 10> %scf
| 11>   MaxIter 150
| 12> end
| 13>
| 14>
| 15>                          ****END OF INPUT****

CARTESIAN COORDINATES (ANGSTROEM)
---------------------------------
  C      0.648656    1.003595   -3.645601
  N      0.281280    0.676454   -2.240179
  C      0.132968    2.385869   -4.024618
  C     -1.366462    2.479106   -4.313932
  C     -2.357732    2.306858   -3.136753
  H     -1.636802    1.727095   -5.063993
  H     -1.582347    3.445605   -4.768687
  H      0.390790   -0.319253   -2.026495
  H     -0.692686    0.990104   -2.138123
  H      0.854206    1.212214   -1.575279
  O     -3.443763    2.846518   -3.252744
  O     -1.970922    1.583042   -2.151229
  H      0.190993    0.239655   -4.275752
  H      1.731572    0.931729   -3.750751
  H      0.414839    3.102847   -3.245165
  H      0.683167    2.687560   -4.919721

 Total Charge           Charge          ....    0
 Multiplicity           Mult            ....    1
 Number of Electrons    NEL             ....   56
 Basis Dimension        Dim             ....  346

ORBITAL ENERGIES
----------------

  NO   OCC          E(Eh)            E(eV)
   0   2.0000     -18.681413      -508.3471
   1   2.0000     -18.658584      -507.7259
   2   2.0000     -14.093058      -383.4916
   3   2.0000      -9.967760      -271.2365
   4   2.0000      -9.933733      -270.3106
   5   2.0000      -9.909856      -269.6609
   6   2.0000      -9.871868      -268.6272
   7   2.0000      -0.939687       -25.5702
   8   2.0000      -0.915343       -24.9078
   9   2.0000      -0.836816       -22.7709
  10   2.0000      -0.740438       -20.1483
  11   2.0000      -0.650891       -17.7116
  12   2.0000      -0.578079       -15.7303
  13   2.0000      -0.549433       -14.9508
  14   2.0000      -0.541832       -14.7440
  15   2.0000      -0.475110       -12.9284
  16   2.0000      -0.431643       -11.7456
  17   2.0000      -0.429856       -11.6970
  18   2.0000      -0.391324       -10.6485
  19   2.0000      -0.375116       -10.2074
  20   2.0000      -0.344206        -9.3663
  21   2.0000      -0.340320        -9.2606
  22   2.0000      -0.331496        -9.0205
  23   2.0000      -0.311821        -8.4851
  24   2.0000      -0.293166        -7.9775
  25   2.0000      -0.197452        -5.3730
  26   2.0000      -0.190288        -5.1780
  27   2.0000      -0.158704        -4.3185
  28   0.0000      -0.060061        -1.6343
  29   0.0000      -0.020519        -0.5583
  30   0.0000      -0.017420        -0.4740
  31   0.0000       0.006088         0.1657
  32   0.0000       0.018608         0.5063

MULLIKEN ATOMIC CHARGES
-----------------------
   0 C :   -0.358415
   1 N :   -0.008870
   2 C :   -0.053383
   3 C :   -0.298163
   4 C :    0.336140
   5 H :    0.145213
   6 H :    0.132662
   7 H :    0.290064
   8 H :    0.134957
   9 H :    0.316651
  10 O :   -0.546006
  11 O :   -0.697955
  12 H :    0.221209
  13 H :    0.165673
  14 H :    0.113109
  15 H :    0.107115
Sum of atomic charges:   -0.0000000

LOEWDIN ATOMIC CHARGES
----------------------
   0 C :   -0.174426
   1 N :    0.147704
   2 C :   -0.193437
   3 C :   -0.121404
   4 C :   -0.689651
   5 H :    0.117786
   6 H :    0.110554
   7 H :    0.158023
   8 H :   -0.010320
   9 H :    0.162672
  10 O :    0.043484
  11 O :   -0.035280
  12 H :    0.130696
  13 H :    0.117906
  14 H :    0.122730
  15 H :    0.112964

  Mayer bond orders larger than 0.100000
B(  0-C ,  1-N ) :   1.0160 B(  0-C ,  2-C ) :   0.8947 B(  0-C ,  3-C ) :   0.1176
B(  0-C , 12-H ) :   0.9204 B(  0-C , 13-H ) :   0.9922 B(  1-N ,  7-H ) :   0.8757
B(  1-N ,  8-H ) :   0.8563 B(  1-N ,  9-H ) :   0.8548 B(  2-C ,  3-C ) :   0.9502
B(  2-C , 14-H ) :   0.9878 B(  2-C , 15-H ) :   0.9964 B(  3-C ,  4-C ) :   1.0156
B(  3-C ,  5-H ) :   0.9278 B(  3-C ,  6-H ) :   1.0110 B(  4-C , 10-O ) :   1.6141
B(  4-C , 11-O ) :   1.2763 B(  8-H , 11-O ) :   0.2295

Dispersion correction           -0.013710539
FINAL SINGLE POINT ENERGY      -362.766090097916

DIPOLE MOMENT
-------------
                                X             Y             Z
Electronic contribution:     -5.96238       0.98284       2.56854
Nuclear contribution   :      9.92875      -2.62114      -2.63866
                        -----------------------------------------
Total Dipole Moment    :      3.96637      -1.63830      -0.07012
                        -----------------------------------------
Magnitude (a.u.)       :      4.29198
Magnitude (Debye)      :     10.90933

Rotational constants in cm-1:     0.159108     0.062474     0.047603
Rotational constants in MHz :  4769.938632  1872.932224  1427.103830

                             ****ORCA TERMINATED NORMALLY****
TOTAL RUN TIME: 0 days 0 hours 0 minutes 19 seconds 984 msec
