                         Program Version 5.0.0 -  RELEASE  -
|  1> !PBE D3BJ RIJCOSX def2-TZVPD def2/J TightSCF
|  2> *xyz 0 1
|  3> C          0.13297        2.38587       -4.02462
|  4> C         -1.36646        2.47911       -4.31393
|  5> C         -2.35773        2.30686       -3.13675
|  6> H         -1.63680        1.72709       -5.06399
|  7> H         -1.58235        3.44561       -4.76869
|  8> F         -3.44376        2.84652       -3.25274
|  9> O         -1.97092        1.58304       -2.15123
| 10> H          0.68084        2.52514       -4.93310
| 11> H          0.35823        1.42282       -3.61633
| 12> H          0.40851        3.14443       -3.32208
| 13> *
| 14> %MaxCore 64000
| 15>
| 16> %pal nprocs 4
| 17> end
| 18>
| 19> %scf
| 20>   MaxIter 150
| 21> end
| 22>
| 23>
| 24>                          ****END OF INPUT****

CARTESIAN COORDINATES (ANGSTROEM)
---------------------------------
  C      0.132970    2.385870   -4.024620
  C     -1.366460    2.479110   -4.313930
  C     -2.357730    2.306860   -3.136750
  H     -1.636800    1.727090   -5.063990
  H     -1.582350    3.445610   -4.768690
  F     -3.443760    2.846520   -3.252740
  O     -1.970920    1.583040   -2.151230
  H      0.680840    2.525140   -4.933100
  H      0.358230    1.422820   -3.616330
  H      0.408510    3.144430   -3.322080

 Total Charge           Charge          ....    0
 Multiplicity           Mult            ....    1
 Number of Electrons    NEL             ....   40
 Basis Dimension        Dim             ....  236

ORBITAL ENERGIES
----------------

  NO   OCC          E(Eh)            E(eV)
   0   2.0000     -24.340768      -662.3460
   1   2.0000     -18.750835      -510.2362
   2   2.0000     -10.052043      -273.5300
   3   2.0000      -9.913642      -269.7639
   4   2.0000      -9.880425      -268.8600
   5   2.0000      -1.244277       -33.8585
   6   2.0000      -0.929801       -25.3012
   7   2.0000      -0.724175       -19.7058
   8   2.0000      -0.632616       -17.2144
   9   2.0000      -0.582840       -15.8599
  10   2.0000      -0.504487       -13.7278
  11   2.0000      -0.485386       -13.2080
  12   2.0000      -0.450809       -12.2671
  13   2.0000      -0.418022       -11.3750
  14   2.0000      -0.381124       -10.3709
  15   2.0000      -0.348933        -9.4949
  16   2.0000      -0.330185        -8.9848
  17   2.0000      -0.325380        -8.8540
  18   2.0000      -0.302809        -8.2399
  19   2.0000      -0.238046        -6.4776
  20   0.0000      -0.067180        -1.8281
  21   0.0000      -0.015067        -0.4100
  22   0.0000       0.012293         0.3345
  23   0.0000       0.025590         0.6963
  24   0.0000       0.033608         0.9145

MULLIKEN ATOMIC CHARGES
-----------------------
   0 C :   -0.772932
   1 C :   -0.026431
   2 C :    0.370649
   3 H :    0.160210
   4 H :    0.200966
   5 F :   -0.137979
   6 O :   -0.447782
   7 H :    0.217758
   8 H :    0.219382
   9 H :    0.216159
Sum of atomic charges:   -0.0000000

LOEWDIN ATOMIC CHARGES
----------------------
   0 C :   -0.092647
   1 C :   -0.162440
   2 C :   -0.524221
   3 H :    0.120952
   4 H :    0.105856
   5 F :    0.267268
   6 O :    0.075027
   7 H :    0.067529
   8 H :    0.069778
   9 H :    0.072899

  Mayer bond orders larger than 0.100000
B(  0-C ,  1-C ) :   0.8615 B(  0-C ,  7-H ) :   0.9775 B(  0-C ,  8-H ) :   0.9833
B(  0-C ,  9-H ) :   0.9705 B(  1-C ,  2-C ) :   0.9611 B(  1-C ,  3-H ) :   0.9132
B(  1-C ,  4-H ) :   0.9440 B(  2-C ,  5-F ) :   1.1042 B(  2-C ,  6-O ) :   1.7725

Dispersion correction           -0.006151643
FINAL SINGLE POINT ENERGY      -292.182226597235

DIPOLE MOMENT
-------------
                                X             Y             Z
Electronic contribution:     -8.39205       0.45533       3.62037
Nuclear contribution   :      8.54799       0.05434      -4.66633
                        -----------------------------------------
Total Dipole Moment    :      0.15594       0.50967      -1.04596
                        -----------------------------------------
Magnitude (a.u.)       :      1.17393
Magnitude (Debye)      :      2.98388

Rotational constants in cm-1:     0.325803     0.123345     0.094275
Rotational constants in MHz :  9767.324172  3697.779805  2826.305733

                             ****ORCA TERMINATED NORMALLY****
TOTAL RUN TIME: 0 days 0 hours 0 minutes 11 seconds 329 msec
