                         Program Version 5.0.0 -  RELEASE  -
|  1> !PBE D3BJ RIJCOSX def2-TZVPD def2/J TightSCF
|  2> *xyz 0 1
|  3> C          0.64866        1.00359       -3.64560
|  4> C          0.28128        0.67645       -2.24018
|  5> C          0.13297        2.38587       -4.02462
|  6> H          0.39079       -0.31925       -2.02649
|  7> H         -0.69269        0.99010       -2.13812
|  8> H          0.85421        1.21221       -1.57528
|  9> H          0.19099        0.23965       -4.27575
| 10> H          1.73157        0.93173       -3.75075
| 11> H          0.40589        2.60338       -5.03610
| 12> H          0.56342        3.11797       -3.37374
| 13> H         -0.93265        2.40724       -3.93025
| 14> *
| 15> %MaxCore 64000
| 16>
| 17> %pal nprocs 4
| 18> end
| 19>
| 20> %scf
| 21>   MaxIter 150
| 22> end
| 23>
| 24>
| 25>                          ****END OF INPUT****

CARTESIAN COORDINATES (ANGSTROEM)
---------------------------------
  C      0.648660    1.003590   -3.645600
  C      0.281280    0.676450   -2.240180
  C      0.132970    2.385870   -4.024620
  H      0.390790   -0.319250   -2.026490
  H     -0.692690    0.990100   -2.138120
  H      0.854210    1.212210   -1.575280
  H      0.190990    0.239650   -4.275750
  H      1.731570    0.931730   -3.750750
  H      0.405890    2.603380   -5.036100
  H      0.563420    3.117970   -3.373740
  H     -0.932650    2.407240   -3.930250

 Total Charge           Charge          ....    0
 Multiplicity           Mult            ....    1
 Number of Electrons    NEL             ....   26
 Basis Dimension        Dim             ....  183

ORBITAL ENERGIES
----------------

  NO   OCC          E(Eh)            E(eV)
   0   2.0000      -9.867812      -268.5168
   1   2.0000      -9.858418      -268.2612
   2   2.0000      -9.839592      -267.7489
   3   2.0000      -0.720134       -19.5958
   4   2.0000      -0.621824       -16.9207
   5   2.0000      -0.525500       -14.2996
   6   2.0000      -0.418980       -11.4010
   7   2.0000      -0.401726       -10.9315
   8   2.0000      -0.357252        -9.7213
   9   2.0000      -0.341492        -9.2925
  10   2.0000      -0.296997        -8.0817
  11   2.0000      -0.293201        -7.9784
  12   2.0000      -0.285022        -7.7558
  13   0.0000      -0.001700        -0.0462
  14   0.0000       0.024637         0.6704
  15   0.0000       0.027505         0.7484
  16   0.0000       0.043658         1.1880
  17   0.0000       0.064748         1.7619

MULLIKEN ATOMIC CHARGES
-----------------------
   0 C :    0.181990
   1 C :   -1.026265
   2 C :   -0.883422
   3 H :    0.234327
   4 H :    0.254902
   5 H :    0.281919
   6 H :    0.132974
   7 H :    0.139935
   8 H :    0.196497
   9 H :    0.234988
  10 H :    0.252155
Sum of atomic charges:   -0.0000000

LOEWDIN ATOMIC CHARGES
----------------------
   0 C :   -0.320281
   1 C :   -0.125205
   2 C :   -0.116540
   3 H :    0.051362
   4 H :    0.052964
   5 H :    0.056311
   6 H :    0.103514
   7 H :    0.103286
   8 H :    0.060846
   9 H :    0.067835
  10 H :    0.065908

  Mayer bond orders larger than 0.100000
B(  0-C ,  1-C ) :   0.7246 B(  0-C ,  2-C ) :   0.7374 B(  0-C ,  6-H ) :   0.9782
B(  0-C ,  7-H ) :   0.9606 B(  1-C ,  2-C ) :   0.2039 B(  1-C ,  3-H ) :   0.9885
B(  1-C ,  4-H ) :   0.9887 B(  1-C ,  5-H ) :   0.9669 B(  2-C ,  8-H ) :   1.0122
B(  2-C ,  9-H ) :   0.9905 B(  2-C , 10-H ) :   0.9795

Dispersion correction           -0.006189810
FINAL SINGLE POINT ENERGY      -118.990725305421

DIPOLE MOMENT
-------------
                                X             Y             Z
Electronic contribution:      0.26135      -0.28294      -0.24601
Nuclear contribution   :     -0.24754       0.26111       0.24628
                        -----------------------------------------
Total Dipole Moment    :      0.01381      -0.02183       0.00027
                        -----------------------------------------
Magnitude (a.u.)       :      0.02583
Magnitude (Debye)      :      0.06566

Rotational constants in cm-1:     1.006509     0.299509     0.263145
Rotational constants in MHz : 30174.379724  8979.049324  7888.875355

                             ****ORCA TERMINATED NORMALLY****
TOTAL RUN TIME: 0 days 0 hours 0 minutes 7 seconds 799 msec
