                         Program Version 5.0.0 -  RELEASE  -
|  1> !PBE D3BJ RIJCOSX def2-TZVPD def2/J TightSCF
|  2> *xyz 0 1
|  3> C          0.13297        2.38587       -4.02462
|  4> C         -1.36646        2.47911       -4.31393
|  5> C         -2.35773        2.30686       -3.13675
|  6> H         -1.63680        1.72709       -5.06399
|  7> H         -1.58235        3.44561       -4.76869
|  8> O         -3.44376        2.84652       -3.25274
|  9> F         -1.97092        1.58304       -2.15123
| 10> H          0.68084        2.52514       -4.93310
| 11> H          0.35823        1.42282       -3.61633
| 12> H          0.40851        3.14443       -3.32208
| 13> *
| 14> %MaxCore 64000
| 15>
| 16> %pal nprocs 4
| 17> end
| 18>
| 19> %scf
| 20>   MaxIter 150
| 21> end
| 22>
| 23>
| 24>                          ****END OF INPUT****

CARTESIAN COORDINATES (ANGSTROEM)
---------------------------------
  C      0.132970    2.385870   -4.024620
  C     -1.366460    2.479110   -4.313930
  C     -2.357730    2.306860   -3.136750
  H     -1.636800    1.727090   -5.063990
  H     -1.582350    3.445610   -4.768690
  O     -3.443760    2.846520   -3.252740
  F     -1.970920    1.583040   -2.151230
  H      0.680840    2.525140   -4.933100
  H      0.358230    1.422820   -3.616330
  H      0.408510    3.144430   -3.322080

 Total Charge           Charge          ....    0
 Multiplicity           Mult            ....    1
 Number of Electrons    NEL             ....   40
 Basis Dimension        Dim             ....  236

ORBITAL ENERGIES
----------------

  NO   OCC          E(Eh)            E(eV)
   0   2.0000     -24.317917      -661.7242
   1   2.0000     -18.758939      -510.4567
   2   2.0000     -10.046547      -273.3804
   3   2.0000      -9.912207      -269.7249
   4   2.0000      -9.884942      -268.9829
   5   2.0000      -1.197535       -32.5866
   6   2.0000      -0.968114       -26.3437
   7   2.0000      -0.726432       -19.7672
   8   2.0000      -0.615650       -16.7527
   9   2.0000      -0.575367       -15.6565
  10   2.0000      -0.481002       -13.0887
  11   2.0000      -0.475214       -12.9312
  12   2.0000      -0.439507       -11.9596
  13   2.0000      -0.416928       -11.3452
  14   2.0000      -0.383698       -10.4410
  15   2.0000      -0.358030        -9.7425
  16   2.0000      -0.344525        -9.3750
  17   2.0000      -0.330383        -8.9902
  18   2.0000      -0.314180        -8.5493
  19   2.0000      -0.250101        -6.8056
  20   0.0000      -0.062473        -1.7000
  21   0.0000      -0.017685        -0.4812
  22   0.0000       0.015669         0.4264
  23   0.0000       0.023061         0.6275
  24   0.0000       0.034163         0.9296

MULLIKEN ATOMIC CHARGES
-----------------------
   0 C :   -0.804122
   1 C :    0.042961
   2 C :    0.295146
   3 H :    0.165814
   4 H :    0.179904
   5 O :   -0.389308
   6 F :   -0.163883
   7 H :    0.210510
   8 H :    0.230447
   9 H :    0.232529
Sum of atomic charges:    0.0000000

LOEWDIN ATOMIC CHARGES
----------------------
   0 C :   -0.100289
   1 C :   -0.154219
   2 C :   -0.514946
   3 H :    0.121893
   4 H :    0.114438
   5 O :    0.129606
   6 F :    0.199373
   7 H :    0.067283
   8 H :    0.066145
   9 H :    0.070715

  Mayer bond orders larger than 0.100000
B(  0-C ,  1-C ) :   0.8091 B(  0-C ,  7-H ) :   0.9965 B(  0-C ,  8-H ) :   0.9740
B(  0-C ,  9-H ) :   0.9772 B(  1-C ,  2-C ) :   0.9435 B(  1-C ,  3-H ) :   0.9051
B(  1-C ,  4-H ) :   0.9579 B(  2-C ,  5-O ) :   1.8537 B(  2-C ,  6-F ) :   1.0631

Dispersion correction           -0.006104705
FINAL SINGLE POINT ENERGY      -292.198726734371

DIPOLE MOMENT
-------------
                                X             Y             Z
Electronic contribution:     -5.93998      -1.62499       5.41655
Nuclear contribution   :      6.94213       1.43193      -5.86732
                        -----------------------------------------
Total Dipole Moment    :      1.00215      -0.19306      -0.45077
                        -----------------------------------------
Magnitude (a.u.)       :      1.11569
Magnitude (Debye)      :      2.83586

Rotational constants in cm-1:     0.306336     0.129048     0.095707
Rotational constants in MHz :  9183.725605  3868.769583  2869.236577

                             ****ORCA TERMINATED NORMALLY****
TOTAL RUN TIME: 0 days 0 hours 0 minutes 12 seconds 79 msec
