                         Program Version 5.0.0 -  RELEASE  -
|  1> !PBE D3BJ RIJCOSX def2-TZVPD def2/J TightSCF xyzfile
|  2>
|  3> *xyzfile 0 1 D1.xyz
|  4>
|  5> %MaxCore 64000
|  6>
|  7> %pal nprocs 4
|  8> end
|  9>
| 10> %scf
| 11>   MaxIter 150
| 12> end
| 13>
| 14>
| 15>                          ****END OF INPUT****

CARTESIAN COORDINATES (ANGSTROEM)
---------------------------------
  C      0.648656    1.003595   -3.645601
  C      0.281280    0.676454   -2.240179
  C      0.132968    2.385869   -4.024618
  C     -1.366462    2.479106   -4.313932
  C     -2.357732    2.306858   -3.136753
  H     -1.636802    1.727095   -5.063993
  H     -1.582347    3.445605   -4.768687
  H      0.390790   -0.319253   -2.026495
  H     -0.692686    0.990104   -2.138123
  H      0.854206    1.212214   -1.575279
  F     -3.443763    2.846518   -3.252744
  O     -1.970922    1.583042   -2.151229
  H      0.190993    0.239655   -4.275752
  H      1.731572    0.931729   -3.750751
  H      0.414839    3.102847   -3.245165
  H      0.683167    2.687560   -4.919721

 Total Charge           Charge          ....    0
 Multiplicity           Mult            ....    1
 Number of Electrons    NEL             ....   56
 Basis Dimension        Dim             ....  346

ORBITAL ENERGIES
----------------

  NO   OCC          E(Eh)            E(eV)
   0   2.0000     -24.351118      -662.6276
   1   2.0000     -18.760268      -510.4928
   2   2.0000     -10.066545      -273.9246
   3   2.0000      -9.918626      -269.8995
   4   2.0000      -9.889720      -269.1130
   5   2.0000      -9.862322      -268.3674
   6   2.0000      -9.791825      -266.4491
   7   2.0000      -1.254476       -34.1360
   8   2.0000      -0.953076       -25.9345
   9   2.0000      -0.742463       -20.2034
  10   2.0000      -0.687149       -18.6983
  11   2.0000      -0.624792       -17.0015
  12   2.0000      -0.593910       -16.1611
  13   2.0000      -0.523786       -14.2529
  14   2.0000      -0.512096       -13.9349
  15   2.0000      -0.495730       -13.4895
  16   2.0000      -0.470932       -12.8147
  17   2.0000      -0.430505       -11.7146
  18   2.0000      -0.400948       -10.9103
  19   2.0000      -0.389126       -10.5887
  20   2.0000      -0.361587        -9.8393
  21   2.0000      -0.339304        -9.2329
  22   2.0000      -0.333512        -9.0753
  23   2.0000      -0.315722        -8.5912
  24   2.0000      -0.298031        -8.1098
  25   2.0000      -0.279734        -7.6120
  26   2.0000      -0.270456        -7.3595
  27   2.0000      -0.204332        -5.5602
  28   0.0000      -0.081327        -2.2130
  29   0.0000      -0.016172        -0.4401
  30   0.0000       0.007059         0.1921
  31   0.0000       0.014060         0.3826
  32   0.0000       0.021522         0.5856

MULLIKEN ATOMIC CHARGES
-----------------------
   0 C :   -0.001042
   1 C :   -0.943781
   2 C :   -0.139223
   3 C :   -0.269402
   4 C :    0.425340
   5 H :    0.194572
   6 H :    0.176859
   7 H :    0.231129
   8 H :    0.209489
   9 H :    0.288632
  10 F :   -0.174332
  11 O :   -0.427737
  12 H :    0.183490
  13 H :    0.051262
  14 H :    0.121812
  15 H :    0.072932
Sum of atomic charges:   -0.0000000

LOEWDIN ATOMIC CHARGES
----------------------
   0 C :   -0.253210
   1 C :   -0.121023
   2 C :   -0.202430
   3 C :   -0.091941
   4 C :   -0.456504
   5 H :    0.130473
   6 H :    0.112214
   7 H :    0.056467
   8 H :   -0.054581
   9 H :    0.062485
  10 F :    0.283045
  11 O :    0.085444
  12 H :    0.111395
  13 H :    0.104796
  14 H :    0.123813
  15 H :    0.109558

  Mayer bond orders larger than 0.100000
B(  0-C ,  1-C ) :   0.7874 B(  0-C ,  2-C ) :   0.8971 B(  0-C ,  3-C ) :   0.1370
B(  0-C , 12-H ) :   0.9296 B(  0-C , 13-H ) :   1.0114 B(  1-C ,  2-C ) :   0.1861
B(  1-C ,  7-H ) :   0.9937 B(  1-C ,  8-H ) :   1.1856 B(  1-C ,  9-H ) :   0.9874
B(  2-C ,  3-C ) :   0.9952 B(  2-C , 14-H ) :   0.9790 B(  2-C , 15-H ) :   1.0109
B(  3-C ,  4-C ) :   0.9317 B(  3-C ,  5-H ) :   0.9193 B(  3-C ,  6-H ) :   0.9711
B(  4-C , 10-F ) :   1.0892 B(  4-C , 11-O ) :   1.7493 B(  8-H , 11-O ) :  -0.2330

Dispersion correction           -0.013365937
FINAL SINGLE POINT ENERGY      -370.671535009199

DIPOLE MOMENT
-------------
                                X             Y             Z
Electronic contribution:    -13.01413       4.56232       1.46586
Nuclear contribution   :     12.79331      -3.91961      -2.45895
                        -----------------------------------------
Total Dipole Moment    :     -0.22082       0.64271      -0.99309
                        -----------------------------------------
Magnitude (a.u.)       :      1.20335
Magnitude (Debye)      :      3.05868

Rotational constants in cm-1:     0.162888     0.059977     0.046450
Rotational constants in MHz :  4883.250030  1798.063289  1392.548669

                             ****ORCA TERMINATED NORMALLY****
TOTAL RUN TIME: 0 days 0 hours 0 minutes 19 seconds 91 msec
