                         Program Version 5.0.0 -  RELEASE  -
|  1> !PBE D3BJ RIJCOSX def2-TZVPD def2/J TightSCF xyzfile
|  2>
|  3> *xyzfile 0 1 D2.xyz
|  4>
|  5> %MaxCore 64000
|  6>
|  7> %pal nprocs 4
|  8> end
|  9>
| 10> %scf
| 11>   MaxIter 150
| 12> end
| 13>
| 14>
| 15>                          ****END OF INPUT****

CARTESIAN COORDINATES (ANGSTROEM)
---------------------------------
  C      0.648656    1.003595   -3.645601
  C      0.281280    0.676454   -2.240179
  C      0.132968    2.385869   -4.024618
  C     -1.366462    2.479106   -4.313932
  C     -2.357732    2.306858   -3.136753
  H     -1.636802    1.727095   -5.063993
  H     -1.582347    3.445605   -4.768687
  H      0.390790   -0.319253   -2.026495
  H     -0.692686    0.990104   -2.138123
  H      0.854206    1.212214   -1.575279
  O     -3.443763    2.846518   -3.252744
  F     -1.970922    1.583042   -2.151229
  H      0.190993    0.239655   -4.275752
  H      1.731572    0.931729   -3.750751
  H      0.414839    3.102847   -3.245165
  H      0.683167    2.687560   -4.919721

 Total Charge           Charge          ....    0
 Multiplicity           Mult            ....    1
 Number of Electrons    NEL             ....   56
 Basis Dimension        Dim             ....  346

ORBITAL ENERGIES
----------------

  NO   OCC          E(Eh)            E(eV)
   0   2.0000     -24.329436      -662.0376
   1   2.0000     -18.766014      -510.6492
   2   2.0000     -10.054209      -273.5889
   3   2.0000      -9.914923      -269.7988
   4   2.0000      -9.893019      -269.2027
   5   2.0000      -9.875180      -268.7173
   6   2.0000      -9.822019      -267.2707
   7   2.0000      -1.219083       -33.1729
   8   2.0000      -0.975722       -26.5507
   9   2.0000      -0.749996       -20.4084
  10   2.0000      -0.693634       -18.8747
  11   2.0000      -0.615314       -16.7436
  12   2.0000      -0.611142       -16.6300
  13   2.0000      -0.525932       -14.3113
  14   2.0000      -0.500420       -13.6171
  15   2.0000      -0.490897       -13.3580
  16   2.0000      -0.452462       -12.3121
  17   2.0000      -0.420634       -11.4460
  18   2.0000      -0.403214       -10.9720
  19   2.0000      -0.401320       -10.9205
  20   2.0000      -0.373699       -10.1689
  21   2.0000      -0.347566        -9.4578
  22   2.0000      -0.339403        -9.2356
  23   2.0000      -0.324085        -8.8188
  24   2.0000      -0.296225        -8.0607
  25   2.0000      -0.291317        -7.9271
  26   2.0000      -0.279855        -7.6152
  27   2.0000      -0.247174        -6.7259
  28   0.0000      -0.070322        -1.9136
  29   0.0000      -0.015425        -0.4197
  30   0.0000       0.008401         0.2286
  31   0.0000       0.011093         0.3018
  32   0.0000       0.015172         0.4129

MULLIKEN ATOMIC CHARGES
-----------------------
   0 C :    0.031555
   1 C :   -1.152278
   2 C :   -0.171859
   3 C :   -0.214587
   4 C :    0.333201
   5 H :    0.194930
   6 H :    0.159237
   7 H :    0.247144
   8 H :    0.370091
   9 H :    0.307390
  10 O :   -0.408538
  11 F :   -0.173558
  12 H :    0.194495
  13 H :    0.066757
  14 H :    0.140718
  15 H :    0.075302
Sum of atomic charges:    0.0000000

LOEWDIN ATOMIC CHARGES
----------------------
   0 C :   -0.253653
   1 C :   -0.104568
   2 C :   -0.210253
   3 C :   -0.090390
   4 C :   -0.476645
   5 H :    0.130531
   6 H :    0.120263
   7 H :    0.059781
   8 H :   -0.015793
   9 H :    0.065324
  10 O :    0.144349
  11 F :    0.179529
  12 H :    0.112493
  13 H :    0.107350
  14 H :    0.121901
  15 H :    0.109780

  Mayer bond orders larger than 0.100000
B(  0-C ,  1-C ) :   0.7607 B(  0-C ,  2-C ) :   0.8420 B(  0-C ,  3-C ) :   0.1228
B(  0-C , 12-H ) :   0.9397 B(  0-C , 13-H ) :   1.0102 B(  1-C ,  2-C ) :   0.2544
B(  1-C ,  7-H ) :   0.9512 B(  1-C ,  8-H ) :   1.1080 B(  1-C ,  9-H ) :   0.9463
B(  1-C , 11-F ) :   0.1224 B(  2-C ,  3-C ) :   0.9588 B(  2-C , 14-H ) :   0.9921
B(  2-C , 15-H ) :   1.0212 B(  3-C ,  4-C ) :   0.9209 B(  3-C ,  5-H ) :   0.9052
B(  3-C ,  6-H ) :   1.0011 B(  4-C , 10-O ) :   1.8382 B(  4-C , 11-F ) :   1.0335
B(  8-H , 11-F ) :  -0.2223

Dispersion correction           -0.013183502
FINAL SINGLE POINT ENERGY      -370.688362241755

DIPOLE MOMENT
-------------
                                X             Y             Z
Electronic contribution:    -10.31594       2.34044       3.32319
Nuclear contribution   :     11.08738      -2.45618      -3.73478
                        -----------------------------------------
Total Dipole Moment    :      0.77144      -0.11574      -0.41160
                        -----------------------------------------
Magnitude (a.u.)       :      0.88201
Magnitude (Debye)      :      2.24188

Rotational constants in cm-1:     0.156244     0.063730     0.048063
Rotational constants in MHz :  4684.071402  1910.571278  1440.877811

                             ****ORCA TERMINATED NORMALLY****
TOTAL RUN TIME: 0 days 0 hours 0 minutes 19 seconds 396 msec
