                         Program Version 5.0.0 -  RELEASE  -
|  1> !TPSS D3BJ RIJCOSX def2-SVPD def2/J TightSCF
|  2> *xyz -1 1
|  3> C         -0.46129        2.23469       -4.98962
|  4> C          0.84888        2.66797       -4.30235
|  5> C          2.09343        1.86104       -4.65684
|  6> H          2.44481        2.04157       -5.67499
|  7> H          2.90175        2.13786       -3.98034
|  8> S          1.87964        0.07859       -4.46297
|  9> O          3.20757       -0.46611       -4.42026
| 10> O          1.07506       -0.05616       -3.26876
| 11> O          1.13166       -0.31996       -5.67903
| 12> H          0.66843        2.55943       -3.23285
| 13> H          1.03407        3.72943       -4.49708
| 14> H         -0.35183        2.31783       -6.05075
| 15> H         -1.26108        2.86600       -4.66300
| 16> H         -0.68032        1.21949       -4.73211
| 17> *
| 18>
| 19> %MaxCore 64000
| 20>
| 21> %pal nprocs 8
| 22> end
| 23>
| 24> %scf
| 25>   MaxIter 150
| 26> end
| 27>
| 28>
| 29>                          ****END OF INPUT****

CARTESIAN COORDINATES (ANGSTROEM)
---------------------------------
  C     -0.461290    2.234690   -4.989620
  C      0.848880    2.667970   -4.302350
  C      2.093430    1.861040   -4.656840
  H      2.444810    2.041570   -5.674990
  H      2.901750    2.137860   -3.980340
  S      1.879640    0.078590   -4.462970
  O      3.207570   -0.466110   -4.420260
  O      1.075060   -0.056160   -3.268760
  O      1.131660   -0.319960   -5.679030
  H      0.668430    2.559430   -3.232850
  H      1.034070    3.729430   -4.497080
  H     -0.351830    2.317830   -6.050750
  H     -1.261080    2.866000   -4.663000
  H     -0.680320    1.219490   -4.732110

 Total Charge           Charge          ....   -1
 Multiplicity           Mult            ....    1
 Number of Electrons    NEL             ....   66
 Basis Dimension        Dim             ....  212

ORBITAL ENERGIES
----------------

  NO   OCC          E(Eh)            E(eV)
   0   2.0000     -88.368356     -2404.6252
   1   2.0000     -18.684755      -508.4380
   2   2.0000     -18.682696      -508.3820
   3   2.0000     -18.669928      -508.0346
   4   2.0000      -9.866872      -268.4912
   5   2.0000      -9.858720      -268.2694
   6   2.0000      -9.847959      -267.9766
   7   2.0000      -7.728189      -210.2947
   8   2.0000      -5.714275      -155.4933
   9   2.0000      -5.714041      -155.4870
  10   2.0000      -5.713222      -155.4647
  11   2.0000      -0.858507       -23.3612
  12   2.0000      -0.728363       -19.8198
  13   2.0000      -0.703158       -19.1339
  14   2.0000      -0.586555       -15.9610
  15   2.0000      -0.502154       -13.6643
  16   2.0000      -0.412342       -11.2204
  17   2.0000      -0.329276        -8.9600
  18   2.0000      -0.285821        -7.7776
  19   2.0000      -0.272388        -7.4120
  20   2.0000      -0.248577        -6.7641
  21   2.0000      -0.236336        -6.4310
  22   2.0000      -0.215667        -5.8686
  23   2.0000      -0.206482        -5.6187
  24   2.0000      -0.184758        -5.0275
  25   2.0000      -0.175198        -4.7674
  26   2.0000      -0.160021        -4.3544
  27   2.0000      -0.110045        -2.9945
  28   2.0000      -0.107964        -2.9379
  29   2.0000      -0.078264        -2.1297
  30   2.0000      -0.070742        -1.9250
  31   2.0000      -0.059114        -1.6086
  32   2.0000      -0.026600        -0.7238
  33   0.0000       0.128979         3.5097
  34   0.0000       0.153549         4.1783
  35   0.0000       0.160168         4.3584
  36   0.0000       0.165680         4.5084
  37   0.0000       0.186877         5.0852

MULLIKEN ATOMIC CHARGES
-----------------------
   0 C :    0.670629
   1 C :   -0.285732
   2 C :    0.054847
   3 H :    0.002542
   4 H :    0.001352
   5 S :    1.218960
   6 O :   -0.805894
   7 O :   -0.780818
   8 O :   -0.792229
   9 H :    0.081154
  10 H :   -0.189622
  11 H :   -0.045657
  12 H :   -0.108545
  13 H :   -0.020987
Sum of atomic charges:   -1.0000000

LOEWDIN ATOMIC CHARGES
----------------------
   0 C :    0.127251
   1 C :   -0.088101
   2 C :   -0.088222
   3 H :    0.000889
   4 H :   -0.007237
   5 S :    0.842323
   6 O :   -0.558468
   7 O :   -0.554065
   8 O :   -0.575586
   9 H :    0.005890
  10 H :   -0.001563
  11 H :   -0.024950
  12 H :   -0.039887
  13 H :   -0.038276

  Mayer bond orders larger than 0.100000
B(  0-C ,  1-C ) :   1.2891 B(  0-C , 11-H ) :   0.7868 B(  0-C , 12-H ) :   0.7852
B(  0-C , 13-H ) :   0.8286 B(  1-C ,  2-C ) :   1.2577 B(  1-C ,  3-H ) :   0.1244
B(  1-C ,  4-H ) :   0.1344 B(  1-C ,  9-H ) :   0.8564 B(  1-C , 10-H ) :   0.9457
B(  1-C , 11-H ) :   0.2026 B(  1-C , 12-H ) :   0.2079 B(  1-C , 13-H ) :   0.2033
B(  2-C ,  3-H ) :   0.9375 B(  2-C ,  4-H ) :   0.9165 B(  2-C ,  5-S ) :   0.8896
B(  2-C ,  9-H ) :   0.1238 B(  2-C , 10-H ) :   0.1190 B(  5-S ,  6-O ) :   1.3834
B(  5-S ,  7-O ) :   1.3123 B(  5-S ,  8-O ) :   1.2901

Dispersion correction           -0.017023383
FINAL SINGLE POINT ENERGY      -742.147867665670

DIPOLE MOMENT
-------------
                                X             Y             Z
Electronic contribution:      4.87228      -9.12562       1.03931
Nuclear contribution   :     -5.21326      11.14780      -1.06438
                        -----------------------------------------
Total Dipole Moment    :     -0.34098       2.02218      -0.02506
                        -----------------------------------------
Magnitude (a.u.)       :      2.05088
Magnitude (Debye)      :      5.21292

Rotational constants in cm-1:     0.135673     0.057896     0.054396
Rotational constants in MHz :  4067.361083  1735.682437  1630.763840

                             ****ORCA TERMINATED NORMALLY****
TOTAL RUN TIME: 0 days 0 hours 0 minutes 7 seconds 824 msec
