                         Program Version 5.0.0 -  RELEASE  -
|  1> !TPSS D3BJ RIJCOSX def2-SVPD def2/J TightSCF
|  2> *xyz 1 1
|  3> C         -0.46129        2.23469       -4.98962
|  4> C          0.84888        2.66797       -4.30235
|  5> C          2.09343        1.86104       -4.65684
|  6> C         -0.42384        2.39877       -6.47432
|  7> N         -0.95947        3.49265       -7.00740
|  8> N          0.14558        1.48689       -7.20399
|  9> H          0.56537        0.69681       -6.72386
| 10> H          0.22068        1.58177       -8.20752
| 11> H         -1.40624        4.18151       -6.40326
| 12> H         -0.93421        3.68160       -7.99947
| 13> H          0.66843        2.55943       -3.23285
| 14> H          1.03407        3.72943       -4.49708
| 15> H         -1.28888        2.82674       -4.59500
| 16> H         -0.65170        1.18634       -4.75655
| 17> H          2.29129        1.95234       -5.70442
| 18> H          1.93270        0.83176       -4.41261
| 19> H          2.92953        2.23285       -4.10223
| 20> *
| 21>
| 22> %MaxCore 64000
| 23>
| 24> %pal nprocs 8
| 25> end
| 26>
| 27> %scf
| 28>   MaxIter 150
| 29> end
| 30>
| 31>
| 32>                          ****END OF INPUT****

CARTESIAN COORDINATES (ANGSTROEM)
---------------------------------
  C     -0.461290    2.234690   -4.989620
  C      0.848880    2.667970   -4.302350
  C      2.093430    1.861040   -4.656840
  C     -0.423840    2.398770   -6.474320
  N     -0.959470    3.492650   -7.007400
  N      0.145580    1.486890   -7.203990
  H      0.565370    0.696810   -6.723860
  H      0.220680    1.581770   -8.207520
  H     -1.406240    4.181510   -6.403260
  H     -0.934210    3.681600   -7.999470
  H      0.668430    2.559430   -3.232850
  H      1.034070    3.729430   -4.497080
  H     -1.288880    2.826740   -4.595000
  H     -0.651700    1.186340   -4.756550
  H      2.291290    1.952340   -5.704420
  H      1.932700    0.831760   -4.412610
  H      2.929530    2.232850   -4.102230

 Total Charge           Charge          ....    1
 Multiplicity           Mult            ....    1
 Number of Electrons    NEL             ....   48
 Basis Dimension        Dim             ....  208

ORBITAL ENERGIES
----------------

  NO   OCC          E(Eh)            E(eV)
   0   2.0000     -14.362304      -390.8182
   1   2.0000     -14.358880      -390.7250
   2   2.0000     -10.307717      -280.4872
   3   2.0000     -10.194943      -277.4185
   4   2.0000     -10.162355      -276.5317
   5   2.0000     -10.132480      -275.7188
   6   2.0000      -1.126707       -30.6592
   7   2.0000      -1.037714       -28.2376
   8   2.0000      -0.909148       -24.7392
   9   2.0000      -0.830751       -22.6059
  10   2.0000      -0.778963       -21.1967
  11   2.0000      -0.736734       -20.0476
  12   2.0000      -0.724078       -19.7032
  13   2.0000      -0.683617       -18.6022
  14   2.0000      -0.656228       -17.8569
  15   2.0000      -0.608551       -16.5595
  16   2.0000      -0.580264       -15.7898
  17   2.0000      -0.565938       -15.4000
  18   2.0000      -0.534715       -14.5503
  19   2.0000      -0.522737       -14.2244
  20   2.0000      -0.472977       -12.8703
  21   2.0000      -0.462591       -12.5877
  22   2.0000      -0.462070       -12.5736
  23   2.0000      -0.449205       -12.2235
  24   0.0000      -0.233786        -6.3617
  25   0.0000      -0.169008        -4.5989
  26   0.0000      -0.127975        -3.4824
  27   0.0000      -0.125240        -3.4079
  28   0.0000      -0.101721        -2.7680

MULLIKEN ATOMIC CHARGES
-----------------------
   0 C :    0.016950
   1 C :   -0.346628
   2 C :    0.684983
   3 C :    0.918099
   4 N :   -0.083340
   5 N :   -0.002823
   6 H :    0.116322
   7 H :   -0.121575
   8 H :    0.063314
   9 H :   -0.115280
  10 H :    0.001165
  11 H :   -0.034288
  12 H :   -0.013707
  13 H :    0.063241
  14 H :   -0.072987
  15 H :    0.011491
  16 H :   -0.084937
Sum of atomic charges:    1.0000000

LOEWDIN ATOMIC CHARGES
----------------------
   0 C :    0.054452
   1 C :   -0.030256
   2 C :    0.145822
   3 C :   -0.045157
   4 N :    0.283681
   5 N :    0.291746
   6 H :    0.050250
   7 H :    0.053598
   8 H :    0.053868
   9 H :    0.042513
  10 H :    0.035399
  11 H :    0.029900
  12 H :    0.035442
  13 H :    0.042968
  14 H :   -0.033877
  15 H :   -0.009771
  16 H :   -0.000578

  Mayer bond orders larger than 0.100000
B(  0-C ,  1-C ) :   1.1991 B(  0-C ,  3-C ) :   1.0324 B(  0-C ,  4-N ) :   0.1208
B(  0-C ,  5-N ) :   0.1204 B(  0-C , 10-H ) :   0.1056 B(  0-C , 12-H ) :   0.9070
B(  0-C , 13-H ) :   0.8503 B(  1-C ,  2-C ) :   1.3290 B(  1-C , 10-H ) :   0.9109
B(  1-C , 11-H ) :   0.9789 B(  1-C , 12-H ) :   0.1126 B(  1-C , 13-H ) :   0.1288
B(  1-C , 14-H ) :   0.2006 B(  1-C , 15-H ) :   0.2009 B(  1-C , 16-H ) :   0.2064
B(  2-C , 14-H ) :   0.8232 B(  2-C , 15-H ) :   0.7970 B(  2-C , 16-H ) :   0.8066
B(  3-C ,  4-N ) :   0.9678 B(  3-C ,  5-N ) :   1.0710 B(  3-C ,  7-H ) :  -0.2087
B(  3-C ,  9-H ) :  -0.1904 B(  4-N ,  5-N ) :   0.1980 B(  4-N ,  8-H ) :   1.0863
B(  4-N ,  9-H ) :   1.3231 B(  5-N ,  6-H ) :   1.0022 B(  5-N ,  7-H ) :   1.3718
B(  6-H ,  7-H ) :  -0.1856 B(  8-H ,  9-H ) :  -0.1739

Dispersion correction           -0.016947901
FINAL SINGLE POINT ENERGY      -268.227935473694

DIPOLE MOMENT
-------------
                                X             Y             Z
Electronic contribution:     -3.53734       0.63350      -4.30264
Nuclear contribution   :      2.80679      -0.44323       2.95915
                        -----------------------------------------
Total Dipole Moment    :     -0.73055       0.19027      -1.34349
                        -----------------------------------------
Magnitude (a.u.)       :      1.54106
Magnitude (Debye)      :      3.91706

Rotational constants in cm-1:     0.187834     0.079484     0.065778
Rotational constants in MHz :  5631.136036  2382.861517  1971.985559

                             ****ORCA TERMINATED NORMALLY****
TOTAL RUN TIME: 0 days 0 hours 0 minutes 7 seconds 617 msec
