                         Program Version 5.0.0 -  RELEASE  -
|  1> !TPSS D3BJ RIJCOSX def2-SVPD def2/J TightSCF xyzfile
|  2>
|  3> *xyzfile 0 1 B.xyz
|  4>
|  5> %MaxCore 64000
|  6>
|  7> %pal nprocs 4
|  8> end
|  9>
| 10> %scf
| 11>   MaxIter 150
| 12> end
| 13>
| 14>
| 15>                          ****END OF INPUT****

CARTESIAN COORDINATES (ANGSTROEM)
---------------------------------
  C     -0.461293    2.234686   -4.989619
  C      0.848883    2.667967   -4.302351
  C      2.093434    1.861037   -4.656845
  H      2.444814    2.041567   -5.674990
  H      2.901748    2.137864   -3.980338
  S      1.879644    0.078594   -4.462965
  C     -0.423841    2.398772   -6.474317
  N     -0.959467    3.492647   -7.007401
  N      0.145585    1.486891   -7.203987
  H      0.565371    0.696807   -6.723858
  H      0.220682    1.581768   -8.207520
  H     -1.406243    4.181507   -6.403261
  H     -0.934215    3.681601   -7.999468
  O      3.207574   -0.466111   -4.420259
  O      1.075064   -0.056160   -3.268758
  O      1.131661   -0.319960   -5.679031
  H      0.668432    2.559427   -3.232850
  H      1.034074    3.729426   -4.497081
  H     -1.288884    2.826737   -4.594997
  H     -0.651696    1.186343   -4.756552

 Total Charge           Charge          ....    0
 Multiplicity           Mult            ....    1
 Number of Electrons    NEL             ....   88
 Basis Dimension        Dim             ....  296

ORBITAL ENERGIES
----------------

  NO   OCC          E(Eh)            E(eV)
   0   2.0000     -88.519192     -2408.7297
   1   2.0000     -18.838870      -512.6317
   2   2.0000     -18.824939      -512.2526
   3   2.0000     -18.823335      -512.2090
   4   2.0000     -14.227660      -387.1543
   5   2.0000     -14.194252      -386.2452
   6   2.0000     -10.163824      -276.5717
   7   2.0000     -10.052243      -273.5354
   8   2.0000     -10.032359      -272.9944
   9   2.0000     -10.007531      -272.3188
  10   2.0000      -7.878454      -214.3836
  11   2.0000      -5.865005      -159.5949
  12   2.0000      -5.864016      -159.5680
  13   2.0000      -5.863413      -159.5516
  14   2.0000      -1.008301       -27.4373
  15   2.0000      -0.982720       -26.7412
  16   2.0000      -0.895061       -24.3558
  17   2.0000      -0.868991       -23.6464
  18   2.0000      -0.866308       -23.5734
  19   2.0000      -0.770701       -20.9718
  20   2.0000      -0.696877       -18.9630
  21   2.0000      -0.640155       -17.4195
  22   2.0000      -0.599068       -16.3015
  23   2.0000      -0.586329       -15.9548
  24   2.0000      -0.556485       -15.1427
  25   2.0000      -0.517528       -14.0826
  26   2.0000      -0.474197       -12.9036
  27   2.0000      -0.470173       -12.7941
  28   2.0000      -0.441600       -12.0166
  29   2.0000      -0.430784       -11.7222
  30   2.0000      -0.406355       -11.0575
  31   2.0000      -0.395728       -10.7683
  32   2.0000      -0.371095       -10.0980
  33   2.0000      -0.362700        -9.8696
  34   2.0000      -0.354400        -9.6437
  35   2.0000      -0.338080        -9.1996
  36   2.0000      -0.324615        -8.8332
  37   2.0000      -0.310563        -8.4508
  38   2.0000      -0.260772        -7.0960
  39   2.0000      -0.255144        -6.9428
  40   2.0000      -0.229587        -6.2474
  41   2.0000      -0.218244        -5.9387
  42   2.0000      -0.213402        -5.8070
  43   2.0000      -0.178499        -4.8572
  44   0.0000      -0.092699        -2.5225
  45   0.0000      -0.052520        -1.4291
  46   0.0000      -0.015101        -0.4109
  47   0.0000       0.004659         0.1268
  48   0.0000       0.020148         0.5483

MULLIKEN ATOMIC CHARGES
-----------------------
   0 C :    0.096714
   1 C :    0.124015
   2 C :    0.095354
   3 H :    0.115098
   4 H :   -0.117724
   5 S :    1.362359
   6 C :    0.862156
   7 N :   -0.063531
   8 N :    0.292480
   9 H :   -0.089111
  10 H :   -0.170505
  11 H :   -0.001440
  12 H :   -0.172748
  13 O :   -0.768369
  14 O :   -0.770436
  15 O :   -0.883035
  16 H :    0.186118
  17 H :   -0.169549
  18 H :   -0.071766
  19 H :    0.143922
Sum of atomic charges:    0.0000000

LOEWDIN ATOMIC CHARGES
----------------------
   0 C :    0.062624
   1 C :   -0.008623
   2 C :   -0.063176
   3 H :    0.002601
   4 H :    0.012981
   5 S :    0.922347
   6 C :   -0.040892
   7 N :    0.249946
   8 N :    0.309687
   9 H :   -0.117282
  10 H :    0.041171
  11 H :    0.034914
  12 H :    0.024225
  13 O :   -0.501040
  14 O :   -0.511215
  15 O :   -0.517894
  16 H :    0.030074
  17 H :    0.017627
  18 H :    0.025157
  19 H :    0.026765

  Mayer bond orders larger than 0.100000
B(  0-C ,  1-C ) :   1.2132 B(  0-C ,  6-C ) :   1.0676 B(  0-C , 16-H ) :   0.1326
B(  0-C , 18-H ) :   0.8203 B(  0-C , 19-H ) :   0.8320 B(  1-C ,  2-C ) :   1.3329
B(  1-C ,  3-H ) :   0.1159 B(  1-C ,  4-H ) :   0.1726 B(  1-C , 16-H ) :   0.7922
B(  1-C , 17-H ) :   0.8862 B(  1-C , 18-H ) :   0.1528 B(  1-C , 19-H ) :   0.1397
B(  2-C ,  3-H ) :   0.8835 B(  2-C ,  4-H ) :   0.8627 B(  2-C ,  5-S ) :   0.8624
B(  2-C , 14-O ) :   0.1040 B(  2-C , 15-O ) :   0.1578 B(  2-C , 16-H ) :   0.1378
B(  2-C , 17-H ) :   0.1192 B(  5-S , 13-O ) :   1.3983 B(  5-S , 14-O ) :   1.3476
B(  5-S , 15-O ) :   1.1511 B(  6-C ,  7-N ) :   0.9059 B(  6-C ,  8-N ) :   1.0967
B(  6-C , 10-H ) :  -0.2588 B(  6-C , 11-H ) :  -0.1254 B(  6-C , 12-H ) :  -0.1914
B(  6-C , 18-H ) :   0.1021 B(  7-N ,  8-N ) :   0.1841 B(  7-N , 11-H ) :   1.1626
B(  7-N , 12-H ) :   1.3546 B(  8-N ,  9-H ) :   1.0759 B(  8-N , 10-H ) :   1.3705
B(  9-H , 10-H ) :  -0.2478 B(  9-H , 15-O ) :   0.1633 B( 11-H , 12-H ) :  -0.1762

Dispersion correction           -0.028721026
FINAL SINGLE POINT ENERGY      -891.434950768545

DIPOLE MOMENT
-------------
                                X             Y             Z
Electronic contribution:      3.13230      -7.71891       1.11671
Nuclear contribution   :     -5.91573      12.15027      -4.18945
                        -----------------------------------------
Total Dipole Moment    :     -2.78343       4.43137      -3.07275
                        -----------------------------------------
Magnitude (a.u.)       :      6.06846
Magnitude (Debye)      :     15.42481

Rotational constants in cm-1:     0.082044     0.024757     0.022371
Rotational constants in MHz :  2459.631375   742.181961   670.660570

                             ****ORCA TERMINATED NORMALLY****
TOTAL RUN TIME: 0 days 0 hours 0 minutes 32 seconds 913 msec
