                         Program Version 5.0.0 -  RELEASE  -
|  1> !TPSS D3BJ RIJCOSX def2-SVPD def2/J TightSCF
|  2> *xyz 0 1
|  3> C         -0.46129        2.23469       -4.98962
|  4> C          0.84888        2.66797       -4.30235
|  5> C          2.09343        1.86104       -4.65684
|  6> H          2.44481        2.04157       -5.67499
|  7> H          2.90175        2.13786       -3.98034
|  8> S          1.87964        0.07859       -4.46297
|  9> F          3.20757       -0.46611       -4.42026
| 10> O          1.07506       -0.05616       -3.26876
| 11> O          1.13166       -0.31996       -5.67903
| 12> H          0.66843        2.55943       -3.23285
| 13> H          1.03407        3.72943       -4.49708
| 14> H         -0.35183        2.31783       -6.05075
| 15> H         -1.26108        2.86600       -4.66300
| 16> H         -0.68032        1.21949       -4.73211
| 17> *
| 18>
| 19> %MaxCore 64000
| 20>
| 21> %pal nprocs 8
| 22> end
| 23>
| 24> %scf
| 25>   MaxIter 150
| 26> end
| 27>
| 28>
| 29>                          ****END OF INPUT****

CARTESIAN COORDINATES (ANGSTROEM)
---------------------------------
  C     -0.461290    2.234690   -4.989620
  C      0.848880    2.667970   -4.302350
  C      2.093430    1.861040   -4.656840
  H      2.444810    2.041570   -5.674990
  H      2.901750    2.137860   -3.980340
  S      1.879640    0.078590   -4.462970
  F      3.207570   -0.466110   -4.420260
  O      1.075060   -0.056160   -3.268760
  O      1.131660   -0.319960   -5.679030
  H      0.668430    2.559430   -3.232850
  H      1.034070    3.729430   -4.497080
  H     -0.351830    2.317830   -6.050750
  H     -1.261080    2.866000   -4.663000
  H     -0.680320    1.219490   -4.732110

 Total Charge           Charge          ....    0
 Multiplicity           Mult            ....    1
 Number of Electrons    NEL             ....   66
 Basis Dimension        Dim             ....  212

ORBITAL ENERGIES
----------------

  NO   OCC          E(Eh)            E(eV)
   0   2.0000     -88.621901     -2411.5245
   1   2.0000     -24.544850      -667.8993
   2   2.0000     -18.912813      -514.6438
   3   2.0000     -18.900512      -514.3091
   4   2.0000     -10.057854      -273.6881
   5   2.0000     -10.026444      -272.8334
   6   2.0000      -9.990886      -271.8658
   7   2.0000      -7.982959      -217.2274
   8   2.0000      -5.973234      -162.5400
   9   2.0000      -5.966736      -162.3631
  10   2.0000      -5.964829      -162.3113
  11   2.0000      -1.298235       -35.3268
  12   2.0000      -1.033572       -28.1249
  13   2.0000      -0.933830       -25.4108
  14   2.0000      -0.763000       -20.7623
  15   2.0000      -0.694012       -18.8850
  16   2.0000      -0.649714       -17.6796
  17   2.0000      -0.581027       -15.8106
  18   2.0000      -0.532762       -14.4972
  19   2.0000      -0.526974       -14.3397
  20   2.0000      -0.504389       -13.7251
  21   2.0000      -0.449075       -12.2199
  22   2.0000      -0.439105       -11.9487
  23   2.0000      -0.411380       -11.1942
  24   2.0000      -0.403251       -10.9730
  25   2.0000      -0.383178       -10.4268
  26   2.0000      -0.346202        -9.4206
  27   2.0000      -0.336568        -9.1585
  28   2.0000      -0.329778        -8.9737
  29   2.0000      -0.315061        -8.5732
  30   2.0000      -0.293907        -7.9976
  31   2.0000      -0.278011        -7.5651
  32   2.0000      -0.264354        -7.1934
  33   0.0000      -0.021059        -0.5730
  34   0.0000       0.001339         0.0364
  35   0.0000       0.020767         0.5651
  36   0.0000       0.027483         0.7479
  37   0.0000       0.029253         0.7960

MULLIKEN ATOMIC CHARGES
-----------------------
   0 C :    0.686626
   1 C :   -0.284363
   2 C :    0.031344
   3 H :    0.053360
   4 H :    0.053892
   5 S :    1.426391
   6 F :   -0.428088
   7 O :   -0.652612
   8 O :   -0.663810
   9 H :    0.099093
  10 H :   -0.158583
  11 H :   -0.031811
  12 H :   -0.090261
  13 H :   -0.041179
Sum of atomic charges:   -0.0000000

LOEWDIN ATOMIC CHARGES
----------------------
   0 C :    0.150405
   1 C :   -0.056727
   2 C :   -0.052323
   3 H :    0.020780
   4 H :    0.010223
   5 S :    1.104827
   6 F :   -0.247772
   7 O :   -0.447987
   8 O :   -0.466048
   9 H :    0.020231
  10 H :    0.027395
  11 H :   -0.012841
  12 H :   -0.017401
  13 H :   -0.032762

  Mayer bond orders larger than 0.100000
B(  0-C ,  1-C ) :   1.3123 B(  0-C , 11-H ) :   0.7869 B(  0-C , 12-H ) :   0.7849
B(  0-C , 13-H ) :   0.8367 B(  1-C ,  2-C ) :   1.3152 B(  1-C ,  3-H ) :   0.1211
B(  1-C ,  4-H ) :   0.1454 B(  1-C ,  9-H ) :   0.8508 B(  1-C , 10-H ) :   0.9409
B(  1-C , 11-H ) :   0.1959 B(  1-C , 12-H ) :   0.1976 B(  1-C , 13-H ) :   0.1875
B(  2-C ,  3-H ) :   0.9280 B(  2-C ,  4-H ) :   0.8685 B(  2-C ,  5-S ) :   0.9345
B(  2-C ,  9-H ) :   0.1198 B(  2-C , 10-H ) :   0.1063 B(  5-S ,  6-F ) :   0.6947
B(  5-S ,  7-O ) :   1.5002 B(  5-S ,  8-O ) :   1.4755

Dispersion correction           -0.016476417
FINAL SINGLE POINT ENERGY      -766.633894317660

DIPOLE MOMENT
-------------
                                X             Y             Z
Electronic contribution:      8.03312     -11.24840       1.22951
Nuclear contribution   :     -7.07796      12.41139      -1.18012
                        -----------------------------------------
Total Dipole Moment    :      0.95516       1.16299       0.04938
                        -----------------------------------------
Magnitude (a.u.)       :      1.50576
Magnitude (Debye)      :      3.82734

Rotational constants in cm-1:     0.134396     0.055628     0.052255
Rotational constants in MHz :  4029.100214  1667.685325  1566.551712

                             ****ORCA TERMINATED NORMALLY****
TOTAL RUN TIME: 0 days 0 hours 0 minutes 8 seconds 266 msec
