                         Program Version 5.0.0 -  RELEASE  -
|  1> !TPSS D3BJ RIJCOSX def2-SVPD def2/J TightSCF
|  2> *xyz 0 1
|  3> C         -0.46129        2.23469       -4.98962
|  4> C          0.84888        2.66797       -4.30235
|  5> C          2.09343        1.86104       -4.65684
|  6> C         -0.42384        2.39877       -6.47432
|  7> C         -0.95947        3.49265       -7.00740
|  8> N          0.14558        1.48689       -7.20399
|  9> H          0.56537        0.69681       -6.72386
| 10> H          0.22068        1.58177       -8.20752
| 11> H         -1.40624        4.18151       -6.40326
| 12> H         -0.93421        3.68160       -7.99947
| 13> H          0.66843        2.55943       -3.23285
| 14> H          1.03407        3.72943       -4.49708
| 15> H         -1.28888        2.82674       -4.59500
| 16> H         -0.65170        1.18634       -4.75655
| 17> H          2.29129        1.95234       -5.70442
| 18> H          1.93270        0.83176       -4.41261
| 19> H          2.92953        2.23285       -4.10223
| 20> *
| 21>
| 22> %MaxCore 64000
| 23>
| 24> %pal nprocs 8
| 25> end
| 26>
| 27> %scf
| 28>   MaxIter 150
| 29> end
| 30>
| 31>
| 32>                          ****END OF INPUT****

CARTESIAN COORDINATES (ANGSTROEM)
---------------------------------
  C     -0.461290    2.234690   -4.989620
  C      0.848880    2.667970   -4.302350
  C      2.093430    1.861040   -4.656840
  C     -0.423840    2.398770   -6.474320
  C     -0.959470    3.492650   -7.007400
  N      0.145580    1.486890   -7.203990
  H      0.565370    0.696810   -6.723860
  H      0.220680    1.581770   -8.207520
  H     -1.406240    4.181510   -6.403260
  H     -0.934210    3.681600   -7.999470
  H      0.668430    2.559430   -3.232850
  H      1.034070    3.729430   -4.497080
  H     -1.288880    2.826740   -4.595000
  H     -0.651700    1.186340   -4.756550
  H      2.291290    1.952340   -5.704420
  H      1.932700    0.831760   -4.412610
  H      2.929530    2.232850   -4.102230

 Total Charge           Charge          ....    0
 Multiplicity           Mult            ....    1
 Number of Electrons    NEL             ....   48
 Basis Dimension        Dim             ....  208

ORBITAL ENERGIES
----------------

  NO   OCC          E(Eh)            E(eV)
   0   2.0000     -14.122034      -384.2801
   1   2.0000     -10.011830      -272.4357
   2   2.0000      -9.998782      -272.0807
   3   2.0000      -9.996749      -272.0254
   4   2.0000      -9.987063      -271.7618
   5   2.0000      -9.931482      -270.2494
   6   2.0000      -0.863968       -23.5098
   7   2.0000      -0.728512       -19.8238
   8   2.0000      -0.672968       -18.3124
   9   2.0000      -0.621622       -16.9152
  10   2.0000      -0.553691       -15.0667
  11   2.0000      -0.514937       -14.0121
  12   2.0000      -0.482863       -13.1394
  13   2.0000      -0.441239       -12.0067
  14   2.0000      -0.408475       -11.1152
  15   2.0000      -0.392397       -10.6777
  16   2.0000      -0.369892       -10.0653
  17   2.0000      -0.349862        -9.5202
  18   2.0000      -0.336453        -9.1554
  19   2.0000      -0.322771        -8.7830
  20   2.0000      -0.302423        -8.2293
  21   2.0000      -0.289022        -7.8647
  22   2.0000      -0.287221        -7.8157
  23   2.0000      -0.155889        -4.2420
  24   0.0000       0.003685         0.1003
  25   0.0000       0.021981         0.5981
  26   0.0000       0.035405         0.9634
  27   0.0000       0.039716         1.0807
  28   0.0000       0.053924         1.4673

MULLIKEN ATOMIC CHARGES
-----------------------
   0 C :    0.231836
   1 C :   -0.370574
   2 C :    0.662676
   3 C :    0.014340
   4 C :    0.327488
   5 N :    0.149972
   6 H :   -0.031863
   7 H :   -0.196821
   8 H :   -0.080435
   9 H :   -0.460075
  10 H :   -0.030942
  11 H :   -0.070083
  12 H :    0.061139
  13 H :   -0.039186
  14 H :   -0.059256
  15 H :    0.000407
  16 H :   -0.108622
Sum of atomic charges:    0.0000000

LOEWDIN ATOMIC CHARGES
----------------------
   0 C :    0.013877
   1 C :   -0.053302
   2 C :    0.123825
   3 C :   -0.263282
   4 C :    0.179969
   5 N :    0.176935
   6 H :    0.001154
   7 H :    0.014446
   8 H :   -0.083961
   9 H :   -0.093224
  10 H :    0.010499
  11 H :    0.020495
  12 H :    0.019435
  13 H :    0.015501
  14 H :   -0.036500
  15 H :   -0.023152
  16 H :   -0.022715

  Mayer bond orders larger than 0.100000
B(  0-C ,  1-C ) :   1.1694 B(  0-C ,  3-C ) :   1.0980 B(  0-C ,  4-C ) :   0.1725
B(  0-C ,  5-N ) :   0.1366 B(  0-C , 11-H ) :   0.1180 B(  0-C , 12-H ) :   0.8428
B(  0-C , 13-H ) :   0.7727 B(  1-C ,  2-C ) :   1.3047 B(  1-C , 10-H ) :   0.9102
B(  1-C , 11-H ) :   0.9976 B(  1-C , 12-H ) :   0.1175 B(  1-C , 13-H ) :   0.1474
B(  1-C , 14-H ) :   0.2084 B(  1-C , 15-H ) :   0.2098 B(  1-C , 16-H ) :   0.2156
B(  2-C , 14-H ) :   0.8407 B(  2-C , 15-H ) :   0.7923 B(  2-C , 16-H ) :   0.7918
B(  3-C ,  4-C ) :   1.6063 B(  3-C ,  5-N ) :   1.1389 B(  3-C ,  7-H ) :  -0.1258
B(  3-C ,  9-H ) :   0.1617 B(  3-C , 12-H ) :   0.1242 B(  3-C , 13-H ) :   0.1580
B(  4-C ,  5-N ) :   0.3109 B(  4-C ,  8-H ) :   0.9441 B(  4-C ,  9-H ) :   0.7458
B(  5-N ,  6-H ) :   1.0072 B(  5-N ,  7-H ) :   1.3362 B(  6-H ,  7-H ) :  -0.1606

Dispersion correction           -0.017488428
FINAL SINGLE POINT ENERGY      -251.764177232544

DIPOLE MOMENT
-------------
                                X             Y             Z
Electronic contribution:     -2.08858      -0.44223      -2.65747
Nuclear contribution   :      2.52905      -0.17478       2.67366
                        -----------------------------------------
Total Dipole Moment    :      0.44048      -0.61701       0.01619
                        -----------------------------------------
Magnitude (a.u.)       :      0.75827
Magnitude (Debye)      :      1.92738

Rotational constants in cm-1:     0.190920     0.082419     0.067855
Rotational constants in MHz :  5723.626725  2470.870287  2034.242308

                             ****ORCA TERMINATED NORMALLY****
TOTAL RUN TIME: 0 days 0 hours 0 minutes 8 seconds 457 msec
