                         Program Version 5.0.0 -  RELEASE  -
|  1> !TPSS D3BJ RIJCOSX def2-SVPD def2/J TightSCF
|  2> *xyz 0 1
|  3> C         -0.46129        2.23469       -4.98962
|  4> C          0.84888        2.66797       -4.30235
|  5> C          2.09343        1.86104       -4.65684
|  6> H          2.44481        2.04157       -5.67499
|  7> H          2.90175        2.13786       -3.98034
|  8> S          1.87964        0.07859       -4.46297
|  9> O          3.20757       -0.46611       -4.42026
| 10> F          1.07506       -0.05616       -3.26876
| 11> O          1.13166       -0.31996       -5.67903
| 12> H          0.66843        2.55943       -3.23285
| 13> H          1.03407        3.72943       -4.49708
| 14> H         -0.35183        2.31783       -6.05075
| 15> H         -1.26108        2.86600       -4.66300
| 16> H         -0.68032        1.21949       -4.73211
| 17> *
| 18>
| 19> %MaxCore 64000
| 20>
| 21> %pal nprocs 8
| 22> end
| 23>
| 24> %scf
| 25>   MaxIter 150
| 26> end
| 27>
| 28>
| 29>                          ****END OF INPUT****

CARTESIAN COORDINATES (ANGSTROEM)
---------------------------------
  C     -0.461290    2.234690   -4.989620
  C      0.848880    2.667970   -4.302350
  C      2.093430    1.861040   -4.656840
  H      2.444810    2.041570   -5.674990
  H      2.901750    2.137860   -3.980340
  S      1.879640    0.078590   -4.462970
  O      3.207570   -0.466110   -4.420260
  F      1.075060   -0.056160   -3.268760
  O      1.131660   -0.319960   -5.679030
  H      0.668430    2.559430   -3.232850
  H      1.034070    3.729430   -4.497080
  H     -0.351830    2.317830   -6.050750
  H     -1.261080    2.866000   -4.663000
  H     -0.680320    1.219490   -4.732110

 Total Charge           Charge          ....    0
 Multiplicity           Mult            ....    1
 Number of Electrons    NEL             ....   66
 Basis Dimension        Dim             ....  212

ORBITAL ENERGIES
----------------

  NO   OCC          E(Eh)            E(eV)
   0   2.0000     -88.621079     -2411.5022
   1   2.0000     -24.540293      -667.7753
   2   2.0000     -18.915163      -514.7078
   3   2.0000     -18.899360      -514.2777
   4   2.0000     -10.057615      -273.6816
   5   2.0000     -10.032196      -272.9899
   6   2.0000     -10.001587      -272.1570
   7   2.0000      -7.982082      -217.2035
   8   2.0000      -5.972520      -162.5205
   9   2.0000      -5.965774      -162.3370
  10   2.0000      -5.963927      -162.2867
  11   2.0000      -1.290217       -35.1086
  12   2.0000      -1.036442       -28.2030
  13   2.0000      -0.936158       -25.4742
  14   2.0000      -0.769200       -20.9310
  15   2.0000      -0.691468       -18.8158
  16   2.0000      -0.652465       -17.7545
  17   2.0000      -0.583501       -15.8779
  18   2.0000      -0.538717       -14.6592
  19   2.0000      -0.527443       -14.3525
  20   2.0000      -0.494278       -13.4500
  21   2.0000      -0.449785       -12.2393
  22   2.0000      -0.437664       -11.9094
  23   2.0000      -0.418427       -11.3860
  24   2.0000      -0.401661       -10.9297
  25   2.0000      -0.393457       -10.7065
  26   2.0000      -0.348890        -9.4938
  27   2.0000      -0.348108        -9.4725
  28   2.0000      -0.339446        -9.2368
  29   2.0000      -0.323910        -8.8141
  30   2.0000      -0.293136        -7.9766
  31   2.0000      -0.278767        -7.5856
  32   2.0000      -0.264535        -7.1984
  33   0.0000      -0.025143        -0.6842
  34   0.0000       0.008210         0.2234
  35   0.0000       0.019749         0.5374
  36   0.0000       0.024988         0.6800
  37   0.0000       0.026395         0.7183

MULLIKEN ATOMIC CHARGES
-----------------------
   0 C :    0.712961
   1 C :   -0.274858
   2 C :    0.066702
   3 H :    0.051164
   4 H :    0.040474
   5 S :    1.377773
   6 O :   -0.666060
   7 F :   -0.382675
   8 O :   -0.662735
   9 H :    0.070604
  10 H :   -0.162214
  11 H :   -0.029174
  12 H :   -0.086399
  13 H :   -0.055563
Sum of atomic charges:    0.0000000

LOEWDIN ATOMIC CHARGES
----------------------
   0 C :    0.145944
   1 C :   -0.071085
   2 C :   -0.039444
   3 H :    0.033614
   4 H :    0.014454
   5 S :    1.098204
   6 O :   -0.444115
   7 F :   -0.248413
   8 O :   -0.464216
   9 H :    0.014780
  10 H :    0.025178
  11 H :   -0.009407
  12 H :   -0.017231
  13 H :   -0.038264

  Mayer bond orders larger than 0.100000
B(  0-C ,  1-C ) :   1.3119 B(  0-C , 11-H ) :   0.7892 B(  0-C , 12-H ) :   0.7845
B(  0-C , 13-H ) :   0.8320 B(  1-C ,  2-C ) :   1.2608 B(  1-C ,  3-H ) :   0.1216
B(  1-C ,  4-H ) :   0.1311 B(  1-C ,  9-H ) :   0.8640 B(  1-C , 10-H ) :   0.9477
B(  1-C , 11-H ) :   0.2019 B(  1-C , 12-H ) :   0.1978 B(  1-C , 13-H ) :   0.1922
B(  2-C ,  3-H ) :   0.9246 B(  2-C ,  4-H ) :   0.9130 B(  2-C ,  5-S ) :   0.9601
B(  2-C ,  9-H ) :   0.1121 B(  2-C , 10-H ) :   0.1056 B(  5-S ,  6-O ) :   1.5823
B(  5-S ,  7-F ) :   0.6751 B(  5-S ,  8-O ) :   1.5040

Dispersion correction           -0.016325448
FINAL SINGLE POINT ENERGY      -766.637230175585

DIPOLE MOMENT
-------------
                                X             Y             Z
Electronic contribution:      4.41794     -10.50498       3.13112
Nuclear contribution   :     -4.78457      11.97051      -2.41849
                        -----------------------------------------
Total Dipole Moment    :     -0.36663       1.46552       0.71263
                        -----------------------------------------
Magnitude (a.u.)       :      1.67033
Magnitude (Debye)      :      4.24565

Rotational constants in cm-1:     0.129206     0.056639     0.054229
Rotational constants in MHz :  3873.509495  1697.990779  1625.734877

                             ****ORCA TERMINATED NORMALLY****
TOTAL RUN TIME: 0 days 0 hours 0 minutes 8 seconds 251 msec
