                         Program Version 5.0.0 -  RELEASE  -
|  1> !TPSS D3BJ RIJCOSX def2-SVPD def2/J TightSCF
|  2> *xyz 0 1
|  3> C         -0.46129        2.23469       -4.98962
|  4> C          0.84888        2.66797       -4.30235
|  5> C          2.09343        1.86104       -4.65684
|  6> C         -0.42384        2.39877       -6.47432
|  7> N         -0.95947        3.49265       -7.00740
|  8> C          0.14558        1.48689       -7.20399
|  9> H          0.56537        0.69681       -6.72386
| 10> H          0.22068        1.58177       -8.20752
| 11> H         -1.40624        4.18151       -6.40326
| 12> H         -0.93421        3.68160       -7.99947
| 13> H          0.66843        2.55943       -3.23285
| 14> H          1.03407        3.72943       -4.49708
| 15> H         -1.28888        2.82674       -4.59500
| 16> H         -0.65170        1.18634       -4.75655
| 17> H          2.29129        1.95234       -5.70442
| 18> H          1.93270        0.83176       -4.41261
| 19> H          2.92953        2.23285       -4.10223
| 20> *
| 21>
| 22> %MaxCore 64000
| 23>
| 24> %pal nprocs 8
| 25> end
| 26>
| 27> %scf
| 28>   MaxIter 150
| 29> end
| 30>
| 31>
| 32>                          ****END OF INPUT****

CARTESIAN COORDINATES (ANGSTROEM)
---------------------------------
  C     -0.461290    2.234690   -4.989620
  C      0.848880    2.667970   -4.302350
  C      2.093430    1.861040   -4.656840
  C     -0.423840    2.398770   -6.474320
  N     -0.959470    3.492650   -7.007400
  C      0.145580    1.486890   -7.203990
  H      0.565370    0.696810   -6.723860
  H      0.220680    1.581770   -8.207520
  H     -1.406240    4.181510   -6.403260
  H     -0.934210    3.681600   -7.999470
  H      0.668430    2.559430   -3.232850
  H      1.034070    3.729430   -4.497080
  H     -1.288880    2.826740   -4.595000
  H     -0.651700    1.186340   -4.756550
  H      2.291290    1.952340   -5.704420
  H      1.932700    0.831760   -4.412610
  H      2.929530    2.232850   -4.102230

 Total Charge           Charge          ....    0
 Multiplicity           Mult            ....    1
 Number of Electrons    NEL             ....   48
 Basis Dimension        Dim             ....  208

ORBITAL ENERGIES
----------------

  NO   OCC          E(Eh)            E(eV)
   0   2.0000     -14.119203      -384.2030
   1   2.0000     -10.009979      -272.3854
   2   2.0000      -9.998456      -272.0718
   3   2.0000      -9.995487      -271.9910
   4   2.0000      -9.977213      -271.4938
   5   2.0000      -9.930806      -270.2310
   6   2.0000      -0.852034       -23.1850
   7   2.0000      -0.728423       -19.8214
   8   2.0000      -0.669961       -18.2306
   9   2.0000      -0.626783       -17.0556
  10   2.0000      -0.544650       -14.8207
  11   2.0000      -0.513825       -13.9819
  12   2.0000      -0.475901       -12.9499
  13   2.0000      -0.435411       -11.8481
  14   2.0000      -0.409987       -11.1563
  15   2.0000      -0.392862       -10.6903
  16   2.0000      -0.356033        -9.6882
  17   2.0000      -0.352038        -9.5794
  18   2.0000      -0.335591        -9.1319
  19   2.0000      -0.322633        -8.7793
  20   2.0000      -0.298916        -8.1339
  21   2.0000      -0.287212        -7.8154
  22   2.0000      -0.280966        -7.6455
  23   2.0000      -0.160178        -4.3587
  24   0.0000       0.004409         0.1200
  25   0.0000       0.022566         0.6140
  26   0.0000       0.034653         0.9430
  27   0.0000       0.041946         1.1414
  28   0.0000       0.056442         1.5359

MULLIKEN ATOMIC CHARGES
-----------------------
   0 C :    0.218814
   1 C :   -0.356055
   2 C :    0.632171
   3 C :    0.145206
   4 N :    0.007816
   5 C :    0.321755
   6 H :    0.100695
   7 H :   -0.548227
   8 H :   -0.080744
   9 H :   -0.178838
  10 H :   -0.029615
  11 H :   -0.070562
  12 H :   -0.102221
  13 H :    0.090190
  14 H :   -0.016799
  15 H :    0.003983
  16 H :   -0.137569
Sum of atomic charges:   -0.0000000

LOEWDIN ATOMIC CHARGES
----------------------
   0 C :    0.013596
   1 C :   -0.055448
   2 C :    0.127761
   3 C :   -0.251644
   4 N :    0.171669
   5 C :    0.171430
   6 H :   -0.076442
   7 H :   -0.081886
   8 H :   -0.001432
   9 H :    0.002072
  10 H :    0.010083
  11 H :    0.016405
  12 H :    0.008540
  13 H :    0.023592
  14 H :   -0.034922
  15 H :   -0.019006
  16 H :   -0.024368

  Mayer bond orders larger than 0.100000
B(  0-C ,  1-C ) :   1.1870 B(  0-C ,  3-C ) :   0.9828 B(  0-C ,  4-N ) :   0.1393
B(  0-C ,  5-C ) :   0.2072 B(  0-C , 10-H ) :   0.1202 B(  0-C , 11-H ) :   0.1160
B(  0-C , 12-H ) :   0.8537 B(  0-C , 13-H ) :   0.8071 B(  1-C ,  2-C ) :   1.3174
B(  1-C , 10-H ) :   0.8790 B(  1-C , 11-H ) :   0.9752 B(  1-C , 12-H ) :   0.1320
B(  1-C , 13-H ) :   0.1383 B(  1-C , 14-H ) :   0.2081 B(  1-C , 15-H ) :   0.2061
B(  1-C , 16-H ) :   0.2241 B(  2-C , 14-H ) :   0.8302 B(  2-C , 15-H ) :   0.7976
B(  2-C , 16-H ) :   0.8093 B(  3-C ,  4-N ) :   1.0858 B(  3-C ,  5-C ) :   1.7595
B(  3-C ,  6-H ) :   0.2030 B(  3-C ,  7-H ) :   0.2000 B(  3-C ,  9-H ) :  -0.1120
B(  3-C , 12-H ) :   0.1122 B(  4-N ,  5-C ) :   0.2760 B(  4-N ,  8-H ) :   1.1340
B(  4-N ,  9-H ) :   1.3089 B(  5-C ,  6-H ) :   0.7203 B(  5-C ,  7-H ) :   0.8172
B(  8-H ,  9-H ) :  -0.1524

Dispersion correction           -0.017553045
FINAL SINGLE POINT ENERGY      -251.763957698070

DIPOLE MOMENT
-------------
                                X             Y             Z
Electronic contribution:     -3.07747       1.28616      -2.51755
Nuclear contribution   :      2.79043      -0.64920       2.62716
                        -----------------------------------------
Total Dipole Moment    :     -0.28703       0.63696       0.10961
                        -----------------------------------------
Magnitude (a.u.)       :      0.70719
Magnitude (Debye)      :      1.79753

Rotational constants in cm-1:     0.196182     0.080190     0.067215
Rotational constants in MHz :  5881.393438  2404.041106  2015.067205

                             ****ORCA TERMINATED NORMALLY****
TOTAL RUN TIME: 0 days 0 hours 0 minutes 8 seconds 699 msec
