                         Program Version 5.0.0 -  RELEASE  -
|  1> !TPSS D3BJ RIJCOSX def2-SVPD def2/J TightSCF
|  2> *xyz 0 1
|  3> C         -0.46129        2.23469       -4.98962
|  4> C          0.84888        2.66797       -4.30235
|  5> C          2.09343        1.86104       -4.65684
|  6> H          2.44481        2.04157       -5.67499
|  7> H          2.90175        2.13786       -3.98034
|  8> S          1.87964        0.07859       -4.46297
|  9> O          3.20757       -0.46611       -4.42026
| 10> O          1.07506       -0.05616       -3.26876
| 11> F          1.13166       -0.31996       -5.67903
| 12> H          0.66843        2.55943       -3.23285
| 13> H          1.03407        3.72943       -4.49708
| 14> H         -0.35183        2.31783       -6.05075
| 15> H         -1.26108        2.86600       -4.66300
| 16> H         -0.68032        1.21949       -4.73211
| 17> *
| 18>
| 19> %MaxCore 64000
| 20>
| 21> %pal nprocs 8
| 22> end
| 23>
| 24> %scf
| 25>   MaxIter 150
| 26> end
| 27>
| 28>
| 29>                          ****END OF INPUT****

CARTESIAN COORDINATES (ANGSTROEM)
---------------------------------
  C     -0.461290    2.234690   -4.989620
  C      0.848880    2.667970   -4.302350
  C      2.093430    1.861040   -4.656840
  H      2.444810    2.041570   -5.674990
  H      2.901750    2.137860   -3.980340
  S      1.879640    0.078590   -4.462970
  O      3.207570   -0.466110   -4.420260
  O      1.075060   -0.056160   -3.268760
  F      1.131660   -0.319960   -5.679030
  H      0.668430    2.559430   -3.232850
  H      1.034070    3.729430   -4.497080
  H     -0.351830    2.317830   -6.050750
  H     -1.261080    2.866000   -4.663000
  H     -0.680320    1.219490   -4.732110

 Total Charge           Charge          ....    0
 Multiplicity           Mult            ....    1
 Number of Electrons    NEL             ....   66
 Basis Dimension        Dim             ....  212

ORBITAL ENERGIES
----------------

  NO   OCC          E(Eh)            E(eV)
   0   2.0000     -88.619402     -2411.4565
   1   2.0000     -24.521874      -667.2741
   2   2.0000     -18.915082      -514.7055
   3   2.0000     -18.911849      -514.6176
   4   2.0000     -10.056943      -273.6633
   5   2.0000     -10.027590      -272.8646
   6   2.0000     -10.004035      -272.2236
   7   2.0000      -7.980412      -217.1581
   8   2.0000      -5.970505      -162.4657
   9   2.0000      -5.964402      -162.2996
  10   2.0000      -5.962454      -162.2466
  11   2.0000      -1.259870       -34.2828
  12   2.0000      -1.044576       -28.4244
  13   2.0000      -0.955048       -25.9882
  14   2.0000      -0.766342       -20.8532
  15   2.0000      -0.688414       -18.7327
  16   2.0000      -0.641779       -17.4637
  17   2.0000      -0.581326       -15.8187
  18   2.0000      -0.518173       -14.1002
  19   2.0000      -0.506785       -13.7903
  20   2.0000      -0.498214       -13.5571
  21   2.0000      -0.453231       -12.3330
  22   2.0000      -0.434362       -11.8196
  23   2.0000      -0.414663       -11.2835
  24   2.0000      -0.407198       -11.0804
  25   2.0000      -0.395460       -10.7610
  26   2.0000      -0.353569        -9.6211
  27   2.0000      -0.347338        -9.4515
  28   2.0000      -0.336828        -9.1656
  29   2.0000      -0.321855        -8.7581
  30   2.0000      -0.299381        -8.1466
  31   2.0000      -0.289723        -7.8838
  32   2.0000      -0.279708        -7.6112
  33   0.0000      -0.019143        -0.5209
  34   0.0000       0.006334         0.1724
  35   0.0000       0.017530         0.4770
  36   0.0000       0.023657         0.6437
  37   0.0000       0.031409         0.8547

MULLIKEN ATOMIC CHARGES
-----------------------
   0 C :    0.675242
   1 C :   -0.240714
   2 C :    0.036832
   3 H :    0.056300
   4 H :    0.051135
   5 S :    1.387585
   6 O :   -0.673369
   7 O :   -0.661663
   8 F :   -0.385807
   9 H :    0.101183
  10 H :   -0.158308
  11 H :   -0.037708
  12 H :   -0.082639
  13 H :   -0.068067
Sum of atomic charges:   -0.0000000

LOEWDIN ATOMIC CHARGES
----------------------
   0 C :    0.145276
   1 C :   -0.065862
   2 C :   -0.041939
   3 H :    0.019319
   4 H :    0.025382
   5 S :    1.096066
   6 O :   -0.444613
   7 O :   -0.445583
   8 F :   -0.265914
   9 H :    0.020967
  10 H :    0.024948
  11 H :   -0.016316
  12 H :   -0.015105
  13 H :   -0.036625

  Mayer bond orders larger than 0.100000
B(  0-C ,  1-C ) :   1.3069 B(  0-C , 11-H ) :   0.7895 B(  0-C , 12-H ) :   0.7929
B(  0-C , 13-H ) :   0.8430 B(  1-C ,  2-C ) :   1.3001 B(  1-C ,  3-H ) :   0.1242
B(  1-C ,  4-H ) :   0.1240 B(  1-C ,  9-H ) :   0.8581 B(  1-C , 10-H ) :   0.9356
B(  1-C , 11-H ) :   0.1960 B(  1-C , 12-H ) :   0.1962 B(  1-C , 13-H ) :   0.1857
B(  2-C ,  3-H ) :   0.9260 B(  2-C ,  4-H ) :   0.8996 B(  2-C ,  5-S ) :   0.9565
B(  2-C ,  9-H ) :   0.1228 B(  2-C , 10-H ) :   0.1030 B(  5-S ,  6-O ) :   1.5771
B(  5-S ,  7-O ) :   1.5300 B(  5-S ,  8-F ) :   0.6279

Dispersion correction           -0.016337212
FINAL SINGLE POINT ENERGY      -766.653636071532

DIPOLE MOMENT
-------------
                                X             Y             Z
Electronic contribution:      4.49979     -10.95808      -0.89769
Nuclear contribution   :     -4.84544      12.25421       0.17361
                        -----------------------------------------
Total Dipole Moment    :     -0.34565       1.29613      -0.72407
                        -----------------------------------------
Magnitude (a.u.)       :      1.52437
Magnitude (Debye)      :      3.87465

Rotational constants in cm-1:     0.128954     0.057447     0.053381
Rotational constants in MHz :  3865.954571  1722.226669  1600.330369

                             ****ORCA TERMINATED NORMALLY****
TOTAL RUN TIME: 0 days 0 hours 0 minutes 7 seconds 816 msec
