                         Program Version 5.0.0 -  RELEASE  -
|  1> !TPSS D3BJ RIJCOSX def2-SVPD def2/J TightSCF xyzfile
|  2>
|  3> *xyzfile 0 1 D3.xyz
|  4>
|  5> %MaxCore 64000
|  6>
|  7> %pal nprocs 4
|  8> end
|  9>
| 10> %scf
| 11>   MaxIter 150
| 12> end
| 13>
| 14>
| 15>                          ****END OF INPUT****

CARTESIAN COORDINATES (ANGSTROEM)
---------------------------------
  C     -0.461293    2.234686   -4.989619
  C      0.848883    2.667967   -4.302351
  C      2.093434    1.861037   -4.656845
  H      2.444814    2.041567   -5.674990
  H      2.901748    2.137864   -3.980338
  S      1.879644    0.078594   -4.462965
  C     -0.423841    2.398772   -6.474317
  C     -0.959467    3.492647   -7.007401
  N      0.145585    1.486891   -7.203987
  H      0.565371    0.696807   -6.723858
  H      0.220682    1.581768   -8.207520
  H     -1.406243    4.181507   -6.403261
  H     -0.934215    3.681601   -7.999468
  O      3.207574   -0.466111   -4.420259
  F      1.075064   -0.056160   -3.268758
  O      1.131661   -0.319960   -5.679031
  H      0.668432    2.559427   -3.232850
  H      1.034074    3.729426   -4.497081
  H     -1.288884    2.826737   -4.594997
  H     -0.651696    1.186343   -4.756552

 Total Charge           Charge          ....    0
 Multiplicity           Mult            ....    1
 Number of Electrons    NEL             ....   88
 Basis Dimension        Dim             ....  296

ORBITAL ENERGIES
----------------

  NO   OCC          E(Eh)            E(eV)
   0   2.0000     -88.640921     -2412.0421
   1   2.0000     -24.555119      -668.1787
   2   2.0000     -18.931525      -515.1530
   3   2.0000     -18.924413      -514.9594
   4   2.0000     -14.096919      -383.5967
   5   2.0000     -10.066079      -273.9119
   6   2.0000     -10.034914      -273.0639
   7   2.0000     -10.012894      -272.4647
   8   2.0000     -10.011155      -272.4174
   9   2.0000      -9.929978      -270.2084
  10   2.0000      -8.001361      -217.7281
  11   2.0000      -5.991752      -163.0439
  12   2.0000      -5.985423      -162.8716
  13   2.0000      -5.982999      -162.8057
  14   2.0000      -1.304893       -35.5079
  15   2.0000      -1.056502       -28.7489
  16   2.0000      -0.962552       -26.1924
  17   2.0000      -0.852216       -23.1900
  18   2.0000      -0.777388       -21.1538
  19   2.0000      -0.707808       -19.2604
  20   2.0000      -0.677231       -18.4284
  21   2.0000      -0.640223       -17.4213
  22   2.0000      -0.594222       -16.1696
  23   2.0000      -0.553110       -15.0509
  24   2.0000      -0.547100       -14.8873
  25   2.0000      -0.523901       -14.2561
  26   2.0000      -0.513351       -13.9690
  27   2.0000      -0.475299       -12.9335
  28   2.0000      -0.458237       -12.4693
  29   2.0000      -0.449939       -12.2435
  30   2.0000      -0.432013       -11.7557
  31   2.0000      -0.417660       -11.3651
  32   2.0000      -0.411445       -11.1960
  33   2.0000      -0.380594       -10.3565
  34   2.0000      -0.364179        -9.9098
  35   2.0000      -0.359887        -9.7930
  36   2.0000      -0.344428        -9.3724
  37   2.0000      -0.343049        -9.3348
  38   2.0000      -0.308871        -8.4048
  39   2.0000      -0.307076        -8.3560
  40   2.0000      -0.301159        -8.1949
  41   2.0000      -0.289308        -7.8725
  42   2.0000      -0.282752        -7.6941
  43   2.0000      -0.151471        -4.1217
  44   0.0000      -0.035730        -0.9723
  45   0.0000       0.002093         0.0569
  46   0.0000       0.010301         0.2803
  47   0.0000       0.011871         0.3230
  48   0.0000       0.022101         0.6014

MULLIKEN ATOMIC CHARGES
-----------------------
   0 C :    0.443272
   1 C :    0.107603
   2 C :    0.072734
   3 H :    0.182621
   4 H :   -0.110453
   5 S :    1.485343
   6 C :   -0.018524
   7 C :    0.222407
   8 N :    0.560995
   9 H :   -0.323977
  10 H :   -0.232807
  11 H :   -0.064442
  12 H :   -0.403393
  13 O :   -0.658452
  14 F :   -0.405272
  15 O :   -0.809628
  16 H :    0.165415
  17 H :   -0.165544
  18 H :    0.014296
  19 H :   -0.062195
Sum of atomic charges:   -0.0000000

LOEWDIN ATOMIC CHARGES
----------------------
   0 C :    0.030465
   1 C :   -0.012771
   2 C :   -0.023279
   3 H :    0.032012
   4 H :    0.015720
   5 S :    1.148013
   6 C :   -0.245816
   7 C :    0.174835
   8 N :    0.205005
   9 H :   -0.133355
  10 H :    0.017902
  11 H :   -0.088801
  12 H :   -0.092512
  13 O :   -0.428427
  14 F :   -0.237281
  15 O :   -0.441540
  16 H :    0.016633
  17 H :    0.033545
  18 H :    0.026406
  19 H :    0.003245

  Mayer bond orders larger than 0.100000
B(  0-C ,  1-C ) :   1.1598 B(  0-C ,  6-C ) :   1.1184 B(  0-C ,  8-N ) :   0.1343
B(  0-C , 16-H ) :   0.1355 B(  0-C , 17-H ) :   0.1030 B(  0-C , 18-H ) :   0.7536
B(  0-C , 19-H ) :   0.7112 B(  1-C ,  2-C ) :   1.3481 B(  1-C ,  3-H ) :   0.1197
B(  1-C ,  4-H ) :   0.1931 B(  1-C , 16-H ) :   0.7767 B(  1-C , 17-H ) :   0.9198
B(  1-C , 18-H ) :   0.1395 B(  1-C , 19-H ) :   0.1489 B(  2-C ,  3-H ) :   0.8617
B(  2-C ,  4-H ) :   0.8697 B(  2-C ,  5-S ) :   0.9414 B(  2-C , 15-O ) :   0.1260
B(  2-C , 16-H ) :   0.1181 B(  5-S , 13-O ) :   1.5628 B(  5-S , 14-F ) :   0.6653
B(  5-S , 15-O ) :   1.4075 B(  6-C ,  7-C ) :   1.5429 B(  6-C ,  8-N ) :   1.1526
B(  6-C , 10-H ) :  -0.1450 B(  6-C , 12-H ) :   0.1697 B(  6-C , 18-H ) :   0.1504
B(  6-C , 19-H ) :   0.1859 B(  7-C ,  8-N ) :   0.2329 B(  7-C , 11-H ) :   0.9489
B(  7-C , 12-H ) :   0.7118 B(  8-N ,  9-H ) :   0.9309 B(  8-N , 10-H ) :   1.2839
B(  9-H , 10-H ) :  -0.2206 B(  9-H , 15-O ) :   0.1091

Dispersion correction           -0.028542976
FINAL SINGLE POINT ENERGY      -899.315550197234

DIPOLE MOMENT
-------------
                                X             Y             Z
Electronic contribution:      6.46659     -13.17243       7.31304
Nuclear contribution   :     -6.19944      13.70770      -6.43483
                        -----------------------------------------
Total Dipole Moment    :      0.26715       0.53527       0.87821
                        -----------------------------------------
Magnitude (a.u.)       :      1.06261
Magnitude (Debye)      :      2.70094

Rotational constants in cm-1:     0.079903     0.025241     0.022805
Rotational constants in MHz :  2395.439281   756.708181   683.680583

                             ****ORCA TERMINATED NORMALLY****
TOTAL RUN TIME: 0 days 0 hours 0 minutes 29 seconds 920 msec
