                         Program Version 5.0.0 -  RELEASE  -
|  1> !TPSS D3BJ RIJCOSX def2-SVPD def2/J TightSCF xyzfile
|  2>
|  3> *xyzfile 0 1 D4.xyz
|  4>
|  5> %MaxCore 64000
|  6>
|  7> %pal nprocs 4
|  8> end
|  9>
| 10> %scf
| 11>   MaxIter 150
| 12> end
| 13>
| 14>
| 15>                          ****END OF INPUT****

CARTESIAN COORDINATES (ANGSTROEM)
---------------------------------
  C     -0.461293    2.234686   -4.989619
  C      0.848883    2.667967   -4.302351
  C      2.093434    1.861037   -4.656845
  H      2.444814    2.041567   -5.674990
  H      2.901748    2.137864   -3.980338
  S      1.879644    0.078594   -4.462965
  C     -0.423841    2.398772   -6.474317
  N     -0.959467    3.492647   -7.007401
  C      0.145585    1.486891   -7.203987
  H      0.565371    0.696807   -6.723858
  H      0.220682    1.581768   -8.207520
  H     -1.406243    4.181507   -6.403261
  H     -0.934215    3.681601   -7.999468
  O      3.207574   -0.466111   -4.420259
  F      1.075064   -0.056160   -3.268758
  O      1.131661   -0.319960   -5.679031
  H      0.668432    2.559427   -3.232850
  H      1.034074    3.729426   -4.497081
  H     -1.288884    2.826737   -4.594997
  H     -0.651696    1.186343   -4.756552

 Total Charge           Charge          ....    0
 Multiplicity           Mult            ....    1
 Number of Electrons    NEL             ....   88
 Basis Dimension        Dim             ....  296

ORBITAL ENERGIES
----------------

  NO   OCC          E(Eh)            E(eV)
   0   2.0000     -88.622679     -2411.5457
   1   2.0000     -24.540471      -667.7802
   2   2.0000     -18.914955      -514.7021
   3   2.0000     -18.901722      -514.3420
   4   2.0000     -14.118853      -384.1935
   5   2.0000     -10.055085      -273.6128
   6   2.0000     -10.032571      -273.0001
   7   2.0000     -10.013300      -272.4757
   8   2.0000     -10.008609      -272.3481
   9   2.0000      -9.913768      -269.7673
  10   2.0000      -7.983138      -217.2322
  11   2.0000      -5.973661      -162.5516
  12   2.0000      -5.967099      -162.3730
  13   2.0000      -5.964768      -162.3096
  14   2.0000      -1.290271       -35.1101
  15   2.0000      -1.038313       -28.2539
  16   2.0000      -0.941994       -25.6330
  17   2.0000      -0.852608       -23.2006
  18   2.0000      -0.770602       -20.9691
  19   2.0000      -0.706008       -19.2114
  20   2.0000      -0.663390       -18.0518
  21   2.0000      -0.645964       -17.5776
  22   2.0000      -0.587412       -15.9843
  23   2.0000      -0.544302       -14.8112
  24   2.0000      -0.530671       -14.4403
  25   2.0000      -0.517447       -14.0805
  26   2.0000      -0.503541       -13.7020
  27   2.0000      -0.472976       -12.8703
  28   2.0000      -0.453590       -12.3428
  29   2.0000      -0.437424       -11.9029
  30   2.0000      -0.433091       -11.7850
  31   2.0000      -0.417999       -11.3743
  32   2.0000      -0.401440       -10.9237
  33   2.0000      -0.373114       -10.1529
  34   2.0000      -0.362844        -9.8735
  35   2.0000      -0.352034        -9.5793
  36   2.0000      -0.339652        -9.2424
  37   2.0000      -0.334520        -9.1027
  38   2.0000      -0.306954        -8.3526
  39   2.0000      -0.294429        -8.0118
  40   2.0000      -0.288125        -7.8403
  41   2.0000      -0.278253        -7.5717
  42   2.0000      -0.252016        -6.8577
  43   2.0000      -0.157450        -4.2844
  44   0.0000      -0.022642        -0.6161
  45   0.0000       0.001158         0.0315
  46   0.0000       0.013339         0.3630
  47   0.0000       0.016941         0.4610
  48   0.0000       0.023584         0.6417

MULLIKEN ATOMIC CHARGES
-----------------------
   0 C :    0.332108
   1 C :    0.144440
   2 C :    0.046953
   3 H :    0.238586
   4 H :   -0.142720
   5 S :    1.445626
   6 C :    0.244629
   7 N :   -0.042844
   8 C :    0.607688
   9 H :    0.081817
  10 H :   -0.668024
  11 H :   -0.111864
  12 H :   -0.209456
  13 O :   -0.666504
  14 F :   -0.413774
  15 O :   -0.790601
  16 H :    0.145158
  17 H :   -0.180421
  18 H :   -0.183030
  19 H :    0.122234
Sum of atomic charges:    0.0000000

LOEWDIN ATOMIC CHARGES
----------------------
   0 C :    0.030255
   1 C :   -0.016432
   2 C :   -0.023175
   3 H :    0.030853
   4 H :    0.013761
   5 S :    1.140958
   6 C :   -0.232199
   7 N :    0.165995
   8 C :    0.207194
   9 H :   -0.182827
  10 H :   -0.071330
  11 H :   -0.005799
  12 H :    0.002019
  13 O :   -0.437911
  14 F :   -0.245155
  15 O :   -0.446816
  16 H :    0.015789
  17 H :    0.029498
  18 H :    0.015613
  19 H :    0.009710

  Mayer bond orders larger than 0.100000
B(  0-C ,  1-C ) :   1.1701 B(  0-C ,  6-C ) :   1.0484 B(  0-C ,  7-N ) :   0.1232
B(  0-C ,  8-C ) :   0.2188 B(  0-C , 16-H ) :   0.1139 B(  0-C , 18-H ) :   0.7909
B(  0-C , 19-H ) :   0.8173 B(  1-C ,  2-C ) :   1.3467 B(  1-C ,  3-H ) :   0.1151
B(  1-C ,  4-H ) :   0.1851 B(  1-C , 16-H ) :   0.7673 B(  1-C , 17-H ) :   0.8951
B(  1-C , 18-H ) :   0.1605 B(  1-C , 19-H ) :   0.1338 B(  2-C ,  3-H ) :   0.8395
B(  2-C ,  4-H ) :   0.8927 B(  2-C ,  5-S ) :   0.9496 B(  2-C ,  9-H ) :   0.1101
B(  2-C , 15-O ) :   0.1459 B(  2-C , 16-H ) :   0.1133 B(  4-H ,  9-H ) :  -0.1189
B(  5-S , 13-O ) :   1.5408 B(  5-S , 14-F ) :   0.6536 B(  5-S , 15-O ) :   1.4584
B(  6-C ,  7-N ) :   0.9294 B(  6-C ,  8-C ) :   1.7404 B(  6-C ,  9-H ) :   0.2974
B(  6-C , 10-H ) :   0.2083 B(  6-C , 12-H ) :  -0.1448 B(  6-C , 18-H ) :   0.1375
B(  7-N ,  8-C ) :   0.3364 B(  7-N , 11-H ) :   1.1895 B(  7-N , 12-H ) :   1.3866
B(  8-C ,  9-H ) :   0.5973 B(  8-C , 10-H ) :   0.8633 B(  9-H , 10-H ) :  -0.3056
B( 11-H , 12-H ) :  -0.1502

Dispersion correction           -0.028730705
FINAL SINGLE POINT ENERGY      -899.295023165149

DIPOLE MOMENT
-------------
                                X             Y             Z
Electronic contribution:      5.53967     -11.69903       7.24230
Nuclear contribution   :     -6.09390      13.51614      -6.45360
                        -----------------------------------------
Total Dipole Moment    :     -0.55423       1.81711       0.78870
                        -----------------------------------------
Magnitude (a.u.)       :      2.05696
Magnitude (Debye)      :      5.22838

Rotational constants in cm-1:     0.081469     0.024519     0.022336
Rotational constants in MHz :  2442.393231   735.066768   669.628729

                             ****ORCA TERMINATED NORMALLY****
TOTAL RUN TIME: 0 days 0 hours 0 minutes 32 seconds 726 msec
