                         Program Version 5.0.0 -  RELEASE  -
|  1> !TPSS D3BJ RIJCOSX def2-SVPD def2/J TightSCF xyzfile
|  2>
|  3> *xyzfile 0 1 D5.xyz
|  4>
|  5> %MaxCore 64000
|  6>
|  7> %pal nprocs 4
|  8> end
|  9>
| 10> %scf
| 11>   MaxIter 150
| 12> end
| 13>
| 14>
| 15>                          ****END OF INPUT****

CARTESIAN COORDINATES (ANGSTROEM)
---------------------------------
  C     -0.461293    2.234686   -4.989619
  C      0.848883    2.667967   -4.302351
  C      2.093434    1.861037   -4.656845
  H      2.444814    2.041567   -5.674990
  H      2.901748    2.137864   -3.980338
  S      1.879644    0.078594   -4.462965
  C     -0.423841    2.398772   -6.474317
  C     -0.959467    3.492647   -7.007401
  N      0.145585    1.486891   -7.203987
  H      0.565371    0.696807   -6.723858
  H      0.220682    1.581768   -8.207520
  H     -1.406243    4.181507   -6.403261
  H     -0.934215    3.681601   -7.999468
  O      3.207574   -0.466111   -4.420259
  O      1.075064   -0.056160   -3.268758
  F      1.131661   -0.319960   -5.679031
  H      0.668432    2.559427   -3.232850
  H      1.034074    3.729426   -4.497081
  H     -1.288884    2.826737   -4.594997
  H     -0.651696    1.186343   -4.756552

 Total Charge           Charge          ....    0
 Multiplicity           Mult            ....    1
 Number of Electrons    NEL             ....   88
 Basis Dimension        Dim             ....  296

ORBITAL ENERGIES
----------------

  NO   OCC          E(Eh)            E(eV)
   0   2.0000     -88.631749     -2411.7925
   1   2.0000     -24.547596      -667.9741
   2   2.0000     -18.926622      -515.0196
   3   2.0000     -18.922888      -514.9180
   4   2.0000     -14.123943      -384.3320
   5   2.0000     -10.062989      -273.8279
   6   2.0000     -10.030306      -272.9385
   7   2.0000     -10.022651      -272.7302
   8   2.0000     -10.016190      -272.5544
   9   2.0000      -9.941816      -270.5306
  10   2.0000      -7.992667      -217.4915
  11   2.0000      -5.983144      -162.8096
  12   2.0000      -5.976517      -162.6293
  13   2.0000      -5.974374      -162.5710
  14   2.0000      -1.288008       -35.0485
  15   2.0000      -1.057442       -28.7745
  16   2.0000      -0.965938       -26.2845
  17   2.0000      -0.873876       -23.7794
  18   2.0000      -0.773652       -21.0521
  19   2.0000      -0.710099       -19.3228
  20   2.0000      -0.687491       -18.7076
  21   2.0000      -0.641768       -17.4634
  22   2.0000      -0.603725       -16.4282
  23   2.0000      -0.552136       -15.0244
  24   2.0000      -0.532469       -14.4892
  25   2.0000      -0.523719       -14.2511
  26   2.0000      -0.509283       -13.8583
  27   2.0000      -0.490173       -13.3383
  28   2.0000      -0.458452       -12.4751
  29   2.0000      -0.447818       -12.1858
  30   2.0000      -0.431605       -11.7446
  31   2.0000      -0.424795       -11.5593
  32   2.0000      -0.407709       -11.0943
  33   2.0000      -0.382633       -10.4120
  34   2.0000      -0.366543        -9.9741
  35   2.0000      -0.358430        -9.7534
  36   2.0000      -0.349804        -9.5186
  37   2.0000      -0.342378        -9.3166
  38   2.0000      -0.312581        -8.5058
  39   2.0000      -0.311772        -8.4837
  40   2.0000      -0.304481        -8.2853
  41   2.0000      -0.296405        -8.0656
  42   2.0000      -0.289242        -7.8707
  43   2.0000      -0.166375        -4.5273
  44   0.0000      -0.030165        -0.8208
  45   0.0000       0.003553         0.0967
  46   0.0000       0.005571         0.1516
  47   0.0000       0.011333         0.3084
  48   0.0000       0.018625         0.5068

MULLIKEN ATOMIC CHARGES
-----------------------
   0 C :    0.388302
   1 C :    0.135837
   2 C :    0.086203
   3 H :    0.177044
   4 H :   -0.102593
   5 S :    1.421650
   6 C :    0.032679
   7 C :    0.233970
   8 N :    0.560826
   9 H :   -0.323102
  10 H :   -0.223201
  11 H :   -0.051664
  12 H :   -0.411046
  13 O :   -0.672040
  14 O :   -0.677155
  15 F :   -0.543909
  16 H :    0.197688
  17 H :   -0.159318
  18 H :    0.023961
  19 H :   -0.094133
Sum of atomic charges:    0.0000000

LOEWDIN ATOMIC CHARGES
----------------------
   0 C :    0.034594
   1 C :   -0.006652
   2 C :   -0.029636
   3 H :    0.016783
   4 H :    0.025691
   5 S :    1.115093
   6 C :   -0.247684
   7 C :    0.182917
   8 N :    0.200690
   9 H :   -0.093149
  10 H :    0.021135
  11 H :   -0.082773
  12 H :   -0.090036
  13 O :   -0.433729
  14 O :   -0.434527
  15 F :   -0.269150
  16 H :    0.023078
  17 H :    0.032949
  18 H :    0.029259
  19 H :    0.005147

  Mayer bond orders larger than 0.100000
B(  0-C ,  1-C ) :   1.1750 B(  0-C ,  6-C ) :   1.1091 B(  0-C ,  8-N ) :   0.1298
B(  0-C , 16-H ) :   0.1382 B(  0-C , 17-H ) :   0.1132 B(  0-C , 18-H ) :   0.7550
B(  0-C , 19-H ) :   0.7497 B(  1-C ,  2-C ) :   1.3665 B(  1-C ,  3-H ) :   0.1225
B(  1-C ,  4-H ) :   0.1815 B(  1-C , 16-H ) :   0.7697 B(  1-C , 17-H ) :   0.9042
B(  1-C , 18-H ) :   0.1335 B(  1-C , 19-H ) :   0.1598 B(  2-C ,  3-H ) :   0.8677
B(  2-C ,  4-H ) :   0.8531 B(  2-C ,  5-S ) :   0.9522 B(  2-C , 15-F ) :   0.1026
B(  2-C , 16-H ) :   0.1295 B(  5-S , 13-O ) :   1.5502 B(  5-S , 14-O ) :   1.5466
B(  5-S , 15-F ) :   0.6533 B(  6-C ,  7-C ) :   1.5481 B(  6-C ,  8-N ) :   1.1312
B(  6-C , 10-H ) :  -0.1529 B(  6-C , 12-H ) :   0.1677 B(  6-C , 18-H ) :   0.1550
B(  6-C , 19-H ) :   0.1450 B(  7-C ,  8-N ) :   0.2352 B(  7-C , 11-H ) :   0.9565
B(  7-C , 12-H ) :   0.7008 B(  8-N ,  9-H ) :   0.9491 B(  8-N , 10-H ) :   1.2921
B(  9-H , 10-H ) :  -0.2049 B(  9-H , 15-F ) :   0.1102 B( 13-O , 14-O ) :   0.1089

Dispersion correction           -0.028406577
FINAL SINGLE POINT ENERGY      -899.318786846654

DIPOLE MOMENT
-------------
                                X             Y             Z
Electronic contribution:      6.41929     -13.43226       3.16901
Nuclear contribution   :     -6.26130      13.99605      -3.80018
                        -----------------------------------------
Total Dipole Moment    :      0.15799       0.56379      -0.63117
                        -----------------------------------------
Magnitude (a.u.)       :      0.86093
Magnitude (Debye)      :      2.18830

Rotational constants in cm-1:     0.079895     0.025630     0.022948
Rotational constants in MHz :  2395.188639   768.373696   687.955250

                             ****ORCA TERMINATED NORMALLY****
TOTAL RUN TIME: 0 days 0 hours 0 minutes 34 seconds 114 msec
