                         Program Version 5.0.0 -  RELEASE  -
|  1> !LC-BLYP RIJCOSX def2-SVPD def2/J TightSCF
|  2> *xyz -1 1
|  3> C         -0.50835        1.72268       -4.12430
|  4> S         -1.32861        0.14674       -4.43578
|  5> O         -2.57135        0.47573       -5.06834
|  6> O         -1.51496       -0.40051       -3.06342
|  7> O         -0.37793       -0.62756       -5.20114
|  8> H         -0.31967        2.21655       -5.05456
|  9> H          0.41835        1.54859       -3.61852
| 10> H         -1.13714        2.33776       -3.51504
| 11> *
| 12> %MaxCore 64000
| 13>
| 14> %pal nprocs 4
| 15> end
| 16>
| 17> %scf
| 18>   MaxIter 150
| 19> end
| 20>
| 21>
| 22>                          ****END OF INPUT****

CARTESIAN COORDINATES (ANGSTROEM)
---------------------------------
  C     -0.508350    1.722680   -4.124300
  S     -1.328610    0.146740   -4.435780
  O     -2.571350    0.475730   -5.068340
  O     -1.514960   -0.400510   -3.063420
  O     -0.377930   -0.627560   -5.201140
  H     -0.319670    2.216550   -5.054560
  H      0.418350    1.548590   -3.618520
  H     -1.137140    2.337760   -3.515040

 Total Charge           Charge          ....   -1
 Multiplicity           Mult            ....    1
 Number of Electrons    NEL             ....   50
 Basis Dimension        Dim             ....  140

ORBITAL ENERGIES
----------------

  NO   OCC          E(Eh)            E(eV)
   0   2.0000     -88.311435     -2403.0763
   1   2.0000     -18.742876      -510.0196
   2   2.0000     -18.739933      -509.9395
   3   2.0000     -18.724536      -509.5205
   4   2.0000      -9.936625      -270.3893
   5   2.0000      -7.860160      -213.8858
   6   2.0000      -5.894441      -160.3959
   7   2.0000      -5.894275      -160.3914
   8   2.0000      -5.894141      -160.3877
   9   2.0000      -1.034086       -28.1389
  10   2.0000      -0.892060       -24.2742
  11   2.0000      -0.861763       -23.4498
  12   2.0000      -0.687972       -18.7207
  13   2.0000      -0.491923       -13.3859
  14   2.0000      -0.413334       -11.2474
  15   2.0000      -0.395273       -10.7559
  16   2.0000      -0.394353       -10.7309
  17   2.0000      -0.353094        -9.6082
  18   2.0000      -0.351472        -9.5640
  19   2.0000      -0.258529        -7.0349
  20   2.0000      -0.257073        -6.9953
  21   2.0000      -0.220736        -6.0065
  22   2.0000      -0.211730        -5.7615
  23   2.0000      -0.199528        -5.4294
  24   2.0000      -0.164987        -4.4895
  25   0.0000       0.197130         5.3642
  26   0.0000       0.222022         6.0415
  27   0.0000       0.222397         6.0517
  28   0.0000       0.226288         6.1576
  29   0.0000       0.258663         7.0386

MULLIKEN ATOMIC CHARGES
-----------------------
   0 C :    0.731184
   1 S :    0.876828
   2 O :   -0.672321
   3 O :   -0.745057
   4 O :   -0.689271
   5 H :   -0.176945
   6 H :   -0.161364
   7 H :   -0.163054
Sum of atomic charges:   -1.0000000

LOEWDIN ATOMIC CHARGES
----------------------
   0 C :    0.042248
   1 S :    0.778345
   2 O :   -0.559686
   3 O :   -0.591937
   4 O :   -0.565972
   5 H :   -0.036354
   6 H :   -0.033097
   7 H :   -0.033546

  Mayer bond orders larger than 0.100000
B(  0-C ,  1-S ) :   0.9384 B(  0-C ,  5-H ) :   0.8732 B(  0-C ,  6-H ) :   0.8756
B(  0-C ,  7-H ) :   0.8750 B(  1-S ,  2-O ) :   1.4133 B(  1-S ,  3-O ) :   1.3552
B(  1-S ,  4-O ) :   1.3998 B(  1-S ,  5-H ) :   0.1251 B(  1-S ,  6-H ) :   0.1359
B(  1-S ,  7-H ) :   0.1341

FINAL SINGLE POINT ENERGY      -662.776233319126

DIPOLE MOMENT
-------------
                                X             Y             Z
Electronic contribution:     -1.96772      -3.69645      -0.90109
Nuclear contribution   :      2.60425       5.03732       0.91691
                        -----------------------------------------
Total Dipole Moment    :      0.63653       1.34087       0.01582
                        -----------------------------------------
Magnitude (a.u.)       :      1.48437
Magnitude (Debye)      :      3.77297

Rotational constants in cm-1:     0.171343     0.157827     0.155747
Rotational constants in MHz :  5136.740483  4731.521814  4669.189064

                             ****ORCA TERMINATED NORMALLY****
TOTAL RUN TIME: 0 days 0 hours 0 minutes 11 seconds 302 msec
