                         Program Version 5.0.0 -  RELEASE  -
|  1> !LC-BLYP RIJCOSX def2-SVPD def2/J TightSCF
|  2> *xyz 1 1
|  3> C          1.36401        0.46874       -2.81376
|  4> N          0.42884        0.32140       -1.65531
|  5> H          0.74858       -0.40054       -1.00134
|  6> H         -0.46105        0.02333       -2.07773
|  7> H          0.31026        1.20137       -1.13495
|  8> H          0.99872        1.22859       -3.47261
|  9> H          1.42772       -0.46011       -3.34109
| 10> H          2.33442        0.74312       -2.45611
| 11> *
| 12> %MaxCore 64000
| 13>
| 14> %pal nprocs 4
| 15> end
| 16>
| 17> %scf
| 18>   MaxIter 150
| 19> end
| 20>
| 21>
| 22>                          ****END OF INPUT****

CARTESIAN COORDINATES (ANGSTROEM)
---------------------------------
  C      1.364010    0.468740   -2.813760
  N      0.428840    0.321400   -1.655310
  H      0.748580   -0.400540   -1.001340
  H     -0.461050    0.023330   -2.077730
  H      0.310260    1.201370   -1.134950
  H      0.998720    1.228590   -3.472610
  H      1.427720   -0.460110   -3.341090
  H      2.334420    0.743120   -2.456110

 Total Charge           Charge          ....    1
 Multiplicity           Mult            ....    1
 Number of Electrons    NEL             ....   18
 Basis Dimension        Dim             ....   88

ORBITAL ENERGIES
----------------

  NO   OCC          E(Eh)            E(eV)
   0   2.0000     -14.535461      -395.5300
   1   2.0000     -10.343691      -281.4661
   2   2.0000      -1.317995       -35.8645
   3   2.0000      -1.040053       -28.3013
   4   2.0000      -0.918107       -24.9830
   5   2.0000      -0.913491       -24.8573
   6   2.0000      -0.814324       -22.1589
   7   2.0000      -0.728667       -19.8280
   8   2.0000      -0.726818       -19.7777
   9   0.0000      -0.142829        -3.8866
  10   0.0000      -0.075764        -2.0617
  11   0.0000      -0.067852        -1.8464
  12   0.0000      -0.067567        -1.8386
  13   0.0000      -0.025489        -0.6936

MULLIKEN ATOMIC CHARGES
-----------------------
   0 C :    1.119306
   1 N :   -0.682048
   2 H :    0.321224
   3 H :    0.359664
   4 H :    0.325148
   5 H :   -0.140512
   6 H :   -0.136296
   7 H :   -0.166485
Sum of atomic charges:    1.0000000

LOEWDIN ATOMIC CHARGES
----------------------
   0 C :    0.264409
   1 N :    0.316794
   2 H :    0.109813
   3 H :    0.109620
   4 H :    0.114646
   5 H :    0.028945
   6 H :    0.029161
   7 H :    0.026612

  Mayer bond orders larger than 0.100000
B(  0-C ,  1-N ) :   0.8758 B(  0-C ,  5-H ) :   0.8496 B(  0-C ,  6-H ) :   0.8467
B(  0-C ,  7-H ) :   0.8726 B(  1-N ,  2-H ) :   0.8308 B(  1-N ,  3-H ) :   0.7835
B(  1-N ,  4-H ) :   0.8255 B(  1-N ,  5-H ) :   0.1031 B(  1-N ,  6-H ) :   0.1037

FINAL SINGLE POINT ENERGY       -95.870279923724

DIPOLE MOMENT
-------------
                                X             Y             Z
Electronic contribution:     -0.68361      -0.09527       0.88639
Nuclear contribution   :      0.14628      -0.00095      -0.25828
                        -----------------------------------------
Total Dipole Moment    :     -0.53734      -0.09621       0.62811
                        -----------------------------------------
Magnitude (a.u.)       :      0.83217
Magnitude (Debye)      :      2.11522

Rotational constants in cm-1:     2.853706     0.682028     0.680630
Rotational constants in MHz : 85551.942317 20446.672693 20404.761959

                             ****ORCA TERMINATED NORMALLY****
TOTAL RUN TIME: 0 days 0 hours 0 minutes 4 seconds 601 msec
