                         Program Version 5.0.0 -  RELEASE  -
|  1> !LC-BLYP RIJCOSX def2-SVPD def2/J TightSCF
|  2> *xyz 0 1
|  3> C         -0.50835        1.72268       -4.12430
|  4> S         -1.32861        0.14674       -4.43578
|  5> F         -2.57135        0.47573       -5.06834
|  6> O         -1.51496       -0.40051       -3.06342
|  7> O         -0.37793       -0.62756       -5.20114
|  8> H         -0.31967        2.21655       -5.05456
|  9> H          0.41835        1.54859       -3.61852
| 10> H         -1.13714        2.33776       -3.51504
| 11> *
| 12> %MaxCore 64000
| 13>
| 14> %pal nprocs 4
| 15> end
| 16>
| 17> %scf
| 18>   MaxIter 150
| 19> end
| 20>
| 21>
| 22>                          ****END OF INPUT****

CARTESIAN COORDINATES (ANGSTROEM)
---------------------------------
  C     -0.508350    1.722680   -4.124300
  S     -1.328610    0.146740   -4.435780
  F     -2.571350    0.475730   -5.068340
  O     -1.514960   -0.400510   -3.063420
  O     -0.377930   -0.627560   -5.201140
  H     -0.319670    2.216550   -5.054560
  H      0.418350    1.548590   -3.618520
  H     -1.137140    2.337760   -3.515040

 Total Charge           Charge          ....    0
 Multiplicity           Mult            ....    1
 Number of Electrons    NEL             ....   50
 Basis Dimension        Dim             ....  140

ORBITAL ENERGIES
----------------

  NO   OCC          E(Eh)            E(eV)
   0   2.0000     -88.575916     -2410.2732
   1   2.0000     -24.605554      -669.5512
   2   2.0000     -18.978374      -516.4278
   3   2.0000     -18.962425      -515.9938
   4   2.0000     -10.146186      -276.0918
   5   2.0000      -8.125324      -221.1013
   6   2.0000      -6.164231      -167.7372
   7   2.0000      -6.157083      -167.5428
   8   2.0000      -6.156080      -167.5154
   9   2.0000      -1.475190       -40.1419
  10   2.0000      -1.210005       -32.9259
  11   2.0000      -1.101341       -29.9690
  12   2.0000      -0.910933       -24.7878
  13   2.0000      -0.832278       -22.6474
  14   2.0000      -0.721590       -19.6355
  15   2.0000      -0.705772       -19.2050
  16   2.0000      -0.664737       -18.0884
  17   2.0000      -0.586277       -15.9534
  18   2.0000      -0.584698       -15.9105
  19   2.0000      -0.572495       -15.5784
  20   2.0000      -0.543181       -14.7807
  21   2.0000      -0.496289       -13.5047
  22   2.0000      -0.443402       -12.0656
  23   2.0000      -0.428384       -11.6569
  24   2.0000      -0.411221       -11.1899
  25   0.0000       0.039772         1.0823
  26   0.0000       0.075487         2.0541
  27   0.0000       0.082684         2.2499
  28   0.0000       0.083953         2.2845
  29   0.0000       0.103274         2.8102

MULLIKEN ATOMIC CHARGES
-----------------------
   0 C :    0.700718
   1 S :    1.051779
   2 F :   -0.308225
   3 O :   -0.591221
   4 O :   -0.538887
   5 H :   -0.111515
   6 H :   -0.102763
   7 H :   -0.099886
Sum of atomic charges:   -0.0000000

LOEWDIN ATOMIC CHARGES
----------------------
   0 C :    0.110370
   1 S :    1.051745
   2 F :   -0.233657
   3 O :   -0.470548
   4 O :   -0.446357
   5 H :   -0.009916
   6 H :    0.005911
   7 H :   -0.007546

  Mayer bond orders larger than 0.100000
B(  0-C ,  1-S ) :   0.9944 B(  0-C ,  5-H ) :   0.8774 B(  0-C ,  6-H ) :   0.8755
B(  0-C ,  7-H ) :   0.8789 B(  1-S ,  2-F ) :   0.8006 B(  1-S ,  3-O ) :   1.5587
B(  1-S ,  4-O ) :   1.6026 B(  1-S ,  6-H ) :   0.1336 B(  1-S ,  7-H ) :   0.1066

FINAL SINGLE POINT ENERGY      -687.239871410230

DIPOLE MOMENT
-------------
                                X             Y             Z
Electronic contribution:     -4.04123      -3.13831      -1.99381
Nuclear contribution   :      3.90013       4.80063       1.59574
                        -----------------------------------------
Total Dipole Moment    :     -0.14109       1.66232      -0.39807
                        -----------------------------------------
Magnitude (a.u.)       :      1.71514
Magnitude (Debye)      :      4.35953

Rotational constants in cm-1:     0.163395     0.155047     0.147447
Rotational constants in MHz :  4898.460101  4648.206837  4420.340547

                             ****ORCA TERMINATED NORMALLY****
TOTAL RUN TIME: 0 days 0 hours 0 minutes 12 seconds 85 msec
