                         Program Version 5.0.0 -  RELEASE  -
|  1> !LC-BLYP RIJCOSX def2-SVPD def2/J TightSCF
|  2> *xyz 0 1
|  3> C          1.36401        0.46874       -2.81376
|  4> C          0.42884        0.32140       -1.65531
|  5> H          0.74858       -0.40054       -1.00134
|  6> H         -0.46105        0.02333       -2.07773
|  7> H          0.31026        1.20137       -1.13495
|  8> H          0.99872        1.22859       -3.47261
|  9> H          1.42772       -0.46011       -3.34109
| 10> H          2.33442        0.74312       -2.45611
| 11> *
| 12> %MaxCore 64000
| 13>
| 14> %pal nprocs 4
| 15> end
| 16>
| 17> %scf
| 18>   MaxIter 150
| 19> end
| 20>
| 21>
| 22>                          ****END OF INPUT****

CARTESIAN COORDINATES (ANGSTROEM)
---------------------------------
  C      1.364010    0.468740   -2.813760
  C      0.428840    0.321400   -1.655310
  H      0.748580   -0.400540   -1.001340
  H     -0.461050    0.023330   -2.077730
  H      0.310260    1.201370   -1.134950
  H      0.998720    1.228590   -3.472610
  H      1.427720   -0.460110   -3.341090
  H      2.334420    0.743120   -2.456110

 Total Charge           Charge          ....    0
 Multiplicity           Mult            ....    1
 Number of Electrons    NEL             ....   18
 Basis Dimension        Dim             ....   88

ORBITAL ENERGIES
----------------

  NO   OCC          E(Eh)            E(eV)
   0   2.0000     -10.062954      -273.8269
   1   2.0000     -10.050859      -273.4978
   2   2.0000      -0.872331       -23.7373
   3   2.0000      -0.722349       -19.6561
   4   2.0000      -0.557052       -15.1582
   5   2.0000      -0.553276       -15.0554
   6   2.0000      -0.468410       -12.7461
   7   2.0000      -0.445553       -12.1241
   8   2.0000      -0.441909       -12.0250
   9   0.0000       0.079348         2.1592
  10   0.0000       0.109857         2.9894
  11   0.0000       0.161550         4.3960
  12   0.0000       0.162328         4.4172
  13   0.0000       0.181019         4.9258

MULLIKEN ATOMIC CHARGES
-----------------------
   0 C :    0.458655
   1 C :    0.808200
   2 H :   -0.282187
   3 H :   -0.232795
   4 H :   -0.276572
   5 H :   -0.153353
   6 H :   -0.149919
   7 H :   -0.172030
Sum of atomic charges:    0.0000000

LOEWDIN ATOMIC CHARGES
----------------------
   0 C :    0.064168
   1 C :    0.072815
   2 H :   -0.033100
   3 H :   -0.031541
   4 H :   -0.029147
   5 H :   -0.013414
   6 H :   -0.013020
   7 H :   -0.016760

  Mayer bond orders larger than 0.100000
B(  0-C ,  1-C ) :   1.4111 B(  0-C ,  2-H ) :   0.1867 B(  0-C ,  3-H ) :   0.2320
B(  0-C ,  4-H ) :   0.1807 B(  0-C ,  5-H ) :   0.8090 B(  0-C ,  6-H ) :   0.8059
B(  0-C ,  7-H ) :   0.8442 B(  1-C ,  2-H ) :   0.7053 B(  1-C ,  3-H ) :   0.7053
B(  1-C ,  4-H ) :   0.7202 B(  1-C ,  5-H ) :   0.1750 B(  1-C ,  6-H ) :   0.1783
B(  1-C ,  7-H ) :   0.1621

FINAL SINGLE POINT ENERGY       -79.486453155438

DIPOLE MOMENT
-------------
                                X             Y             Z
Electronic contribution:      0.00054       0.01893       0.06760
Nuclear contribution   :     -0.01491      -0.02598      -0.05743
                        -----------------------------------------
Total Dipole Moment    :     -0.01438      -0.00704       0.01018
                        -----------------------------------------
Magnitude (a.u.)       :      0.01897
Magnitude (Debye)      :      0.04822

Rotational constants in cm-1:     2.853707     0.712330     0.710805
Rotational constants in MHz : 85551.986377 21355.123158 21309.410122

                             ****ORCA TERMINATED NORMALLY****
TOTAL RUN TIME: 0 days 0 hours 0 minutes 4 seconds 487 msec
