                         Program Version 5.0.0 -  RELEASE  -
|  1> !LC-BLYP RIJCOSX def2-SVPD def2/J TightSCF
|  2> *xyz 0 1
|  3> C         -0.50835        1.72268       -4.12430
|  4> S         -1.32861        0.14674       -4.43578
|  5> O         -2.57135        0.47573       -5.06834
|  6> F         -1.51496       -0.40051       -3.06342
|  7> O         -0.37793       -0.62756       -5.20114
|  8> H         -0.31967        2.21655       -5.05456
|  9> H          0.41835        1.54859       -3.61852
| 10> H         -1.13714        2.33776       -3.51504
| 11> *
| 12> %MaxCore 64000
| 13>
| 14> %pal nprocs 4
| 15> end
| 16>
| 17> %scf
| 18>   MaxIter 150
| 19> end
| 20>
| 21>
| 22>                          ****END OF INPUT****

CARTESIAN COORDINATES (ANGSTROEM)
---------------------------------
  C     -0.508350    1.722680   -4.124300
  S     -1.328610    0.146740   -4.435780
  O     -2.571350    0.475730   -5.068340
  F     -1.514960   -0.400510   -3.063420
  O     -0.377930   -0.627560   -5.201140
  H     -0.319670    2.216550   -5.054560
  H      0.418350    1.548590   -3.618520
  H     -1.137140    2.337760   -3.515040

 Total Charge           Charge          ....    0
 Multiplicity           Mult            ....    1
 Number of Electrons    NEL             ....   50
 Basis Dimension        Dim             ....  140

ORBITAL ENERGIES
----------------

  NO   OCC          E(Eh)            E(eV)
   0   2.0000     -88.572997     -2410.1938
   1   2.0000     -24.577861      -668.7976
   2   2.0000     -18.980641      -516.4895
   3   2.0000     -18.977517      -516.4045
   4   2.0000     -10.145076      -276.0615
   5   2.0000      -8.122306      -221.0192
   6   2.0000      -6.160892      -167.6464
   7   2.0000      -6.154404      -167.4699
   8   2.0000      -6.153337      -167.4408
   9   2.0000      -1.428830       -38.8804
  10   2.0000      -1.223501       -33.2932
  11   2.0000      -1.126851       -30.6632
  12   2.0000      -0.908943       -24.7336
  13   2.0000      -0.809520       -22.0282
  14   2.0000      -0.700373       -19.0581
  15   2.0000      -0.673815       -18.3354
  16   2.0000      -0.660100       -17.9622
  17   2.0000      -0.590096       -16.0573
  18   2.0000      -0.584489       -15.9048
  19   2.0000      -0.568811       -15.4781
  20   2.0000      -0.551384       -15.0039
  21   2.0000      -0.504965       -13.7408
  22   2.0000      -0.451665       -12.2904
  23   2.0000      -0.443990       -12.0816
  24   2.0000      -0.429359       -11.6835
  25   0.0000       0.043147         1.1741
  26   0.0000       0.077521         2.1095
  27   0.0000       0.083877         2.2824
  28   0.0000       0.084202         2.2913
  29   0.0000       0.104188         2.8351

MULLIKEN ATOMIC CHARGES
-----------------------
   0 C :    0.700167
   1 S :    1.054392
   2 O :   -0.538605
   3 F :   -0.344492
   4 O :   -0.553125
   5 H :   -0.116153
   6 H :   -0.100276
   7 H :   -0.101908
Sum of atomic charges:   -0.0000000

LOEWDIN ATOMIC CHARGES
----------------------
   0 C :    0.111115
   1 S :    1.047991
   2 O :   -0.441382
   3 F :   -0.259282
   4 O :   -0.446930
   5 H :    0.003539
   6 H :   -0.007314
   7 H :   -0.007737

  Mayer bond orders larger than 0.100000
B(  0-C ,  1-S ) :   0.9921 B(  0-C ,  5-H ) :   0.8720 B(  0-C ,  6-H ) :   0.8805
B(  0-C ,  7-H ) :   0.8798 B(  1-S ,  2-O ) :   1.6122 B(  1-S ,  3-F ) :   0.7331
B(  1-S ,  4-O ) :   1.6000 B(  1-S ,  5-H ) :   0.1261 B(  1-S ,  6-H ) :   0.1101
B(  1-S ,  7-H ) :   0.1085

FINAL SINGLE POINT ENERGY      -687.263817020139

DIPOLE MOMENT
-------------
                                X             Y             Z
Electronic contribution:     -2.28423      -4.61080       1.37939
Nuclear contribution   :      2.84473       5.67605      -0.40731
                        -----------------------------------------
Total Dipole Moment    :      0.56050       1.06525       0.97208
                        -----------------------------------------
Magnitude (a.u.)       :      1.54721
Magnitude (Debye)      :      3.93270

Rotational constants in cm-1:     0.162669     0.154016     0.148818
Rotational constants in MHz :  4876.699308  4617.284822  4461.441982

                             ****ORCA TERMINATED NORMALLY****
TOTAL RUN TIME: 0 days 0 hours 0 minutes 12 seconds 66 msec
