                         Program Version 5.0.0 -  RELEASE  -
|  1> !LC-BLYP RIJCOSX def2-SVPD def2/J TightSCF
|  2> *xyz 0 1
|  3> C         -0.50835        1.72268       -4.12430
|  4> S         -1.32861        0.14674       -4.43578
|  5> O         -2.57135        0.47573       -5.06834
|  6> O         -1.51496       -0.40051       -3.06342
|  7> F         -0.37793       -0.62756       -5.20114
|  8> H         -0.31967        2.21655       -5.05456
|  9> H          0.41835        1.54859       -3.61852
| 10> H         -1.13714        2.33776       -3.51504
| 11> *
| 12> %MaxCore 64000
| 13>
| 14> %pal nprocs 4
| 15> end
| 16>
| 17> %scf
| 18>   MaxIter 150
| 19> end
| 20>
| 21>
| 22>                          ****END OF INPUT****

CARTESIAN COORDINATES (ANGSTROEM)
---------------------------------
  C     -0.508350    1.722680   -4.124300
  S     -1.328610    0.146740   -4.435780
  O     -2.571350    0.475730   -5.068340
  O     -1.514960   -0.400510   -3.063420
  F     -0.377930   -0.627560   -5.201140
  H     -0.319670    2.216550   -5.054560
  H      0.418350    1.548590   -3.618520
  H     -1.137140    2.337760   -3.515040

 Total Charge           Charge          ....    0
 Multiplicity           Mult            ....    1
 Number of Electrons    NEL             ....   50
 Basis Dimension        Dim             ....  140

ORBITAL ENERGIES
----------------

  NO   OCC          E(Eh)            E(eV)
   0   2.0000     -88.575114     -2410.2514
   1   2.0000     -24.600228      -669.4062
   2   2.0000     -18.981289      -516.5071
   3   2.0000     -18.962230      -515.9885
   4   2.0000     -10.146075      -276.0887
   5   2.0000      -8.124552      -221.0803
   6   2.0000      -6.163369      -167.7138
   7   2.0000      -6.156402      -167.5242
   8   2.0000      -6.155354      -167.4957
   9   2.0000      -1.465002       -39.8647
  10   2.0000      -1.215444       -33.0739
  11   2.0000      -1.104089       -30.0438
  12   2.0000      -0.910484       -24.7755
  13   2.0000      -0.827776       -22.5249
  14   2.0000      -0.716484       -19.4965
  15   2.0000      -0.698904       -19.0181
  16   2.0000      -0.663838       -18.0639
  17   2.0000      -0.587978       -15.9997
  18   2.0000      -0.584770       -15.9124
  19   2.0000      -0.572082       -15.5672
  20   2.0000      -0.545033       -14.8311
  21   2.0000      -0.499221       -13.5845
  22   2.0000      -0.447048       -12.1648
  23   2.0000      -0.428654       -11.6643
  24   2.0000      -0.413161       -11.2427
  25   0.0000       0.040157         1.0927
  26   0.0000       0.075789         2.0623
  27   0.0000       0.082897         2.2557
  28   0.0000       0.083943         2.2842
  29   0.0000       0.103132         2.8064

MULLIKEN ATOMIC CHARGES
-----------------------
   0 C :    0.700826
   1 S :    1.051000
   2 O :   -0.525985
   3 O :   -0.592748
   4 F :   -0.318323
   5 H :   -0.111618
   6 H :   -0.099068
   7 H :   -0.104085
Sum of atomic charges:    0.0000000

LOEWDIN ATOMIC CHARGES
----------------------
   0 C :    0.110656
   1 S :    1.051187
   2 O :   -0.440807
   3 O :   -0.470492
   4 F :   -0.239035
   5 H :   -0.009870
   6 H :   -0.007235
   7 H :    0.005597

  Mayer bond orders larger than 0.100000
B(  0-C ,  1-S ) :   0.9939 B(  0-C ,  5-H ) :   0.8776 B(  0-C ,  6-H ) :   0.8793
B(  0-C ,  7-H ) :   0.8749 B(  1-S ,  2-O ) :   1.6147 B(  1-S ,  3-O ) :   1.5585
B(  1-S ,  4-F ) :   0.7853 B(  1-S ,  6-H ) :   0.1086 B(  1-S ,  7-H ) :   0.1323

FINAL SINGLE POINT ENERGY      -687.244224218395

DIPOLE MOMENT
-------------
                                X             Y             Z
Electronic contribution:     -0.38332      -4.97851      -2.21646
Nuclear contribution   :      1.70876       5.90289       1.72841
                        -----------------------------------------
Total Dipole Moment    :      1.32545       0.92439      -0.48805
                        -----------------------------------------
Magnitude (a.u.)       :      1.68805
Magnitude (Debye)      :      4.29067

Rotational constants in cm-1:     0.163253     0.155214     0.147311
Rotational constants in MHz :  4894.200006  4653.189727  4416.272537

                             ****ORCA TERMINATED NORMALLY****
TOTAL RUN TIME: 0 days 0 hours 0 minutes 12 seconds 54 msec
