                         Program Version 5.0.0 -  RELEASE  -
|  1> !LC-BLYP RIJCOSX def2-SVPD def2/J TightSCF xyzfile
|  2>
|  3> *xyzfile 0 1 D1.xyz
|  4>
|  5> %MaxCore 64000
|  6>
|  7> %pal nprocs 4
|  8> end
|  9>
| 10> %scf
| 11>   MaxIter 150
| 12> end
| 13>
| 14>
| 15>                          ****END OF INPUT****

CARTESIAN COORDINATES (ANGSTROEM)
---------------------------------
  C      1.364014    0.468742   -2.813764
  C      0.428844    0.321402   -1.655312
  C      0.968045    1.630639   -3.715749
  C     -0.508347    1.722679   -4.124300
  S     -1.328608    0.146737   -4.435781
  H     -0.591511    2.294958   -5.047219
  H     -1.114114    2.235610   -3.374362
  H      0.748578   -0.400542   -1.001345
  H     -0.461053    0.023332   -2.077731
  H      0.310258    1.201375   -1.134948
  F     -2.571347    0.475733   -5.068341
  O     -1.514963   -0.400512   -3.063420
  H      1.294847   -0.468742   -3.364684
  H      2.376216    0.597400   -2.431495
  H      1.578688    1.520652   -4.612733
  H      1.266653    2.575988   -3.250448
  O     -0.377928   -0.627558   -5.201141

 Total Charge           Charge          ....    0
 Multiplicity           Mult            ....    1
 Number of Electrons    NEL             ....   74
 Basis Dimension        Dim             ....  248

ORBITAL ENERGIES
----------------

  NO   OCC          E(Eh)            E(eV)
   0   2.0000     -88.575653     -2410.2660
   1   2.0000     -24.606111      -669.5663
   2   2.0000     -18.979816      -516.4671
   3   2.0000     -18.965809      -516.0859
   4   2.0000     -10.150105      -276.1984
   5   2.0000     -10.108595      -275.0689
   6   2.0000     -10.072073      -274.0750
   7   2.0000     -10.015257      -272.5290
   8   2.0000      -8.124967      -221.0916
   9   2.0000      -6.163835      -167.7265
  10   2.0000      -6.157121      -167.5438
  11   2.0000      -6.155308      -167.4944
  12   2.0000      -1.475178       -40.1416
  13   2.0000      -1.215105       -33.0647
  14   2.0000      -1.110696       -30.2236
  15   2.0000      -0.940846       -25.6017
  16   2.0000      -0.883262       -24.0348
  17   2.0000      -0.830401       -22.5963
  18   2.0000      -0.787581       -21.4312
  19   2.0000      -0.720305       -19.6005
  20   2.0000      -0.707914       -19.2633
  21   2.0000      -0.684400       -18.6235
  22   2.0000      -0.653152       -17.7732
  23   2.0000      -0.619015       -16.8443
  24   2.0000      -0.605970       -16.4893
  25   2.0000      -0.571180       -15.5426
  26   2.0000      -0.563723       -15.3397
  27   2.0000      -0.529407       -14.4059
  28   2.0000      -0.509815       -13.8728
  29   2.0000      -0.505568       -13.7572
  30   2.0000      -0.490240       -13.3401
  31   2.0000      -0.459310       -12.4985
  32   2.0000      -0.449152       -12.2220
  33   2.0000      -0.423309       -11.5188
  34   2.0000      -0.421040       -11.4571
  35   2.0000      -0.415410       -11.3039
  36   2.0000      -0.375608       -10.2208
  37   0.0000       0.043582         1.1859
  38   0.0000       0.067626         1.8402
  39   0.0000       0.074235         2.0200
  40   0.0000       0.084132         2.2894
  41   0.0000       0.101087         2.7507

MULLIKEN ATOMIC CHARGES
-----------------------
   0 C :   -0.142094
   1 C :    2.501566
   2 C :    0.436645
   3 C :    0.250607
   4 S :    1.392311
   5 H :   -0.309301
   6 H :    0.153092
   7 H :   -0.205127
   8 H :   -1.570948
   9 H :   -0.227481
  10 F :   -0.413785
  11 O :   -0.720052
  12 H :    0.005628
  13 H :   -0.417256
  14 H :   -0.050444
  15 H :   -0.097394
  16 O :   -0.585966
Sum of atomic charges:    0.0000000

LOEWDIN ATOMIC CHARGES
----------------------
   0 C :   -0.056596
   1 C :    0.129464
   2 C :   -0.027729
   3 C :   -0.046391
   4 S :    1.123040
   5 H :    0.021408
   6 H :    0.034700
   7 H :   -0.017126
   8 H :   -0.180546
   9 H :   -0.017004
  10 F :   -0.225830
  11 O :   -0.432088
  12 H :    0.021535
  13 H :    0.029078
  14 H :    0.032945
  15 H :    0.042573
  16 O :   -0.431434

  Mayer bond orders larger than 0.100000
B(  0-C ,  1-C ) :   0.9058 B(  0-C ,  2-C ) :   1.1999 B(  0-C ,  7-H ) :   0.2888
B(  0-C ,  8-H ) :   0.6422 B(  0-C ,  9-H ) :   0.3163 B(  0-C , 12-H ) :   0.7811
B(  0-C , 13-H ) :   0.8872 B(  0-C , 14-H ) :   0.1618 B(  0-C , 15-H ) :   0.1848
B(  1-C ,  7-H ) :   0.3158 B(  1-C ,  8-H ) :  -1.5306 B(  1-C , 11-O ) :  -0.2043
B(  1-C , 12-H ) :   0.1711 B(  2-C ,  3-C ) :   1.2596 B(  2-C ,  5-H ) :   0.2206
B(  2-C ,  6-H ) :   0.1118 B(  2-C , 12-H ) :   0.1667 B(  2-C , 14-H ) :   0.7916
B(  2-C , 15-H ) :   0.7190 B(  3-C ,  4-S ) :   0.9224 B(  3-C ,  5-H ) :   0.7872
B(  3-C ,  6-H ) :   0.8439 B(  3-C ,  8-H ) :   0.1599 B(  3-C , 11-O ) :   0.1328
B(  3-C , 14-H ) :   0.1501 B(  3-C , 15-H ) :   0.1176 B(  4-S ,  8-H ) :  -0.1627
B(  4-S , 10-F ) :   0.7811 B(  4-S , 11-O ) :   1.3864 B(  4-S , 16-O ) :   1.5570
B(  5-H ,  8-H ) :  -0.1011 B(  7-H ,  8-H ) :   0.3345 B(  7-H ,  9-H ) :  -0.2481
B(  8-H ,  9-H ) :   0.6819 B(  8-H , 11-O ) :   0.4385 B(  9-H , 13-H ) :   0.1019
B( 12-H , 13-H ) :  -0.1319

FINAL SINGLE POINT ENERGY      -804.701709616222

DIPOLE MOMENT
-------------
                                X             Y             Z
Electronic contribution:    -12.44641      -4.01099      -9.72435
Nuclear contribution   :     12.25227       5.48563       9.26621
                        -----------------------------------------
Total Dipole Moment    :     -0.19413       1.47464      -0.45814
                        -----------------------------------------
Magnitude (a.u.)       :      1.55632
Magnitude (Debye)      :      3.95586

Rotational constants in cm-1:     0.103176     0.044975     0.040960
Rotational constants in MHz :  3093.138469  1348.317425  1227.945122

                             ****ORCA TERMINATED NORMALLY****
TOTAL RUN TIME: 0 days 0 hours 0 minutes 53 seconds 761 msec
