                         Program Version 5.0.0 -  RELEASE  -
|  1> !LC-BLYP RIJCOSX def2-SVPD def2/J TightSCF xyzfile
|  2>
|  3> *xyzfile 0 1 D3.xyz
|  4>
|  5> %MaxCore 64000
|  6>
|  7> %pal nprocs 4
|  8> end
|  9>
| 10> %scf
| 11>   MaxIter 150
| 12> end
| 13>
| 14>
| 15>                          ****END OF INPUT****

CARTESIAN COORDINATES (ANGSTROEM)
---------------------------------
  C      1.364014    0.468742   -2.813764
  C      0.428844    0.321402   -1.655312
  C      0.968045    1.630639   -3.715749
  C     -0.508347    1.722679   -4.124300
  S     -1.328608    0.146737   -4.435781
  H     -0.591511    2.294958   -5.047219
  H     -1.114114    2.235610   -3.374362
  H      0.748578   -0.400542   -1.001345
  H     -0.461053    0.023332   -2.077731
  H      0.310258    1.201375   -1.134948
  O     -2.571347    0.475733   -5.068341
  O     -1.514963   -0.400512   -3.063420
  H      1.294847   -0.468742   -3.364684
  H      2.376216    0.597400   -2.431495
  H      1.578688    1.520652   -4.612733
  H      1.266653    2.575988   -3.250448
  F     -0.377928   -0.627558   -5.201141

 Total Charge           Charge          ....    0
 Multiplicity           Mult            ....    1
 Number of Electrons    NEL             ....   74
 Basis Dimension        Dim             ....  248

ORBITAL ENERGIES
----------------

  NO   OCC          E(Eh)            E(eV)
   0   2.0000     -88.575478     -2410.2613
   1   2.0000     -24.601194      -669.4325
   2   2.0000     -18.982812      -516.5486
   3   2.0000     -18.964474      -516.0496
   4   2.0000     -10.149634      -276.1856
   5   2.0000     -10.113089      -275.1911
   6   2.0000     -10.084525      -274.4139
   7   2.0000     -10.019761      -272.6516
   8   2.0000      -8.124674      -221.0836
   9   2.0000      -6.163611      -167.7204
  10   2.0000      -6.156898      -167.5377
  11   2.0000      -6.154956      -167.4849
  12   2.0000      -1.465779       -39.8859
  13   2.0000      -1.219097       -33.1733
  14   2.0000      -1.114288       -30.3213
  15   2.0000      -0.946905       -25.7666
  16   2.0000      -0.881804       -23.9951
  17   2.0000      -0.830624       -22.6024
  18   2.0000      -0.789581       -21.4856
  19   2.0000      -0.725866       -19.7518
  20   2.0000      -0.702075       -19.1044
  21   2.0000      -0.691516       -18.8171
  22   2.0000      -0.650492       -17.7008
  23   2.0000      -0.613012       -16.6809
  24   2.0000      -0.606312       -16.4986
  25   2.0000      -0.580472       -15.7954
  26   2.0000      -0.565008       -15.3746
  27   2.0000      -0.534807       -14.5528
  28   2.0000      -0.517839       -14.0911
  29   2.0000      -0.502124       -13.6635
  30   2.0000      -0.497224       -13.5302
  31   2.0000      -0.470653       -12.8071
  32   2.0000      -0.447667       -12.1816
  33   2.0000      -0.433791       -11.8041
  34   2.0000      -0.433102       -11.7853
  35   2.0000      -0.422435       -11.4950
  36   2.0000      -0.370927       -10.0934
  37   0.0000       0.043912         1.1949
  38   0.0000       0.068865         1.8739
  39   0.0000       0.075241         2.0474
  40   0.0000       0.082514         2.2453
  41   0.0000       0.101578         2.7641

MULLIKEN ATOMIC CHARGES
-----------------------
   0 C :   -0.119654
   1 C :    2.507312
   2 C :    0.465394
   3 C :    0.269361
   4 S :    1.295882
   5 H :   -0.333378
   6 H :    0.140734
   7 H :   -0.200473
   8 H :   -1.553085
   9 H :   -0.230258
  10 O :   -0.569356
  11 O :   -0.696386
  12 H :   -0.030092
  13 H :   -0.423381
  14 H :   -0.073785
  15 H :   -0.095536
  16 F :   -0.353299
Sum of atomic charges:   -0.0000000

LOEWDIN ATOMIC CHARGES
----------------------
   0 C :   -0.063755
   1 C :    0.128373
   2 C :   -0.042414
   3 C :   -0.033699
   4 S :    1.115762
   5 H :    0.024679
   6 H :    0.047426
   7 H :   -0.017092
   8 H :   -0.183435
   9 H :   -0.015086
  10 O :   -0.425938
  11 O :   -0.424596
  12 H :    0.018739
  13 H :    0.030087
  14 H :    0.027263
  15 H :    0.041239
  16 F :   -0.227552

  Mayer bond orders larger than 0.100000
B(  0-C ,  1-C ) :   0.9100 B(  0-C ,  2-C ) :   1.1923 B(  0-C ,  7-H ) :   0.2842
B(  0-C ,  8-H ) :   0.6366 B(  0-C ,  9-H ) :   0.3216 B(  0-C , 12-H ) :   0.7703
B(  0-C , 13-H ) :   0.8887 B(  0-C , 14-H ) :   0.1612 B(  0-C , 15-H ) :   0.1861
B(  1-C ,  7-H ) :   0.3106 B(  1-C ,  8-H ) :  -1.4868 B(  1-C , 11-O ) :  -0.1914
B(  1-C , 12-H ) :   0.1703 B(  2-C ,  3-C ) :   1.2346 B(  2-C ,  5-H ) :   0.2043
B(  2-C ,  6-H ) :   0.1179 B(  2-C , 12-H ) :   0.1659 B(  2-C , 14-H ) :   0.7922
B(  2-C , 15-H ) :   0.7117 B(  3-C ,  4-S ) :   0.9500 B(  3-C ,  5-H ) :   0.8363
B(  3-C ,  6-H ) :   0.8466 B(  3-C ,  8-H ) :   0.1502 B(  3-C , 11-O ) :   0.1249
B(  3-C , 14-H ) :   0.1491 B(  3-C , 15-H ) :   0.1170 B(  4-S ,  8-H ) :  -0.1487
B(  4-S , 10-O ) :   1.6863 B(  4-S , 11-O ) :   1.4349 B(  4-S , 16-F ) :   0.7353
B(  7-H ,  8-H ) :   0.3427 B(  7-H ,  9-H ) :  -0.2458 B(  8-H ,  9-H ) :   0.6845
B(  8-H , 11-O ) :   0.4217 B(  9-H , 13-H ) :   0.1051 B( 12-H , 13-H ) :  -0.1460

FINAL SINGLE POINT ENERGY      -804.705740935203

DIPOLE MOMENT
-------------
                                X             Y             Z
Electronic contribution:     -8.60778      -5.90418      -9.90093
Nuclear contribution   :      9.83476       6.70164       9.41257
                        -----------------------------------------
Total Dipole Moment    :      1.22699       0.79746      -0.48836
                        -----------------------------------------
Magnitude (a.u.)       :      1.54270
Magnitude (Debye)      :      3.92124

Rotational constants in cm-1:     0.099832     0.045916     0.042219
Rotational constants in MHz :  2992.874960  1376.530174  1265.693813

                             ****ORCA TERMINATED NORMALLY****
TOTAL RUN TIME: 0 days 0 hours 0 minutes 45 seconds 26 msec
