                         Program Version 5.0.0 -  RELEASE  -
|  1> !wB97X-D3 RIJCOSX def2-TZVP def2/J TightSCF
|  2> *xyz -1 1
|  3> C          4.99986       -1.59613       -5.92488
|  4> C          3.76678       -2.26611       -6.51175
|  5> C          2.49670       -1.84416       -5.73570
|  6> H          1.62642       -2.21743       -6.30895
|  7> H          2.48182       -2.45607       -4.79341
|  8> O          2.45973       -0.50920       -5.50576
|  9> H          3.88619       -3.35708       -6.53360
| 10> H          3.68560       -1.92217       -7.54713
| 11> H          5.86637       -1.89999       -6.47418
| 12> H          5.10830       -1.88372       -4.89997
| 13> H          4.89230       -0.53341       -5.98765
| 14> *
| 15>
| 16> %MaxCore 64000
| 17>
| 18> %pal nprocs 18
| 19> end
| 20>
| 21> %scf
| 22>   MaxIter 150
| 23> end
| 24>
| 25>
| 26>                          ****END OF INPUT****

CARTESIAN COORDINATES (ANGSTROEM)
---------------------------------
  C      4.999860   -1.596130   -5.924880
  C      3.766780   -2.266110   -6.511750
  C      2.496700   -1.844160   -5.735700
  H      1.626420   -2.217430   -6.308950
  H      2.481820   -2.456070   -4.793410
  O      2.459730   -0.509200   -5.505760
  H      3.886190   -3.357080   -6.533600
  H      3.685600   -1.922170   -7.547130
  H      5.866370   -1.899990   -6.474180
  H      5.108300   -1.883720   -4.899970
  H      4.892300   -0.533410   -5.987650

 Total Charge           Charge          ....   -1
 Multiplicity           Mult            ....    1
 Number of Electrons    NEL             ....   34
 Basis Dimension        Dim             ....  166

ORBITAL ENERGIES
----------------

  NO   OCC          E(Eh)            E(eV)
   0   2.0000     -18.879145      -513.7277
   1   2.0000     -10.082601      -274.3615
   2   2.0000     -10.078126      -274.2398
   3   2.0000     -10.074949      -274.1533
   4   2.0000      -0.794047       -21.6071
   5   2.0000      -0.690399       -18.7867
   6   2.0000      -0.570069       -15.5124
   7   2.0000      -0.464863       -12.6496
   8   2.0000      -0.370590       -10.0843
   9   2.0000      -0.359268        -9.7762
  10   2.0000      -0.302640        -8.2352
  11   2.0000      -0.278267        -7.5720
  12   2.0000      -0.245316        -6.6754
  13   2.0000      -0.235961        -6.4208
  14   2.0000      -0.200236        -5.4487
  15   2.0000      -0.054445        -1.4815
  16   2.0000      -0.051479        -1.4008
  17   0.0000       0.278099         7.5675
  18   0.0000       0.309197         8.4137
  19   0.0000       0.322974         8.7886
  20   0.0000       0.340817         9.2741
  21   0.0000       0.351224         9.5573

MULLIKEN ATOMIC CHARGES
-----------------------
   0 C :   -0.275215
   1 C :   -0.058957
   2 C :    0.101650
   3 H :   -0.069436
   4 H :   -0.091369
   5 O :   -0.783172
   6 H :   -0.019644
   7 H :    0.009360
   8 H :    0.033012
   9 H :    0.053622
  10 H :    0.100149
Sum of atomic charges:   -1.0000000

LOEWDIN ATOMIC CHARGES
----------------------
   0 C :   -0.340057
   1 C :   -0.332549
   2 C :   -0.533773
   3 H :    0.057943
   4 H :    0.052747
   5 O :   -0.405981
   6 H :    0.094398
   7 H :    0.107103
   8 H :    0.085759
   9 H :    0.101629
  10 H :    0.112781

  Mayer bond orders larger than 0.100000
B(  0-C ,  1-C ) :   0.9826 B(  0-C ,  8-H ) :   0.9744 B(  0-C ,  9-H ) :   0.9766
B(  0-C , 10-H ) :   0.9680 B(  1-C ,  2-C ) :   0.9373 B(  1-C ,  5-O ) :  -0.1188
B(  1-C ,  6-H ) :   0.9482 B(  1-C ,  7-H ) :   0.9675 B(  2-C ,  3-H ) :   0.9333
B(  2-C ,  4-H ) :   0.9084 B(  2-C ,  5-O ) :   1.5422

Dispersion correction           -0.001912404
FINAL SINGLE POINT ENERGY      -193.752886922810

DIPOLE MOMENT
-------------
                                X             Y             Z
Electronic contribution:     -2.05090       2.11923       0.55020
Nuclear contribution   :      3.33375      -3.25054      -1.09297
                        -----------------------------------------
Total Dipole Moment    :      1.28285      -1.13131      -0.54277
                        -----------------------------------------
Magnitude (a.u.)       :      1.79448
Magnitude (Debye)      :      4.56121

Rotational constants in cm-1:     0.478390     0.193336     0.154822
Rotational constants in MHz : 14341.777399  5796.063993  4641.443060

                             ****ORCA TERMINATED NORMALLY****
TOTAL RUN TIME: 0 days 0 hours 0 minutes 10 seconds 45 msec
