                         Program Version 5.0.0 -  RELEASE  -
|  1> !wB97X-D3 RIJCOSX def2-TZVP def2/J TightSCF
|  2> *xyz 1 1
|  3> C          4.99986       -1.59613       -5.92488
|  4> N          5.28156       -1.97413       -4.53576
|  5> C          3.76678       -2.26611       -6.51175
|  6> C          2.49670       -1.84416       -5.73570
|  7> C          4.79250       -1.36132       -3.45730
|  8> N          3.93990       -0.37492       -3.55736
|  9> N          5.25986       -1.75422       -2.23913
| 10> H          5.92282       -2.52145       -2.18672
| 11> H          4.65468       -1.64040       -1.44202
| 12> H          5.70914       -2.87560       -4.38702
| 13> H          3.33010       -0.31764       -4.36125
| 14> H          3.69849        0.11447       -2.70833
| 15> H          4.84333       -0.51793       -5.94302
| 16> H          5.90170       -1.82250       -6.49647
| 17> H          3.88619       -3.35708       -6.53360
| 18> H          3.68560       -1.92217       -7.54713
| 19> H          1.64155       -2.32499       -6.16281
| 20> H          2.37707       -0.78268       -5.79763
| 21> H          2.59306       -2.13299       -4.70994
| 22> *
| 23>
| 24> %MaxCore 64000
| 25>
| 26> %pal nprocs 18
| 27> end
| 28>
| 29> %scf
| 30>   MaxIter 150
| 31> end
| 32>
| 33>
| 34>                          ****END OF INPUT****

CARTESIAN COORDINATES (ANGSTROEM)
---------------------------------
  C      4.999860   -1.596130   -5.924880
  N      5.281560   -1.974130   -4.535760
  C      3.766780   -2.266110   -6.511750
  C      2.496700   -1.844160   -5.735700
  C      4.792500   -1.361320   -3.457300
  N      3.939900   -0.374920   -3.557360
  N      5.259860   -1.754220   -2.239130
  H      5.922820   -2.521450   -2.186720
  H      4.654680   -1.640400   -1.442020
  H      5.709140   -2.875600   -4.387020
  H      3.330100   -0.317640   -4.361250
  H      3.698490    0.114470   -2.708330
  H      4.843330   -0.517930   -5.943020
  H      5.901700   -1.822500   -6.496470
  H      3.886190   -3.357080   -6.533600
  H      3.685600   -1.922170   -7.547130
  H      1.641550   -2.324990   -6.162810
  H      2.377070   -0.782680   -5.797630
  H      2.593060   -2.132990   -4.709940

 Total Charge           Charge          ....    1
 Multiplicity           Mult            ....    1
 Number of Electrons    NEL             ....   56
 Basis Dimension        Dim             ....  289

ORBITAL ENERGIES
----------------

  NO   OCC          E(Eh)            E(eV)
   0   2.0000     -14.642020      -398.4296
   1   2.0000     -14.639797      -398.3691
   2   2.0000     -14.635822      -398.2610
   3   2.0000     -10.608975      -288.6849
   4   2.0000     -10.475899      -285.0637
   5   2.0000     -10.424038      -283.6525
   6   2.0000     -10.409935      -283.2687
   7   2.0000      -1.329481       -36.1770
   8   2.0000      -1.217379       -33.1266
   9   2.0000      -1.202842       -32.7310
  10   2.0000      -1.061825       -28.8937
  11   2.0000      -0.980097       -26.6698
  12   2.0000      -0.935025       -25.4433
  13   2.0000      -0.891704       -24.2645
  14   2.0000      -0.868534       -23.6340
  15   2.0000      -0.835304       -22.7298
  16   2.0000      -0.794272       -21.6132
  17   2.0000      -0.785963       -21.3871
  18   2.0000      -0.741238       -20.1701
  19   2.0000      -0.730883       -19.8883
  20   2.0000      -0.705862       -19.2075
  21   2.0000      -0.676593       -18.4110
  22   2.0000      -0.656976       -17.8772
  23   2.0000      -0.616370       -16.7723
  24   2.0000      -0.594008       -16.1638
  25   2.0000      -0.590158       -16.0590
  26   2.0000      -0.565885       -15.3985
  27   2.0000      -0.536473       -14.5982
  28   0.0000      -0.086554        -2.3553
  29   0.0000      -0.059772        -1.6265
  30   0.0000      -0.027034        -0.7356
  31   0.0000      -0.015028        -0.4089
  32   0.0000      -0.002652        -0.0722

MULLIKEN ATOMIC CHARGES
-----------------------
   0 C :   -0.241052
   1 N :   -0.295688
   2 C :   -0.157321
   3 C :   -0.423031
   4 C :    0.486996
   5 N :   -0.410284
   6 N :   -0.470743
   7 H :    0.291682
   8 H :    0.293002
   9 H :    0.268968
  10 H :    0.276135
  11 H :    0.292033
  12 H :    0.189539
  13 H :    0.182583
  14 H :    0.137442
  15 H :    0.150281
  16 H :    0.177780
  17 H :    0.121554
  18 H :    0.130121
Sum of atomic charges:    1.0000000

LOEWDIN ATOMIC CHARGES
----------------------
   0 C :   -0.259384
   1 N :    0.167263
   2 C :   -0.276665
   3 C :   -0.293681
   4 C :   -0.402724
   5 N :    0.086176
   6 N :    0.032791
   7 H :    0.195625
   8 H :    0.191177
   9 H :    0.207415
  10 H :    0.189130
  11 H :    0.202554
  12 H :    0.147803
  13 H :    0.151581
  14 H :    0.143590
  15 H :    0.154421
  16 H :    0.134331
  17 H :    0.114499
  18 H :    0.114099

  Mayer bond orders larger than 0.100000
B(  0-C ,  1-N ) :   0.8484 B(  0-C ,  2-C ) :   0.9660 B(  0-C , 12-H ) :   0.9874
B(  0-C , 13-H ) :   0.9572 B(  1-N ,  4-C ) :   1.3851 B(  1-N ,  9-H ) :   0.8985
B(  2-C ,  3-C ) :   0.9474 B(  2-C , 14-H ) :   0.9598 B(  2-C , 15-H ) :   0.9703
B(  3-C , 16-H ) :   0.9674 B(  3-C , 17-H ) :   0.9570 B(  3-C , 18-H ) :   0.9628
B(  4-C ,  5-N ) :   1.3493 B(  4-C ,  6-N ) :   1.2813 B(  5-N , 10-H ) :   0.8725
B(  5-N , 11-H ) :   0.8951 B(  6-N ,  7-H ) :   0.8970 B(  6-N ,  8-H ) :   0.8911

Dispersion correction           -0.005549031
FINAL SINGLE POINT ENERGY      -323.744090946937

DIPOLE MOMENT
-------------
                                X             Y             Z
Electronic contribution:      3.87070       0.78461       4.85935
Nuclear contribution   :     -3.69451      -0.93313      -3.60402
                        -----------------------------------------
Total Dipole Moment    :      0.17618      -0.14851       1.25533
                        -----------------------------------------
Magnitude (a.u.)       :      1.27630
Magnitude (Debye)      :      3.24411

Rotational constants in cm-1:     0.152547     0.057272     0.048491
Rotational constants in MHz :  4573.230603  1716.968614  1453.721796

                             ****ORCA TERMINATED NORMALLY****
TOTAL RUN TIME: 0 days 0 hours 0 minutes 23 seconds 435 msec
