                         Program Version 5.0.0 -  RELEASE  -
|  1> !wB97X-D3 RIJCOSX def2-TZVP def2/J TightSCF
|  2> *xyz 0 1
|  3> C          4.99986       -1.59613       -5.92488
|  4> C          3.76678       -2.26611       -6.51175
|  5> C          2.49670       -1.84416       -5.73570
|  6> H          1.62642       -2.21743       -6.30895
|  7> H          2.48182       -2.45607       -4.79341
|  8> F          2.45973       -0.50920       -5.50576
|  9> H          3.88619       -3.35708       -6.53360
| 10> H          3.68560       -1.92217       -7.54713
| 11> H          5.86637       -1.89999       -6.47418
| 12> H          5.10830       -1.88372       -4.89997
| 13> H          4.89230       -0.53341       -5.98765
| 14> *
| 15>
| 16> %MaxCore 64000
| 17>
| 18> %pal nprocs 18
| 19> end
| 20>
| 21> %scf
| 22>   MaxIter 150
| 23> end
| 24>
| 25>
| 26>                          ****END OF INPUT****

CARTESIAN COORDINATES (ANGSTROEM)
---------------------------------
  C      4.999860   -1.596130   -5.924880
  C      3.766780   -2.266110   -6.511750
  C      2.496700   -1.844160   -5.735700
  H      1.626420   -2.217430   -6.308950
  H      2.481820   -2.456070   -4.793410
  F      2.459730   -0.509200   -5.505760
  H      3.886190   -3.357080   -6.533600
  H      3.685600   -1.922170   -7.547130
  H      5.866370   -1.899990   -6.474180
  H      5.108300   -1.883720   -4.899970
  H      4.892300   -0.533410   -5.987650

 Total Charge           Charge          ....    0
 Multiplicity           Mult            ....    1
 Number of Electrons    NEL             ....   34
 Basis Dimension        Dim             ....  166

ORBITAL ENERGIES
----------------

  NO   OCC          E(Eh)            E(eV)
   0   2.0000     -24.773605      -674.1241
   1   2.0000     -10.351472      -281.6779
   2   2.0000     -10.277923      -279.6765
   3   2.0000     -10.255151      -279.0569
   4   2.0000      -1.321462       -35.9588
   5   2.0000      -0.904447       -24.6113
   6   2.0000      -0.801781       -21.8176
   7   2.0000      -0.704227       -19.1630
   8   2.0000      -0.613475       -16.6935
   9   2.0000      -0.598914       -16.2973
  10   2.0000      -0.577264       -15.7082
  11   2.0000      -0.536160       -14.5897
  12   2.0000      -0.494312       -13.4509
  13   2.0000      -0.468132       -12.7385
  14   2.0000      -0.449697       -12.2369
  15   2.0000      -0.417254       -11.3541
  16   2.0000      -0.414584       -11.2814
  17   0.0000       0.119556         3.2533
  18   0.0000       0.151296         4.1170
  19   0.0000       0.163494         4.4489
  20   0.0000       0.177638         4.8338
  21   0.0000       0.188613         5.1324

MULLIKEN ATOMIC CHARGES
-----------------------
   0 C :   -0.332654
   1 C :   -0.197047
   2 C :    0.040607
   3 H :    0.094785
   4 H :    0.085784
   5 F :   -0.230692
   6 H :    0.101963
   7 H :    0.096470
   8 H :    0.113185
   9 H :    0.100841
  10 H :    0.126758
Sum of atomic charges:    0.0000000

LOEWDIN ATOMIC CHARGES
----------------------
   0 C :   -0.309155
   1 C :   -0.303386
   2 C :   -0.359617
   3 H :    0.117279
   4 H :    0.119810
   5 F :    0.117847
   6 H :    0.135279
   7 H :    0.132736
   8 H :    0.114918
   9 H :    0.115024
  10 H :    0.119265

  Mayer bond orders larger than 0.100000
B(  0-C ,  1-C ) :   0.9782 B(  0-C ,  8-H ) :   0.9792 B(  0-C ,  9-H ) :   0.9767
B(  0-C , 10-H ) :   0.9765 B(  1-C ,  2-C ) :   0.9933 B(  1-C ,  6-H ) :   0.9611
B(  1-C ,  7-H ) :   0.9735 B(  2-C ,  3-H ) :   0.9761 B(  2-C ,  4-H ) :   0.9696
B(  2-C ,  5-F ) :   0.9858

Dispersion correction           -0.001918220
FINAL SINGLE POINT ENERGY      -218.400243243116

DIPOLE MOMENT
-------------
                                X             Y             Z
Electronic contribution:     -4.40999       3.88447       1.42119
Nuclear contribution   :      4.50596      -4.50325      -1.58424
                        -----------------------------------------
Total Dipole Moment    :      0.09598      -0.61877      -0.16305
                        -----------------------------------------
Magnitude (a.u.)       :      0.64705
Magnitude (Debye)      :      1.64468

Rotational constants in cm-1:     0.464063     0.182606     0.146573
Rotational constants in MHz : 13912.251583  5474.398056  4394.141907

                             ****ORCA TERMINATED NORMALLY****
TOTAL RUN TIME: 0 days 0 hours 0 minutes 8 seconds 269 msec
