                         Program Version 5.0.0 -  RELEASE  -
|  1> !wB97X-D3 RIJCOSX def2-TZVP def2/J TightSCF
|  2> *xyz 0 1
|  3> C          4.99986       -1.59613       -5.92488
|  4> N          5.28156       -1.97413       -4.53576
|  5> C          3.76678       -2.26611       -6.51175
|  6> C          2.49670       -1.84416       -5.73570
|  7> C          4.79250       -1.36132       -3.45730
|  8> C          3.93990       -0.37492       -3.55736
|  9> N          5.25986       -1.75422       -2.23913
| 10> H          5.92282       -2.52145       -2.18672
| 11> H          4.65468       -1.64040       -1.44202
| 12> H          5.70914       -2.87560       -4.38702
| 13> H          3.33010       -0.31764       -4.36125
| 14> H          3.69849        0.11447       -2.70833
| 15> H          4.84333       -0.51793       -5.94302
| 16> H          5.90170       -1.82250       -6.49647
| 17> H          3.88619       -3.35708       -6.53360
| 18> H          3.68560       -1.92217       -7.54713
| 19> H          1.64155       -2.32499       -6.16281
| 20> H          2.37707       -0.78268       -5.79763
| 21> H          2.59306       -2.13299       -4.70994
| 22> *
| 23>
| 24> %MaxCore 64000
| 25>
| 26> %pal nprocs 18
| 27> end
| 28>
| 29> %scf
| 30>   MaxIter 150
| 31> end
| 32>
| 33>
| 34>                          ****END OF INPUT****

CARTESIAN COORDINATES (ANGSTROEM)
---------------------------------
  C      4.999860   -1.596130   -5.924880
  N      5.281560   -1.974130   -4.535760
  C      3.766780   -2.266110   -6.511750
  C      2.496700   -1.844160   -5.735700
  C      4.792500   -1.361320   -3.457300
  C      3.939900   -0.374920   -3.557360
  N      5.259860   -1.754220   -2.239130
  H      5.922820   -2.521450   -2.186720
  H      4.654680   -1.640400   -1.442020
  H      5.709140   -2.875600   -4.387020
  H      3.330100   -0.317640   -4.361250
  H      3.698490    0.114470   -2.708330
  H      4.843330   -0.517930   -5.943020
  H      5.901700   -1.822500   -6.496470
  H      3.886190   -3.357080   -6.533600
  H      3.685600   -1.922170   -7.547130
  H      1.641550   -2.324990   -6.162810
  H      2.377070   -0.782680   -5.797630
  H      2.593060   -2.132990   -4.709940

 Total Charge           Charge          ....    0
 Multiplicity           Mult            ....    1
 Number of Electrons    NEL             ....   56
 Basis Dimension        Dim             ....  289

ORBITAL ENERGIES
----------------

  NO   OCC          E(Eh)            E(eV)
   0   2.0000     -14.421631      -392.4325
   1   2.0000     -14.415695      -392.2710
   2   2.0000     -10.318387      -280.7776
   3   2.0000     -10.302710      -280.3510
   4   2.0000     -10.270793      -279.4825
   5   2.0000     -10.248525      -278.8765
   6   2.0000     -10.179101      -276.9874
   7   2.0000      -1.078950       -29.3597
   8   2.0000      -0.994151       -27.0522
   9   2.0000      -0.891813       -24.2675
  10   2.0000      -0.837256       -22.7829
  11   2.0000      -0.792126       -21.5548
  12   2.0000      -0.715198       -19.4615
  13   2.0000      -0.666289       -18.1306
  14   2.0000      -0.639210       -17.3938
  15   2.0000      -0.613371       -16.6907
  16   2.0000      -0.565811       -15.3965
  17   2.0000      -0.558018       -15.1844
  18   2.0000      -0.530270       -14.4294
  19   2.0000      -0.501071       -13.6348
  20   2.0000      -0.488981       -13.3058
  21   2.0000      -0.471787       -12.8380
  22   2.0000      -0.470360       -12.7991
  23   2.0000      -0.437822       -11.9137
  24   2.0000      -0.432572       -11.7709
  25   2.0000      -0.420988       -11.4557
  26   2.0000      -0.341504        -9.2928
  27   2.0000      -0.257617        -7.0101
  28   0.0000       0.103808         2.8248
  29   0.0000       0.130731         3.5574
  30   0.0000       0.142306         3.8723
  31   0.0000       0.153989         4.1903
  32   0.0000       0.168501         4.5851

MULLIKEN ATOMIC CHARGES
-----------------------
   0 C :   -0.149298
   1 N :   -0.374617
   2 C :   -0.133219
   3 C :   -0.365358
   4 C :    0.441033
   5 C :   -0.538566
   6 N :   -0.542483
   7 H :    0.222397
   8 H :    0.253787
   9 H :    0.200348
  10 H :    0.090170
  11 H :    0.085586
  12 H :    0.150401
  13 H :    0.115940
  14 H :    0.085320
  15 H :    0.088415
  16 H :    0.115181
  17 H :    0.108745
  18 H :    0.146217
Sum of atomic charges:   -0.0000000

LOEWDIN ATOMIC CHARGES
----------------------
   0 C :   -0.275763
   1 N :    0.111153
   2 C :   -0.292620
   3 C :   -0.301776
   4 C :   -0.459694
   5 C :   -0.329251
   6 N :   -0.039497
   7 H :    0.159040
   8 H :    0.170628
   9 H :    0.173968
  10 H :    0.099830
  11 H :    0.099974
  12 H :    0.144293
  13 H :    0.128696
  14 H :    0.126894
  15 H :    0.133575
  16 H :    0.110499
  17 H :    0.115842
  18 H :    0.124207

  Mayer bond orders larger than 0.100000
B(  0-C ,  1-N ) :   0.9055 B(  0-C ,  2-C ) :   0.9821 B(  0-C , 12-H ) :   0.9840
B(  0-C , 13-H ) :   0.9775 B(  1-N ,  4-C ) :   1.1555 B(  1-N ,  9-H ) :   0.9248
B(  2-C ,  3-C ) :   0.9780 B(  2-C , 14-H ) :   0.9664 B(  2-C , 15-H ) :   0.9725
B(  3-C , 16-H ) :   0.9777 B(  3-C , 17-H ) :   0.9770 B(  3-C , 18-H ) :   0.9777
B(  4-C ,  5-C ) :   1.6094 B(  4-C ,  6-N ) :   1.0661 B(  5-C , 10-H ) :   1.0091
B(  5-C , 11-H ) :   1.0230 B(  6-N ,  7-H ) :   0.9309 B(  6-N ,  8-H ) :   0.9177

Dispersion correction           -0.005494292
FINAL SINGLE POINT ENERGY      -307.246499098124

DIPOLE MOMENT
-------------
                                X             Y             Z
Electronic contribution:      4.07916      -0.42767       3.39047
Nuclear contribution   :     -3.78417      -0.66655      -3.38995
                        -----------------------------------------
Total Dipole Moment    :      0.29500      -1.09422       0.00052
                        -----------------------------------------
Magnitude (a.u.)       :      1.13329
Magnitude (Debye)      :      2.88059

Rotational constants in cm-1:     0.157710     0.057795     0.049101
Rotational constants in MHz :  4728.033540  1732.635996  1472.015132

                             ****ORCA TERMINATED NORMALLY****
TOTAL RUN TIME: 0 days 0 hours 0 minutes 22 seconds 865 msec
