                         Program Version 5.0.0 -  RELEASE  -
|  1> !wB97X-D3 RIJCOSX def2-TZVP def2/J TightSCF
|  2> *xyz 0 1
|  3> C          4.99986       -1.59613       -5.92488
|  4> N          5.28156       -1.97413       -4.53576
|  5> C          3.76678       -2.26611       -6.51175
|  6> C          2.49670       -1.84416       -5.73570
|  7> C          4.79250       -1.36132       -3.45730
|  8> N          3.93990       -0.37492       -3.55736
|  9> C          5.25986       -1.75422       -2.23913
| 10> H          5.92282       -2.52145       -2.18672
| 11> H          4.65468       -1.64040       -1.44202
| 12> H          5.70914       -2.87560       -4.38702
| 13> H          3.33010       -0.31764       -4.36125
| 14> H          3.69849        0.11447       -2.70833
| 15> H          4.84333       -0.51793       -5.94302
| 16> H          5.90170       -1.82250       -6.49647
| 17> H          3.88619       -3.35708       -6.53360
| 18> H          3.68560       -1.92217       -7.54713
| 19> H          1.64155       -2.32499       -6.16281
| 20> H          2.37707       -0.78268       -5.79763
| 21> H          2.59306       -2.13299       -4.70994
| 22> *
| 23>
| 24> %MaxCore 64000
| 25>
| 26> %pal nprocs 18
| 27> end
| 28>
| 29> %scf
| 30>   MaxIter 150
| 31> end
| 32>
| 33>
| 34>                          ****END OF INPUT****

CARTESIAN COORDINATES (ANGSTROEM)
---------------------------------
  C      4.999860   -1.596130   -5.924880
  N      5.281560   -1.974130   -4.535760
  C      3.766780   -2.266110   -6.511750
  C      2.496700   -1.844160   -5.735700
  C      4.792500   -1.361320   -3.457300
  N      3.939900   -0.374920   -3.557360
  C      5.259860   -1.754220   -2.239130
  H      5.922820   -2.521450   -2.186720
  H      4.654680   -1.640400   -1.442020
  H      5.709140   -2.875600   -4.387020
  H      3.330100   -0.317640   -4.361250
  H      3.698490    0.114470   -2.708330
  H      4.843330   -0.517930   -5.943020
  H      5.901700   -1.822500   -6.496470
  H      3.886190   -3.357080   -6.533600
  H      3.685600   -1.922170   -7.547130
  H      1.641550   -2.324990   -6.162810
  H      2.377070   -0.782680   -5.797630
  H      2.593060   -2.132990   -4.709940

 Total Charge           Charge          ....    0
 Multiplicity           Mult            ....    1
 Number of Electrons    NEL             ....   56
 Basis Dimension        Dim             ....  289

ORBITAL ENERGIES
----------------

  NO   OCC          E(Eh)            E(eV)
   0   2.0000     -14.421576      -392.4310
   1   2.0000     -14.418646      -392.3513
   2   2.0000     -10.323287      -280.9109
   3   2.0000     -10.312080      -280.6060
   4   2.0000     -10.283125      -279.8181
   5   2.0000     -10.271947      -279.5139
   6   2.0000     -10.177918      -276.9552
   7   2.0000      -1.088882       -29.6300
   8   2.0000      -1.003581       -27.3088
   9   2.0000      -0.912681       -24.8353
  10   2.0000      -0.831963       -22.6389
  11   2.0000      -0.788116       -21.4457
  12   2.0000      -0.712476       -19.3875
  13   2.0000      -0.706931       -19.2366
  14   2.0000      -0.648463       -17.6456
  15   2.0000      -0.602955       -16.4072
  16   2.0000      -0.578767       -15.7490
  17   2.0000      -0.562364       -15.3027
  18   2.0000      -0.553666       -15.0660
  19   2.0000      -0.504022       -13.7151
  20   2.0000      -0.493092       -13.4177
  21   2.0000      -0.481259       -13.0957
  22   2.0000      -0.470676       -12.8078
  23   2.0000      -0.448259       -12.1977
  24   2.0000      -0.443250       -12.0614
  25   2.0000      -0.438578       -11.9343
  26   2.0000      -0.346576        -9.4308
  27   2.0000      -0.244036        -6.6406
  28   0.0000       0.106174         2.8891
  29   0.0000       0.127365         3.4658
  30   0.0000       0.137316         3.7366
  31   0.0000       0.151228         4.1151
  32   0.0000       0.156500         4.2586

MULLIKEN ATOMIC CHARGES
-----------------------
   0 C :   -0.208240
   1 N :   -0.348565
   2 C :   -0.114334
   3 C :   -0.404594
   4 C :    0.406850
   5 N :   -0.483587
   6 C :   -0.566689
   7 H :    0.070670
   8 H :    0.093022
   9 H :    0.234083
  10 H :    0.216036
  11 H :    0.255080
  12 H :    0.147654
  13 H :    0.126394
  14 H :    0.098879
  15 H :    0.093697
  16 H :    0.129082
  17 H :    0.102008
  18 H :    0.152556
Sum of atomic charges:   -0.0000000

LOEWDIN ATOMIC CHARGES
----------------------
   0 C :   -0.289747
   1 N :    0.117871
   2 C :   -0.292046
   3 C :   -0.305657
   4 C :   -0.469823
   5 N :    0.009842
   6 C :   -0.371416
   7 H :    0.091189
   8 H :    0.090123
   9 H :    0.191677
  10 H :    0.159170
  11 H :    0.183609
  12 H :    0.136944
  13 H :    0.131863
  14 H :    0.131482
  15 H :    0.134738
  16 H :    0.117195
  17 H :    0.109540
  18 H :    0.123446

  Mayer bond orders larger than 0.100000
B(  0-C ,  1-N ) :   0.9175 B(  0-C ,  2-C ) :   0.9636 B(  0-C , 12-H ) :   0.9960
B(  0-C , 13-H ) :   0.9778 B(  1-N ,  4-C ) :   1.1690 B(  1-N ,  9-H ) :   0.9224
B(  2-C ,  3-C ) :   0.9603 B(  2-C , 14-H ) :   0.9632 B(  2-C , 15-H ) :   0.9743
B(  3-C , 16-H ) :   0.9756 B(  3-C , 17-H ) :   0.9714 B(  3-C , 18-H ) :   0.9678
B(  4-C ,  5-N ) :   1.1481 B(  4-C ,  6-C ) :   1.5746 B(  5-N , 10-H ) :   0.9118
B(  5-N , 11-H ) :   0.9196 B(  6-C ,  7-H ) :   1.0312 B(  6-C ,  8-H ) :   0.9901

Dispersion correction           -0.005596481
FINAL SINGLE POINT ENERGY      -307.244987997854

DIPOLE MOMENT
-------------
                                X             Y             Z
Electronic contribution:      2.72663       0.91676       1.90259
Nuclear contribution   :     -3.49502      -0.96869      -3.10119
                        -----------------------------------------
Total Dipole Moment    :     -0.76840      -0.05193      -1.19860
                        -----------------------------------------
Magnitude (a.u.)       :      1.42470
Magnitude (Debye)      :      3.62130

Rotational constants in cm-1:     0.153385     0.059790     0.050215
Rotational constants in MHz :  4598.376479  1792.462869  1505.410199

                             ****ORCA TERMINATED NORMALLY****
TOTAL RUN TIME: 0 days 0 hours 0 minutes 25 seconds 384 msec
