                         Program Version 5.0.0 -  RELEASE  -
|  1> !wB97X-D3 RIJCOSX def2-TZVP def2/J TightSCF xyzfile
|  2>
|  3> *xyzfile 0 1 D1.xyz
|  4>
|  5> %MaxCore 64000
|  6>
|  7> %pal nprocs 18
|  8> end
|  9>
| 10> %scf
| 11>   MaxIter 150
| 12> end
| 13>
| 14>
| 15>                          ****END OF INPUT****

CARTESIAN COORDINATES (ANGSTROEM)
---------------------------------
  C      4.999862   -1.596133   -5.924876
  C      5.281560   -1.974132   -4.535764
  C      3.766779   -2.266110   -6.511752
  C      2.496702   -1.844161   -5.735704
  H      1.626416   -2.217434   -6.308950
  H      2.481824   -2.456069   -4.793414
  F      2.459729   -0.509204   -5.505757
  C      4.792500   -1.361316   -3.457295
  N      3.939898   -0.374925   -3.557359
  N      5.259860   -1.754224   -2.239133
  H      5.922824   -2.521451   -2.186720
  H      4.654678   -1.640404   -1.442016
  H      5.709139   -2.875599   -4.387021
  H      3.330101   -0.317639   -4.361247
  H      3.698494    0.114468   -2.708333
  H      4.843333   -0.517930   -5.943019
  H      5.901695   -1.822503   -6.496467
  H      3.886191   -3.357076   -6.533604
  H      3.685602   -1.922168   -7.547128

 Total Charge           Charge          ....    0
 Multiplicity           Mult            ....    1
 Number of Electrons    NEL             ....   64
 Basis Dimension        Dim             ....  314

ORBITAL ENERGIES
----------------

  NO   OCC          E(Eh)            E(eV)
   0   2.0000     -24.805496      -674.9919
   1   2.0000     -14.409365      -392.0988
   2   2.0000     -14.394782      -391.7019
   3   2.0000     -10.356955      -281.8271
   4   2.0000     -10.311294      -280.5846
   5   2.0000     -10.268717      -279.4260
   6   2.0000     -10.247645      -278.8526
   7   2.0000     -10.189434      -277.2686
   8   2.0000      -1.360837       -37.0303
   9   2.0000      -1.067327       -29.0434
  10   2.0000      -0.974679       -26.5224
  11   2.0000      -0.910639       -24.7797
  12   2.0000      -0.837153       -22.7801
  13   2.0000      -0.782761       -21.3000
  14   2.0000      -0.708320       -19.2744
  15   2.0000      -0.692947       -18.8560
  16   2.0000      -0.647296       -17.6138
  17   2.0000      -0.629894       -17.1403
  18   2.0000      -0.616353       -16.7718
  19   2.0000      -0.597992       -16.2722
  20   2.0000      -0.590512       -16.0687
  21   2.0000      -0.552134       -15.0243
  22   2.0000      -0.521634       -14.1944
  23   2.0000      -0.504151       -13.7186
  24   2.0000      -0.491121       -13.3641
  25   2.0000      -0.467482       -12.7208
  26   2.0000      -0.446432       -12.1480
  27   2.0000      -0.429312       -11.6822
  28   2.0000      -0.416628       -11.3370
  29   2.0000      -0.406787       -11.0692
  30   2.0000      -0.347116        -9.4455
  31   2.0000      -0.242231        -6.5914
  32   0.0000       0.111669         3.0387
  33   0.0000       0.131755         3.5852
  34   0.0000       0.151145         4.1129
  35   0.0000       0.154847         4.2136
  36   0.0000       0.160687         4.3725

MULLIKEN ATOMIC CHARGES
-----------------------
   0 C :   -0.214117
   1 C :   -0.382475
   2 C :   -0.151824
   3 C :   -0.033897
   4 H :    0.115349
   5 H :    0.131358
   6 F :   -0.216120
   7 C :    0.356228
   8 N :   -0.541295
   9 N :   -0.527747
  10 H :    0.246893
  11 H :    0.217570
  12 H :    0.087108
  13 H :    0.281521
  14 H :    0.215180
  15 H :    0.119181
  16 H :    0.102261
  17 H :    0.101094
  18 H :    0.093731
Sum of atomic charges:   -0.0000000

LOEWDIN ATOMIC CHARGES
----------------------
   0 C :   -0.287374
   1 C :   -0.288466
   2 C :   -0.272279
   3 C :   -0.354480
   4 H :    0.123091
   5 H :    0.133700
   6 F :    0.159953
   7 C :   -0.462970
   8 N :    0.005166
   9 N :   -0.044451
  10 H :    0.173467
  11 H :    0.152004
  12 H :    0.113747
  13 H :    0.133486
  14 H :    0.162832
  15 H :    0.142189
  16 H :    0.139793
  17 H :    0.139380
  18 H :    0.131215

  Mayer bond orders larger than 0.100000
B(  0-C ,  1-C ) :   1.0114 B(  0-C ,  2-C ) :   0.9457 B(  0-C , 15-H ) :   0.9975
B(  0-C , 16-H ) :   0.9809 B(  1-C ,  7-C ) :   1.6416 B(  1-C , 12-H ) :   0.9886
B(  2-C ,  3-C ) :   0.9929 B(  2-C , 17-H ) :   0.9550 B(  2-C , 18-H ) :   0.9681
B(  3-C ,  4-H ) :   0.9738 B(  3-C ,  5-H ) :   0.9816 B(  3-C ,  6-F ) :   0.9158
B(  6-F , 13-H ) :   0.1114 B(  7-C ,  8-N ) :   1.1647 B(  7-C ,  9-N ) :   1.1282
B(  8-N , 13-H ) :   0.8494 B(  8-N , 14-H ) :   0.9307 B(  9-N , 10-H ) :   0.9222
B(  9-N , 11-H ) :   0.9219

Dispersion correction           -0.006125443
FINAL SINGLE POINT ENERGY      -406.502607403280

DIPOLE MOMENT
-------------
                                X             Y             Z
Electronic contribution:     -3.37529       4.00363       0.84592
Nuclear contribution   :      2.63975      -4.51113      -0.34926
                        -----------------------------------------
Total Dipole Moment    :     -0.73555      -0.50750       0.49666
                        -----------------------------------------
Magnitude (a.u.)       :      1.02238
Magnitude (Debye)      :      2.59867

Rotational constants in cm-1:     0.109429     0.049838     0.039337
Rotational constants in MHz :  3280.611039  1494.113088  1179.280063

                             ****ORCA TERMINATED NORMALLY****
TOTAL RUN TIME: 0 days 0 hours 0 minutes 23 seconds 747 msec
