                         Program Version 5.0.0 -  RELEASE  -
|  1> !wB97X-D3 RIJCOSX def2-TZVP def2/J TightSCF xyzfile
|  2>
|  3> *xyzfile 0 1 D2.xyz
|  4>
|  5> %MaxCore 64000
|  6>
|  7> %pal nprocs 18
|  8> end
|  9>
| 10> %scf
| 11>   MaxIter 150
| 12> end
| 13>
| 14>
| 15>                          ****END OF INPUT****

CARTESIAN COORDINATES (ANGSTROEM)
---------------------------------
  C      4.999862   -1.596133   -5.924876
  N      5.281560   -1.974132   -4.535764
  C      3.766779   -2.266110   -6.511752
  C      2.496702   -1.844161   -5.735704
  H      1.626416   -2.217434   -6.308950
  H      2.481824   -2.456069   -4.793414
  F      2.459729   -0.509204   -5.505757
  C      4.792500   -1.361316   -3.457295
  C      3.939898   -0.374925   -3.557359
  N      5.259860   -1.754224   -2.239133
  H      5.922824   -2.521451   -2.186720
  H      4.654678   -1.640404   -1.442016
  H      5.709139   -2.875599   -4.387021
  H      3.330101   -0.317639   -4.361247
  H      3.698494    0.114468   -2.708333
  H      4.843333   -0.517930   -5.943019
  H      5.901695   -1.822503   -6.496467
  H      3.886191   -3.357076   -6.533604
  H      3.685602   -1.922168   -7.547128

 Total Charge           Charge          ....    0
 Multiplicity           Mult            ....    1
 Number of Electrons    NEL             ....   64
 Basis Dimension        Dim             ....  314

ORBITAL ENERGIES
----------------

  NO   OCC          E(Eh)            E(eV)
   0   2.0000     -24.782629      -674.3696
   1   2.0000     -14.418158      -392.3380
   2   2.0000     -14.407788      -392.0558
   3   2.0000     -10.356241      -281.8076
   4   2.0000     -10.307462      -280.4803
   5   2.0000     -10.307437      -280.4796
   6   2.0000     -10.284520      -279.8560
   7   2.0000     -10.156264      -276.3660
   8   2.0000      -1.340482       -36.4764
   9   2.0000      -1.073515       -29.2118
  10   2.0000      -0.989641       -26.9295
  11   2.0000      -0.899912       -24.4878
  12   2.0000      -0.823772       -22.4160
  13   2.0000      -0.804772       -21.8990
  14   2.0000      -0.721761       -19.6401
  15   2.0000      -0.673064       -18.3150
  16   2.0000      -0.650973       -17.7139
  17   2.0000      -0.619030       -16.8447
  18   2.0000      -0.616682       -16.7808
  19   2.0000      -0.598063       -16.2741
  20   2.0000      -0.583751       -15.8847
  21   2.0000      -0.554947       -15.1009
  22   2.0000      -0.525025       -14.2867
  23   2.0000      -0.505980       -13.7684
  24   2.0000      -0.482797       -13.1376
  25   2.0000      -0.473770       -12.8919
  26   2.0000      -0.453743       -12.3470
  27   2.0000      -0.438471       -11.9314
  28   2.0000      -0.428059       -11.6481
  29   2.0000      -0.398753       -10.8506
  30   2.0000      -0.338368        -9.2075
  31   2.0000      -0.247332        -6.7302
  32   0.0000       0.102165         2.7801
  33   0.0000       0.128809         3.5051
  34   0.0000       0.144814         3.9406
  35   0.0000       0.154312         4.1990
  36   0.0000       0.162849         4.4313

MULLIKEN ATOMIC CHARGES
-----------------------
   0 C :   -0.136080
   1 N :   -0.380215
   2 C :   -0.192015
   3 C :   -0.010178
   4 H :    0.110437
   5 H :    0.125887
   6 F :   -0.182988
   7 C :    0.414195
   8 C :   -0.600754
   9 N :   -0.541360
  10 H :    0.216358
  11 H :    0.252330
  12 H :    0.196170
  13 H :    0.168782
  14 H :    0.075016
  15 H :    0.161465
  16 H :    0.121292
  17 H :    0.101321
  18 H :    0.100339
Sum of atomic charges:   -0.0000000

LOEWDIN ATOMIC CHARGES
----------------------
   0 C :   -0.274417
   1 N :    0.104007
   2 C :   -0.279450
   3 C :   -0.354201
   4 H :    0.122054
   5 H :    0.133708
   6 F :    0.165346
   7 C :   -0.471011
   8 C :   -0.325673
   9 N :   -0.045147
  10 H :    0.155746
  11 H :    0.169506
  12 H :    0.171369
  13 H :    0.077511
  14 H :    0.096899
  15 H :    0.148415
  16 H :    0.130752
  17 H :    0.136785
  18 H :    0.137799

  Mayer bond orders larger than 0.100000
B(  0-C ,  1-N ) :   0.9067 B(  0-C ,  2-C ) :   0.9707 B(  0-C , 15-H ) :   0.9757
B(  0-C , 16-H ) :   0.9780 B(  1-N ,  7-C ) :   1.1319 B(  1-N , 12-H ) :   0.9251
B(  2-C ,  3-C ) :   0.9974 B(  2-C , 17-H ) :   0.9545 B(  2-C , 18-H ) :   0.9675
B(  3-C ,  4-H ) :   0.9683 B(  3-C ,  5-H ) :   0.9787 B(  3-C ,  6-F ) :   0.9614
B(  7-C ,  8-C ) :   1.6303 B(  7-C ,  9-N ) :   1.0577 B(  8-C , 13-H ) :   0.9788
B(  8-C , 14-H ) :   1.0232 B(  9-N , 10-H ) :   0.9323 B(  9-N , 11-H ) :   0.9184

Dispersion correction           -0.006084770
FINAL SINGLE POINT ENERGY      -406.471428681730

DIPOLE MOMENT
-------------
                                X             Y             Z
Electronic contribution:     -2.25345       2.63824      -0.13271
Nuclear contribution   :      2.43398      -4.26587      -0.19921
                        -----------------------------------------
Total Dipole Moment    :      0.18053      -1.62764      -0.33192
                        -----------------------------------------
Magnitude (a.u.)       :      1.67092
Magnitude (Debye)      :      4.24713

Rotational constants in cm-1:     0.110089     0.049944     0.039407
Rotational constants in MHz :  3300.378855  1497.273856  1181.385913

                             ****ORCA TERMINATED NORMALLY****
TOTAL RUN TIME: 0 days 0 hours 0 minutes 27 seconds 605 msec
