                         Program Version 5.0.0 -  RELEASE  -
|  1> !BLYP D3BJ RIJCOSX def2-TZVP def2/J TightSCF
|  2> *xyz -1 1
|  3> C         -1.91658       -2.48508       -3.64367
|  4> C         -1.36353       -1.98134       -2.29361
|  5> O         -0.35039       -2.74969       -1.79601
|  6> H         -2.22622       -1.90839       -1.60204
|  7> H         -1.05135       -0.91567       -2.44333
|  8> H         -1.11522       -2.57167       -4.34739
|  9> H         -2.64227       -1.79099       -4.01314
| 10> H         -2.37564       -3.44180       -3.50640
| 11> *
| 12>
| 13> %MaxCore 64000
| 14> %pal nprocs 4
| 15> end
| 16>
| 17> %scf
| 18>   MaxIter 150
| 19> end
| 20>
| 21>
| 22>                          ****END OF INPUT****

CARTESIAN COORDINATES (ANGSTROEM)
---------------------------------
  C     -1.916580   -2.485080   -3.643670
  C     -1.363530   -1.981340   -2.293610
  O     -0.350390   -2.749690   -1.796010
  H     -2.226220   -1.908390   -1.602040
  H     -1.051350   -0.915670   -2.443330
  H     -1.115220   -2.571670   -4.347390
  H     -2.642270   -1.790990   -4.013140
  H     -2.375640   -3.441800   -3.506400

 Total Charge           Charge          ....   -1
 Multiplicity           Mult            ....    1
 Number of Electrons    NEL             ....   26
 Basis Dimension        Dim             ....  123

ORBITAL ENERGIES
----------------

  NO   OCC          E(Eh)            E(eV)
   0   2.0000     -18.427768      -501.4451
   1   2.0000      -9.709415      -264.2066
   2   2.0000      -9.687860      -263.6201
   3   2.0000      -0.581093       -15.8124
   4   2.0000      -0.443033       -12.0555
   5   2.0000      -0.299827        -8.1587
   6   2.0000      -0.190301        -5.1784
   7   2.0000      -0.170514        -4.6399
   8   2.0000      -0.117989        -3.2106
   9   2.0000      -0.102294        -2.7836
  10   2.0000      -0.055889        -1.5208
  11   2.0000       0.083779         2.2797
  12   2.0000       0.087859         2.3908
  13   0.0000       0.197554         5.3757
  14   0.0000       0.231543         6.3006
  15   0.0000       0.254804         6.9336
  16   0.0000       0.260918         7.0999
  17   0.0000       0.291799         7.9403

MULLIKEN ATOMIC CHARGES
-----------------------
   0 C :   -0.028017
   1 C :    0.050115
   2 O :   -0.717964
   3 H :   -0.094731
   4 H :   -0.098923
   5 H :   -0.014465
   6 H :   -0.083507
   7 H :   -0.012508
Sum of atomic charges:   -1.0000000

LOEWDIN ATOMIC CHARGES
----------------------
   0 C :   -0.359615
   1 C :   -0.554033
   2 O :   -0.386914
   3 H :    0.043509
   4 H :    0.041150
   5 H :    0.077357
   6 H :    0.061071
   7 H :    0.077474

  Mayer bond orders larger than 0.100000
B(  0-C ,  1-C ) :   0.8361 B(  0-C ,  2-O ) :  -0.3768 B(  0-C ,  5-H ) :   0.9478
B(  0-C ,  6-H ) :   0.8851 B(  0-C ,  7-H ) :   0.9528 B(  1-C ,  2-O ) :   1.6909
B(  1-C ,  3-H ) :   0.8943 B(  1-C ,  4-H ) :   0.8976 B(  2-O ,  5-H ) :   0.1062
B(  2-O ,  6-H ) :   0.1539

Dispersion correction           -0.007732012
FINAL SINGLE POINT ENERGY      -154.430237406179

DIPOLE MOMENT
-------------
                                X             Y             Z
Electronic contribution:      2.34000      -1.06600       2.03651
Nuclear contribution   :     -3.14382       1.30299      -2.83231
                        -----------------------------------------
Total Dipole Moment    :     -0.80382       0.23699      -0.79579
                        -----------------------------------------
Magnitude (a.u.)       :      1.15567
Magnitude (Debye)      :      2.93749

Rotational constants in cm-1:     1.288206     0.322942     0.285188
Rotational constants in MHz : 38619.437223  9681.562038  8549.712012

                             ****ORCA TERMINATED NORMALLY****
TOTAL RUN TIME: 0 days 0 hours 0 minutes 6 seconds 796 msec
