                         Program Version 5.0.0 -  RELEASE  -
|  1> !BLYP D3BJ RIJCOSX def2-TZVP def2/J TightSCF
|  2> *xyz 1 1
|  3> C          1.64703       -2.34528       -5.02041
|  4> C          2.20996       -2.81239       -3.66571
|  5> C          2.48901       -1.66851       -2.73754
|  6> N          3.59631       -0.94761       -2.95225
|  7> N          1.66394       -1.41369       -1.77781
|  8> H          0.81164       -1.96318       -1.70275
|  9> H          1.84550       -0.63508       -1.15875
| 10> H          4.20535       -1.17600       -3.73383
| 11> H          3.81723       -0.12585       -2.40604
| 12> H          3.14311       -3.36280       -3.81152
| 13> H          1.48768       -3.45893       -3.16521
| 14> H          1.46566       -3.19589       -5.64368
| 15> H          2.35406       -1.69850       -5.49654
| 16> H          0.73014       -1.81680       -4.86253
| 17> *
| 18>
| 19> %MaxCore 64000
| 20> %pal nprocs 4
| 21> end
| 22>
| 23> %scf
| 24>   MaxIter 150
| 25> end
| 26>
| 27>
| 28>                          ****END OF INPUT****

CARTESIAN COORDINATES (ANGSTROEM)
---------------------------------
  C      1.647030   -2.345280   -5.020410
  C      2.209960   -2.812390   -3.665710
  C      2.489010   -1.668510   -2.737540
  N      3.596310   -0.947610   -2.952250
  N      1.663940   -1.413690   -1.777810
  H      0.811640   -1.963180   -1.702750
  H      1.845500   -0.635080   -1.158750
  H      4.205350   -1.176000   -3.733830
  H      3.817230   -0.125850   -2.406040
  H      3.143110   -3.362800   -3.811520
  H      1.487680   -3.458930   -3.165210
  H      1.465660   -3.195890   -5.643680
  H      2.354060   -1.698500   -5.496540
  H      0.730140   -1.816800   -4.862530

 Total Charge           Charge          ....    1
 Multiplicity           Mult            ....    1
 Number of Electrons    NEL             ....   40
 Basis Dimension        Dim             ....  209

ORBITAL ENERGIES
----------------

  NO   OCC          E(Eh)            E(eV)
   0   2.0000     -14.254591      -387.8871
   1   2.0000     -14.246095      -387.6560
   2   2.0000     -10.217122      -278.0220
   3   2.0000     -10.101977      -274.8888
   4   2.0000     -10.058647      -273.7097
   5   2.0000      -1.113777       -30.3074
   6   2.0000      -1.025666       -27.9098
   7   2.0000      -0.889405       -24.2019
   8   2.0000      -0.792843       -21.5744
   9   2.0000      -0.753328       -20.4991
  10   2.0000      -0.717948       -19.5364
  11   2.0000      -0.692711       -18.8496
  12   2.0000      -0.652817       -17.7640
  13   2.0000      -0.595024       -16.1914
  14   2.0000      -0.571229       -15.5439
  15   2.0000      -0.562326       -15.3017
  16   2.0000      -0.498532       -13.5657
  17   2.0000      -0.490036       -13.3346
  18   2.0000      -0.485027       -13.1982
  19   2.0000      -0.449767       -12.2388
  20   0.0000      -0.236717        -6.4414
  21   0.0000      -0.186553        -5.0764
  22   0.0000      -0.140943        -3.8352
  23   0.0000      -0.139194        -3.7877
  24   0.0000      -0.110031        -2.9941

MULLIKEN ATOMIC CHARGES
-----------------------
   0 C :   -0.289696
   1 C :   -0.223248
   2 C :    0.303198
   3 N :   -0.303965
   4 N :   -0.242222
   5 H :    0.280385
   6 H :    0.259059
   7 H :    0.279152
   8 H :    0.258385
   9 H :    0.153838
  10 H :    0.121342
  11 H :    0.158781
  12 H :    0.119245
  13 H :    0.125745
Sum of atomic charges:    1.0000000

LOEWDIN ATOMIC CHARGES
----------------------
   0 C :   -0.252215
   1 C :   -0.213421
   2 C :   -0.301517
   3 N :    0.108854
   4 N :    0.145545
   5 H :    0.212612
   6 H :    0.199232
   7 H :    0.205462
   8 H :    0.190934
   9 H :    0.163521
  10 H :    0.155488
  11 H :    0.136986
  12 H :    0.122351
  13 H :    0.126168

  Mayer bond orders larger than 0.100000
B(  0-C ,  1-C ) :   0.9427 B(  0-C , 11-H ) :   0.9639 B(  0-C , 12-H ) :   0.9685
B(  0-C , 13-H ) :   0.9607 B(  1-C ,  2-C ) :   0.9681 B(  1-C ,  9-H ) :   0.9459
B(  1-C , 10-H ) :   0.9617 B(  2-C ,  3-N ) :   1.4111 B(  2-C ,  4-N ) :   1.4911
B(  3-N ,  7-H ) :   0.8950 B(  3-N ,  8-H ) :   0.9000 B(  4-N ,  5-H ) :   0.8877
B(  4-N ,  6-H ) :   0.8957

Dispersion correction           -0.020565860
FINAL SINGLE POINT ENERGY      -229.032600204732

DIPOLE MOMENT
-------------
                                X             Y             Z
Electronic contribution:      1.20156       1.66755       3.62637
Nuclear contribution   :     -0.98617      -1.03178      -2.77619
                        -----------------------------------------
Total Dipole Moment    :      0.21539       0.63578       0.85019
                        -----------------------------------------
Magnitude (a.u.)       :      1.08325
Magnitude (Debye)      :      2.75339

Rotational constants in cm-1:     0.257311     0.127495     0.099037
Rotational constants in MHz :  7713.982239  3822.189706  2969.039713

                             ****ORCA TERMINATED NORMALLY****
TOTAL RUN TIME: 0 days 0 hours 0 minutes 10 seconds 794 msec
