                         Program Version 5.0.0 -  RELEASE  -
|  1> !BLYP D3BJ RIJCOSX def2-TZVP def2/J TightSCF
|  2> *xyz 0 1
|  3> C         -1.91658       -2.48508       -3.64367
|  4> C         -1.36353       -1.98134       -2.29361
|  5> F         -0.35039       -2.74969       -1.79601
|  6> H         -2.22622       -1.90839       -1.60204
|  7> H         -1.05135       -0.91567       -2.44333
|  8> H         -1.11522       -2.57167       -4.34739
|  9> H         -2.64227       -1.79099       -4.01314
| 10> H         -2.37564       -3.44180       -3.50640
| 11> *
| 12>
| 13> %MaxCore 64000
| 14> %pal nprocs 4
| 15> end
| 16>
| 17> %scf
| 18>   MaxIter 150
| 19> end
| 20>
| 21>
| 22>                          ****END OF INPUT****

CARTESIAN COORDINATES (ANGSTROEM)
---------------------------------
  C     -1.916580   -2.485080   -3.643670
  C     -1.363530   -1.981340   -2.293610
  F     -0.350390   -2.749690   -1.796010
  H     -2.226220   -1.908390   -1.602040
  H     -1.051350   -0.915670   -2.443330
  H     -1.115220   -2.571670   -4.347390
  H     -2.642270   -1.790990   -4.013140
  H     -2.375640   -3.441800   -3.506400

 Total Charge           Charge          ....    0
 Multiplicity           Mult            ....    1
 Number of Electrons    NEL             ....   26
 Basis Dimension        Dim             ....  123

ORBITAL ENERGIES
----------------

  NO   OCC          E(Eh)            E(eV)
   0   2.0000     -24.270707      -660.4395
   1   2.0000      -9.980969      -271.5960
   2   2.0000      -9.898978      -269.3649
   3   2.0000      -1.092110       -29.7178
   4   2.0000      -0.684987       -18.6394
   5   2.0000      -0.562955       -15.3188
   6   2.0000      -0.450954       -12.2711
   7   2.0000      -0.434031       -11.8106
   8   2.0000      -0.398584       -10.8460
   9   2.0000      -0.353080        -9.6078
  10   2.0000      -0.351335        -9.5603
  11   2.0000      -0.283678        -7.7193
  12   2.0000      -0.278804        -7.5867
  13   0.0000       0.020290         0.5521
  14   0.0000       0.057782         1.5723
  15   0.0000       0.067655         1.8410
  16   0.0000       0.074102         2.0164
  17   0.0000       0.090262         2.4562

MULLIKEN ATOMIC CHARGES
-----------------------
   0 C :   -0.279939
   1 C :    0.062497
   2 F :   -0.226403
   3 H :    0.073960
   4 H :    0.072911
   5 H :    0.102793
   6 H :    0.092308
   7 H :    0.101873
Sum of atomic charges:    0.0000000

LOEWDIN ATOMIC CHARGES
----------------------
   0 C :   -0.304336
   1 C :   -0.377174
   2 F :    0.112013
   3 H :    0.111699
   4 H :    0.112996
   5 H :    0.113618
   6 H :    0.118534
   7 H :    0.112651

  Mayer bond orders larger than 0.100000
B(  0-C ,  1-C ) :   0.9625 B(  0-C ,  5-H ) :   0.9692 B(  0-C ,  6-H ) :   0.9539
B(  0-C ,  7-H ) :   0.9705 B(  1-C ,  2-F ) :   1.0164 B(  1-C ,  3-H ) :   0.9622
B(  1-C ,  4-H ) :   0.9640

Dispersion correction           -0.007125088
FINAL SINGLE POINT ENERGY      -179.081307822179

DIPOLE MOMENT
-------------
                                X             Y             Z
Electronic contribution:      3.66091      -1.38865       3.45086
Nuclear contribution   :     -4.15401       1.70894      -3.75000
                        -----------------------------------------
Total Dipole Moment    :     -0.49310       0.32029      -0.29914
                        -----------------------------------------
Magnitude (a.u.)       :      0.65971
Magnitude (Debye)      :      1.67684

Rotational constants in cm-1:     1.266842     0.300492     0.266603
Rotational constants in MHz : 37978.968232  9008.526876  7992.551454

                             ****ORCA TERMINATED NORMALLY****
TOTAL RUN TIME: 0 days 0 hours 0 minutes 6 seconds 249 msec
