                         Program Version 5.0.0 -  RELEASE  -
|  1> !BLYP D3BJ RIJCOSX def2-TZVP def2/J TightSCF
|  2> *xyz 0 1
|  3> C          1.64703       -2.34528       -5.02041
|  4> C          2.20996       -2.81239       -3.66571
|  5> C          2.48901       -1.66851       -2.73754
|  6> C          3.59631       -0.94761       -2.95225
|  7> N          1.66394       -1.41369       -1.77781
|  8> H          0.81164       -1.96318       -1.70275
|  9> H          1.84550       -0.63508       -1.15875
| 10> H          4.20535       -1.17600       -3.73383
| 11> H          3.81723       -0.12585       -2.40604
| 12> H          3.14311       -3.36280       -3.81152
| 13> H          1.48768       -3.45893       -3.16521
| 14> H          1.46566       -3.19589       -5.64368
| 15> H          2.35406       -1.69850       -5.49654
| 16> H          0.73014       -1.81680       -4.86253
| 17> *
| 18>
| 19> %MaxCore 64000
| 20> %pal nprocs 4
| 21> end
| 22>
| 23> %scf
| 24>   MaxIter 150
| 25> end
| 26>
| 27>
| 28>                          ****END OF INPUT****

CARTESIAN COORDINATES (ANGSTROEM)
---------------------------------
  C      1.647030   -2.345280   -5.020410
  C      2.209960   -2.812390   -3.665710
  C      2.489010   -1.668510   -2.737540
  C      3.596310   -0.947610   -2.952250
  N      1.663940   -1.413690   -1.777810
  H      0.811640   -1.963180   -1.702750
  H      1.845500   -0.635080   -1.158750
  H      4.205350   -1.176000   -3.733830
  H      3.817230   -0.125850   -2.406040
  H      3.143110   -3.362800   -3.811520
  H      1.487680   -3.458930   -3.165210
  H      1.465660   -3.195890   -5.643680
  H      2.354060   -1.698500   -5.496540
  H      0.730140   -1.816800   -4.862530

 Total Charge           Charge          ....    0
 Multiplicity           Mult            ....    1
 Number of Electrons    NEL             ....   40
 Basis Dimension        Dim             ....  209

ORBITAL ENERGIES
----------------

  NO   OCC          E(Eh)            E(eV)
   0   2.0000     -14.009284      -381.2120
   1   2.0000      -9.917662      -269.8733
   2   2.0000      -9.902393      -269.4578
   3   2.0000      -9.886535      -269.0263
   4   2.0000      -9.831364      -267.5250
   5   2.0000      -0.850421       -23.1411
   6   2.0000      -0.698416       -19.0049
   7   2.0000      -0.631479       -17.1834
   8   2.0000      -0.569146       -15.4873
   9   2.0000      -0.507319       -13.8048
  10   2.0000      -0.476160       -12.9570
  11   2.0000      -0.423490       -11.5237
  12   2.0000      -0.389358       -10.5950
  13   2.0000      -0.360268        -9.8034
  14   2.0000      -0.343281        -9.3412
  15   2.0000      -0.331709        -9.0263
  16   2.0000      -0.305774        -8.3205
  17   2.0000      -0.288943        -7.8626
  18   2.0000      -0.286644        -7.8000
  19   2.0000      -0.147102        -4.0029
  20   0.0000       0.001598         0.0435
  21   0.0000       0.021565         0.5868
  22   0.0000       0.045025         1.2252
  23   0.0000       0.052125         1.4184
  24   0.0000       0.070193         1.9100

MULLIKEN ATOMIC CHARGES
-----------------------
   0 C :   -0.274803
   1 C :   -0.176276
   2 C :    0.230923
   3 C :   -0.409597
   4 N :   -0.355998
   5 H :    0.202265
   6 H :    0.205532
   7 H :    0.074561
   8 H :    0.064947
   9 H :    0.099338
  10 H :    0.052246
  11 H :    0.092632
  12 H :    0.105569
  13 H :    0.088660
Sum of atomic charges:    0.0000000

LOEWDIN ATOMIC CHARGES
----------------------
   0 C :   -0.283893
   1 C :   -0.231722
   2 C :   -0.376639
   3 C :   -0.285934
   4 N :    0.031578
   5 H :    0.169641
   6 H :    0.172662
   7 H :    0.102014
   8 H :    0.090675
   9 H :    0.145207
  10 H :    0.127380
  11 H :    0.110057
  12 H :    0.116264
  13 H :    0.112710

  Mayer bond orders larger than 0.100000
B(  0-C ,  1-C ) :   0.9534 B(  0-C , 11-H ) :   0.9697 B(  0-C , 12-H ) :   0.9759
B(  0-C , 13-H ) :   0.9751 B(  1-C ,  2-C ) :   0.9372 B(  1-C ,  9-H ) :   0.9781
B(  1-C , 10-H ) :   0.9662 B(  2-C ,  3-C ) :   1.6969 B(  2-C ,  4-N ) :   1.2206
B(  3-C ,  7-H ) :   0.9957 B(  3-C ,  8-H ) :   0.9837 B(  4-N ,  5-H ) :   0.9240
B(  4-N ,  6-H ) :   0.9191

Dispersion correction           -0.021488757
FINAL SINGLE POINT ENERGY      -212.548731970537

DIPOLE MOMENT
-------------
                                X             Y             Z
Electronic contribution:     -0.06865       0.66592       3.06149
Nuclear contribution   :     -0.69146      -0.83112      -2.71336
                        -----------------------------------------
Total Dipole Moment    :     -0.76012      -0.16519       0.34813
                        -----------------------------------------
Magnitude (a.u.)       :      0.85221
Magnitude (Debye)      :      2.16614

Rotational constants in cm-1:     0.270661     0.129240     0.102040
Rotational constants in MHz :  8114.202941  3874.518141  3059.074383

                             ****ORCA TERMINATED NORMALLY****
TOTAL RUN TIME: 0 days 0 hours 0 minutes 10 seconds 629 msec
