                         Program Version 5.0.0 -  RELEASE  -
|  1> !BLYP D3BJ RIJCOSX def2-TZVP def2/J TightSCF
|  2> *xyz 0 1
|  3> C          1.64703       -2.34528       -5.02041
|  4> C          2.20996       -2.81239       -3.66571
|  5> C          2.48901       -1.66851       -2.73754
|  6> N          3.59631       -0.94761       -2.95225
|  7> C          1.66394       -1.41369       -1.77781
|  8> H          0.81164       -1.96318       -1.70275
|  9> H          1.84550       -0.63508       -1.15875
| 10> H          4.20535       -1.17600       -3.73383
| 11> H          3.81723       -0.12585       -2.40604
| 12> H          3.14311       -3.36280       -3.81152
| 13> H          1.48768       -3.45893       -3.16521
| 14> H          1.46566       -3.19589       -5.64368
| 15> H          2.35406       -1.69850       -5.49654
| 16> H          0.73014       -1.81680       -4.86253
| 17> *
| 18>
| 19> %MaxCore 64000
| 20> %pal nprocs 4
| 21> end
| 22>
| 23> %scf
| 24>   MaxIter 150
| 25> end
| 26>
| 27>
| 28>                          ****END OF INPUT****

CARTESIAN COORDINATES (ANGSTROEM)
---------------------------------
  C      1.647030   -2.345280   -5.020410
  C      2.209960   -2.812390   -3.665710
  C      2.489010   -1.668510   -2.737540
  N      3.596310   -0.947610   -2.952250
  C      1.663940   -1.413690   -1.777810
  H      0.811640   -1.963180   -1.702750
  H      1.845500   -0.635080   -1.158750
  H      4.205350   -1.176000   -3.733830
  H      3.817230   -0.125850   -2.406040
  H      3.143110   -3.362800   -3.811520
  H      1.487680   -3.458930   -3.165210
  H      1.465660   -3.195890   -5.643680
  H      2.354060   -1.698500   -5.496540
  H      0.730140   -1.816800   -4.862530

 Total Charge           Charge          ....    0
 Multiplicity           Mult            ....    1
 Number of Electrons    NEL             ....   40
 Basis Dimension        Dim             ....  209

ORBITAL ENERGIES
----------------

  NO   OCC          E(Eh)            E(eV)
   0   2.0000     -14.002743      -381.0340
   1   2.0000      -9.915200      -269.8063
   2   2.0000      -9.900707      -269.4119
   3   2.0000      -9.887743      -269.0592
   4   2.0000      -9.834058      -267.5983
   5   2.0000      -0.832613       -22.6566
   6   2.0000      -0.698800       -19.0153
   7   2.0000      -0.644526       -17.5384
   8   2.0000      -0.564683       -15.3658
   9   2.0000      -0.503799       -13.7091
  10   2.0000      -0.464836       -12.6488
  11   2.0000      -0.423631       -11.5276
  12   2.0000      -0.383109       -10.4249
  13   2.0000      -0.370457       -10.0806
  14   2.0000      -0.346805        -9.4370
  15   2.0000      -0.334073        -9.0906
  16   2.0000      -0.305778        -8.3207
  17   2.0000      -0.287981        -7.8364
  18   2.0000      -0.278028        -7.5655
  19   2.0000      -0.157201        -4.2777
  20   0.0000       0.003022         0.0822
  21   0.0000       0.024987         0.6799
  22   0.0000       0.047905         1.3036
  23   0.0000       0.056864         1.5473
  24   0.0000       0.066864         1.8195

MULLIKEN ATOMIC CHARGES
-----------------------
   0 C :   -0.282522
   1 C :   -0.181584
   2 C :    0.277997
   3 N :   -0.419908
   4 C :   -0.380416
   5 H :    0.074342
   6 H :    0.062591
   7 H :    0.204164
   8 H :    0.201352
   9 H :    0.072473
  10 H :    0.085858
  11 H :    0.097161
  12 H :    0.083853
  13 H :    0.104638
Sum of atomic charges:    0.0000000

LOEWDIN ATOMIC CHARGES
----------------------
   0 C :   -0.287610
   1 C :   -0.231678
   2 C :   -0.362960
   3 N :   -0.002020
   4 C :   -0.261843
   5 H :    0.108206
   6 H :    0.098175
   7 H :    0.164131
   8 H :    0.163444
   9 H :    0.131657
  10 H :    0.143248
  11 H :    0.111506
  12 H :    0.109411
  13 H :    0.116332

  Mayer bond orders larger than 0.100000
B(  0-C ,  1-C ) :   0.9454 B(  0-C , 11-H ) :   0.9719 B(  0-C , 12-H ) :   0.9740
B(  0-C , 13-H ) :   0.9777 B(  1-C ,  2-C ) :   0.9560 B(  1-C ,  9-H ) :   0.9629
B(  1-C , 10-H ) :   0.9769 B(  2-C ,  3-N ) :   1.1415 B(  2-C ,  4-C ) :   1.7464
B(  3-N ,  7-H ) :   0.9313 B(  3-N ,  8-H ) :   0.9252 B(  4-C ,  5-H ) :   0.9920
B(  4-C ,  6-H ) :   0.9867

Dispersion correction           -0.021458471
FINAL SINGLE POINT ENERGY      -212.552512641573

DIPOLE MOMENT
-------------
                                X             Y             Z
Electronic contribution:      1.68609       1.09977       2.00005
Nuclear contribution   :     -1.13902      -0.93906      -2.44135
                        -----------------------------------------
Total Dipole Moment    :      0.54707       0.16071      -0.44130
                        -----------------------------------------
Magnitude (a.u.)       :      0.72101
Magnitude (Debye)      :      1.83267

Rotational constants in cm-1:     0.267243     0.130607     0.102304
Rotational constants in MHz :  8011.748167  3915.504600  3066.999841

                             ****ORCA TERMINATED NORMALLY****
TOTAL RUN TIME: 0 days 0 hours 0 minutes 10 seconds 770 msec
