                         Program Version 5.0.0 -  RELEASE  -
|  1> !BLYP D3BJ RIJCOSX def2-TZVP def2/J TightSCF xyzfile
|  2>
|  3> *xyzfile 0 1 D2.xyz
|  4>
|  5> %MaxCore 64000
|  6>
|  7> %pal nprocs 18
|  8> end
|  9>
| 10> %scf
| 11>   MaxIter 150
| 12> end
| 13>
| 14>
| 15>                          ****END OF INPUT****

CARTESIAN COORDINATES (ANGSTROEM)
---------------------------------
  C      1.647032   -2.345276   -5.020411
  C      0.217628   -1.814022   -4.924389
  C      2.209964   -2.812388   -3.665708
  C     -0.811356   -2.908780   -4.607625
  C     -1.916579   -2.485081   -3.643665
  H     -2.554525   -1.712428   -4.091993
  C     -1.363531   -1.981337   -2.293608
  H     -2.553448   -3.355667   -3.458815
  F     -0.350395   -2.749689   -1.796006
  H      2.308385   -1.588704   -5.457128
  H      1.674286   -3.203478   -5.697392
  C      2.489007   -1.668510   -2.737538
  N      3.596314   -0.947608   -2.952247
  C      1.663936   -1.413685   -1.777806
  H      0.811642   -1.963178   -1.702755
  H      1.845503   -0.635078   -1.158749
  H      4.205351   -1.176003   -3.733825
  H      3.817230   -0.125845   -2.406041
  H     -1.244829   -3.280884   -5.541040
  H     -0.306331   -3.757746   -4.142734
  H     -0.036244   -1.318555   -5.865303
  H      0.175004   -1.035382   -4.158095
  H      3.143106   -3.362803   -3.811524
  H      1.487683   -3.458935   -3.165211
  H     -2.226220   -1.908386   -1.602039
  H     -1.051353   -0.915671   -2.443331

 Total Charge           Charge          ....    0
 Multiplicity           Mult            ....    1
 Number of Electrons    NEL             ....   80
 Basis Dimension        Dim             ....  406

ORBITAL ENERGIES
----------------

  NO   OCC          E(Eh)            E(eV)
   0   2.0000     -24.285283      -660.8362
   1   2.0000     -13.989345      -380.6694
   2   2.0000      -9.980571      -271.5851
   3   2.0000      -9.908437      -269.6223
   4   2.0000      -9.898864      -269.3618
   5   2.0000      -9.896931      -269.3092
   6   2.0000      -9.893847      -269.2253
   7   2.0000      -9.890119      -269.1238
   8   2.0000      -9.888654      -269.0840
   9   2.0000      -9.802020      -266.7265
  10   2.0000      -1.117226       -30.4013
  11   2.0000      -0.819271       -22.2935
  12   2.0000      -0.729405       -19.8481
  13   2.0000      -0.696820       -18.9614
  14   2.0000      -0.649758       -17.6808
  15   2.0000      -0.625259       -17.0142
  16   2.0000      -0.585241       -15.9252
  17   2.0000      -0.536938       -14.6108
  18   2.0000      -0.506122       -13.7723
  19   2.0000      -0.503039       -13.6884
  20   2.0000      -0.466869       -12.7042
  21   2.0000      -0.452498       -12.3131
  22   2.0000      -0.440022       -11.9736
  23   2.0000      -0.429403       -11.6846
  24   2.0000      -0.405911       -11.0454
  25   2.0000      -0.389607       -10.6017
  26   2.0000      -0.386713       -10.5230
  27   2.0000      -0.378385       -10.2964
  28   2.0000      -0.348580        -9.4853
  29   2.0000      -0.333506        -9.0752
  30   2.0000      -0.320359        -8.7174
  31   2.0000      -0.310711        -8.4549
  32   2.0000      -0.302026        -8.2185
  33   2.0000      -0.289940        -7.8897
  34   2.0000      -0.279449        -7.6042
  35   2.0000      -0.276934        -7.5358
  36   2.0000      -0.268308        -7.3010
  37   2.0000      -0.260707        -7.0942
  38   2.0000      -0.246794        -6.7156
  39   2.0000      -0.141910        -3.8616
  40   0.0000       0.011410         0.3105
  41   0.0000       0.019781         0.5383
  42   0.0000       0.026747         0.7278
  43   0.0000       0.044334         1.2064
  44   0.0000       0.048889         1.3303

MULLIKEN ATOMIC CHARGES
-----------------------
   0 C :   -0.113963
   1 C :   -0.148729
   2 C :   -0.205950
   3 C :   -0.151773
   4 C :   -0.150817
   5 H :    0.078821
   6 C :   -0.013964
   7 H :    0.083528
   8 F :   -0.184258
   9 H :    0.066570
  10 H :    0.067681
  11 C :    0.271575
  12 N :   -0.423781
  13 C :   -0.515555
  14 H :    0.205612
  15 H :    0.047531
  16 H :    0.196213
  17 H :    0.196651
  18 H :    0.079599
  19 H :    0.084933
  20 H :    0.069030
  21 H :    0.097508
  22 H :    0.071523
  23 H :    0.097957
  24 H :    0.091817
  25 H :    0.102239
Sum of atomic charges:   -0.0000000

LOEWDIN ATOMIC CHARGES
----------------------
   0 C :   -0.254843
   1 C :   -0.254186
   2 C :   -0.212691
   3 C :   -0.263307
   4 C :   -0.270677
   5 H :    0.137808
   6 C :   -0.355655
   7 H :    0.132545
   8 F :    0.184391
   9 H :    0.128347
  10 H :    0.131145
  11 C :   -0.371285
  12 N :   -0.008366
  13 C :   -0.264988
  14 H :    0.073806
  15 H :    0.092238
  16 H :    0.159673
  17 H :    0.160521
  18 H :    0.131775
  19 H :    0.137077
  20 H :    0.128645
  21 H :    0.137814
  22 H :    0.132646
  23 H :    0.143877
  24 H :    0.120013
  25 H :    0.123673

  Mayer bond orders larger than 0.100000
B(  0-C ,  1-C ) :   0.9812 B(  0-C ,  2-C ) :   0.9404 B(  0-C ,  9-H ) :   0.9519
B(  0-C , 10-H ) :   0.9568 B(  1-C ,  3-C ) :   0.9507 B(  1-C , 20-H ) :   0.9546
B(  1-C , 21-H ) :   0.9756 B(  2-C , 11-C ) :   0.9562 B(  2-C , 22-H ) :   0.9594
B(  2-C , 23-H ) :   0.9915 B(  3-C ,  4-C ) :   0.9687 B(  3-C , 18-H ) :   0.9605
B(  3-C , 19-H ) :   0.9672 B(  4-C ,  5-H ) :   0.9439 B(  4-C ,  6-C ) :   0.9772
B(  4-C ,  7-H ) :   0.9602 B(  6-C ,  8-F ) :   0.9481 B(  6-C , 24-H ) :   0.9616
B(  6-C , 25-H ) :   0.9723 B( 11-C , 12-N ) :   1.1143 B( 11-C , 13-C ) :   1.7111
B( 12-N , 16-H ) :   0.9320 B( 12-N , 17-H ) :   0.9274 B( 13-C , 14-H ) :   0.9538
B( 13-C , 15-H ) :   0.9784

Dispersion correction           -0.053442103
FINAL SINGLE POINT ENERGY      -469.014862052392

DIPOLE MOMENT
-------------
                                X             Y             Z
Electronic contribution:      0.49406      -1.31494       6.10378
Nuclear contribution   :     -0.73748       1.64619      -6.72655
                        -----------------------------------------
Total Dipole Moment    :     -0.24342       0.33125      -0.62277
                        -----------------------------------------
Magnitude (a.u.)       :      0.74620
Magnitude (Debye)      :      1.89669

Rotational constants in cm-1:     0.063169     0.031711     0.023958
Rotational constants in MHz :  1893.751676   950.657187   718.229932

                             ****ORCA TERMINATED NORMALLY****
TOTAL RUN TIME: 0 days 0 hours 0 minutes 14 seconds 554 msec
