                         Program Version 5.0.0 -  RELEASE  -
|  1> !TPSS D3BJ RIJCOSX def2-SVPD def2/J TightSCF
|  2> *xyz -1 1
|  3> C          4.26524        2.50052       -0.79589
|  4> C          4.98224        1.65026        0.24742
|  5> O          4.36806        1.38927        1.31371
|  6> O          6.12892        1.23351       -0.04562
|  7> H          4.90412        2.63966       -1.64287
|  8> H          4.02079        3.45265       -0.37328
|  9> H          3.36773        2.00584       -1.10356
| 10> *
| 11> %MaxCore 64000
| 12> %pal nprocs 8
| 13> end
| 14> %scf
| 15>   MaxIter 150
| 16> end
| 17>
| 18>
| 19>                          ****END OF INPUT****

CARTESIAN COORDINATES (ANGSTROEM)
---------------------------------
  C      4.265240    2.500520   -0.795890
  C      4.982240    1.650260    0.247420
  O      4.368060    1.389270    1.313710
  O      6.128920    1.233510   -0.045620
  H      4.904120    2.639660   -1.642870
  H      4.020790    3.452650   -0.373280
  H      3.367730    2.005840   -1.103560

 Total Charge           Charge          ....   -1
 Multiplicity           Mult            ....    1
 Number of Electrons    NEL             ....   32
 Basis Dimension        Dim             ....  110

ORBITAL ENERGIES
----------------

  NO   OCC          E(Eh)            E(eV)
   0   2.0000     -18.634458      -507.0694
   1   2.0000     -18.633469      -507.0425
   2   2.0000      -9.873901      -268.6825
   3   2.0000      -9.813279      -267.0329
   4   2.0000      -0.735975       -20.0269
   5   2.0000      -0.646406       -17.5896
   6   2.0000      -0.482588       -13.1319
   7   2.0000      -0.252159        -6.8616
   8   2.0000      -0.218382        -5.9425
   9   2.0000      -0.203274        -5.5314
  10   2.0000      -0.172962        -4.7065
  11   2.0000      -0.135524        -3.6878
  12   2.0000      -0.123071        -3.3489
  13   2.0000      -0.009533        -0.2594
  14   2.0000       0.002063         0.0561
  15   2.0000       0.020149         0.5483
  16   0.0000       0.163484         4.4486
  17   0.0000       0.204238         5.5576
  18   0.0000       0.205086         5.5807
  19   0.0000       0.231207         6.2915
  20   0.0000       0.249054         6.7771

MULLIKEN ATOMIC CHARGES
-----------------------
   0 C :    0.409749
   1 C :    0.049627
   2 O :   -0.678836
   3 O :   -0.649423
   4 H :   -0.058071
   5 H :   -0.036165
   6 H :   -0.036881
Sum of atomic charges:   -1.0000000

LOEWDIN ATOMIC CHARGES
----------------------
   0 C :    0.147938
   1 C :   -0.334879
   2 O :   -0.340503
   3 O :   -0.336149
   4 H :   -0.050281
   5 H :   -0.043720
   6 H :   -0.042406

  Mayer bond orders larger than 0.100000
B(  0-C ,  1-C ) :   1.2474 B(  0-C ,  4-H ) :   0.8882 B(  0-C ,  5-H ) :   0.8346
B(  0-C ,  6-H ) :   0.8393 B(  1-C ,  2-O ) :   1.4667 B(  1-C ,  3-O ) :   1.4540
B(  1-C ,  4-H ) :   0.2417 B(  1-C ,  5-H ) :   0.1673 B(  1-C ,  6-H ) :   0.1624

Dispersion correction           -0.004509304
FINAL SINGLE POINT ENERGY      -228.405344563012

DIPOLE MOMENT
-------------
                                X             Y             Z
Electronic contribution:      1.72944      -2.05109       2.48880
Nuclear contribution   :     -2.34880       2.82033      -3.41655
                        -----------------------------------------
Total Dipole Moment    :     -0.61936       0.76924      -0.92775
                        -----------------------------------------
Magnitude (a.u.)       :      1.35501
Magnitude (Debye)      :      3.44417

Rotational constants in cm-1:     0.393413     0.334516     0.186969
Rotational constants in MHz : 11794.232386 10028.538646  5605.197050

                             ****ORCA TERMINATED NORMALLY****
TOTAL RUN TIME: 0 days 0 hours 0 minutes 3 seconds 529 msec
