                         Program Version 5.0.0 -  RELEASE  -
|  1> !TPSS D3BJ RIJCOSX def2-SVPD def2/J TightSCF
|  2> *xyz 1 1
|  3> C          3.91385       -1.65829        3.01513
|  4> N          5.03927       -0.90115        2.49282
|  5> C          6.21038       -1.41726        2.17824
|  6> N          6.53591       -2.67712        2.55608
|  7> N          7.07675       -0.70082        1.47891
|  8> H          7.95464       -1.12155        1.20755
|  9> H          6.75616        0.10664        0.96028
| 10> H          4.84217        0.01761        2.11519
| 11> H          5.99388       -3.12692        3.28278
| 12> H          7.49844       -2.97548        2.46878
| 13> H          3.08844       -0.99893        3.18495
| 14> H          4.19412       -2.12366        3.93697
| 15> H          3.63051       -2.40965        2.30798
| 16> *
| 17> %MaxCore 64000
| 18> %pal nprocs 8
| 19> end
| 20> %scf
| 21>   MaxIter 150
| 22> end
| 23>
| 24>
| 25>                          ****END OF INPUT****

CARTESIAN COORDINATES (ANGSTROEM)
---------------------------------
  C      3.913850   -1.658290    3.015130
  N      5.039270   -0.901150    2.492820
  C      6.210380   -1.417260    2.178240
  N      6.535910   -2.677120    2.556080
  N      7.076750   -0.700820    1.478910
  H      7.954640   -1.121550    1.207550
  H      6.756160    0.106640    0.960280
  H      4.842170    0.017610    2.115190
  H      5.993880   -3.126920    3.282780
  H      7.498440   -2.975480    2.468780
  H      3.088440   -0.998930    3.184950
  H      4.194120   -2.123660    3.936970
  H      3.630510   -2.409650    2.307980

 Total Charge           Charge          ....    1
 Multiplicity           Mult            ....    1
 Number of Electrons    NEL             ....   40
 Basis Dimension        Dim             ....  164

ORBITAL ENERGIES
----------------

  NO   OCC          E(Eh)            E(eV)
   0   2.0000     -14.348108      -390.4319
   1   2.0000     -14.345470      -390.3601
   2   2.0000     -14.344650      -390.3378
   3   2.0000     -10.329099      -281.0691
   4   2.0000     -10.210259      -277.8353
   5   2.0000      -1.145159       -31.1614
   6   2.0000      -1.041967       -28.3534
   7   2.0000      -1.026942       -27.9445
   8   2.0000      -0.852838       -23.2069
   9   2.0000      -0.779329       -21.2066
  10   2.0000      -0.742825       -20.2133
  11   2.0000      -0.711550       -19.3623
  12   2.0000      -0.653177       -17.7738
  13   2.0000      -0.649676       -17.6786
  14   2.0000      -0.611856       -16.6494
  15   2.0000      -0.606885       -16.5142
  16   2.0000      -0.554503       -15.0888
  17   2.0000      -0.544385       -14.8135
  18   2.0000      -0.444375       -12.0920
  19   2.0000      -0.424655       -11.5554
  20   0.0000      -0.202158        -5.5010
  21   0.0000      -0.171967        -4.6795
  22   0.0000      -0.134559        -3.6615
  23   0.0000      -0.130459        -3.5500
  24   0.0000      -0.108380        -2.9492

MULLIKEN ATOMIC CHARGES
-----------------------
   0 C :    1.035070
   1 N :   -0.539586
   2 C :    1.381241
   3 N :   -0.082443
   4 N :   -0.091054
   5 H :   -0.023503
   6 H :   -0.030843
   7 H :   -0.213143
   8 H :   -0.039859
   9 H :   -0.084986
  10 H :   -0.278469
  11 H :   -0.028834
  12 H :   -0.003590
Sum of atomic charges:    1.0000000

LOEWDIN ATOMIC CHARGES
----------------------
   0 C :    0.265940
   1 N :    0.017715
   2 C :   -0.040174
   3 N :    0.284566
   4 N :    0.264673
   5 H :    0.039337
   6 H :    0.041093
   7 H :    0.058099
   8 H :    0.018080
   9 H :    0.034765
  10 H :    0.011662
  11 H :   -0.003372
  12 H :    0.007616

  Mayer bond orders larger than 0.100000
B(  0-C ,  1-N ) :   0.9444 B(  0-C ,  7-H ) :  -0.1119 B(  0-C , 10-H ) :   0.8458
B(  0-C , 11-H ) :   0.8230 B(  0-C , 12-H ) :   0.8342 B(  1-N ,  2-C ) :   1.0087
B(  1-N ,  3-N ) :   0.2398 B(  1-N ,  4-N ) :   0.2482 B(  1-N ,  7-H ) :   1.2946
B(  1-N , 10-H ) :   0.1689 B(  1-N , 11-H ) :   0.1594 B(  1-N , 12-H ) :   0.1304
B(  2-C ,  3-N ) :   0.9094 B(  2-C ,  4-N ) :   0.8103 B(  2-C ,  5-H ) :  -0.1069
B(  2-C ,  6-H ) :  -0.1457 B(  2-C ,  7-H ) :  -0.2265 B(  2-C ,  8-H ) :  -0.1311
B(  2-C ,  9-H ) :  -0.1148 B(  3-N ,  4-N ) :   0.1668 B(  3-N ,  8-H ) :   1.0899
B(  3-N ,  9-H ) :   1.2050 B(  4-N ,  5-H ) :   1.1592 B(  4-N ,  6-H ) :   1.1746
B(  5-H ,  6-H ) :  -0.1504 B(  8-H ,  9-H ) :  -0.1621

Dispersion correction           -0.011171282
FINAL SINGLE POINT ENERGY      -244.965722402257

DIPOLE MOMENT
-------------
                                X             Y             Z
Electronic contribution:      2.42448       0.85023      -0.96009
Nuclear contribution   :     -2.01473      -0.74897       0.69347
                        -----------------------------------------
Total Dipole Moment    :      0.40975       0.10126      -0.26663
                        -----------------------------------------
Magnitude (a.u.)       :      0.49924
Magnitude (Debye)      :      1.26896

Rotational constants in cm-1:     0.313249     0.134439     0.096258
Rotational constants in MHz :  9390.961986  4030.377472  2885.728233

                             ****ORCA TERMINATED NORMALLY****
TOTAL RUN TIME: 0 days 0 hours 0 minutes 5 seconds 947 msec
