                         Program Version 5.0.0 -  RELEASE  -
|  1> !TPSS D3BJ RIJCOSX def2-SVPD def2/J TightSCF xyzfile
|  2>
|  3> *xyzfile 0 1 B.xyz
|  4>
|  5> %MaxCore 64000
|  6>
|  7> %pal nprocs 4
|  8> end
|  9>
| 10> %scf
| 11>   MaxIter 150
| 12> end
| 13>
| 14>
| 15>                          ****END OF INPUT****

CARTESIAN COORDINATES (ANGSTROEM)
---------------------------------
  C      3.913853   -1.658291    3.015134
  N      5.039266   -0.901154    2.492821
  C      4.084215    1.742081   -2.114724
  C      4.265245    2.500518   -0.795890
  H      4.868534    3.392674   -0.981134
  H      3.307640    2.824571   -0.387809
  C      4.982240    1.650257    0.247422
  C      6.210384   -1.417261    2.178244
  N      6.535913   -2.677122    2.556078
  N      7.076754   -0.700820    1.478906
  H      7.954643   -1.121554    1.207554
  H      6.756161    0.106637    0.960278
  H      4.842168    0.017609    2.115191
  H      5.993876   -3.126918    3.282784
  H      7.498441   -2.975482    2.468776
  O      4.368065    1.389270    1.313706
  O      6.128919    1.233512   -0.045620
  C      3.139159   -2.376572    1.910609
  H      3.267235   -0.939401    3.520693
  H      4.247195   -2.355095    3.790065
  C      1.997274    0.430918   -1.399218
  C      3.412746    0.376886   -1.965497
  H      4.047407   -0.246590   -1.326706
  H      3.390774   -0.118719   -2.942839
  H      5.068475    1.598504   -2.565728
  H      3.503356    2.363939   -2.804565
  C      2.399946   -1.389579    1.009490
  H      2.440750   -3.087118    2.362976
  H      3.844475   -2.970462    1.318677
  C      2.070177   -1.936705   -0.372401
  H      1.481611   -1.061542    1.509912
  H      3.008628   -0.490001    0.897451
  C      1.322238   -0.935775   -1.256413
  H      1.472747   -2.850902   -0.283997
  H      3.003539   -2.234041   -0.862535
  H      1.376444    1.058920   -2.047420
  H      2.015341    0.929780   -0.426535
  H      0.316648   -0.787213   -0.848278
  H      1.185611   -1.379252   -2.248613

 Total Charge           Charge          ....    0
 Multiplicity           Mult            ....    1
 Number of Electrons    NEL             ....  126
 Basis Dimension        Dim             ....  510

ORBITAL ENERGIES
----------------

  NO   OCC          E(Eh)            E(eV)
   0   2.0000     -18.822980      -512.1993
   1   2.0000     -18.821738      -512.1655
   2   2.0000     -14.183557      -385.9542
   3   2.0000     -14.147029      -384.9602
   4   2.0000     -14.143279      -384.8582
   5   2.0000     -10.147885      -276.1380
   6   2.0000     -10.058742      -273.7123
   7   2.0000     -10.052604      -273.5453
   8   2.0000     -10.009183      -272.3637
   9   2.0000      -9.987326      -271.7690
  10   2.0000      -9.987143      -271.7640
  11   2.0000      -9.982859      -271.6474
  12   2.0000      -9.974111      -271.4094
  13   2.0000      -9.972430      -271.3636
  14   2.0000      -9.971323      -271.3335
  15   2.0000      -9.962042      -271.0810
  16   2.0000      -0.965152       -26.2631
  17   2.0000      -0.928197       -25.2575
  18   2.0000      -0.864337       -23.5198
  19   2.0000      -0.850166       -23.1342
  20   2.0000      -0.835942       -22.7471
  21   2.0000      -0.746382       -20.3101
  22   2.0000      -0.722674       -19.6650
  23   2.0000      -0.695164       -18.9164
  24   2.0000      -0.658176       -17.9099
  25   2.0000      -0.622266       -16.9327
  26   2.0000      -0.607836       -16.5401
  27   2.0000      -0.578189       -15.7333
  28   2.0000      -0.566536       -15.4162
  29   2.0000      -0.551962       -15.0196
  30   2.0000      -0.526132       -14.3168
  31   2.0000      -0.519916       -14.1476
  32   2.0000      -0.489357       -13.3161
  33   2.0000      -0.480930       -13.0868
  34   2.0000      -0.472788       -12.8652
  35   2.0000      -0.454299       -12.3621
  36   2.0000      -0.427070       -11.6212
  37   2.0000      -0.419734       -11.4215
  38   2.0000      -0.416361       -11.3298
  39   2.0000      -0.411284       -11.1916
  40   2.0000      -0.398176       -10.8349
  41   2.0000      -0.382053       -10.3962
  42   2.0000      -0.376532       -10.2460
  43   2.0000      -0.375547       -10.2191
  44   2.0000      -0.368627       -10.0308
  45   2.0000      -0.353567        -9.6210
  46   2.0000      -0.340733        -9.2718
  47   2.0000      -0.331597        -9.0232
  48   2.0000      -0.327584        -8.9140
  49   2.0000      -0.316952        -8.6247
  50   2.0000      -0.310908        -8.4602
  51   2.0000      -0.303839        -8.2679
  52   2.0000      -0.291497        -7.9320
  53   2.0000      -0.284797        -7.7497
  54   2.0000      -0.277479        -7.5506
  55   2.0000      -0.272158        -7.4058
  56   2.0000      -0.265535        -7.2256
  57   2.0000      -0.260287        -7.0828
  58   2.0000      -0.254410        -6.9228
  59   2.0000      -0.240746        -6.5510
  60   2.0000      -0.197408        -5.3717
  61   2.0000      -0.183696        -4.9986
  62   2.0000      -0.174038        -4.7358
  63   0.0000      -0.029605        -0.8056
  64   0.0000      -0.025553        -0.6953
  65   0.0000       0.001135         0.0309
  66   0.0000       0.021119         0.5747
  67   0.0000       0.028712         0.7813

MULLIKEN ATOMIC CHARGES
-----------------------
   0 C :    1.156929
   1 N :    0.033895
   2 C :    0.338038
   3 C :    0.258792
   4 H :   -0.101961
   5 H :    0.151318
   6 C :    0.301104
   7 C :    1.268528
   8 N :    0.041075
   9 N :    0.309563
  10 H :   -0.094339
  11 H :   -0.320577
  12 H :   -0.846599
  13 H :   -0.033461
  14 H :   -0.186940
  15 O :   -0.729146
  16 O :   -0.669874
  17 C :    0.243420
  18 H :   -0.262131
  19 H :   -0.237821
  20 C :   -0.156227
  21 C :   -0.177090
  22 H :    0.010759
  23 H :   -0.141758
  24 H :    0.043156
  25 H :   -0.116299
  26 C :    0.554345
  27 H :   -0.091640
  28 H :   -0.009744
  29 C :   -0.049796
  30 H :   -0.001355
  31 H :   -0.811306
  32 C :    0.630480
  33 H :   -0.369820
  34 H :    0.162396
  35 H :   -0.364907
  36 H :    0.223131
  37 H :    0.037389
  38 H :    0.008475
Sum of atomic charges:    0.0000000

LOEWDIN ATOMIC CHARGES
----------------------
   0 C :    0.082772
   1 N :    0.078911
   2 C :   -0.015990
   3 C :    0.040885
   4 H :    0.023192
   5 H :    0.009321
   6 C :   -0.192307
   7 C :   -0.038806
   8 N :    0.248759
   9 N :    0.285717
  10 H :    0.020071
  11 H :   -0.108398
  12 H :   -0.079985
  13 H :   -0.009454
  14 H :    0.009918
  15 O :   -0.234231
  16 O :   -0.223884
  17 C :   -0.006647
  18 H :    0.035908
  19 H :    0.001832
  20 C :   -0.023404
  21 C :   -0.023098
  22 H :    0.007944
  23 H :    0.020281
  24 H :    0.017263
  25 H :    0.014313
  26 C :   -0.017950
  27 H :    0.021084
  28 H :    0.013397
  29 C :   -0.032381
  30 H :    0.034795
  31 H :   -0.022794
  32 C :   -0.024509
  33 H :    0.016287
  34 H :    0.013343
  35 H :    0.019627
  36 H :    0.006333
  37 H :    0.016362
  38 H :    0.015519

  Mayer bond orders larger than 0.100000
B(  0-C ,  1-N ) :   0.8679 B(  0-C , 12-H ) :  -0.4054 B(  0-C , 17-C ) :   1.0392
B(  0-C , 18-H ) :   0.6762 B(  0-C , 19-H ) :   0.7972 B(  0-C , 26-C ) :   0.1395
B(  1-N ,  7-C ) :   1.1201 B(  1-N ,  8-N ) :   0.2329 B(  1-N ,  9-N ) :   0.1209
B(  1-N , 12-H ) :   1.2071 B(  1-N , 18-H ) :   0.2259 B(  1-N , 19-H ) :   0.1088
B(  2-C ,  3-C ) :   1.1729 B(  2-C ,  4-H ) :   0.1563 B(  2-C , 21-C ) :   1.2506
B(  2-C , 22-H ) :   0.1094 B(  2-C , 24-H ) :   0.6836 B(  2-C , 25-H ) :   0.8372
B(  3-C ,  4-H ) :   0.6985 B(  3-C ,  5-H ) :   0.7544 B(  3-C ,  6-C ) :   1.1163
B(  3-C , 21-C ) :   0.1139 B(  3-C , 24-H ) :   0.1210 B(  3-C , 25-H ) :   0.1467
B(  4-H ,  6-C ) :   0.2481 B(  5-H ,  6-C ) :   0.2257 B(  6-C , 15-O ) :   1.4071
B(  6-C , 16-O ) :   1.2693 B(  7-C ,  8-N ) :   0.8236 B(  7-C ,  9-N ) :   0.9203
B(  7-C , 11-H ) :  -0.2484 B(  7-C , 12-H ) :  -0.5863 B(  8-N ,  9-N ) :   0.1595
B(  8-N , 13-H ) :   1.0611 B(  8-N , 14-H ) :   1.2433 B(  9-N , 10-H ) :   1.1783
B(  9-N , 11-H ) :   1.1146 B( 10-H , 11-H ) :  -0.2441 B( 11-H , 16-O ) :   0.1096
B( 12-H , 15-O ) :   0.1920 B( 12-H , 18-H ) :   0.1478 B( 13-H , 14-H ) :  -0.1937
B( 17-C , 19-H ) :   0.1571 B( 17-C , 26-C ) :   1.1330 B( 17-C , 27-H ) :   0.8999
B( 17-C , 28-H ) :   0.9108 B( 17-C , 29-C ) :   0.1011 B( 17-C , 30-H ) :   0.1237
B( 18-H , 19-H ) :  -0.2028 B( 20-C , 21-C ) :   1.2244 B( 20-C , 22-H ) :   0.1065
B( 20-C , 23-H ) :   0.1403 B( 20-C , 29-C ) :   0.1185 B( 20-C , 32-C ) :   1.1509
B( 20-C , 35-H ) :   1.0496 B( 20-C , 36-H ) :   0.8076 B( 20-C , 37-H ) :   0.2518
B( 20-C , 38-H ) :   0.1378 B( 21-C , 22-H ) :   0.9249 B( 21-C , 23-H ) :   0.8917
B( 21-C , 24-H ) :   0.2173 B( 21-C , 25-H ) :   0.1738 B( 21-C , 35-H ) :   0.1162
B( 21-C , 36-H ) :   0.1030 B( 24-H , 25-H ) :  -0.1035 B( 26-C , 27-H ) :   0.1494
B( 26-C , 29-C ) :   1.2540 B( 26-C , 30-H ) :   0.6435 B( 26-C , 31-H ) :   0.3617
B( 26-C , 33-H ) :   0.1037 B( 26-C , 34-H ) :   0.1514 B( 27-H , 31-H ) :   0.1131
B( 29-C , 31-H ) :   0.1508 B( 29-C , 32-C ) :   1.1163 B( 29-C , 33-H ) :   1.0551
B( 29-C , 34-H ) :   0.8122 B( 29-C , 37-H ) :   0.1125 B( 29-C , 38-H ) :   0.2062
B( 30-H , 31-H ) :   0.2832 B( 31-H , 36-H ) :   0.1027 B( 32-C , 37-H ) :   0.6795
B( 32-C , 38-H ) :   0.7070

Dispersion correction           -0.055733777
FINAL SINGLE POINT ENERGY      -747.462076250753

DIPOLE MOMENT
-------------
                                X             Y             Z
Electronic contribution:     12.27651       3.34330       7.67108
Nuclear contribution   :    -11.44764      -6.21818      -6.18483
                        -----------------------------------------
Total Dipole Moment    :      0.82888      -2.87488       1.48625
                        -----------------------------------------
Magnitude (a.u.)       :      3.34079
Magnitude (Debye)      :      8.49162

Rotational constants in cm-1:     0.020281     0.013510     0.009451
Rotational constants in MHz :   608.005987   405.034308   283.324538

                             ****ORCA TERMINATED NORMALLY****
TOTAL RUN TIME: 0 days 0 hours 1 minutes 54 seconds 118 msec
