                         Program Version 5.0.0 -  RELEASE  -
|  1> !TPSS D3BJ RIJCOSX def2-SVPD def2/J TightSCF
|  2> *xyz 0 1
|  3> C          4.26524        2.50052       -0.79589
|  4> C          4.98224        1.65026        0.24742
|  5> F          4.36806        1.38927        1.31371
|  6> O          6.12892        1.23351       -0.04562
|  7> H          4.90412        2.63966       -1.64287
|  8> H          4.02079        3.45265       -0.37328
|  9> H          3.36773        2.00584       -1.10356
| 10> *
| 11> %MaxCore 64000
| 12> %pal nprocs 8
| 13> end
| 14> %scf
| 15>   MaxIter 150
| 16> end
| 17>
| 18>
| 19>                          ****END OF INPUT****

CARTESIAN COORDINATES (ANGSTROEM)
---------------------------------
  C      4.265240    2.500520   -0.795890
  C      4.982240    1.650260    0.247420
  F      4.368060    1.389270    1.313710
  O      6.128920    1.233510   -0.045620
  H      4.904120    2.639660   -1.642870
  H      4.020790    3.452650   -0.373280
  H      3.367730    2.005840   -1.103560

 Total Charge           Charge          ....    0
 Multiplicity           Mult            ....    1
 Number of Electrons    NEL             ....   32
 Basis Dimension        Dim             ....  110

ORBITAL ENERGIES
----------------

  NO   OCC          E(Eh)            E(eV)
   0   2.0000     -24.498768      -666.6454
   1   2.0000     -18.908542      -514.5276
   2   2.0000     -10.175879      -276.8997
   3   2.0000     -10.030292      -272.9381
   4   2.0000      -1.226832       -33.3838
   5   2.0000      -0.957400       -26.0522
   6   2.0000      -0.712549       -19.3894
   7   2.0000      -0.600848       -16.3499
   8   2.0000      -0.497000       -13.5241
   9   2.0000      -0.491964       -13.3870
  10   2.0000      -0.452691       -12.3184
  11   2.0000      -0.406562       -11.0631
  12   2.0000      -0.395364       -10.7584
  13   2.0000      -0.356633        -9.7045
  14   2.0000      -0.321265        -8.7421
  15   2.0000      -0.250992        -6.8298
  16   0.0000      -0.064652        -1.7593
  17   0.0000       0.001586         0.0432
  18   0.0000       0.048476         1.3191
  19   0.0000       0.072834         1.9819
  20   0.0000       0.080761         2.1976

MULLIKEN ATOMIC CHARGES
-----------------------
   0 C :    0.370601
   1 C :    0.452629
   2 F :   -0.368804
   3 O :   -0.484086
   4 H :   -0.034730
   5 H :    0.031317
   6 H :    0.033071
Sum of atomic charges:    0.0000000

LOEWDIN ATOMIC CHARGES
----------------------
   0 C :    0.222314
   1 C :   -0.038946
   2 F :   -0.032920
   3 O :   -0.134253
   4 H :   -0.004653
   5 H :   -0.006511
   6 H :   -0.005030

  Mayer bond orders larger than 0.100000
B(  0-C ,  1-C ) :   1.2420 B(  0-C ,  4-H ) :   0.8983 B(  0-C ,  5-H ) :   0.8159
B(  0-C ,  6-H ) :   0.8182 B(  1-C ,  2-F ) :   0.7472 B(  1-C ,  3-O ) :   1.7781
B(  1-C ,  4-H ) :   0.2022 B(  1-C ,  5-H ) :   0.1252 B(  1-C ,  6-H ) :   0.1222

Dispersion correction           -0.004155721
FINAL SINGLE POINT ENERGY      -252.942342730472

DIPOLE MOMENT
-------------
                                X             Y             Z
Electronic contribution:      0.80164      -2.54026       4.33266
Nuclear contribution   :     -1.76261       3.13449      -4.58927
                        -----------------------------------------
Total Dipole Moment    :     -0.96096       0.59423      -0.25661
                        -----------------------------------------
Magnitude (a.u.)       :      1.15862
Magnitude (Debye)      :      2.94498

Rotational constants in cm-1:     0.370628     0.320375     0.177409
Rotational constants in MHz : 11111.155899  9604.607061  5318.597912

                             ****ORCA TERMINATED NORMALLY****
TOTAL RUN TIME: 0 days 0 hours 0 minutes 3 seconds 280 msec
