                         Program Version 5.0.0 -  RELEASE  -
|  1> !TPSS D3BJ RIJCOSX def2-SVPD def2/J TightSCF
|  2> *xyz 0 1
|  3> C          3.91385       -1.65829        3.01513
|  4> C          5.03927       -0.90115        2.49282
|  5> C          6.21038       -1.41726        2.17824
|  6> N          6.53591       -2.67712        2.55608
|  7> N          7.07675       -0.70082        1.47891
|  8> H          7.95464       -1.12155        1.20755
|  9> H          6.75616        0.10664        0.96028
| 10> H          4.84217        0.01761        2.11519
| 11> H          5.99388       -3.12692        3.28278
| 12> H          7.49844       -2.97548        2.46878
| 13> H          3.08844       -0.99893        3.18495
| 14> H          4.19412       -2.12366        3.93697
| 15> H          3.63051       -2.40965        2.30798
| 16> *
| 17> %MaxCore 64000
| 18> %pal nprocs 8
| 19> end
| 20> %scf
| 21>   MaxIter 150
| 22> end
| 23>
| 24>
| 25>                          ****END OF INPUT****

CARTESIAN COORDINATES (ANGSTROEM)
---------------------------------
  C      3.913850   -1.658290    3.015130
  C      5.039270   -0.901150    2.492820
  C      6.210380   -1.417260    2.178240
  N      6.535910   -2.677120    2.556080
  N      7.076750   -0.700820    1.478910
  H      7.954640   -1.121550    1.207550
  H      6.756160    0.106640    0.960280
  H      4.842170    0.017610    2.115190
  H      5.993880   -3.126920    3.282780
  H      7.498440   -2.975480    2.468780
  H      3.088440   -0.998930    3.184950
  H      4.194120   -2.123660    3.936970
  H      3.630510   -2.409650    2.307980

 Total Charge           Charge          ....    0
 Multiplicity           Mult            ....    1
 Number of Electrons    NEL             ....   40
 Basis Dimension        Dim             ....  164

ORBITAL ENERGIES
----------------

  NO   OCC          E(Eh)            E(eV)
   0   2.0000     -14.119876      -384.2214
   1   2.0000     -14.116224      -384.1220
   2   2.0000     -10.032325      -272.9935
   3   2.0000      -9.966627      -271.2057
   4   2.0000      -9.920599      -269.9532
   5   2.0000      -0.884809       -24.0769
   6   2.0000      -0.800827       -21.7916
   7   2.0000      -0.689449       -18.7609
   8   2.0000      -0.599194       -16.3049
   9   2.0000      -0.533072       -14.5056
  10   2.0000      -0.492499       -13.4016
  11   2.0000      -0.463330       -12.6079
  12   2.0000      -0.430208       -11.7065
  13   2.0000      -0.383497       -10.4355
  14   2.0000      -0.368433       -10.0256
  15   2.0000      -0.332841        -9.0571
  16   2.0000      -0.319119        -8.6837
  17   2.0000      -0.302141        -8.2217
  18   2.0000      -0.225495        -6.1360
  19   2.0000      -0.129046        -3.5115
  20   0.0000       0.002457         0.0669
  21   0.0000       0.030312         0.8248
  22   0.0000       0.042605         1.1594
  23   0.0000       0.054451         1.4817
  24   0.0000       0.070844         1.9278

MULLIKEN ATOMIC CHARGES
-----------------------
   0 C :    0.778341
   1 C :   -0.751493
   2 C :    0.937057
   3 N :   -0.086571
   4 N :    0.005444
   5 H :   -0.146637
   6 H :   -0.054033
   7 H :   -0.257915
   8 H :   -0.045976
   9 H :   -0.232494
  10 H :   -0.090052
  11 H :   -0.010318
  12 H :   -0.045353
Sum of atomic charges:   -0.0000000

LOEWDIN ATOMIC CHARGES
----------------------
   0 C :    0.093248
   1 C :   -0.066694
   2 C :   -0.229152
   3 N :    0.203702
   4 N :    0.175584
   5 H :   -0.013151
   6 H :    0.005601
   7 H :   -0.055814
   8 H :   -0.014227
   9 H :   -0.016791
  10 H :   -0.022648
  11 H :   -0.035555
  12 H :   -0.024104

  Mayer bond orders larger than 0.100000
B(  0-C ,  1-C ) :   1.1785 B(  0-C ,  7-H ) :   0.1917 B(  0-C , 10-H ) :   0.7820
B(  0-C , 11-H ) :   0.7116 B(  0-C , 12-H ) :   0.7528 B(  1-C ,  2-C ) :   1.5012
B(  1-C ,  3-N ) :   0.2730 B(  1-C ,  4-N ) :   0.3432 B(  1-C ,  7-H ) :   1.0508
B(  1-C , 10-H ) :   0.2682 B(  1-C , 11-H ) :   0.2798 B(  1-C , 12-H ) :   0.1720
B(  2-C ,  3-N ) :   0.8554 B(  2-C ,  4-N ) :   0.8214 B(  2-C ,  6-H ) :  -0.1005
B(  2-C ,  7-H ) :   0.1282 B(  2-C ,  9-H ) :  -0.1431 B(  3-N ,  4-N ) :   0.1093
B(  3-N ,  8-H ) :   1.0498 B(  3-N ,  9-H ) :   1.2951 B(  4-N ,  5-H ) :   1.1429
B(  4-N ,  6-H ) :   1.1649 B(  5-H ,  6-H ) :  -0.1412 B(  8-H ,  9-H ) :  -0.1512
B( 10-H , 11-H ) :   0.1055

Dispersion correction           -0.011689938
FINAL SINGLE POINT ENERGY      -228.494076672596

DIPOLE MOMENT
-------------
                                X             Y             Z
Electronic contribution:      2.97736       0.37407      -1.01775
Nuclear contribution   :     -2.16157      -0.63191       0.72436
                        -----------------------------------------
Total Dipole Moment    :      0.81580      -0.25784      -0.29339
                        -----------------------------------------
Magnitude (a.u.)       :      0.90448
Magnitude (Debye)      :      2.29901

Rotational constants in cm-1:     0.318470     0.135474     0.097247
Rotational constants in MHz :  9547.495553  4061.405016  2915.385882

                             ****ORCA TERMINATED NORMALLY****
TOTAL RUN TIME: 0 days 0 hours 0 minutes 6 seconds 247 msec
