                         Program Version 5.0.0 -  RELEASE  -
|  1> !TPSS D3BJ RIJCOSX def2-SVPD def2/J TightSCF
|  2> *xyz 0 1
|  3> C          4.26524        2.50052       -0.79589
|  4> C          4.98224        1.65026        0.24742
|  5> O          4.36806        1.38927        1.31371
|  6> F          6.12892        1.23351       -0.04562
|  7> H          4.90412        2.63966       -1.64287
|  8> H          4.02079        3.45265       -0.37328
|  9> H          3.36773        2.00584       -1.10356
| 10> *
| 11> %MaxCore 64000
| 12> %pal nprocs 8
| 13> end
| 14> %scf
| 15>   MaxIter 150
| 16> end
| 17>
| 18>
| 19>                          ****END OF INPUT****

CARTESIAN COORDINATES (ANGSTROEM)
---------------------------------
  C      4.265240    2.500520   -0.795890
  C      4.982240    1.650260    0.247420
  O      4.368060    1.389270    1.313710
  F      6.128920    1.233510   -0.045620
  H      4.904120    2.639660   -1.642870
  H      4.020790    3.452650   -0.373280
  H      3.367730    2.005840   -1.103560

 Total Charge           Charge          ....    0
 Multiplicity           Mult            ....    1
 Number of Electrons    NEL             ....   32
 Basis Dimension        Dim             ....  110

ORBITAL ENERGIES
----------------

  NO   OCC          E(Eh)            E(eV)
   0   2.0000     -24.499336      -666.6608
   1   2.0000     -18.908403      -514.5238
   2   2.0000     -10.176395      -276.9138
   3   2.0000     -10.030527      -272.9445
   4   2.0000      -1.228984       -33.4424
   5   2.0000      -0.955432       -25.9986
   6   2.0000      -0.713017       -19.4022
   7   2.0000      -0.601949       -16.3799
   8   2.0000      -0.497624       -13.5410
   9   2.0000      -0.493095       -13.4178
  10   2.0000      -0.453701       -12.3458
  11   2.0000      -0.407550       -11.0900
  12   2.0000      -0.394401       -10.7322
  13   2.0000      -0.356286        -9.6950
  14   2.0000      -0.317565        -8.6414
  15   2.0000      -0.252706        -6.8765
  16   0.0000      -0.067540        -1.8379
  17   0.0000       0.001490         0.0406
  18   0.0000       0.048537         1.3208
  19   0.0000       0.074547         2.0285
  20   0.0000       0.076977         2.0947

MULLIKEN ATOMIC CHARGES
-----------------------
   0 C :    0.357878
   1 C :    0.438695
   2 O :   -0.506171
   3 F :   -0.344057
   4 H :   -0.016701
   5 H :    0.034036
   6 H :    0.036319
Sum of atomic charges:    0.0000000

LOEWDIN ATOMIC CHARGES
----------------------
   0 C :    0.223054
   1 C :   -0.037988
   2 O :   -0.135934
   3 F :   -0.032720
   4 H :   -0.018227
   5 H :    0.000546
   6 H :    0.001269

  Mayer bond orders larger than 0.100000
B(  0-C ,  1-C ) :   1.2582 B(  0-C ,  4-H ) :   0.8921 B(  0-C ,  5-H ) :   0.8149
B(  0-C ,  6-H ) :   0.8190 B(  1-C ,  2-O ) :   1.7582 B(  1-C ,  3-F ) :   0.7892
B(  1-C ,  4-H ) :   0.1506 B(  1-C ,  5-H ) :   0.1408 B(  1-C ,  6-H ) :   0.1346

Dispersion correction           -0.004155590
FINAL SINGLE POINT ENERGY      -252.941464277350

DIPOLE MOMENT
-------------
                                X             Y             Z
Electronic contribution:      3.64106      -2.79219       2.14309
Nuclear contribution   :     -3.58210       3.29544      -3.18468
                        -----------------------------------------
Total Dipole Moment    :      0.05896       0.50325      -1.04159
                        -----------------------------------------
Magnitude (a.u.)       :      1.15830
Magnitude (Debye)      :      2.94415

Rotational constants in cm-1:     0.368075     0.322590     0.177495
Rotational constants in MHz : 11034.605942  9670.991558  5321.154504

                             ****ORCA TERMINATED NORMALLY****
TOTAL RUN TIME: 0 days 0 hours 0 minutes 3 seconds 491 msec
