                         Program Version 5.0.0 -  RELEASE  -
|  1> !TPSS D3BJ RIJCOSX def2-SVPD def2/J TightSCF
|  2> *xyz 0 1
|  3> C          3.91385       -1.65829        3.01513
|  4> N          5.03927       -0.90115        2.49282
|  5> C          6.21038       -1.41726        2.17824
|  6> C          6.53591       -2.67712        2.55608
|  7> N          7.07675       -0.70082        1.47891
|  8> H          7.95464       -1.12155        1.20755
|  9> H          6.75616        0.10664        0.96028
| 10> H          4.84217        0.01761        2.11519
| 11> H          5.99388       -3.12692        3.28278
| 12> H          7.49844       -2.97548        2.46878
| 13> H          3.08844       -0.99893        3.18495
| 14> H          4.19412       -2.12366        3.93697
| 15> H          3.63051       -2.40965        2.30798
| 16> *
| 17> %MaxCore 64000
| 18> %pal nprocs 8
| 19> end
| 20> %scf
| 21>   MaxIter 150
| 22> end
| 23>
| 24>
| 25>                          ****END OF INPUT****

CARTESIAN COORDINATES (ANGSTROEM)
---------------------------------
  C      3.913850   -1.658290    3.015130
  N      5.039270   -0.901150    2.492820
  C      6.210380   -1.417260    2.178240
  C      6.535910   -2.677120    2.556080
  N      7.076750   -0.700820    1.478910
  H      7.954640   -1.121550    1.207550
  H      6.756160    0.106640    0.960280
  H      4.842170    0.017610    2.115190
  H      5.993880   -3.126920    3.282780
  H      7.498440   -2.975480    2.468780
  H      3.088440   -0.998930    3.184950
  H      4.194120   -2.123660    3.936970
  H      3.630510   -2.409650    2.307980

 Total Charge           Charge          ....    0
 Multiplicity           Mult            ....    1
 Number of Electrons    NEL             ....   40
 Basis Dimension        Dim             ....  164

ORBITAL ENERGIES
----------------

  NO   OCC          E(Eh)            E(eV)
   0   2.0000     -14.123088      -384.3088
   1   2.0000     -14.119943      -384.2232
   2   2.0000     -10.039394      -273.1858
   3   2.0000     -10.027775      -272.8696
   4   2.0000      -9.914533      -269.7882
   5   2.0000      -0.898002       -24.4359
   6   2.0000      -0.818305       -22.2672
   7   2.0000      -0.659170       -17.9369
   8   2.0000      -0.636416       -17.3178
   9   2.0000      -0.521738       -14.1972
  10   2.0000      -0.503874       -13.7111
  11   2.0000      -0.476358       -12.9624
  12   2.0000      -0.408971       -11.1287
  13   2.0000      -0.406266       -11.0551
  14   2.0000      -0.375634       -10.2215
  15   2.0000      -0.344839        -9.3835
  16   2.0000      -0.332607        -9.0507
  17   2.0000      -0.323390        -8.7999
  18   2.0000      -0.213557        -5.8112
  19   2.0000      -0.135314        -3.6821
  20   0.0000       0.001783         0.0485
  21   0.0000       0.026259         0.7145
  22   0.0000       0.040875         1.1123
  23   0.0000       0.050938         1.3861
  24   0.0000       0.070707         1.9240

MULLIKEN ATOMIC CHARGES
-----------------------
   0 C :    1.009555
   1 N :   -0.496939
   2 C :    0.674130
   3 C :    0.319075
   4 N :   -0.037513
   5 H :   -0.033593
   6 H :   -0.154032
   7 H :   -0.355644
   8 H :   -0.108336
   9 H :   -0.493878
  10 H :   -0.353421
  11 H :    0.055772
  12 H :   -0.025177
Sum of atomic charges:   -0.0000000

LOEWDIN ATOMIC CHARGES
----------------------
   0 C :    0.217079
   1 N :   -0.050683
   2 C :   -0.243769
   3 C :    0.163381
   4 N :    0.181039
   5 H :    0.007036
   6 H :   -0.010208
   7 H :    0.015855
   8 H :   -0.120613
   9 H :   -0.109855
  10 H :   -0.016749
  11 H :   -0.018943
  12 H :   -0.013571

  Mayer bond orders larger than 0.100000
B(  0-C ,  1-N ) :   0.9339 B(  0-C ,  7-H ) :  -0.1276 B(  0-C , 10-H ) :   0.8746
B(  0-C , 11-H ) :   0.8111 B(  0-C , 12-H ) :   0.8326 B(  1-N ,  2-C ) :   0.9953
B(  1-N ,  3-C ) :   0.3562 B(  1-N ,  4-N ) :   0.1564 B(  1-N ,  7-H ) :   1.3828
B(  1-N , 10-H ) :   0.1574 B(  1-N , 11-H ) :   0.1111 B(  1-N , 12-H ) :   0.1543
B(  2-C ,  3-C ) :   1.6519 B(  2-C ,  4-N ) :   0.8526 B(  2-C ,  7-H ) :  -0.2397
B(  2-C ,  8-H ) :   0.2540 B(  2-C ,  9-H ) :   0.1817 B(  3-C ,  4-N ) :   0.2512
B(  3-C ,  8-H ) :   0.7371 B(  3-C ,  9-H ) :   0.8836 B(  4-N ,  5-H ) :   1.1331
B(  4-N ,  6-H ) :   1.2151 B(  5-H ,  6-H ) :  -0.1415 B(  8-H ,  9-H ) :   0.1166

Dispersion correction           -0.011670060
FINAL SINGLE POINT ENERGY      -228.486668807986

DIPOLE MOMENT
-------------
                                X             Y             Z
Electronic contribution:      1.49477       1.98762      -1.14207
Nuclear contribution   :     -1.85843      -0.99162       0.73717
                        -----------------------------------------
Total Dipole Moment    :     -0.36366       0.99600      -0.40489
                        -----------------------------------------
Magnitude (a.u.)       :      1.13499
Magnitude (Debye)      :      2.88490

Rotational constants in cm-1:     0.336495     0.135025     0.098658
Rotational constants in MHz : 10087.870488  4047.943278  2957.678786

                             ****ORCA TERMINATED NORMALLY****
TOTAL RUN TIME: 0 days 0 hours 0 minutes 6 seconds 256 msec
