                         Program Version 5.0.0 -  RELEASE  -
|  1> !TPSS D3BJ RIJCOSX def2-SVPD def2/J TightSCF
|  2> *xyz 0 1
|  3> C          3.91385       -1.65829        3.01513
|  4> N          5.03927       -0.90115        2.49282
|  5> C          6.21038       -1.41726        2.17824
|  6> N          6.53591       -2.67712        2.55608
|  7> C          7.07675       -0.70082        1.47891
|  8> H          7.95464       -1.12155        1.20755
|  9> H          6.75616        0.10664        0.96028
| 10> H          4.84217        0.01761        2.11519
| 11> H          5.99388       -3.12692        3.28278
| 12> H          7.49844       -2.97548        2.46878
| 13> H          3.08844       -0.99893        3.18495
| 14> H          4.19412       -2.12366        3.93697
| 15> H          3.63051       -2.40965        2.30798
| 16> *
| 17> %MaxCore 64000
| 18> %pal nprocs 8
| 19> end
| 20> %scf
| 21>   MaxIter 150
| 22> end
| 23>
| 24>
| 25>                          ****END OF INPUT****

CARTESIAN COORDINATES (ANGSTROEM)
---------------------------------
  C      3.913850   -1.658290    3.015130
  N      5.039270   -0.901150    2.492820
  C      6.210380   -1.417260    2.178240
  N      6.535910   -2.677120    2.556080
  C      7.076750   -0.700820    1.478910
  H      7.954640   -1.121550    1.207550
  H      6.756160    0.106640    0.960280
  H      4.842170    0.017610    2.115190
  H      5.993880   -3.126920    3.282780
  H      7.498440   -2.975480    2.468780
  H      3.088440   -0.998930    3.184950
  H      4.194120   -2.123660    3.936970
  H      3.630510   -2.409650    2.307980

 Total Charge           Charge          ....    0
 Multiplicity           Mult            ....    1
 Number of Electrons    NEL             ....   40
 Basis Dimension        Dim             ....  164

ORBITAL ENERGIES
----------------

  NO   OCC          E(Eh)            E(eV)
   0   2.0000     -14.118665      -384.1884
   1   2.0000     -14.118610      -384.1869
   2   2.0000     -10.036899      -273.1179
   3   2.0000     -10.035331      -273.0752
   4   2.0000      -9.910827      -269.6873
   5   2.0000      -0.893055       -24.3013
   6   2.0000      -0.812060       -22.0973
   7   2.0000      -0.683055       -18.5869
   8   2.0000      -0.610153       -16.6031
   9   2.0000      -0.550557       -14.9814
  10   2.0000      -0.486829       -13.2473
  11   2.0000      -0.448775       -12.2118
  12   2.0000      -0.433744       -11.8028
  13   2.0000      -0.414343       -11.2748
  14   2.0000      -0.369887       -10.0651
  15   2.0000      -0.349887        -9.5209
  16   2.0000      -0.339626        -9.2417
  17   2.0000      -0.319404        -8.6914
  18   2.0000      -0.218102        -5.9349
  19   2.0000      -0.131523        -3.5789
  20   0.0000       0.001078         0.0293
  21   0.0000       0.034277         0.9327
  22   0.0000       0.036885         1.0037
  23   0.0000       0.048745         1.3264
  24   0.0000       0.071616         1.9488

MULLIKEN ATOMIC CHARGES
-----------------------
   0 C :    1.029630
   1 N :   -0.493457
   2 C :    0.823273
   3 N :   -0.024193
   4 C :    0.201737
   5 H :   -0.301948
   6 H :   -0.272274
   7 H :   -0.261725
   8 H :   -0.158232
   9 H :   -0.091158
  10 H :   -0.325193
  11 H :   -0.086472
  12 H :   -0.039989
Sum of atomic charges:    0.0000000

LOEWDIN ATOMIC CHARGES
----------------------
   0 C :    0.209891
   1 N :   -0.045742
   2 C :   -0.237307
   3 N :    0.200993
   4 C :    0.137941
   5 H :   -0.104386
   6 H :   -0.102729
   7 H :    0.031222
   8 H :   -0.028758
   9 H :    0.002151
  10 H :   -0.015243
  11 H :   -0.027912
  12 H :   -0.020122

  Mayer bond orders larger than 0.100000
B(  0-C ,  1-N ) :   0.9509 B(  0-C ,  7-H ) :  -0.1171 B(  0-C , 10-H ) :   0.8401
B(  0-C , 11-H ) :   0.8240 B(  0-C , 12-H ) :   0.8355 B(  1-N ,  2-C ) :   1.0262
B(  1-N ,  3-N ) :   0.1706 B(  1-N ,  4-C ) :   0.2457 B(  1-N ,  7-H ) :   1.2632
B(  1-N , 10-H ) :   0.1665 B(  1-N , 11-H ) :   0.1790 B(  1-N , 12-H ) :   0.1523
B(  2-C ,  3-N ) :   0.8647 B(  2-C ,  4-C ) :   1.4068 B(  2-C ,  5-H ) :   0.1558
B(  2-C ,  7-H ) :  -0.1760 B(  3-N ,  4-C ) :   0.2283 B(  3-N ,  8-H ) :   1.1073
B(  3-N ,  9-H ) :   1.1706 B(  4-C ,  5-H ) :   0.8292 B(  4-C ,  6-H ) :   0.8996
B(  5-H ,  6-H ) :   0.1192 B(  8-H ,  9-H ) :  -0.1576

Dispersion correction           -0.011615629
FINAL SINGLE POINT ENERGY      -228.484785334502

DIPOLE MOMENT
-------------
                                X             Y             Z
Electronic contribution:      0.96791       0.11793       0.00869
Nuclear contribution   :     -1.74889      -0.59133       0.51900
                        -----------------------------------------
Total Dipole Moment    :     -0.78098      -0.47340       0.52769
                        -----------------------------------------
Magnitude (a.u.)       :      1.05475
Magnitude (Debye)      :      2.68096

Rotational constants in cm-1:     0.319878     0.140238     0.099847
Rotational constants in MHz :  9589.703832  4204.215525  2993.343846

                             ****ORCA TERMINATED NORMALLY****
TOTAL RUN TIME: 0 days 0 hours 0 minutes 5 seconds 955 msec
