                         Program Version 5.0.0 -  RELEASE  -
|  1> !TPSS D3BJ RIJCOSX def2-SVPD def2/J TightSCF xyzfile
|  2>
|  3> *xyzfile 0 1 D4.xyz
|  4>
|  5> %MaxCore 64000
|  6>
|  7> %pal nprocs 4
|  8> end
|  9>
| 10> %scf
| 11>   MaxIter 150
| 12> end
| 13>
| 14>
| 15>                          ****END OF INPUT****

CARTESIAN COORDINATES (ANGSTROEM)
---------------------------------
  C      3.913853   -1.658291    3.015134
  C      5.039266   -0.901154    2.492821
  C      4.084215    1.742081   -2.114724
  C      4.265245    2.500518   -0.795890
  H      4.868534    3.392674   -0.981134
  H      3.307640    2.824571   -0.387809
  C      4.982240    1.650257    0.247422
  C      6.210384   -1.417261    2.178244
  N      6.535913   -2.677122    2.556078
  N      7.076754   -0.700820    1.478906
  H      7.954643   -1.121554    1.207554
  H      6.756161    0.106637    0.960278
  H      4.842168    0.017609    2.115191
  H      5.993876   -3.126918    3.282784
  H      7.498441   -2.975482    2.468776
  O      4.368065    1.389270    1.313706
  F      6.128919    1.233512   -0.045620
  C      3.139159   -2.376572    1.910609
  H      3.267235   -0.939401    3.520693
  H      4.247195   -2.355095    3.790065
  C      1.997274    0.430918   -1.399218
  C      3.412746    0.376886   -1.965497
  H      4.047407   -0.246590   -1.326706
  H      3.390774   -0.118719   -2.942839
  H      5.068475    1.598504   -2.565728
  H      3.503356    2.363939   -2.804565
  C      2.399946   -1.389579    1.009490
  H      2.440750   -3.087118    2.362976
  H      3.844475   -2.970462    1.318677
  C      2.070177   -1.936705   -0.372401
  H      1.481611   -1.061542    1.509912
  H      3.008628   -0.490001    0.897451
  C      1.322238   -0.935775   -1.256413
  H      1.472747   -2.850902   -0.283997
  H      3.003539   -2.234041   -0.862535
  H      1.376444    1.058920   -2.047420
  H      2.015341    0.929780   -0.426535
  H      0.316648   -0.787213   -0.848278
  H      1.185611   -1.379252   -2.248613

 Total Charge           Charge          ....    0
 Multiplicity           Mult            ....    1
 Number of Electrons    NEL             ....  126
 Basis Dimension        Dim             ....  510

ORBITAL ENERGIES
----------------

  NO   OCC          E(Eh)            E(eV)
   0   2.0000     -24.522430      -667.2892
   1   2.0000     -18.917402      -514.7687
   2   2.0000     -14.104745      -383.8096
   3   2.0000     -14.095210      -383.5502
   4   2.0000     -10.182256      -277.0733
   5   2.0000     -10.036331      -273.1024
   6   2.0000     -10.021327      -272.6942
   7   2.0000     -10.015879      -272.5459
   8   2.0000     -10.005129      -272.2534
   9   2.0000      -9.995110      -271.9808
  10   2.0000      -9.989145      -271.8184
  11   2.0000      -9.980862      -271.5931
  12   2.0000      -9.970237      -271.3039
  13   2.0000      -9.965720      -271.1810
  14   2.0000      -9.960066      -271.0272
  15   2.0000      -9.890047      -269.1219
  16   2.0000      -1.253251       -34.1027
  17   2.0000      -0.969649       -26.3855
  18   2.0000      -0.869009       -23.6469
  19   2.0000      -0.786311       -21.3966
  20   2.0000      -0.766883       -20.8680
  21   2.0000      -0.734555       -19.9883
  22   2.0000      -0.707012       -19.2388
  23   2.0000      -0.679640       -18.4939
  24   2.0000      -0.648463       -17.6456
  25   2.0000      -0.625930       -17.0324
  26   2.0000      -0.609875       -16.5955
  27   2.0000      -0.577081       -15.7032
  28   2.0000      -0.551187       -14.9986
  29   2.0000      -0.536428       -14.5969
  30   2.0000      -0.519198       -14.1281
  31   2.0000      -0.516466       -14.0538
  32   2.0000      -0.502025       -13.6608
  33   2.0000      -0.490509       -13.3474
  34   2.0000      -0.483207       -13.1487
  35   2.0000      -0.465228       -12.6595
  36   2.0000      -0.440714       -11.9924
  37   2.0000      -0.436961       -11.8903
  38   2.0000      -0.434990       -11.8367
  39   2.0000      -0.414999       -11.2927
  40   2.0000      -0.407281       -11.0827
  41   2.0000      -0.395817       -10.7707
  42   2.0000      -0.384968       -10.4755
  43   2.0000      -0.369714       -10.0604
  44   2.0000      -0.368564       -10.0291
  45   2.0000      -0.361497        -9.8368
  46   2.0000      -0.352810        -9.6004
  47   2.0000      -0.345173        -9.3926
  48   2.0000      -0.338709        -9.2167
  49   2.0000      -0.332524        -9.0484
  50   2.0000      -0.323645        -8.8068
  51   2.0000      -0.321980        -8.7615
  52   2.0000      -0.304696        -8.2912
  53   2.0000      -0.298726        -8.1287
  54   2.0000      -0.296285        -8.0623
  55   2.0000      -0.289244        -7.8707
  56   2.0000      -0.275067        -7.4850
  57   2.0000      -0.267220        -7.2714
  58   2.0000      -0.263168        -7.1612
  59   2.0000      -0.259360        -7.0575
  60   2.0000      -0.225794        -6.1442
  61   2.0000      -0.210444        -5.7265
  62   2.0000      -0.112885        -3.0718
  63   0.0000      -0.077297        -2.1034
  64   0.0000      -0.002353        -0.0640
  65   0.0000       0.013844         0.3767
  66   0.0000       0.022086         0.6010
  67   0.0000       0.023551         0.6409

MULLIKEN ATOMIC CHARGES
-----------------------
   0 C :    0.540496
   1 C :   -0.045097
   2 C :    0.355186
   3 C :    0.242831
   4 H :   -0.079858
   5 H :    0.155000
   6 C :    0.634786
   7 C :    0.805834
   8 N :   -0.065342
   9 N :    0.320573
  10 H :   -0.183179
  11 H :   -0.298793
  12 H :   -0.448800
  13 H :   -0.027251
  14 H :   -0.284199
  15 O :   -0.615898
  16 F :   -0.477293
  17 C :    0.318173
  18 H :    0.034056
  19 H :   -0.227686
  20 C :   -0.176950
  21 C :   -0.141879
  22 H :    0.011271
  23 H :   -0.134840
  24 H :    0.014820
  25 H :   -0.091871
  26 C :    0.570504
  27 H :   -0.065212
  28 H :   -0.039920
  29 C :   -0.068747
  30 H :    0.067739
  31 H :   -0.926362
  32 C :    0.644394
  33 H :   -0.387206
  34 H :    0.167550
  35 H :   -0.385670
  36 H :    0.227778
  37 H :    0.046592
  38 H :    0.014472
Sum of atomic charges:   -0.0000000

LOEWDIN ATOMIC CHARGES
----------------------
   0 C :   -0.037262
   1 C :   -0.007883
   2 C :   -0.013036
   3 C :    0.069067
   4 H :    0.033090
   5 H :    0.029082
   6 C :    0.040532
   7 C :   -0.197944
   8 N :    0.202024
   9 N :    0.203823
  10 H :   -0.010828
  11 H :   -0.080312
  12 H :   -0.138734
  13 H :   -0.019934
  14 H :   -0.020867
  15 O :   -0.106484
  16 F :   -0.016748
  17 C :   -0.019454
  18 H :    0.016320
  19 H :   -0.007644
  20 C :   -0.023667
  21 C :   -0.020429
  22 H :    0.011058
  23 H :    0.027318
  24 H :    0.019339
  25 H :    0.024620
  26 C :   -0.020395
  27 H :    0.010923
  28 H :    0.013766
  29 C :   -0.032518
  30 H :    0.031491
  31 H :   -0.025570
  32 C :   -0.023768
  33 H :    0.018909
  34 H :    0.012428
  35 H :    0.020161
  36 H :    0.005636
  37 H :    0.018695
  38 H :    0.015193

  Mayer bond orders larger than 0.100000
B(  0-C ,  1-C ) :   0.9330 B(  0-C ,  7-C ) :   0.1004 B(  0-C , 12-H ) :   0.7317
B(  0-C , 17-C ) :   1.0150 B(  0-C , 18-H ) :   0.7077 B(  0-C , 19-H ) :   0.6376
B(  0-C , 28-H ) :   0.1115 B(  1-C ,  7-C ) :   1.7964 B(  1-C ,  8-N ) :   0.2936
B(  1-C ,  9-N ) :   0.2773 B(  1-C , 13-H ) :  -0.1365 B(  1-C , 18-H ) :   0.2786
B(  1-C , 19-H ) :   0.3140 B(  2-C ,  3-C ) :   1.1633 B(  2-C ,  4-H ) :   0.1636
B(  2-C , 21-C ) :   1.2383 B(  2-C , 24-H ) :   0.6941 B(  2-C , 25-H ) :   0.8435
B(  3-C ,  4-H ) :   0.6792 B(  3-C ,  5-H ) :   0.7828 B(  3-C ,  6-C ) :   1.1641
B(  3-C , 24-H ) :   0.1058 B(  3-C , 25-H ) :   0.1424 B(  4-H ,  6-C ) :   0.2501
B(  5-H ,  6-C ) :   0.1699 B(  6-C , 15-O ) :   1.7489 B(  6-C , 16-F ) :   0.4617
B(  7-C ,  8-N ) :   0.7424 B(  7-C ,  9-N ) :   0.7588 B(  7-C , 11-H ) :  -0.2610
B(  7-C , 12-H ) :   0.2722 B(  7-C , 14-H ) :  -0.1942 B(  7-C , 19-H ) :  -0.1062
B(  8-N ,  9-N ) :   0.1090 B(  8-N , 13-H ) :   1.0213 B(  8-N , 14-H ) :   1.3441
B(  9-N , 10-H ) :   1.1859 B(  9-N , 11-H ) :   1.1749 B( 10-H , 11-H ) :  -0.1924
B( 13-H , 14-H ) :  -0.1850 B( 15-O , 16-F ) :   0.1386 B( 17-C , 19-H ) :   0.1008
B( 17-C , 26-C ) :   1.1284 B( 17-C , 27-H ) :   0.8584 B( 17-C , 28-H ) :   0.9100
B( 17-C , 30-H ) :   0.1520 B( 18-H , 19-H ) :  -0.1085 B( 20-C , 21-C ) :   1.2391
B( 20-C , 22-H ) :   0.1143 B( 20-C , 23-H ) :   0.1412 B( 20-C , 29-C ) :   0.1227
B( 20-C , 32-C ) :   1.1403 B( 20-C , 35-H ) :   1.0745 B( 20-C , 36-H ) :   0.8027
B( 20-C , 37-H ) :   0.2497 B( 20-C , 38-H ) :   0.1303 B( 21-C , 22-H ) :   0.9051
B( 21-C , 23-H ) :   0.8991 B( 21-C , 24-H ) :   0.2253 B( 21-C , 25-H ) :   0.1587
B( 21-C , 35-H ) :   0.1087 B( 21-C , 36-H ) :   0.1022 B( 24-H , 25-H ) :  -0.1008
B( 26-C , 27-H ) :   0.1755 B( 26-C , 28-H ) :   0.1179 B( 26-C , 29-C ) :   1.2351
B( 26-C , 30-H ) :   0.6226 B( 26-C , 31-H ) :   0.3517 B( 26-C , 33-H ) :   0.1195
B( 26-C , 34-H ) :   0.1229 B( 28-H , 33-H ) :  -0.1000 B( 29-C , 31-H ) :   0.1520
B( 29-C , 32-C ) :   1.1110 B( 29-C , 33-H ) :   1.0559 B( 29-C , 34-H ) :   0.8276
B( 29-C , 37-H ) :   0.1179 B( 29-C , 38-H ) :   0.2222 B( 30-H , 31-H ) :   0.2664
B( 32-C , 37-H ) :   0.6821 B( 32-C , 38-H ) :   0.6871

Dispersion correction           -0.055727955
FINAL SINGLE POINT ENERGY      -755.302380899487

DIPOLE MOMENT
-------------
                                X             Y             Z
Electronic contribution:     14.30472       8.71790       3.74105
Nuclear contribution   :    -13.61164      -8.17416      -5.14068
                        -----------------------------------------
Total Dipole Moment    :      0.69308       0.54374      -1.39962
                        -----------------------------------------
Magnitude (a.u.)       :      1.65377
Magnitude (Debye)      :      4.20355

Rotational constants in cm-1:     0.019858     0.013613     0.009401
Rotational constants in MHz :   595.331791   408.100423   281.843625

                             ****ORCA TERMINATED NORMALLY****
TOTAL RUN TIME: 0 days 0 hours 1 minutes 42 seconds 317 msec
