                         Program Version 5.0.0 -  RELEASE  -
|  1> !M062X D3Zero RIJCOSX def2-TZVP def2/J TightSCF
|  2> *xyz -1 1
|  3> C         -7.33044       -2.67899       -3.20681
|  4> S         -6.01966       -2.92697       -4.41913
|  5> O         -5.64583       -1.58838       -4.91931
|  6> O         -4.88196       -3.50370       -3.66724
|  7> O         -6.54927       -3.80515       -5.42507
|  8> C         -7.46900       -1.24615       -2.71383
|  9> H         -7.11825       -3.37982       -2.39805
| 10> H         -8.24184       -3.00474       -3.70651
| 11> H         -7.67580       -0.60214       -3.54292
| 12> H         -6.55749       -0.94096       -2.24382
| 13> H         -8.27114       -1.18777       -2.00810
| 14> *
| 15> %MaxCore 64000
| 16>
| 17> %pal nprocs 4
| 18> end
| 19>
| 20> %scf
| 21>   MaxIter 150
| 22> end
| 23>
| 24>
| 25>                          ****END OF INPUT****

CARTESIAN COORDINATES (ANGSTROEM)
---------------------------------
  C     -7.330440   -2.678990   -3.206810
  S     -6.019660   -2.926970   -4.419130
  O     -5.645830   -1.588380   -4.919310
  O     -4.881960   -3.503700   -3.667240
  O     -6.549270   -3.805150   -5.425070
  C     -7.469000   -1.246150   -2.713830
  H     -7.118250   -3.379820   -2.398050
  H     -8.241840   -3.004740   -3.706510
  H     -7.675800   -0.602140   -3.542920
  H     -6.557490   -0.940960   -2.243820
  H     -8.271140   -1.187770   -2.008100

 Total Charge           Charge          ....   -1
 Multiplicity           Mult            ....    1
 Number of Electrons    NEL             ....   58
 Basis Dimension        Dim             ....  222

ORBITAL ENERGIES
----------------

  NO   OCC          E(Eh)            E(eV)
   0   2.0000     -89.884883     -2445.8920
   1   2.0000     -19.402369      -527.9653
   2   2.0000     -19.391723      -527.6756
   3   2.0000     -19.387688      -527.5658
   4   2.0000     -10.396066      -282.8913
   5   2.0000     -10.389258      -282.7061
   6   2.0000      -8.209359      -223.3880
   7   2.0000      -6.131979      -166.8596
   8   2.0000      -6.130852      -166.8290
   9   2.0000      -6.130704      -166.8249
  10   2.0000      -1.037417       -28.2296
  11   2.0000      -0.903470       -24.5847
  12   2.0000      -0.880462       -23.9586
  13   2.0000      -0.730843       -19.8872
  14   2.0000      -0.595088       -16.1932
  15   2.0000      -0.464361       -12.6359
  16   2.0000      -0.390637       -10.6298
  17   2.0000      -0.388763       -10.5788
  18   2.0000      -0.347158        -9.4466
  19   2.0000      -0.332281        -9.0418
  20   2.0000      -0.325802        -8.8655
  21   2.0000      -0.291199        -7.9239
  22   2.0000      -0.283058        -7.7024
  23   2.0000      -0.219258        -5.9663
  24   2.0000      -0.218566        -5.9475
  25   2.0000      -0.180699        -4.9171
  26   2.0000      -0.170285        -4.6337
  27   2.0000      -0.165539        -4.5045
  28   2.0000      -0.130525        -3.5518
  29   0.0000       0.203540         5.5386
  30   0.0000       0.249452         6.7879
  31   0.0000       0.261143         7.1061
  32   0.0000       0.267166         7.2700
  33   0.0000       0.290672         7.9096

MULLIKEN ATOMIC CHARGES
-----------------------
   0 C :   -0.313282
   1 S :    0.911088
   2 O :   -0.612565
   3 O :   -0.619396
   4 O :   -0.579889
   5 C :   -0.388987
   6 H :    0.123255
   7 H :    0.118660
   8 H :    0.137047
   9 H :    0.134336
  10 H :    0.089734
Sum of atomic charges:   -1.0000000

LOEWDIN ATOMIC CHARGES
----------------------
   0 C :   -0.427952
   1 S :    0.446449
   2 O :   -0.424390
   3 O :   -0.441191
   4 O :   -0.382039
   5 C :   -0.345298
   6 H :    0.121723
   7 H :    0.119418
   8 H :    0.116440
   9 H :    0.116946
  10 H :    0.099894

  Mayer bond orders larger than 0.100000
B(  0-C ,  1-S ) :   0.8810 B(  0-C ,  5-C ) :   0.9318 B(  0-C ,  6-H ) :   0.9647
B(  0-C ,  7-H ) :   0.9612 B(  1-S ,  2-O ) :   1.7204 B(  1-S ,  3-O ) :   1.7384
B(  1-S ,  4-O ) :   1.7918 B(  5-C ,  8-H ) :   0.9742 B(  5-C ,  9-H ) :   0.9761
B(  5-C , 10-H ) :   0.9649

Dispersion correction           -0.000149823
FINAL SINGLE POINT ENERGY      -703.152236713757

DIPOLE MOMENT
-------------
                                X             Y             Z
Electronic contribution:      4.67051      -3.52185      -5.09327
Nuclear contribution   :     -6.18165       4.01759       6.33106
                        -----------------------------------------
Total Dipole Moment    :     -1.51114       0.49574       1.23779
                        -----------------------------------------
Magnitude (a.u.)       :      2.01530
Magnitude (Debye)      :      5.12248

Rotational constants in cm-1:     0.161711     0.082788     0.081165
Rotational constants in MHz :  4847.971521  2481.906910  2433.276832

                             ****ORCA TERMINATED NORMALLY****
TOTAL RUN TIME: 0 days 0 hours 0 minutes 29 seconds 673 msec
