                         Program Version 5.0.0 -  RELEASE  -
|  1> !M062X D3Zero RIJCOSX def2-TZVP def2/J TightSCF
|  2> *xyz 1 1
|  3> C         -2.16038       -1.36949       -3.46710
|  4> N         -3.03011       -1.91086       -4.54107
|  5> C         -2.04772        0.14658       -3.51177
|  6> H         -3.47744       -2.79151       -4.25710
|  7> H         -2.53801       -2.01786       -5.43808
|  8> H         -3.89159       -1.37604       -4.71437
|  9> H         -1.18444       -1.84400       -3.56639
| 10> H         -2.59819       -1.70838       -2.52848
| 11> H         -1.61525        0.44478       -4.44395
| 12> H         -1.42718        0.48198       -2.70720
| 13> H         -3.02145        0.57958       -3.41560
| 14> *
| 15> %MaxCore 64000
| 16>
| 17> %pal nprocs 4
| 18> end
| 19>
| 20> %scf
| 21>   MaxIter 150
| 22> end
| 23>
| 24>
| 25>                          ****END OF INPUT****

CARTESIAN COORDINATES (ANGSTROEM)
---------------------------------
  C     -2.160380   -1.369490   -3.467100
  N     -3.030110   -1.910860   -4.541070
  C     -2.047720    0.146580   -3.511770
  H     -3.477440   -2.791510   -4.257100
  H     -2.538010   -2.017860   -5.438080
  H     -3.891590   -1.376040   -4.714370
  H     -1.184440   -1.844000   -3.566390
  H     -2.598190   -1.708380   -2.528480
  H     -1.615250    0.444780   -4.443950
  H     -1.427180    0.481980   -2.707200
  H     -3.021450    0.579580   -3.415600

 Total Charge           Charge          ....    1
 Multiplicity           Mult            ....    1
 Number of Electrons    NEL             ....   26
 Basis Dimension        Dim             ....  141

ORBITAL ENERGIES
----------------

  NO   OCC          E(Eh)            E(eV)
   0   2.0000     -15.081852      -410.3981
   1   2.0000     -10.790714      -293.6303
   2   2.0000     -10.707873      -291.3760
   3   2.0000      -1.326693       -36.1011
   4   2.0000      -1.063996       -28.9528
   5   2.0000      -0.933510       -25.4021
   6   2.0000      -0.885026       -24.0828
   7   2.0000      -0.844395       -22.9772
   8   2.0000      -0.770567       -20.9682
   9   2.0000      -0.712097       -19.3772
  10   2.0000      -0.645975       -17.5779
  11   2.0000      -0.630526       -17.1575
  12   2.0000      -0.613497       -16.6941
  13   0.0000      -0.165249        -4.4966
  14   0.0000      -0.104598        -2.8463
  15   0.0000      -0.100837        -2.7439
  16   0.0000      -0.080088        -2.1793
  17   0.0000      -0.041403        -1.1266

MULLIKEN ATOMIC CHARGES
-----------------------
   0 C :   -0.213850
   1 N :   -0.340362
   2 C :   -0.404438
   3 H :    0.341547
   4 H :    0.347993
   5 H :    0.332639
   6 H :    0.208712
   7 H :    0.199056
   8 H :    0.168301
   9 H :    0.193505
  10 H :    0.166896
Sum of atomic charges:    1.0000000

LOEWDIN ATOMIC CHARGES
----------------------
   0 C :   -0.277730
   1 N :    0.162369
   2 C :   -0.275940
   3 H :    0.225948
   4 H :    0.225892
   5 H :    0.222486
   6 H :    0.154647
   7 H :    0.152607
   8 H :    0.131690
   9 H :    0.147668
  10 H :    0.130364

  Mayer bond orders larger than 0.100000
B(  0-C ,  1-N ) :   0.8205 B(  0-C ,  2-C ) :   0.9713 B(  0-C ,  6-H ) :   0.9574
B(  0-C ,  7-H ) :   0.9570 B(  1-N ,  3-H ) :   0.8757 B(  1-N ,  4-H ) :   0.8663
B(  1-N ,  5-H ) :   0.8724 B(  2-C ,  8-H ) :   0.9557 B(  2-C ,  9-H ) :   0.9582
B(  2-C , 10-H ) :   0.9575

Dispersion correction           -0.000055695
FINAL SINGLE POINT ENERGY      -135.504788182864

DIPOLE MOMENT
-------------
                                X             Y             Z
Electronic contribution:     -0.64943      -1.49310      -0.77229
Nuclear contribution   :     -0.15215       0.37393      -0.04773
                        -----------------------------------------
Total Dipole Moment    :     -0.80157      -1.11917      -0.82002
                        -----------------------------------------
Magnitude (a.u.)       :      1.60234
Magnitude (Debye)      :      4.07282

Rotational constants in cm-1:     1.020762     0.277172     0.247319
Rotational constants in MHz : 30601.664035  8309.399682  7414.438136

                             ****ORCA TERMINATED NORMALLY****
TOTAL RUN TIME: 0 days 0 hours 0 minutes 14 seconds 480 msec
