                         Program Version 5.0.0 -  RELEASE  -
|  1> !M062X D3Zero RIJCOSX def2-TZVP def2/J TightSCF xyzfile
|  2>
|  3> *xyzfile 0 1 B.xyz
|  4>
|  5> %MaxCore 64000
|  6>
|  7> %pal nprocs 18
|  8> end
|  9>
| 10> %scf
| 11>   MaxIter 150
| 12> end
| 13>
| 14>
| 15>                          ****END OF INPUT****

CARTESIAN COORDINATES (ANGSTROEM)
---------------------------------
  C     -2.160376   -1.369486   -3.467104
  N     -3.030108   -1.910857   -4.541074
  C     -2.047717    0.146583   -3.511774
  C     -7.330440   -2.678991   -3.206811
  S     -6.019659   -2.926965   -4.419128
  H     -3.477443   -2.791513   -4.257096
  H     -2.538013   -2.017860   -5.438075
  H     -3.891589   -1.376039   -4.714365
  O     -5.645830   -1.588384   -4.919307
  O     -4.881961   -3.503697   -3.667235
  H     -1.184438   -1.843997   -3.566393
  H     -2.598195   -1.708376   -2.528477
  O     -6.549267   -3.805150   -5.425071
  C     -3.328755    0.875037   -3.103669
  H     -1.740034    0.452343   -4.517126
  H     -1.232611    0.434938   -2.842208
  C     -3.628487    0.771601   -1.609363
  H     -4.175106    0.490791   -3.682203
  H     -3.237812    1.928663   -3.381480
  C     -4.975718    1.361432   -1.190644
  H     -2.830700    1.276234   -1.054766
  H     -3.594312   -0.275838   -1.294603
  C     -6.184720    0.784347   -1.926464
  H     -4.956292    2.445725   -1.342200
  H     -5.097256    1.205252   -0.114136
  C     -6.286921   -0.735882   -1.893531
  H     -6.163994    1.100199   -2.974250
  H     -7.094530    1.223459   -1.504509
  C     -7.468999   -1.246153   -2.713833
  H     -6.360641   -1.090347   -0.859176
  H     -5.369848   -1.171853   -2.295982
  H     -7.601914   -0.601349   -3.585329
  H     -8.389791   -1.173436   -2.126922
  H     -7.118254   -3.379818   -2.398055
  H     -8.241838   -3.004745   -3.706513

 Total Charge           Charge          ....    0
 Multiplicity           Mult            ....    1
 Number of Electrons    NEL             ....  122
 Basis Dimension        Dim             ....  566

ORBITAL ENERGIES
----------------

  NO   OCC          E(Eh)            E(eV)
   0   2.0000     -90.056908     -2450.5731
   1   2.0000     -19.578522      -532.7587
   2   2.0000     -19.578330      -532.7534
   3   2.0000     -19.561962      -532.3080
   4   2.0000     -14.850585      -404.1050
   5   2.0000     -10.620909      -289.0096
   6   2.0000     -10.572001      -287.6788
   7   2.0000     -10.551783      -287.1286
   8   2.0000     -10.542996      -286.8895
   9   2.0000     -10.536305      -286.7074
  10   2.0000     -10.535074      -286.6739
  11   2.0000     -10.527438      -286.4661
  12   2.0000     -10.526789      -286.4485
  13   2.0000     -10.524096      -286.3752
  14   2.0000      -8.382388      -228.0964
  15   2.0000      -6.304713      -171.5600
  16   2.0000      -6.304237      -171.5470
  17   2.0000      -6.303322      -171.5221
  18   2.0000      -1.217350       -33.1258
  19   2.0000      -1.116272       -30.3753
  20   2.0000      -1.074926       -29.2502
  21   2.0000      -1.073662       -29.2158
  22   2.0000      -0.938325       -25.5331
  23   2.0000      -0.908115       -24.7111
  24   2.0000      -0.880010       -23.9463
  25   2.0000      -0.833267       -22.6743
  26   2.0000      -0.797889       -21.7117
  27   2.0000      -0.750830       -20.4311
  28   2.0000      -0.710466       -19.3328
  29   2.0000      -0.690652       -18.7936
  30   2.0000      -0.675104       -18.3705
  31   2.0000      -0.648582       -17.6488
  32   2.0000      -0.641152       -17.4466
  33   2.0000      -0.622979       -16.9521
  34   2.0000      -0.586185       -15.9509
  35   2.0000      -0.562293       -15.3008
  36   2.0000      -0.560178       -15.2432
  37   2.0000      -0.549371       -14.9492
  38   2.0000      -0.529664       -14.4129
  39   2.0000      -0.523654       -14.2494
  40   2.0000      -0.513592       -13.9756
  41   2.0000      -0.506068       -13.7708
  42   2.0000      -0.497716       -13.5436
  43   2.0000      -0.483358       -13.1528
  44   2.0000      -0.480709       -13.0807
  45   2.0000      -0.466275       -12.6880
  46   2.0000      -0.452371       -12.3097
  47   2.0000      -0.438444       -11.9307
  48   2.0000      -0.432470       -11.7681
  49   2.0000      -0.416210       -11.3257
  50   2.0000      -0.408660       -11.1202
  51   2.0000      -0.405608       -11.0372
  52   2.0000      -0.394203       -10.7268
  53   2.0000      -0.391200       -10.6451
  54   2.0000      -0.381117       -10.3707
  55   2.0000      -0.376919       -10.2565
  56   2.0000      -0.371205       -10.1010
  57   2.0000      -0.355332        -9.6691
  58   2.0000      -0.345348        -9.3974
  59   2.0000      -0.330915        -9.0047
  60   2.0000      -0.314342        -8.5537
  61   0.0000       0.019878         0.5409
  62   0.0000       0.057711         1.5704
  63   0.0000       0.065547         1.7836
  64   0.0000       0.069756         1.8982
  65   0.0000       0.083524         2.2728

MULLIKEN ATOMIC CHARGES
-----------------------
   0 C :   -0.253938
   1 N :   -0.386688
   2 C :   -0.266731
   3 C :   -0.345121
   4 S :    0.952699
   5 H :    0.349877
   6 H :    0.294064
   7 H :    0.336607
   8 O :   -0.629750
   9 O :   -0.627130
  10 H :    0.173957
  11 H :    0.214692
  12 O :   -0.521030
  13 C :   -0.362084
  14 H :    0.161408
  15 H :    0.162622
  16 C :   -0.302355
  17 H :    0.193060
  18 H :    0.161792
  19 C :   -0.278270
  20 H :    0.151544
  21 H :    0.156051
  22 C :   -0.309368
  23 H :    0.149074
  24 H :    0.150078
  25 C :   -0.318398
  26 H :    0.172431
  27 H :    0.150440
  28 C :   -0.240599
  29 H :    0.148153
  30 H :    0.111126
  31 H :    0.167587
  32 H :    0.142548
  33 H :    0.164381
  34 H :    0.177270
Sum of atomic charges:   -0.0000000

LOEWDIN ATOMIC CHARGES
----------------------
   0 C :   -0.272299
   1 N :    0.131852
   2 C :   -0.273987
   3 C :   -0.374309
   4 S :    0.481995
   5 H :    0.177659
   6 H :    0.198002
   7 H :    0.184113
   8 O :   -0.395059
   9 O :   -0.400623
  10 H :    0.138802
  11 H :    0.146070
  12 O :   -0.324771
  13 C :   -0.269934
  14 H :    0.141772
  15 H :    0.150053
  16 C :   -0.275565
  17 H :    0.142749
  18 H :    0.144634
  19 C :   -0.271477
  20 H :    0.138893
  21 H :    0.135708
  22 C :   -0.275890
  23 H :    0.138914
  24 H :    0.140058
  25 C :   -0.275129
  26 H :    0.140336
  27 H :    0.140022
  28 C :   -0.292019
  29 H :    0.137054
  30 H :    0.130624
  31 H :    0.145945
  32 H :    0.139121
  33 H :    0.137662
  34 H :    0.139024

  Mayer bond orders larger than 0.100000
B(  0-C ,  1-N ) :   0.8395 B(  0-C ,  2-C ) :   0.9052 B(  0-C , 10-H ) :   0.9800
B(  0-C , 11-H ) :   0.9779 B(  1-N ,  5-H ) :   0.7793 B(  1-N ,  6-H ) :   0.8928
B(  1-N ,  7-H ) :   0.8094 B(  2-C , 13-C ) :   0.9148 B(  2-C , 14-H ) :   0.9797
B(  2-C , 15-H ) :   0.9785 B(  3-C ,  4-S ) :   0.8983 B(  3-C , 28-C ) :   0.9215
B(  3-C , 33-H ) :   0.9530 B(  3-C , 34-H ) :   0.9649 B(  4-S ,  8-O ) :   1.5436
B(  4-S ,  9-O ) :   1.5231 B(  4-S , 12-O ) :   1.9097 B(  5-H ,  9-O ) :   0.1390
B(  7-H ,  8-O ) :   0.1010 B( 13-C , 16-C ) :   0.8548 B( 13-C , 17-H ) :   0.9889
B( 13-C , 18-H ) :   0.9736 B( 16-C , 19-C ) :   0.9237 B( 16-C , 20-H ) :   0.9732
B( 16-C , 21-H ) :   0.9936 B( 19-C , 22-C ) :   0.9165 B( 19-C , 23-H ) :   0.9917
B( 19-C , 24-H ) :   0.9888 B( 22-C , 25-C ) :   0.8805 B( 22-C , 26-H ) :   0.9909
B( 22-C , 27-H ) :   0.9814 B( 25-C , 28-C ) :   0.9114 B( 25-C , 29-H ) :   0.9690
B( 25-C , 30-H ) :   0.9835 B( 28-C , 31-H ) :   0.9847 B( 28-C , 32-H ) :   0.9684

Dispersion correction           -0.002361004
FINAL SINGLE POINT ENERGY     -1034.198142970417

DIPOLE MOMENT
-------------
                                X             Y             Z
Electronic contribution:     -5.94266     -15.19180     -11.41274
Nuclear contribution   :      8.59301      16.99497      12.41069
                        -----------------------------------------
Total Dipole Moment    :      2.65036       1.80317       0.99795
                        -----------------------------------------
Magnitude (a.u.)       :      3.35734
Magnitude (Debye)      :      8.53368

Rotational constants in cm-1:     0.025617     0.015295     0.010641
Rotational constants in MHz :   767.991150   458.522408   319.013093

                             ****ORCA TERMINATED NORMALLY****
TOTAL RUN TIME: 0 days 0 hours 1 minutes 28 seconds 445 msec
