                         Program Version 5.0.0 -  RELEASE  -
|  1> !M062X D3Zero RIJCOSX def2-TZVP def2/J TightSCF
|  2> *xyz 0 1
|  3> C         -7.33044       -2.67899       -3.20681
|  4> S         -6.01966       -2.92697       -4.41913
|  5> F         -5.64583       -1.58838       -4.91931
|  6> O         -4.88196       -3.50370       -3.66724
|  7> O         -6.54927       -3.80515       -5.42507
|  8> C         -7.46900       -1.24615       -2.71383
|  9> H         -7.11825       -3.37982       -2.39805
| 10> H         -8.24184       -3.00474       -3.70651
| 11> H         -7.67580       -0.60214       -3.54292
| 12> H         -6.55749       -0.94096       -2.24382
| 13> H         -8.27114       -1.18777       -2.00810
| 14> *
| 15> %MaxCore 64000
| 16>
| 17> %pal nprocs 4
| 18> end
| 19>
| 20> %scf
| 21>   MaxIter 150
| 22> end
| 23>
| 24>
| 25>                          ****END OF INPUT****

CARTESIAN COORDINATES (ANGSTROEM)
---------------------------------
  C     -7.330440   -2.678990   -3.206810
  S     -6.019660   -2.926970   -4.419130
  F     -5.645830   -1.588380   -4.919310
  O     -4.881960   -3.503700   -3.667240
  O     -6.549270   -3.805150   -5.425070
  C     -7.469000   -1.246150   -2.713830
  H     -7.118250   -3.379820   -2.398050
  H     -8.241840   -3.004740   -3.706510
  H     -7.675800   -0.602140   -3.542920
  H     -6.557490   -0.940960   -2.243820
  H     -8.271140   -1.187770   -2.008100

 Total Charge           Charge          ....    0
 Multiplicity           Mult            ....    1
 Number of Electrons    NEL             ....   58
 Basis Dimension        Dim             ....  222

ORBITAL ENERGIES
----------------

  NO   OCC          E(Eh)            E(eV)
   0   2.0000     -90.150704     -2453.1254
   1   2.0000     -25.352537      -689.8776
   2   2.0000     -19.642291      -534.4939
   3   2.0000     -19.627534      -534.0923
   4   2.0000     -10.601385      -288.4784
   5   2.0000     -10.563368      -287.4438
   6   2.0000      -8.475806      -230.6384
   7   2.0000      -6.400685      -174.1715
   8   2.0000      -6.395531      -174.0312
   9   2.0000      -6.395057      -174.0183
  10   2.0000      -1.502859       -40.8949
  11   2.0000      -1.230704       -33.4892
  12   2.0000      -1.128289       -30.7023
  13   2.0000      -0.929936       -25.3048
  14   2.0000      -0.823543       -22.4097
  15   2.0000      -0.768670       -20.9166
  16   2.0000      -0.681979       -18.5576
  17   2.0000      -0.669970       -18.2308
  18   2.0000      -0.631365       -17.1803
  19   2.0000      -0.574626       -15.6364
  20   2.0000      -0.554684       -15.0937
  21   2.0000      -0.526073       -14.3152
  22   2.0000      -0.518409       -14.1066
  23   2.0000      -0.483827       -13.1656
  24   2.0000      -0.466031       -12.6813
  25   2.0000      -0.460048       -12.5186
  26   2.0000      -0.407166       -11.0796
  27   2.0000      -0.393761       -10.7148
  28   2.0000      -0.385265       -10.4836
  29   0.0000       0.038114         1.0371
  30   0.0000       0.081657         2.2220
  31   0.0000       0.095722         2.6047
  32   0.0000       0.100882         2.7451
  33   0.0000       0.109034         2.9670

MULLIKEN ATOMIC CHARGES
-----------------------
   0 C :   -0.296486
   1 S :    0.934450
   2 F :   -0.133728
   3 O :   -0.479837
   4 O :   -0.439383
   5 C :   -0.416035
   6 H :    0.187127
   7 H :    0.176956
   8 H :    0.152183
   9 H :    0.163215
  10 H :    0.151538
Sum of atomic charges:    0.0000000

LOEWDIN ATOMIC CHARGES
----------------------
   0 C :   -0.383681
   1 S :    0.576919
   2 F :    0.052800
   3 O :   -0.326638
   4 O :   -0.269481
   5 C :   -0.317589
   6 H :    0.149949
   7 H :    0.143091
   8 H :    0.121622
   9 H :    0.125668
  10 H :    0.127341

  Mayer bond orders larger than 0.100000
B(  0-C ,  1-S ) :   0.9127 B(  0-C ,  5-C ) :   0.9390 B(  0-C ,  6-H ) :   0.9409
B(  0-C ,  7-H ) :   0.9429 B(  1-S ,  2-F ) :   1.0825 B(  1-S ,  3-O ) :   1.8771
B(  1-S ,  4-O ) :   1.9298 B(  5-C ,  8-H ) :   0.9651 B(  5-C ,  9-H ) :   0.9643
B(  5-C , 10-H ) :   0.9621

Dispersion correction           -0.000156820
FINAL SINGLE POINT ENERGY      -727.678765505159

DIPOLE MOMENT
-------------
                                X             Y             Z
Electronic contribution:      5.61531      -1.68979      -6.36221
Nuclear contribution   :     -6.81251       2.87933       7.15058
                        -----------------------------------------
Total Dipole Moment    :     -1.19721       1.18954       0.78837
                        -----------------------------------------
Magnitude (a.u.)       :      1.86275
Magnitude (Debye)      :      4.73474

Rotational constants in cm-1:     0.152543     0.082494     0.078987
Rotational constants in MHz :  4573.135887  2473.116216  2367.980829

                             ****ORCA TERMINATED NORMALLY****
TOTAL RUN TIME: 0 days 0 hours 0 minutes 31 seconds 647 msec
