                         Program Version 5.0.0 -  RELEASE  -
|  1> !M062X D3Zero RIJCOSX def2-TZVP def2/J TightSCF
|  2> *xyz 0 1
|  3> C         -2.16038       -1.36949       -3.46710
|  4> C         -3.03011       -1.91086       -4.54107
|  5> C         -2.04772        0.14658       -3.51177
|  6> H         -3.47744       -2.79151       -4.25710
|  7> H         -2.53801       -2.01786       -5.43808
|  8> H         -3.89159       -1.37604       -4.71437
|  9> H         -1.18444       -1.84400       -3.56639
| 10> H         -2.59819       -1.70838       -2.52848
| 11> H         -1.61525        0.44478       -4.44395
| 12> H         -1.42718        0.48198       -2.70720
| 13> H         -3.02145        0.57958       -3.41560
| 14> *
| 15> %MaxCore 64000
| 16>
| 17> %pal nprocs 4
| 18> end
| 19>
| 20> %scf
| 21>   MaxIter 150
| 22> end
| 23>
| 24>
| 25>                          ****END OF INPUT****

CARTESIAN COORDINATES (ANGSTROEM)
---------------------------------
  C     -2.160380   -1.369490   -3.467100
  C     -3.030110   -1.910860   -4.541070
  C     -2.047720    0.146580   -3.511770
  H     -3.477440   -2.791510   -4.257100
  H     -2.538010   -2.017860   -5.438080
  H     -3.891590   -1.376040   -4.714370
  H     -1.184440   -1.844000   -3.566390
  H     -2.598190   -1.708380   -2.528480
  H     -1.615250    0.444780   -4.443950
  H     -1.427180    0.481980   -2.707200
  H     -3.021450    0.579580   -3.415600

 Total Charge           Charge          ....    0
 Multiplicity           Mult            ....    1
 Number of Electrons    NEL             ....   26
 Basis Dimension        Dim             ....  141

ORBITAL ENERGIES
----------------

  NO   OCC          E(Eh)            E(eV)
   0   2.0000     -10.519825      -286.2590
   1   2.0000     -10.510374      -286.0018
   2   2.0000     -10.491919      -285.4996
   3   2.0000      -0.890013       -24.2185
   4   2.0000      -0.784145       -21.3377
   5   2.0000      -0.672206       -18.2917
   6   2.0000      -0.540502       -14.7078
   7   2.0000      -0.507837       -13.8189
   8   2.0000      -0.467018       -12.7082
   9   2.0000      -0.458999       -12.4900
  10   2.0000      -0.399843       -10.8803
  11   2.0000      -0.388238       -10.5645
  12   2.0000      -0.386514       -10.5176
  13   0.0000       0.072461         1.9718
  14   0.0000       0.115465         3.1420
  15   0.0000       0.121307         3.3009
  16   0.0000       0.126364         3.4385
  17   0.0000       0.149125         4.0579

MULLIKEN ATOMIC CHARGES
-----------------------
   0 C :   -0.210235
   1 C :   -0.409612
   2 C :   -0.397030
   3 H :    0.133278
   4 H :    0.130905
   5 H :    0.131104
   6 H :    0.116711
   7 H :    0.116296
   8 H :    0.128328
   9 H :    0.130408
  10 H :    0.129848
Sum of atomic charges:   -0.0000000

LOEWDIN ATOMIC CHARGES
----------------------
   0 C :   -0.324669
   1 C :   -0.311932
   2 C :   -0.307640
   3 H :    0.111267
   4 H :    0.108236
   5 H :    0.110201
   6 H :    0.133708
   7 H :    0.133790
   8 H :    0.116531
   9 H :    0.114789
  10 H :    0.115717

  Mayer bond orders larger than 0.100000
B(  0-C ,  1-C ) :   0.9330 B(  0-C ,  2-C ) :   0.9511 B(  0-C ,  6-H ) :   0.9786
B(  0-C ,  7-H ) :   0.9852 B(  1-C ,  3-H ) :   0.9841 B(  1-C ,  4-H ) :   0.9767
B(  1-C ,  5-H ) :   0.9807 B(  2-C ,  8-H ) :   0.9740 B(  2-C ,  9-H ) :   0.9816
B(  2-C , 10-H ) :   0.9767

Dispersion correction           -0.000054268
FINAL SINGLE POINT ENERGY      -119.095580009290

DIPOLE MOMENT
-------------
                                X             Y             Z
Electronic contribution:      0.31947      -0.13175       0.27915
Nuclear contribution   :     -0.34625       0.09603      -0.26933
                        -----------------------------------------
Total Dipole Moment    :     -0.02677      -0.03572       0.00982
                        -----------------------------------------
Magnitude (a.u.)       :      0.04571
Magnitude (Debye)      :      0.11618

Rotational constants in cm-1:     1.028617     0.291238     0.258956
Rotational constants in MHz : 30837.159054  8731.095379  7763.318586

                             ****ORCA TERMINATED NORMALLY****
TOTAL RUN TIME: 0 days 0 hours 0 minutes 14 seconds 846 msec
