                         Program Version 5.0.0 -  RELEASE  -
|  1> !M062X D3Zero RIJCOSX def2-TZVP def2/J TightSCF
|  2> *xyz 0 1
|  3> C         -7.33044       -2.67899       -3.20681
|  4> S         -6.01966       -2.92697       -4.41913
|  5> O         -5.64583       -1.58838       -4.91931
|  6> F         -4.88196       -3.50370       -3.66724
|  7> O         -6.54927       -3.80515       -5.42507
|  8> C         -7.46900       -1.24615       -2.71383
|  9> H         -7.11825       -3.37982       -2.39805
| 10> H         -8.24184       -3.00474       -3.70651
| 11> H         -7.67580       -0.60214       -3.54292
| 12> H         -6.55749       -0.94096       -2.24382
| 13> H         -8.27114       -1.18777       -2.00810
| 14> *
| 15> %MaxCore 64000
| 16>
| 17> %pal nprocs 4
| 18> end
| 19>
| 20> %scf
| 21>   MaxIter 150
| 22> end
| 23>
| 24>
| 25>                          ****END OF INPUT****

CARTESIAN COORDINATES (ANGSTROEM)
---------------------------------
  C     -7.330440   -2.678990   -3.206810
  S     -6.019660   -2.926970   -4.419130
  O     -5.645830   -1.588380   -4.919310
  F     -4.881960   -3.503700   -3.667240
  O     -6.549270   -3.805150   -5.425070
  C     -7.469000   -1.246150   -2.713830
  H     -7.118250   -3.379820   -2.398050
  H     -8.241840   -3.004740   -3.706510
  H     -7.675800   -0.602140   -3.542920
  H     -6.557490   -0.940960   -2.243820
  H     -8.271140   -1.187770   -2.008100

 Total Charge           Charge          ....    0
 Multiplicity           Mult            ....    1
 Number of Electrons    NEL             ....   58
 Basis Dimension        Dim             ....  222

ORBITAL ENERGIES
----------------

  NO   OCC          E(Eh)            E(eV)
   0   2.0000     -90.150912     -2453.1310
   1   2.0000     -25.349583      -689.7972
   2   2.0000     -19.642346      -534.4954
   3   2.0000     -19.631107      -534.1896
   4   2.0000     -10.601678      -288.4863
   5   2.0000     -10.554375      -287.1991
   6   2.0000      -8.475992      -230.6435
   7   2.0000      -6.400797      -174.1745
   8   2.0000      -6.395902      -174.0413
   9   2.0000      -6.395176      -174.0216
  10   2.0000      -1.499166       -40.7944
  11   2.0000      -1.231892       -33.5215
  12   2.0000      -1.131878       -30.8000
  13   2.0000      -0.925356       -25.1802
  14   2.0000      -0.824294       -22.4302
  15   2.0000      -0.762175       -20.7398
  16   2.0000      -0.672118       -18.2893
  17   2.0000      -0.666074       -18.1248
  18   2.0000      -0.639356       -17.3978
  19   2.0000      -0.569577       -15.4990
  20   2.0000      -0.561057       -15.2671
  21   2.0000      -0.534155       -14.5351
  22   2.0000      -0.500434       -13.6175
  23   2.0000      -0.471069       -12.8184
  24   2.0000      -0.470936       -12.8148
  25   2.0000      -0.454474       -12.3669
  26   2.0000      -0.407502       -11.0887
  27   2.0000      -0.398972       -10.8566
  28   2.0000      -0.388491       -10.5714
  29   0.0000       0.049423         1.3449
  30   0.0000       0.069232         1.8839
  31   0.0000       0.086137         2.3439
  32   0.0000       0.108776         2.9600
  33   0.0000       0.113611         3.0915

MULLIKEN ATOMIC CHARGES
-----------------------
   0 C :   -0.312124
   1 S :    0.936053
   2 O :   -0.476632
   3 F :   -0.135226
   4 O :   -0.441226
   5 C :   -0.388017
   6 H :    0.164834
   7 H :    0.185438
   8 H :    0.169429
   9 H :    0.151450
  10 H :    0.146020
Sum of atomic charges:    0.0000000

LOEWDIN ATOMIC CHARGES
----------------------
   0 C :   -0.390780
   1 S :    0.577943
   2 O :   -0.313270
   3 F :    0.042416
   4 O :   -0.270391
   5 C :   -0.310126
   6 H :    0.137269
   7 H :    0.148739
   8 H :    0.129080
   9 H :    0.124501
  10 H :    0.124620

  Mayer bond orders larger than 0.100000
B(  0-C ,  1-S ) :   0.9069 B(  0-C ,  5-C ) :   0.9403 B(  0-C ,  6-H ) :   0.9457
B(  0-C ,  7-H ) :   0.9412 B(  1-S ,  2-O ) :   1.8668 B(  1-S ,  3-F ) :   1.0835
B(  1-S ,  4-O ) :   1.9303 B(  5-C ,  8-H ) :   0.9638 B(  5-C ,  9-H ) :   0.9683
B(  5-C , 10-H ) :   0.9579

Dispersion correction           -0.000152665
FINAL SINGLE POINT ENERGY      -727.682020242313

DIPOLE MOMENT
-------------
                                X             Y             Z
Electronic contribution:      6.96715      -4.98300      -4.23567
Nuclear contribution   :     -7.60849       4.87515       5.84588
                        -----------------------------------------
Total Dipole Moment    :     -0.64134      -0.10784       1.61021
                        -----------------------------------------
Magnitude (a.u.)       :      1.73658
Magnitude (Debye)      :      4.41404

Rotational constants in cm-1:     0.153704     0.080342     0.079431
Rotational constants in MHz :  4607.928650  2408.599360  2381.267225

                             ****ORCA TERMINATED NORMALLY****
TOTAL RUN TIME: 0 days 0 hours 0 minutes 32 seconds 890 msec
