                         Program Version 5.0.0 -  RELEASE  -
|  1> !M062X D3Zero RIJCOSX def2-TZVP def2/J TightSCF
|  2> *xyz 0 1
|  3> C         -7.33044       -2.67899       -3.20681
|  4> S         -6.01966       -2.92697       -4.41913
|  5> O         -5.64583       -1.58838       -4.91931
|  6> O         -4.88196       -3.50370       -3.66724
|  7> F         -6.54927       -3.80515       -5.42507
|  8> C         -7.46900       -1.24615       -2.71383
|  9> H         -7.11825       -3.37982       -2.39805
| 10> H         -8.24184       -3.00474       -3.70651
| 11> H         -7.67580       -0.60214       -3.54292
| 12> H         -6.55749       -0.94096       -2.24382
| 13> H         -8.27114       -1.18777       -2.00810
| 14> *
| 15> %MaxCore 64000
| 16>
| 17> %pal nprocs 4
| 18> end
| 19>
| 20> %scf
| 21>   MaxIter 150
| 22> end
| 23>
| 24>
| 25>                          ****END OF INPUT****

CARTESIAN COORDINATES (ANGSTROEM)
---------------------------------
  C     -7.330440   -2.678990   -3.206810
  S     -6.019660   -2.926970   -4.419130
  O     -5.645830   -1.588380   -4.919310
  O     -4.881960   -3.503700   -3.667240
  F     -6.549270   -3.805150   -5.425070
  C     -7.469000   -1.246150   -2.713830
  H     -7.118250   -3.379820   -2.398050
  H     -8.241840   -3.004740   -3.706510
  H     -7.675800   -0.602140   -3.542920
  H     -6.557490   -0.940960   -2.243820
  H     -8.271140   -1.187770   -2.008100

 Total Charge           Charge          ....    0
 Multiplicity           Mult            ....    1
 Number of Electrons    NEL             ....   58
 Basis Dimension        Dim             ....  222

ORBITAL ENERGIES
----------------

  NO   OCC          E(Eh)            E(eV)
   0   2.0000     -90.152939     -2453.1862
   1   2.0000     -25.371673      -690.3983
   2   2.0000     -19.631426      -534.1983
   3   2.0000     -19.628210      -534.1108
   4   2.0000     -10.602253      -288.5020
   5   2.0000     -10.554512      -287.2029
   6   2.0000      -8.478070      -230.7000
   7   2.0000      -6.402825      -174.2297
   8   2.0000      -6.397824      -174.0937
   9   2.0000      -6.397287      -174.0790
  10   2.0000      -1.536726       -41.8165
  11   2.0000      -1.214788       -33.0561
  12   2.0000      -1.114487       -30.3267
  13   2.0000      -0.925798       -25.1922
  14   2.0000      -0.840705       -22.8768
  15   2.0000      -0.769881       -20.9495
  16   2.0000      -0.694022       -18.8853
  17   2.0000      -0.688923       -18.7466
  18   2.0000      -0.642109       -17.4727
  19   2.0000      -0.569621       -15.5002
  20   2.0000      -0.560160       -15.2427
  21   2.0000      -0.520102       -14.1527
  22   2.0000      -0.496976       -13.5234
  23   2.0000      -0.473829       -12.8935
  24   2.0000      -0.457748       -12.4560
  25   2.0000      -0.453749       -12.3471
  26   2.0000      -0.399285       -10.8651
  27   2.0000      -0.391611       -10.6563
  28   2.0000      -0.374878       -10.2010
  29   0.0000       0.051056         1.3893
  30   0.0000       0.068483         1.8635
  31   0.0000       0.084762         2.3065
  32   0.0000       0.105859         2.8806
  33   0.0000       0.112312         3.0562

MULLIKEN ATOMIC CHARGES
-----------------------
   0 C :   -0.307567
   1 S :    0.929985
   2 O :   -0.468948
   3 O :   -0.471579
   4 F :   -0.106001
   5 C :   -0.390357
   6 H :    0.183665
   7 H :    0.156487
   8 H :    0.159922
   9 H :    0.167571
  10 H :    0.146821
Sum of atomic charges:   -0.0000000

LOEWDIN ATOMIC CHARGES
----------------------
   0 C :   -0.393366
   1 S :    0.571170
   2 O :   -0.309929
   3 O :   -0.322553
   4 F :    0.096664
   5 C :   -0.304415
   6 H :    0.145798
   7 H :    0.134351
   8 H :    0.127102
   9 H :    0.129778
  10 H :    0.125400

  Mayer bond orders larger than 0.100000
B(  0-C ,  1-S ) :   0.9113 B(  0-C ,  5-C ) :   0.9449 B(  0-C ,  6-H ) :   0.9406
B(  0-C ,  7-H ) :   0.9415 B(  1-S ,  2-O ) :   1.8684 B(  1-S ,  3-O ) :   1.8784
B(  1-S ,  4-F ) :   1.1257 B(  5-C ,  8-H ) :   0.9644 B(  5-C ,  9-H ) :   0.9656
B(  5-C , 10-H ) :   0.9575

Dispersion correction           -0.000148182
FINAL SINGLE POINT ENERGY      -727.663734586351

DIPOLE MOMENT
-------------
                                X             Y             Z
Electronic contribution:      4.10327      -5.48182      -7.25876
Nuclear contribution   :     -5.87110       5.18927       7.67759
                        -----------------------------------------
Total Dipole Moment    :     -1.76783      -0.29255       0.41883
                        -----------------------------------------
Magnitude (a.u.)       :      1.84017
Magnitude (Debye)      :      4.67733

Rotational constants in cm-1:     0.155988     0.080452     0.078187
Rotational constants in MHz :  4676.405251  2411.902056  2343.983816

                             ****ORCA TERMINATED NORMALLY****
TOTAL RUN TIME: 0 days 0 hours 0 minutes 32 seconds 879 msec
