                         Program Version 5.0.0 -  RELEASE  -
|  1> !M062X D3Zero RIJCOSX def2-TZVP def2/J TightSCF xyzfile
|  2>
|  3> *xyzfile 0 1 D3.xyz
|  4>
|  5> %MaxCore 64000
|  6>
|  7> %pal nprocs 18
|  8> end
|  9>
| 10> %scf
| 11>   MaxIter 150
| 12> end
| 13>
| 14>
| 15>                          ****END OF INPUT****

CARTESIAN COORDINATES (ANGSTROEM)
---------------------------------
  C     -2.160376   -1.369486   -3.467104
  C     -3.030108   -1.910857   -4.541074
  C     -2.047717    0.146583   -3.511774
  C     -7.330440   -2.678991   -3.206811
  S     -6.019659   -2.926965   -4.419128
  H     -3.477443   -2.791513   -4.257096
  H     -2.538013   -2.017860   -5.438075
  H     -3.891589   -1.376039   -4.714365
  O     -5.645830   -1.588384   -4.919307
  O     -4.881961   -3.503697   -3.667235
  H     -1.184438   -1.843997   -3.566393
  H     -2.598195   -1.708376   -2.528477
  F     -6.549267   -3.805150   -5.425071
  C     -3.328755    0.875037   -3.103669
  H     -1.740034    0.452343   -4.517126
  H     -1.232611    0.434938   -2.842208
  C     -3.628487    0.771601   -1.609363
  H     -4.175106    0.490791   -3.682203
  H     -3.237812    1.928663   -3.381480
  C     -4.975718    1.361432   -1.190644
  H     -2.830700    1.276234   -1.054766
  H     -3.594312   -0.275838   -1.294603
  C     -6.184720    0.784347   -1.926464
  H     -4.956292    2.445725   -1.342200
  H     -5.097256    1.205252   -0.114136
  C     -6.286921   -0.735882   -1.893531
  H     -6.163994    1.100199   -2.974250
  H     -7.094530    1.223459   -1.504509
  C     -7.468999   -1.246153   -2.713833
  H     -6.360641   -1.090347   -0.859176
  H     -5.369848   -1.171853   -2.295982
  H     -7.601914   -0.601349   -3.585329
  H     -8.389791   -1.173436   -2.126922
  H     -7.118254   -3.379818   -2.398055
  H     -8.241838   -3.004745   -3.706513

 Total Charge           Charge          ....    0
 Multiplicity           Mult            ....    1
 Number of Electrons    NEL             ....  122
 Basis Dimension        Dim             ....  566

ORBITAL ENERGIES
----------------

  NO   OCC          E(Eh)            E(eV)
   0   2.0000     -90.162601     -2453.4491
   1   2.0000     -25.379216      -690.6036
   2   2.0000     -19.640956      -534.4576
   3   2.0000     -19.637537      -534.3645
   4   2.0000     -10.603757      -288.5429
   5   2.0000     -10.563298      -287.4419
   6   2.0000     -10.537101      -286.7291
   7   2.0000     -10.528727      -286.5012
   8   2.0000     -10.522743      -286.3384
   9   2.0000     -10.514461      -286.1130
  10   2.0000     -10.508602      -285.9536
  11   2.0000     -10.502652      -285.7917
  12   2.0000     -10.491042      -285.4758
  13   2.0000     -10.435451      -283.9631
  14   2.0000      -8.487909      -230.9678
  15   2.0000      -6.412700      -174.4984
  16   2.0000      -6.407574      -174.3590
  17   2.0000      -6.407219      -174.3493
  18   2.0000      -1.544218       -42.0203
  19   2.0000      -1.230102       -33.4728
  20   2.0000      -1.129891       -30.7459
  21   2.0000      -0.942933       -25.6585
  22   2.0000      -0.907697       -24.6997
  23   2.0000      -0.877625       -23.8814
  24   2.0000      -0.857836       -23.3429
  25   2.0000      -0.822864       -22.3913
  26   2.0000      -0.792924       -21.5766
  27   2.0000      -0.754812       -20.5395
  28   2.0000      -0.718992       -19.5648
  29   2.0000      -0.702719       -19.1220
  30   2.0000      -0.696047       -18.9404
  31   2.0000      -0.686184       -18.6720
  32   2.0000      -0.649895       -17.6846
  33   2.0000      -0.643468       -17.5097
  34   2.0000      -0.613507       -16.6944
  35   2.0000      -0.577538       -15.7156
  36   2.0000      -0.564408       -15.3583
  37   2.0000      -0.547227       -14.8908
  38   2.0000      -0.543164       -14.7803
  39   2.0000      -0.529996       -14.4219
  40   2.0000      -0.517466       -14.0810
  41   2.0000      -0.498759       -13.5719
  42   2.0000      -0.488658       -13.2971
  43   2.0000      -0.484135       -13.1740
  44   2.0000      -0.475677       -12.9438
  45   2.0000      -0.453677       -12.3452
  46   2.0000      -0.451394       -12.2831
  47   2.0000      -0.441799       -12.0220
  48   2.0000      -0.428903       -11.6710
  49   2.0000      -0.421998       -11.4832
  50   2.0000      -0.411353       -11.1935
  51   2.0000      -0.404097       -10.9960
  52   2.0000      -0.401098       -10.9144
  53   2.0000      -0.394981       -10.7480
  54   2.0000      -0.385684       -10.4950
  55   2.0000      -0.374563       -10.1924
  56   2.0000      -0.367584       -10.0025
  57   2.0000      -0.362899        -9.8750
  58   2.0000      -0.346860        -9.4385
  59   2.0000      -0.340664        -9.2699
  60   2.0000      -0.327261        -8.9052
  61   0.0000       0.047263         1.2861
  62   0.0000       0.057223         1.5571
  63   0.0000       0.074190         2.0188
  64   0.0000       0.080285         2.1847
  65   0.0000       0.082707         2.2506

MULLIKEN ATOMIC CHARGES
-----------------------
   0 C :   -0.253345
   1 C :   -0.543141
   2 C :   -0.239386
   3 C :   -0.351687
   4 S :    0.965648
   5 H :    0.189307
   6 H :    0.131584
   7 H :    0.181352
   8 O :   -0.473346
   9 O :   -0.467632
  10 H :    0.121661
  11 H :    0.137406
  12 F :   -0.106068
  13 C :   -0.326480
  14 H :    0.137720
  15 H :    0.130390
  16 C :   -0.312120
  17 H :    0.168295
  18 H :    0.141543
  19 C :   -0.274155
  20 H :    0.144823
  21 H :    0.159792
  22 C :   -0.306940
  23 H :    0.146088
  24 H :    0.143999
  25 C :   -0.339819
  26 H :    0.172416
  27 H :    0.145690
  28 C :   -0.257402
  29 H :    0.154502
  30 H :    0.160452
  31 H :    0.179277
  32 H :    0.159993
  33 H :    0.196487
  34 H :    0.183095
Sum of atomic charges:    0.0000000

LOEWDIN ATOMIC CHARGES
----------------------
   0 C :   -0.307069
   1 C :   -0.343127
   2 C :   -0.272430
   3 C :   -0.365007
   4 S :    0.593557
   5 H :    0.101595
   6 H :    0.100692
   7 H :    0.103561
   8 O :   -0.283212
   9 O :   -0.289767
  10 H :    0.133173
  11 H :    0.132469
  12 F :    0.101801
  13 C :   -0.270481
  14 H :    0.137087
  15 H :    0.133915
  16 C :   -0.275316
  17 H :    0.138729
  18 H :    0.136114
  19 C :   -0.273287
  20 H :    0.137932
  21 H :    0.135471
  22 C :   -0.275367
  23 H :    0.138685
  24 H :    0.136973
  25 C :   -0.270828
  26 H :    0.141196
  27 H :    0.137434
  28 C :   -0.281958
  29 H :    0.139417
  30 H :    0.142594
  31 H :    0.149810
  32 H :    0.147505
  33 H :    0.149943
  34 H :    0.138196

  Mayer bond orders larger than 0.100000
B(  0-C ,  1-C ) :   0.8638 B(  0-C ,  2-C ) :   0.9069 B(  0-C , 10-H ) :   0.9896
B(  0-C , 11-H ) :   1.0111 B(  1-C ,  5-H ) :   0.9672 B(  1-C ,  6-H ) :   0.9784
B(  1-C ,  7-H ) :   0.9814 B(  2-C , 13-C ) :   0.9289 B(  2-C , 14-H ) :   0.9827
B(  2-C , 15-H ) :   0.9906 B(  3-C ,  4-S ) :   0.9135 B(  3-C , 28-C ) :   0.9122
B(  3-C , 33-H ) :   0.9392 B(  3-C , 34-H ) :   0.9539 B(  4-S ,  8-O ) :   1.8118
B(  4-S ,  9-O ) :   1.8129 B(  4-S , 12-F ) :   1.1276 B( 13-C , 16-C ) :   0.8821
B( 13-C , 17-H ) :   0.9860 B( 13-C , 18-H ) :   0.9802 B( 16-C , 19-C ) :   0.9162
B( 16-C , 20-H ) :   0.9794 B( 16-C , 21-H ) :   0.9907 B( 19-C , 22-C ) :   0.9260
B( 19-C , 23-H ) :   0.9905 B( 19-C , 24-H ) :   0.9922 B( 22-C , 25-C ) :   0.8845
B( 22-C , 26-H ) :   0.9857 B( 22-C , 27-H ) :   0.9820 B( 25-C , 28-C ) :   0.8963
B( 25-C , 29-H ) :   0.9676 B( 25-C , 30-H ) :   0.9872 B( 28-C , 31-H ) :   0.9830
B( 28-C , 32-H ) :   0.9633

Dispersion correction           -0.002303819
FINAL SINGLE POINT ENERGY     -1042.074299956846

DIPOLE MOMENT
-------------
                                X             Y             Z
Electronic contribution:    -12.68703     -20.27969     -14.29317
Nuclear contribution   :     10.70731      19.84772      14.63855
                        -----------------------------------------
Total Dipole Moment    :     -1.97972      -0.43198       0.34539
                        -----------------------------------------
Magnitude (a.u.)       :      2.05552
Magnitude (Debye)      :      5.22472

Rotational constants in cm-1:     0.026014     0.014812     0.010477
Rotational constants in MHz :   779.874765   444.063394   314.081855

                             ****ORCA TERMINATED NORMALLY****
TOTAL RUN TIME: 0 days 0 hours 1 minutes 23 seconds 995 msec
