                         Program Version 5.0.0 -  RELEASE  -
|  1> !B3LYP D3BJ RIJCOSX def2-TZVPD def2/J TightSCF
|  2> *xyz -1 1
|  3> C         -1.10433        0.25137       -2.86006
|  4> C         -0.71189        0.84252       -4.21834
|  5> H          0.15463        1.49980       -4.13091
|  6> H         -1.53813        1.45922       -4.58267
|  7> C         -0.39762       -0.20587       -5.28802
|  8> O          0.61717       -0.00535       -5.99827
|  9> O         -1.13317       -1.22138       -5.34147
| 10> H         -1.95489       -0.38644       -2.98099
| 11> H         -1.34603        1.04362       -2.18269
| 12> H         -0.28606       -0.31581       -2.46809
| 13> *
| 14>
| 15> %MaxCore 64000
| 16>
| 17> %pal nprocs 4
| 18> end
| 19>
| 20> %scf
| 21>   MaxIter 150
| 22> end
| 23>
| 24>
| 25>                          ****END OF INPUT****

CARTESIAN COORDINATES (ANGSTROEM)
---------------------------------
  C     -1.104330    0.251370   -2.860060
  C     -0.711890    0.842520   -4.218340
  H      0.154630    1.499800   -4.130910
  H     -1.538130    1.459220   -4.582670
  C     -0.397620   -0.205870   -5.288020
  O      0.617170   -0.005350   -5.998270
  O     -1.133170   -1.221380   -5.341470
  H     -1.954890   -0.386440   -2.980990
  H     -1.346030    1.043620   -2.182690
  H     -0.286060   -0.315810   -2.468090

 Total Charge           Charge          ....   -1
 Multiplicity           Mult            ....    1
 Number of Electrons    NEL             ....   40
 Basis Dimension        Dim             ....  236

ORBITAL ENERGIES
----------------

  NO   OCC          E(Eh)            E(eV)
   0   2.0000     -18.861401      -513.2448
   1   2.0000     -18.860586      -513.2226
   2   2.0000     -10.050715      -273.4938
   3   2.0000     -10.002341      -272.1775
   4   2.0000      -9.993802      -271.9452
   5   2.0000      -0.820748       -22.3337
   6   2.0000      -0.729255       -19.8440
   7   2.0000      -0.602922       -16.4064
   8   2.0000      -0.473436       -12.8829
   9   2.0000      -0.318309        -8.6616
  10   2.0000      -0.291933        -7.9439
  11   2.0000      -0.260142        -7.0788
  12   2.0000      -0.228748        -6.2245
  13   2.0000      -0.214614        -5.8399
  14   2.0000      -0.206954        -5.6315
  15   2.0000      -0.179168        -4.8754
  16   2.0000      -0.160871        -4.3775
  17   2.0000      -0.049904        -1.3580
  18   2.0000      -0.042398        -1.1537
  19   2.0000      -0.028892        -0.7862
  20   0.0000       0.133107         3.6220
  21   0.0000       0.158902         4.3239
  22   0.0000       0.173697         4.7265
  23   0.0000       0.183544         4.9945
  24   0.0000       0.206320         5.6142

MULLIKEN ATOMIC CHARGES
-----------------------
   0 C :   -0.963985
   1 C :   -0.021943
   2 H :    0.168915
   3 H :    0.157112
   4 C :    0.359529
   5 O :   -0.736100
   6 O :   -0.731256
   7 H :    0.229021
   8 H :    0.271871
   9 H :    0.266837
Sum of atomic charges:   -1.0000000

LOEWDIN ATOMIC CHARGES
----------------------
   0 C :   -0.130358
   1 C :   -0.206227
   2 H :    0.083853
   3 H :    0.091065
   4 C :   -0.774636
   5 O :   -0.109605
   6 O :   -0.100440
   7 H :    0.050742
   8 H :    0.038613
   9 H :    0.056993

  Mayer bond orders larger than 0.100000
B(  0-C ,  1-C ) :   0.5878 B(  0-C ,  7-H ) :   1.0364 B(  0-C ,  8-H ) :   0.9565
B(  0-C ,  9-H ) :   0.9684 B(  1-C ,  2-H ) :   1.0283 B(  1-C ,  3-H ) :   0.9491
B(  1-C ,  4-C ) :   0.9407 B(  4-C ,  5-O ) :   1.4330 B(  4-C ,  6-O ) :   1.4464

Dispersion correction           -0.010944891
FINAL SINGLE POINT ENERGY      -267.817480046854

DIPOLE MOMENT
-------------
                                X             Y             Z
Electronic contribution:      1.54954      -2.38348      -5.23917
Nuclear contribution   :     -2.09607       3.44215       6.87744
                        -----------------------------------------
Total Dipole Moment    :     -0.54653       1.05866       1.63827
                        -----------------------------------------
Magnitude (a.u.)       :      2.02568
Magnitude (Debye)      :      5.14888

Rotational constants in cm-1:     0.324698     0.133739     0.103466
Rotational constants in MHz :  9734.203431  4009.406827  3101.846422

                             ****ORCA TERMINATED NORMALLY****
TOTAL RUN TIME: 0 days 0 hours 0 minutes 31 seconds 913 msec
