                         Program Version 5.0.0 -  RELEASE  -
|  1> !B3LYP D3BJ RIJCOSX def2-TZVPD def2/J TightSCF
|  2> *xyz 1 1
|  3> C          2.23447       -2.98975       -2.39762
|  4> N          2.75680       -2.94555       -3.76503
|  5> C          1.98721       -2.59045       -4.81898
|  6> N          0.74322       -3.01749       -4.91352
|  7> N          2.49964       -1.84860       -5.80324
|  8> H          3.30978       -1.29282       -5.55895
|  9> H          1.80103       -1.30430       -6.28913
| 10> H          3.71612       -2.62880       -3.82953
| 11> H          0.39583       -3.62775       -4.18502
| 12> H          0.03920       -2.45438       -5.37137
| 13> C          2.19120       -1.61950       -1.71549
| 14> H          2.87278       -3.66637       -1.82801
| 15> H          1.24619       -3.44744       -2.40784
| 16> H          1.56387       -0.96046       -2.27853
| 17> H          3.18033       -1.21449       -1.66568
| 18> H          1.79916       -1.72608       -0.72562
| 19> *
| 20>
| 21> %MaxCore 64000
| 22>
| 23> %pal nprocs 4
| 24> end
| 25>
| 26> %scf
| 27>   MaxIter 150
| 28> end
| 29>
| 30>
| 31>                          ****END OF INPUT****

CARTESIAN COORDINATES (ANGSTROEM)
---------------------------------
  C      2.234470   -2.989750   -2.397620
  N      2.756800   -2.945550   -3.765030
  C      1.987210   -2.590450   -4.818980
  N      0.743220   -3.017490   -4.913520
  N      2.499640   -1.848600   -5.803240
  H      3.309780   -1.292820   -5.558950
  H      1.801030   -1.304300   -6.289130
  H      3.716120   -2.628800   -3.829530
  H      0.395830   -3.627750   -4.185020
  H      0.039200   -2.454380   -5.371370
  C      2.191200   -1.619500   -1.715490
  H      2.872780   -3.666370   -1.828010
  H      1.246190   -3.447440   -2.407840
  H      1.563870   -0.960460   -2.278530
  H      3.180330   -1.214490   -1.665680
  H      1.799160   -1.726080   -0.725620

 Total Charge           Charge          ....    1
 Multiplicity           Mult            ....    1
 Number of Electrons    NEL             ....   48
 Basis Dimension        Dim             ....  312

ORBITAL ENERGIES
----------------

  NO   OCC          E(Eh)            E(eV)
   0   2.0000     -14.544949      -395.7882
   1   2.0000     -14.541222      -395.6868
   2   2.0000     -14.538715      -395.6186
   3   2.0000     -10.507768      -285.9309
   4   2.0000     -10.378319      -282.4084
   5   2.0000     -10.309231      -280.5284
   6   2.0000      -1.220336       -33.2070
   7   2.0000      -1.107145       -30.1269
   8   2.0000      -1.103371       -30.0243
   9   2.0000      -0.929135       -25.2830
  10   2.0000      -0.844699       -22.9854
  11   2.0000      -0.805500       -21.9188
  12   2.0000      -0.785209       -21.3666
  13   2.0000      -0.742249       -20.1976
  14   2.0000      -0.702188       -19.1075
  15   2.0000      -0.686563       -18.6823
  16   2.0000      -0.650139       -17.6912
  17   2.0000      -0.621663       -16.9163
  18   2.0000      -0.603720       -16.4280
  19   2.0000      -0.569856       -15.5066
  20   2.0000      -0.537410       -14.6237
  21   2.0000      -0.518915       -14.1204
  22   2.0000      -0.490274       -13.3410
  23   2.0000      -0.453282       -12.3344
  24   0.0000      -0.198540        -5.4026
  25   0.0000      -0.166208        -4.5227
  26   0.0000      -0.135516        -3.6876
  27   0.0000      -0.122289        -3.3277
  28   0.0000      -0.102946        -2.8013

MULLIKEN ATOMIC CHARGES
-----------------------
   0 C :   -0.314160
   1 N :   -0.128731
   2 C :    0.527527
   3 N :   -0.283473
   4 N :   -0.364203
   5 H :    0.233242
   6 H :    0.232831
   7 H :    0.214726
   8 H :    0.242872
   9 H :    0.224773
  10 C :   -1.071414
  11 H :    0.281391
  12 H :    0.246593
  13 H :    0.302626
  14 H :    0.324410
  15 H :    0.330990
Sum of atomic charges:    1.0000000

LOEWDIN ATOMIC CHARGES
----------------------
   0 C :   -0.203286
   1 N :    0.087907
   2 C :   -0.437799
   3 N :    0.227898
   4 N :    0.212370
   5 H :    0.134728
   6 H :    0.134178
   7 H :    0.156639
   8 H :    0.130161
   9 H :    0.144892
  10 C :   -0.049569
  11 H :    0.128000
  12 H :    0.106929
  13 H :    0.069912
  14 H :    0.074934
  15 H :    0.082107

  Mayer bond orders larger than 0.100000
B(  0-C ,  1-N ) :   0.8300 B(  0-C , 10-C ) :   0.6479 B(  0-C , 11-H ) :   0.9615
B(  0-C , 12-H ) :   0.9075 B(  1-N ,  2-C ) :   1.2805 B(  1-N ,  7-H ) :   0.9125
B(  2-C ,  3-N ) :   1.1666 B(  2-C ,  4-N ) :   1.1585 B(  3-N ,  8-H ) :   0.9020
B(  3-N ,  9-H ) :   0.9565 B(  4-N ,  5-H ) :   0.9337 B(  4-N ,  6-H ) :   0.9174
B( 10-C , 13-H ) :   0.9619 B( 10-C , 14-H ) :   0.9582 B( 10-C , 15-H ) :   0.9691

Dispersion correction           -0.020339895
FINAL SINGLE POINT ENERGY      -284.344175898750

DIPOLE MOMENT
-------------
                                X             Y             Z
Electronic contribution:      0.18818      -1.68930      -5.18146
Nuclear contribution   :     -0.59121       2.30298       4.63196
                        -----------------------------------------
Total Dipole Moment    :     -0.40303       0.61368      -0.54950
                        -----------------------------------------
Magnitude (a.u.)       :      0.91705
Magnitude (Debye)      :      2.33096

Rotational constants in cm-1:     0.205874     0.074757     0.066901
Rotational constants in MHz :  6171.937773  2241.151057  2005.629823

                             ****ORCA TERMINATED NORMALLY****
TOTAL RUN TIME: 0 days 0 hours 0 minutes 55 seconds 783 msec
