                         Program Version 5.0.0 -  RELEASE  -
|  1> !B3LYP D3BJ RIJCOSX def2-TZVPD def2/J TightSCF xyzfile
|  2>
|  3> *xyzfile 0 1 B.xyz
|  4>
|  5> %MaxCore 64000
|  6>
|  7> %pal nprocs 4
|  8> end
|  9>
| 10> %scf
| 11>   MaxIter 150
| 12> end
| 13>
| 14>
| 15>                          ****END OF INPUT****

CARTESIAN COORDINATES (ANGSTROEM)
---------------------------------
  C      2.234473   -2.989754   -2.397622
  N      2.756799   -2.945553   -3.765029
  C     -1.104325    0.251374   -2.860056
  C     -0.711893    0.842517   -4.218344
  H      0.154626    1.499800   -4.130909
  H     -1.538134    1.459222   -4.582671
  C     -0.397624   -0.205875   -5.288018
  C      1.987208   -2.590451   -4.818975
  N      0.743221   -3.017493   -4.913524
  N      2.499636   -1.848598   -5.803241
  H      3.309780   -1.292818   -5.558947
  H      1.801025   -1.304298   -6.289129
  H      3.716116   -2.628797   -3.829533
  H      0.395828   -3.627747   -4.185024
  H      0.039201   -2.454383   -5.371367
  O      0.617165   -0.005348   -5.998273
  O     -1.133173   -1.221380   -5.341465
  C      2.191199   -1.619503   -1.715492
  H      2.872783   -3.666368   -1.828014
  H      1.246188   -3.447444   -2.407842
  C      1.298729   -0.554314   -2.359773
  H      1.872917   -1.787955   -0.681310
  H      3.216809   -1.238432   -1.654428
  C     -0.196255   -0.863365   -2.325763
  H      1.612531   -0.371346   -3.393065
  H      1.480944    0.388638   -1.834444
  H     -0.404105   -1.761825   -2.909448
  H     -0.490439   -1.087880   -1.294131
  H     -1.143842    1.066711   -2.129680
  H     -2.114401   -0.156834   -2.930323

 Total Charge           Charge          ....    0
 Multiplicity           Mult            ....    1
 Number of Electrons    NEL             ....  102
 Basis Dimension        Dim             ....  640

ORBITAL ENERGIES
----------------

  NO   OCC          E(Eh)            E(eV)
   0   2.0000     -19.042469      -518.1719
   1   2.0000     -19.041006      -518.1321
   2   2.0000     -14.383136      -391.3850
   3   2.0000     -14.353019      -390.5655
   4   2.0000     -14.352448      -390.5500
   5   2.0000     -10.333434      -281.1870
   6   2.0000     -10.243777      -278.7473
   7   2.0000     -10.226946      -278.2894
   8   2.0000     -10.193112      -277.3687
   9   2.0000     -10.173190      -276.8266
  10   2.0000     -10.159508      -276.4543
  11   2.0000     -10.150047      -276.1968
  12   2.0000     -10.137265      -275.8490
  13   2.0000      -1.048511       -28.5314
  14   2.0000      -1.006995       -27.4017
  15   2.0000      -0.944150       -25.6916
  16   2.0000      -0.925870       -25.1942
  17   2.0000      -0.909902       -24.7597
  18   2.0000      -0.818700       -22.2780
  19   2.0000      -0.776143       -21.1199
  20   2.0000      -0.725578       -19.7440
  21   2.0000      -0.681446       -18.5431
  22   2.0000      -0.655624       -17.8404
  23   2.0000      -0.621500       -16.9119
  24   2.0000      -0.612537       -16.6680
  25   2.0000      -0.579304       -15.7637
  26   2.0000      -0.557919       -15.1818
  27   2.0000      -0.533316       -14.5123
  28   2.0000      -0.511479       -13.9180
  29   2.0000      -0.501783       -13.6542
  30   2.0000      -0.483103       -13.1459
  31   2.0000      -0.471647       -12.8342
  32   2.0000      -0.464498       -12.6396
  33   2.0000      -0.447439       -12.1754
  34   2.0000      -0.435710       -11.8563
  35   2.0000      -0.427240       -11.6258
  36   2.0000      -0.413695       -11.2572
  37   2.0000      -0.406746       -11.0681
  38   2.0000      -0.390853       -10.6356
  39   2.0000      -0.380595       -10.3565
  40   2.0000      -0.368031       -10.0146
  41   2.0000      -0.359233        -9.7752
  42   2.0000      -0.345071        -9.3899
  43   2.0000      -0.329039        -8.9536
  44   2.0000      -0.316464        -8.6114
  45   2.0000      -0.309972        -8.4348
  46   2.0000      -0.305655        -8.3173
  47   2.0000      -0.295786        -8.0487
  48   2.0000      -0.232220        -6.3190
  49   2.0000      -0.221458        -6.0262
  50   2.0000      -0.213800        -5.8178
  51   0.0000      -0.026727        -0.7273
  52   0.0000      -0.025251        -0.6871
  53   0.0000      -0.006122        -0.1666
  54   0.0000       0.006447         0.1754
  55   0.0000       0.017226         0.4687

MULLIKEN ATOMIC CHARGES
-----------------------
   0 C :   -0.674243
   1 N :   -0.101670
   2 C :   -0.481406
   3 C :   -0.390135
   4 H :    0.209449
   5 H :    0.251357
   6 C :    0.685028
   7 C :    0.275154
   8 N :   -0.318501
   9 N :   -0.388766
  10 H :    0.193868
  11 H :    0.331703
  12 H :    0.211690
  13 H :    0.222733
  14 H :    0.344605
  15 O :   -0.839361
  16 O :   -0.841431
  17 C :   -0.451458
  18 H :    0.238221
  19 H :    0.291773
  20 C :   -0.363609
  21 H :    0.267169
  22 H :    0.222809
  23 C :   -0.369295
  24 H :    0.251211
  25 H :    0.324211
  26 H :    0.197851
  27 H :    0.257342
  28 H :    0.202996
  29 H :    0.240705
Sum of atomic charges:   -0.0000000

LOEWDIN ATOMIC CHARGES
----------------------
   0 C :   -0.174469
   1 N :    0.076139
   2 C :   -0.195881
   3 C :   -0.123611
   4 H :    0.103009
   5 H :    0.114772
   6 C :   -0.678519
   7 C :   -0.453425
   8 N :    0.232066
   9 N :    0.196952
  10 H :    0.121997
  11 H :    0.069986
  12 H :    0.143787
  13 H :    0.120742
  14 H :    0.062339
  15 O :   -0.059504
  16 O :   -0.051516
  17 C :   -0.178248
  18 H :    0.117501
  19 H :    0.105488
  20 C :   -0.195982
  21 H :    0.113424
  22 H :    0.107800
  23 C :   -0.205300
  24 H :    0.100048
  25 H :    0.119288
  26 H :    0.086110
  27 H :    0.112320
  28 H :    0.105093
  29 H :    0.107592

  Mayer bond orders larger than 0.100000
B(  0-C ,  1-N ) :   0.8575 B(  0-C ,  8-N ) :   0.1065 B(  0-C , 17-C ) :   0.7136
B(  0-C , 18-H ) :   0.9929 B(  0-C , 19-H ) :   0.9197 B(  0-C , 23-C ) :   0.1316
B(  1-N ,  7-C ) :   1.1785 B(  1-N , 12-H ) :   0.8665 B(  2-C ,  3-C ) :   0.8656
B(  2-C , 20-C ) :   0.1882 B(  2-C , 23-C ) :   0.9600 B(  2-C , 28-H ) :   0.9823
B(  2-C , 29-H ) :   0.9007 B(  3-C ,  4-H ) :   1.0095 B(  3-C ,  5-H ) :   0.8952
B(  3-C ,  6-C ) :   0.9460 B(  3-C , 20-C ) :   0.1284 B(  6-C , 15-O ) :   1.1331
B(  6-C , 16-O ) :   1.2234 B(  7-C ,  8-N ) :   1.2964 B(  7-C ,  9-N ) :   1.1638
B(  7-C , 20-C ) :   0.1017 B(  8-N , 13-H ) :   0.8649 B(  8-N , 14-H ) :   0.6955
B(  9-N , 10-H ) :   0.9251 B(  9-N , 11-H ) :   0.7379 B( 14-H , 16-O ) :   0.1041
B( 15-O , 16-O ) :   0.1164 B( 17-C , 20-C ) :   0.8718 B( 17-C , 21-H ) :   0.9711
B( 17-C , 22-H ) :   0.9785 B( 17-C , 23-C ) :   0.1901 B( 20-C , 23-C ) :   0.4371
B( 20-C , 24-H ) :   1.0873 B( 20-C , 25-H ) :   0.7899 B( 20-C , 26-H ) :  -0.1655
B( 23-C , 26-H ) :   1.1354 B( 23-C , 27-H ) :   0.8766

Dispersion correction           -0.057346257
FINAL SINGLE POINT ENERGY      -629.756102010747

DIPOLE MOMENT
-------------
                                X             Y             Z
Electronic contribution:      0.57031      -2.84366     -10.24959
Nuclear contribution   :      1.76912       1.50070      12.36652
                        -----------------------------------------
Total Dipole Moment    :      2.33943      -1.34296       2.11693
                        -----------------------------------------
Magnitude (a.u.)       :      3.42898
Magnitude (Debye)      :      8.71577

Rotational constants in cm-1:     0.033272     0.023886     0.017112
Rotational constants in MHz :   997.469575   716.074432   513.001395

                             ****ORCA TERMINATED NORMALLY****
TOTAL RUN TIME: 0 days 0 hours 6 minutes 4 seconds 978 msec
