                         Program Version 5.0.0 -  RELEASE  -
|  1> !B3LYP D3BJ RIJCOSX def2-TZVPD def2/J TightSCF
|  2> *xyz 0 1
|  3> C         -1.10433        0.25137       -2.86006
|  4> C         -0.71189        0.84252       -4.21834
|  5> H          0.15463        1.49980       -4.13091
|  6> H         -1.53813        1.45922       -4.58267
|  7> C         -0.39762       -0.20587       -5.28802
|  8> F          0.61717       -0.00535       -5.99827
|  9> O         -1.13317       -1.22138       -5.34147
| 10> H         -1.95489       -0.38644       -2.98099
| 11> H         -1.34603        1.04362       -2.18269
| 12> H         -0.28606       -0.31581       -2.46809
| 13> *
| 14>
| 15> %MaxCore 64000
| 16>
| 17> %pal nprocs 4
| 18> end
| 19>
| 20> %scf
| 21>   MaxIter 150
| 22> end
| 23>
| 24>
| 25>                          ****END OF INPUT****

CARTESIAN COORDINATES (ANGSTROEM)
---------------------------------
  C     -1.104330    0.251370   -2.860060
  C     -0.711890    0.842520   -4.218340
  H      0.154630    1.499800   -4.130910
  H     -1.538130    1.459220   -4.582670
  C     -0.397620   -0.205870   -5.288020
  F      0.617170   -0.005350   -5.998270
  O     -1.133170   -1.221380   -5.341470
  H     -1.954890   -0.386440   -2.980990
  H     -1.346030    1.043620   -2.182690
  H     -0.286060   -0.315810   -2.468090

 Total Charge           Charge          ....    0
 Multiplicity           Mult            ....    1
 Number of Electrons    NEL             ....   40
 Basis Dimension        Dim             ....  236

ORBITAL ENERGIES
----------------

  NO   OCC          E(Eh)            E(eV)
   0   2.0000     -24.752898      -673.5606
   1   2.0000     -19.132372      -520.6183
   2   2.0000     -10.348592      -281.5995
   3   2.0000     -10.201858      -277.6067
   4   2.0000     -10.170702      -276.7589
   5   2.0000      -1.321103       -35.9491
   6   2.0000      -1.035095       -28.1664
   7   2.0000      -0.799219       -21.7479
   8   2.0000      -0.692650       -18.8480
   9   2.0000      -0.638977       -17.3874
  10   2.0000      -0.549996       -14.9662
  11   2.0000      -0.536569       -14.6008
  12   2.0000      -0.509458       -13.8631
  13   2.0000      -0.466596       -12.6967
  14   2.0000      -0.435437       -11.8488
  15   2.0000      -0.397469       -10.8157
  16   2.0000      -0.378904       -10.3105
  17   2.0000      -0.376826       -10.2540
  18   2.0000      -0.350071        -9.5259
  19   2.0000      -0.295606        -8.0439
  20   0.0000      -0.034073        -0.9272
  21   0.0000       0.000777         0.0212
  22   0.0000       0.026766         0.7283
  23   0.0000       0.038153         1.0382
  24   0.0000       0.047595         1.2951

MULLIKEN ATOMIC CHARGES
-----------------------
   0 C :   -1.008840
   1 C :   -0.102132
   2 H :    0.230285
   3 H :    0.225007
   4 C :    0.508928
   5 F :   -0.219471
   6 O :   -0.498049
   7 H :    0.273495
   8 H :    0.286828
   9 H :    0.303948
Sum of atomic charges:   -0.0000000

LOEWDIN ATOMIC CHARGES
----------------------
   0 C :   -0.083572
   1 C :   -0.152558
   2 H :    0.106240
   3 H :    0.119513
   4 C :   -0.486310
   5 F :    0.206943
   6 O :    0.081780
   7 H :    0.069090
   8 H :    0.066666
   9 H :    0.072209

  Mayer bond orders larger than 0.100000
B(  0-C ,  1-C ) :   0.6644 B(  0-C ,  7-H ) :   1.0062 B(  0-C ,  8-H ) :   0.9595
B(  0-C ,  9-H ) :   0.9380 B(  1-C ,  2-H ) :   0.9732 B(  1-C ,  3-H ) :   0.9291
B(  1-C ,  4-C ) :   0.9316 B(  4-C ,  5-F ) :   1.0068 B(  4-C ,  6-O ) :   1.7422

Dispersion correction           -0.010387578
FINAL SINGLE POINT ENERGY      -292.382669365071

DIPOLE MOMENT
-------------
                                X             Y             Z
Electronic contribution:      3.59877      -2.36068      -7.70371
Nuclear contribution   :     -3.36368       3.36392       8.24820
                        -----------------------------------------
Total Dipole Moment    :      0.23509       1.00324       0.54448
                        -----------------------------------------
Magnitude (a.u.)       :      1.16543
Magnitude (Debye)      :      2.96228

Rotational constants in cm-1:     0.315013     0.126712     0.098430
Rotational constants in MHz :  9443.861322  3798.734540  2950.846388

                             ****ORCA TERMINATED NORMALLY****
TOTAL RUN TIME: 0 days 0 hours 0 minutes 30 seconds 865 msec
