                         Program Version 5.0.0 -  RELEASE  -
|  1> !B3LYP D3BJ RIJCOSX def2-TZVPD def2/J TightSCF
|  2> *xyz 0 1
|  3> C          2.23447       -2.98975       -2.39762
|  4> C          2.75680       -2.94555       -3.76503
|  5> C          1.98721       -2.59045       -4.81898
|  6> N          0.74322       -3.01749       -4.91352
|  7> N          2.49964       -1.84860       -5.80324
|  8> H          3.30978       -1.29282       -5.55895
|  9> H          1.80103       -1.30430       -6.28913
| 10> H          3.71612       -2.62880       -3.82953
| 11> H          0.39583       -3.62775       -4.18502
| 12> H          0.03920       -2.45438       -5.37137
| 13> C          2.19120       -1.61950       -1.71549
| 14> H          2.87278       -3.66637       -1.82801
| 15> H          1.24619       -3.44744       -2.40784
| 16> H          1.56387       -0.96046       -2.27853
| 17> H          3.18033       -1.21449       -1.66568
| 18> H          1.79916       -1.72608       -0.72562
| 19> *
| 20>
| 21> %MaxCore 64000
| 22>
| 23> %pal nprocs 4
| 24> end
| 25>
| 26> %scf
| 27>   MaxIter 150
| 28> end
| 29>
| 30>
| 31>                          ****END OF INPUT****

CARTESIAN COORDINATES (ANGSTROEM)
---------------------------------
  C      2.234470   -2.989750   -2.397620
  C      2.756800   -2.945550   -3.765030
  C      1.987210   -2.590450   -4.818980
  N      0.743220   -3.017490   -4.913520
  N      2.499640   -1.848600   -5.803240
  H      3.309780   -1.292820   -5.558950
  H      1.801030   -1.304300   -6.289130
  H      3.716120   -2.628800   -3.829530
  H      0.395830   -3.627750   -4.185020
  H      0.039200   -2.454380   -5.371370
  C      2.191200   -1.619500   -1.715490
  H      2.872780   -3.666370   -1.828010
  H      1.246190   -3.447440   -2.407840
  H      1.563870   -0.960460   -2.278530
  H      3.180330   -1.214490   -1.665680
  H      1.799160   -1.726080   -0.725620

 Total Charge           Charge          ....    0
 Multiplicity           Mult            ....    1
 Number of Electrons    NEL             ....   48
 Basis Dimension        Dim             ....  312

ORBITAL ENERGIES
----------------

  NO   OCC          E(Eh)            E(eV)
   0   2.0000     -14.322299      -389.7296
   1   2.0000     -14.318573      -389.6282
   2   2.0000     -10.217065      -278.0205
   3   2.0000     -10.145656      -276.0773
   4   2.0000     -10.136314      -275.8231
   5   2.0000     -10.095447      -274.7111
   6   2.0000      -0.972065       -26.4512
   7   2.0000      -0.881390       -23.9838
   8   2.0000      -0.773739       -21.0545
   9   2.0000      -0.693037       -18.8585
  10   2.0000      -0.620240       -16.8776
  11   2.0000      -0.580403       -15.7936
  12   2.0000      -0.544002       -14.8031
  13   2.0000      -0.508993       -13.8504
  14   2.0000      -0.471861       -12.8400
  15   2.0000      -0.451294       -12.2803
  16   2.0000      -0.414314       -11.2741
  17   2.0000      -0.394739       -10.7414
  18   2.0000      -0.373803       -10.1717
  19   2.0000      -0.360038        -9.7971
  20   2.0000      -0.329745        -8.9728
  21   2.0000      -0.323104        -8.7921
  22   2.0000      -0.277096        -7.5402
  23   2.0000      -0.162636        -4.4255
  24   0.0000      -0.008566        -0.2331
  25   0.0000       0.020952         0.5701
  26   0.0000       0.028246         0.7686
  27   0.0000       0.032884         0.8948
  28   0.0000       0.052279         1.4226

MULLIKEN ATOMIC CHARGES
-----------------------
   0 C :   -0.083007
   1 C :   -0.506173
   2 C :    0.230060
   3 N :   -0.344225
   4 N :   -0.448778
   5 H :    0.211593
   6 H :    0.170524
   7 H :    0.318778
   8 H :    0.199030
   9 H :    0.135836
  10 C :   -1.155990
  11 H :    0.166336
  12 H :    0.230685
  13 H :    0.278810
  14 H :    0.304374
  15 H :    0.292148
Sum of atomic charges:    0.0000000

LOEWDIN ATOMIC CHARGES
----------------------
   0 C :   -0.287691
   1 C :   -0.130953
   2 C :   -0.553963
   3 N :    0.131119
   4 N :    0.118352
   5 H :    0.105479
   6 H :    0.093800
   7 H :    0.056082
   8 H :    0.103461
   9 H :    0.101765
  10 C :   -0.095735
  11 H :    0.096030
  12 H :    0.083283
  13 H :    0.060908
  14 H :    0.062164
  15 H :    0.055900

  Mayer bond orders larger than 0.100000
B(  0-C ,  1-C ) :   0.7072 B(  0-C , 10-C ) :   0.5020 B(  0-C , 11-H ) :   1.0769
B(  0-C , 12-H ) :   0.9623 B(  1-C ,  2-C ) :   1.5288 B(  1-C ,  7-H ) :   0.9719
B(  2-C ,  3-N ) :   0.9796 B(  2-C ,  4-N ) :   1.0660 B(  2-C ,  7-H ) :  -0.1598
B(  2-C , 10-C ) :   0.1068 B(  3-N ,  8-H ) :   0.9352 B(  3-N ,  9-H ) :   1.0220
B(  4-N ,  5-H ) :   0.9272 B(  4-N ,  6-H ) :   0.9714 B( 10-C , 13-H ) :   0.9887
B( 10-C , 14-H ) :   0.9888 B( 10-C , 15-H ) :   0.9774

Dispersion correction           -0.021283865
FINAL SINGLE POINT ENERGY      -267.863092464900

DIPOLE MOMENT
-------------
                                X             Y             Z
Electronic contribution:     -0.30653      -1.39051      -4.98692
Nuclear contribution   :     -0.44240       2.20379       4.66256
                        -----------------------------------------
Total Dipole Moment    :     -0.74893       0.81328      -0.32436
                        -----------------------------------------
Magnitude (a.u.)       :      1.15219
Magnitude (Debye)      :      2.92863

Rotational constants in cm-1:     0.209447     0.075194     0.066975
Rotational constants in MHz :  6279.068019  2254.272519  2007.845458

                             ****ORCA TERMINATED NORMALLY****
TOTAL RUN TIME: 0 days 0 hours 0 minutes 55 seconds 360 msec
