                         Program Version 5.0.0 -  RELEASE  -
|  1> !B3LYP D3BJ RIJCOSX def2-TZVPD def2/J TightSCF
|  2> *xyz 0 1
|  3> C         -1.10433        0.25137       -2.86006
|  4> C         -0.71189        0.84252       -4.21834
|  5> H          0.15463        1.49980       -4.13091
|  6> H         -1.53813        1.45922       -4.58267
|  7> C         -0.39762       -0.20587       -5.28802
|  8> O          0.61717       -0.00535       -5.99827
|  9> F         -1.13317       -1.22138       -5.34147
| 10> H         -1.95489       -0.38644       -2.98099
| 11> H         -1.34603        1.04362       -2.18269
| 12> H         -0.28606       -0.31581       -2.46809
| 13> *
| 14>
| 15> %MaxCore 64000
| 16>
| 17> %pal nprocs 4
| 18> end
| 19>
| 20> %scf
| 21>   MaxIter 150
| 22> end
| 23>
| 24>
| 25>                          ****END OF INPUT****

CARTESIAN COORDINATES (ANGSTROEM)
---------------------------------
  C     -1.104330    0.251370   -2.860060
  C     -0.711890    0.842520   -4.218340
  H      0.154630    1.499800   -4.130910
  H     -1.538130    1.459220   -4.582670
  C     -0.397620   -0.205870   -5.288020
  O      0.617170   -0.005350   -5.998270
  F     -1.133170   -1.221380   -5.341470
  H     -1.954890   -0.386440   -2.980990
  H     -1.346030    1.043620   -2.182690
  H     -0.286060   -0.315810   -2.468090

 Total Charge           Charge          ....    0
 Multiplicity           Mult            ....    1
 Number of Electrons    NEL             ....   40
 Basis Dimension        Dim             ....  236

ORBITAL ENERGIES
----------------

  NO   OCC          E(Eh)            E(eV)
   0   2.0000     -24.753587      -673.5793
   1   2.0000     -19.131428      -520.5926
   2   2.0000     -10.347995      -281.5833
   3   2.0000     -10.201135      -277.5870
   4   2.0000     -10.176387      -276.9136
   5   2.0000      -1.321603       -35.9627
   6   2.0000      -1.034143       -28.1405
   7   2.0000      -0.803333       -21.8598
   8   2.0000      -0.687962       -18.7204
   9   2.0000      -0.646082       -17.5808
  10   2.0000      -0.552057       -15.0222
  11   2.0000      -0.543465       -14.7884
  12   2.0000      -0.499976       -13.6050
  13   2.0000      -0.468207       -12.7406
  14   2.0000      -0.435687       -11.8556
  15   2.0000      -0.402739       -10.9591
  16   2.0000      -0.387061       -10.5325
  17   2.0000      -0.380769       -10.3612
  18   2.0000      -0.350544        -9.5388
  19   2.0000      -0.291035        -7.9195
  20   0.0000      -0.032093        -0.8733
  21   0.0000      -0.001815        -0.0494
  22   0.0000       0.027482         0.7478
  23   0.0000       0.036292         0.9876
  24   0.0000       0.048059         1.3078

MULLIKEN ATOMIC CHARGES
-----------------------
   0 C :   -1.045543
   1 C :   -0.041115
   2 H :    0.197179
   3 H :    0.236545
   4 C :    0.490291
   5 O :   -0.499402
   6 F :   -0.223182
   7 H :    0.284752
   8 H :    0.278507
   9 H :    0.321968
Sum of atomic charges:    0.0000000

LOEWDIN ATOMIC CHARGES
----------------------
   0 C :   -0.088286
   1 C :   -0.147678
   2 H :    0.115403
   3 H :    0.118067
   4 C :   -0.490049
   5 O :    0.078165
   6 F :    0.209765
   7 H :    0.065530
   8 H :    0.066991
   9 H :    0.072093

  Mayer bond orders larger than 0.100000
B(  0-C ,  1-C ) :   0.6038 B(  0-C ,  7-H ) :   0.9823 B(  0-C ,  8-H ) :   0.9813
B(  0-C ,  9-H ) :   0.9460 B(  1-C ,  2-H ) :   1.0066 B(  1-C ,  3-H ) :   0.9192
B(  1-C ,  4-C ) :   0.9313 B(  4-C ,  5-O ) :   1.7377 B(  4-C ,  6-F ) :   1.0139

Dispersion correction           -0.010299873
FINAL SINGLE POINT ENERGY      -292.381821403280

DIPOLE MOMENT
-------------
                                X             Y             Z
Electronic contribution:      0.67955      -4.36580      -6.58462
Nuclear contribution   :     -1.45527       4.68977       7.53208
                        -----------------------------------------
Total Dipole Moment    :     -0.77571       0.32397       0.94746
                        -----------------------------------------
Magnitude (a.u.)       :      1.26664
Magnitude (Debye)      :      3.21954

Rotational constants in cm-1:     0.298240     0.132464     0.099915
Rotational constants in MHz :  8940.998095  3971.171647  2995.369122

                             ****ORCA TERMINATED NORMALLY****
TOTAL RUN TIME: 0 days 0 hours 0 minutes 28 seconds 639 msec
