                         Program Version 5.0.0 -  RELEASE  -
|  1> !B3LYP D3BJ RIJCOSX def2-TZVPD def2/J TightSCF
|  2> *xyz 0 1
|  3> C          2.23447       -2.98975       -2.39762
|  4> N          2.75680       -2.94555       -3.76503
|  5> C          1.98721       -2.59045       -4.81898
|  6> C          0.74322       -3.01749       -4.91352
|  7> N          2.49964       -1.84860       -5.80324
|  8> H          3.30978       -1.29282       -5.55895
|  9> H          1.80103       -1.30430       -6.28913
| 10> H          3.71612       -2.62880       -3.82953
| 11> H          0.39583       -3.62775       -4.18502
| 12> H          0.03920       -2.45438       -5.37137
| 13> C          2.19120       -1.61950       -1.71549
| 14> H          2.87278       -3.66637       -1.82801
| 15> H          1.24619       -3.44744       -2.40784
| 16> H          1.56387       -0.96046       -2.27853
| 17> H          3.18033       -1.21449       -1.66568
| 18> H          1.79916       -1.72608       -0.72562
| 19> *
| 20>
| 21> %MaxCore 64000
| 22>
| 23> %pal nprocs 4
| 24> end
| 25>
| 26> %scf
| 27>   MaxIter 150
| 28> end
| 29>
| 30>
| 31>                          ****END OF INPUT****

CARTESIAN COORDINATES (ANGSTROEM)
---------------------------------
  C      2.234470   -2.989750   -2.397620
  N      2.756800   -2.945550   -3.765030
  C      1.987210   -2.590450   -4.818980
  C      0.743220   -3.017490   -4.913520
  N      2.499640   -1.848600   -5.803240
  H      3.309780   -1.292820   -5.558950
  H      1.801030   -1.304300   -6.289130
  H      3.716120   -2.628800   -3.829530
  H      0.395830   -3.627750   -4.185020
  H      0.039200   -2.454380   -5.371370
  C      2.191200   -1.619500   -1.715490
  H      2.872780   -3.666370   -1.828010
  H      1.246190   -3.447440   -2.407840
  H      1.563870   -0.960460   -2.278530
  H      3.180330   -1.214490   -1.665680
  H      1.799160   -1.726080   -0.725620

 Total Charge           Charge          ....    0
 Multiplicity           Mult            ....    1
 Number of Electrons    NEL             ....   48
 Basis Dimension        Dim             ....  312

ORBITAL ENERGIES
----------------

  NO   OCC          E(Eh)            E(eV)
   0   2.0000     -14.317975      -389.6119
   1   2.0000     -14.316396      -389.5689
   2   2.0000     -10.214040      -277.9382
   3   2.0000     -10.201513      -277.5973
   4   2.0000     -10.156779      -276.3800
   5   2.0000     -10.086723      -274.4737
   6   2.0000      -0.968204       -26.3462
   7   2.0000      -0.889172       -24.1956
   8   2.0000      -0.756000       -20.5718
   9   2.0000      -0.715519       -19.4703
  10   2.0000      -0.640708       -17.4346
  11   2.0000      -0.563369       -15.3300
  12   2.0000      -0.543842       -14.7987
  13   2.0000      -0.513015       -13.9598
  14   2.0000      -0.461647       -12.5621
  15   2.0000      -0.447418       -12.1749
  16   2.0000      -0.416820       -11.3422
  17   2.0000      -0.399994       -10.8844
  18   2.0000      -0.394644       -10.7388
  19   2.0000      -0.372485       -10.1358
  20   2.0000      -0.359133        -9.7725
  21   2.0000      -0.350031        -9.5248
  22   2.0000      -0.254107        -6.9146
  23   2.0000      -0.178007        -4.8438
  24   0.0000      -0.003990        -0.1086
  25   0.0000       0.020629         0.5614
  26   0.0000       0.027368         0.7447
  27   0.0000       0.033136         0.9017
  28   0.0000       0.050789         1.3820

MULLIKEN ATOMIC CHARGES
-----------------------
   0 C :   -0.229341
   1 N :   -0.198136
   2 C :    0.499879
   3 C :   -0.989645
   4 N :   -0.427670
   5 H :    0.184128
   6 H :    0.178071
   7 H :    0.169810
   8 H :    0.348470
   9 H :    0.191463
  10 C :   -1.057352
  11 H :    0.243528
  12 H :    0.209705
  13 H :    0.279303
  14 H :    0.284750
  15 H :    0.313037
Sum of atomic charges:   -0.0000000

LOEWDIN ATOMIC CHARGES
----------------------
   0 C :   -0.235336
   1 N :    0.016170
   2 C :   -0.564602
   3 C :    0.014110
   4 N :    0.115117
   5 H :    0.091958
   6 H :    0.102858
   7 H :    0.124623
   8 H :    0.006999
   9 H :    0.014719
  10 C :   -0.077987
  11 H :    0.107429
  12 H :    0.098790
  13 H :    0.063535
  14 H :    0.059462
  15 H :    0.062155

  Mayer bond orders larger than 0.100000
B(  0-C ,  1-N ) :   0.7890 B(  0-C , 10-C ) :   0.5660 B(  0-C , 11-H ) :   0.9529
B(  0-C , 12-H ) :   0.9535 B(  1-N ,  2-C ) :   1.0036 B(  1-N ,  7-H ) :   0.9438
B(  2-C ,  3-C ) :   1.4981 B(  2-C ,  4-N ) :   0.9294 B(  3-C ,  8-H ) :   0.8690
B(  3-C ,  9-H ) :   1.1204 B(  4-N ,  5-H ) :   0.9624 B(  4-N ,  6-H ) :   0.9512
B( 10-C , 13-H ) :   1.0079 B( 10-C , 14-H ) :   0.9755 B( 10-C , 15-H ) :   0.9624

Dispersion correction           -0.021133923
FINAL SINGLE POINT ENERGY      -267.859053256824

DIPOLE MOMENT
-------------
                                X             Y             Z
Electronic contribution:      1.48722      -1.26979      -3.83720
Nuclear contribution   :     -0.86957       2.18853       4.41892
                        -----------------------------------------
Total Dipole Moment    :      0.61765       0.91874       0.58172
                        -----------------------------------------
Magnitude (a.u.)       :      1.25059
Magnitude (Debye)      :      3.17875

Rotational constants in cm-1:     0.214718     0.075736     0.068547
Rotational constants in MHz :  6437.075121  2270.519635  2054.974198

                             ****ORCA TERMINATED NORMALLY****
TOTAL RUN TIME: 0 days 0 hours 0 minutes 54 seconds 792 msec
