                         Program Version 5.0.0 -  RELEASE  -
|  1> !B3LYP D3BJ RIJCOSX def2-TZVPD def2/J TightSCF
|  2> *xyz 0 1
|  3> C          2.23447       -2.98975       -2.39762
|  4> N          2.75680       -2.94555       -3.76503
|  5> C          1.98721       -2.59045       -4.81898
|  6> N          0.74322       -3.01749       -4.91352
|  7> C          2.49964       -1.84860       -5.80324
|  8> H          3.30978       -1.29282       -5.55895
|  9> H          1.80103       -1.30430       -6.28913
| 10> H          3.71612       -2.62880       -3.82953
| 11> H          0.39583       -3.62775       -4.18502
| 12> H          0.03920       -2.45438       -5.37137
| 13> C          2.19120       -1.61950       -1.71549
| 14> H          2.87278       -3.66637       -1.82801
| 15> H          1.24619       -3.44744       -2.40784
| 16> H          1.56387       -0.96046       -2.27853
| 17> H          3.18033       -1.21449       -1.66568
| 18> H          1.79916       -1.72608       -0.72562
| 19> *
| 20>
| 21> %MaxCore 64000
| 22>
| 23> %pal nprocs 4
| 24> end
| 25>
| 26> %scf
| 27>   MaxIter 150
| 28> end
| 29>
| 30>
| 31>                          ****END OF INPUT****

CARTESIAN COORDINATES (ANGSTROEM)
---------------------------------
  C      2.234470   -2.989750   -2.397620
  N      2.756800   -2.945550   -3.765030
  C      1.987210   -2.590450   -4.818980
  N      0.743220   -3.017490   -4.913520
  C      2.499640   -1.848600   -5.803240
  H      3.309780   -1.292820   -5.558950
  H      1.801030   -1.304300   -6.289130
  H      3.716120   -2.628800   -3.829530
  H      0.395830   -3.627750   -4.185020
  H      0.039200   -2.454380   -5.371370
  C      2.191200   -1.619500   -1.715490
  H      2.872780   -3.666370   -1.828010
  H      1.246190   -3.447440   -2.407840
  H      1.563870   -0.960460   -2.278530
  H      3.180330   -1.214490   -1.665680
  H      1.799160   -1.726080   -0.725620

 Total Charge           Charge          ....    0
 Multiplicity           Mult            ....    1
 Number of Electrons    NEL             ....   48
 Basis Dimension        Dim             ....  312

ORBITAL ENERGIES
----------------

  NO   OCC          E(Eh)            E(eV)
   0   2.0000     -14.319207      -389.6454
   1   2.0000     -14.316922      -389.5833
   2   2.0000     -10.217460      -278.0312
   3   2.0000     -10.209421      -277.8125
   4   2.0000     -10.160597      -276.4839
   5   2.0000     -10.081797      -274.3397
   6   2.0000      -0.970168       -26.3996
   7   2.0000      -0.889400       -24.2018
   8   2.0000      -0.767950       -20.8970
   9   2.0000      -0.708521       -19.2798
  10   2.0000      -0.630835       -17.1659
  11   2.0000      -0.601534       -16.3686
  12   2.0000      -0.540121       -14.6975
  13   2.0000      -0.492450       -13.4002
  14   2.0000      -0.489635       -13.3237
  15   2.0000      -0.439697       -11.9648
  16   2.0000      -0.428670       -11.6647
  17   2.0000      -0.402673       -10.9573
  18   2.0000      -0.379327       -10.3220
  19   2.0000      -0.368063       -10.0155
  20   2.0000      -0.365281        -9.9398
  21   2.0000      -0.356289        -9.6951
  22   2.0000      -0.256471        -6.9789
  23   2.0000      -0.173106        -4.7104
  24   0.0000      -0.004804        -0.1307
  25   0.0000       0.019926         0.5422
  26   0.0000       0.024152         0.6572
  27   0.0000       0.030248         0.8231
  28   0.0000       0.050011         1.3609

MULLIKEN ATOMIC CHARGES
-----------------------
   0 C :   -0.308829
   1 N :   -0.183542
   2 C :    0.513678
   3 N :   -0.340760
   4 C :   -0.951285
   5 H :    0.219655
   6 H :    0.213988
   7 H :    0.189132
   8 H :    0.187683
   9 H :    0.162746
  10 C :   -1.033458
  11 H :    0.245155
  12 H :    0.208286
  13 H :    0.278137
  14 H :    0.280925
  15 H :    0.318487
Sum of atomic charges:    0.0000000

LOEWDIN ATOMIC CHARGES
----------------------
   0 C :   -0.239913
   1 N :    0.019491
   2 C :   -0.567212
   3 N :    0.129255
   4 C :   -0.003513
   5 H :    0.003526
   6 H :    0.004709
   7 H :    0.133003
   8 H :    0.092723
   9 H :    0.114316
  10 C :   -0.076318
  11 H :    0.106616
  12 H :    0.093328
  13 H :    0.064833
  14 H :    0.063574
  15 H :    0.061581

  Mayer bond orders larger than 0.100000
B(  0-C ,  1-N ) :   0.8639 B(  0-C , 10-C ) :   0.6198 B(  0-C , 11-H ) :   0.9747
B(  0-C , 12-H ) :   0.9467 B(  1-N ,  2-C ) :   1.0825 B(  1-N ,  7-H ) :   0.8881
B(  2-C ,  3-N ) :   0.9857 B(  2-C ,  4-C ) :   1.2847 B(  3-N ,  8-H ) :   0.9474
B(  3-N ,  9-H ) :   0.9782 B(  4-C ,  5-H ) :   1.1341 B(  4-C ,  6-H ) :   1.0853
B( 10-C , 13-H ) :   0.9935 B( 10-C , 14-H ) :   0.9804 B( 10-C , 15-H ) :   0.9629

Dispersion correction           -0.021049621
FINAL SINGLE POINT ENERGY      -267.853318169193

DIPOLE MOMENT
-------------
                                X             Y             Z
Electronic contribution:     -0.11691      -2.39534      -2.96165
Nuclear contribution   :     -0.49695       2.43650       4.23017
                        -----------------------------------------
Total Dipole Moment    :     -0.61386       0.04116       1.26852
                        -----------------------------------------
Magnitude (a.u.)       :      1.40985
Magnitude (Debye)      :      3.58355

Rotational constants in cm-1:     0.211102     0.077011     0.069221
Rotational constants in MHz :  6328.667765  2308.731604  2075.192956

                             ****ORCA TERMINATED NORMALLY****
TOTAL RUN TIME: 0 days 0 hours 0 minutes 57 seconds 334 msec
