                         Program Version 5.0.0 -  RELEASE  -
|  1> !B3LYP D3BJ RIJCOSX def2-TZVPD def2/J TightSCF xyzfile
|  2>
|  3> *xyzfile 0 1 D1.xyz
|  4>
|  5> %MaxCore 64000
|  6>
|  7> %pal nprocs 4
|  8> end
|  9>
| 10> %scf
| 11>   MaxIter 150
| 12> end
| 13>
| 14>
| 15>                          ****END OF INPUT****

CARTESIAN COORDINATES (ANGSTROEM)
---------------------------------
  C      2.234473   -2.989754   -2.397622
  C      2.756799   -2.945553   -3.765029
  C     -1.104325    0.251374   -2.860056
  C     -0.711893    0.842517   -4.218344
  H      0.154626    1.499800   -4.130909
  H     -1.538134    1.459222   -4.582671
  C     -0.397624   -0.205875   -5.288018
  C      1.987208   -2.590451   -4.818975
  N      0.743221   -3.017493   -4.913524
  N      2.499636   -1.848598   -5.803241
  H      3.309780   -1.292818   -5.558947
  H      1.801025   -1.304298   -6.289129
  H      3.716116   -2.628797   -3.829533
  H      0.395828   -3.627747   -4.185024
  H      0.039201   -2.454383   -5.371367
  F      0.617165   -0.005348   -5.998273
  O     -1.133173   -1.221380   -5.341465
  C      2.191199   -1.619503   -1.715492
  H      2.872783   -3.666368   -1.828014
  H      1.246188   -3.447444   -2.407842
  C      1.298729   -0.554314   -2.359773
  H      1.872917   -1.787955   -0.681310
  H      3.216809   -1.238432   -1.654428
  C     -0.196255   -0.863365   -2.325763
  H      1.612531   -0.371346   -3.393065
  H      1.480944    0.388638   -1.834444
  H     -0.404105   -1.761825   -2.909448
  H     -0.490439   -1.087880   -1.294131
  H     -1.143842    1.066711   -2.129680
  H     -2.114401   -0.156834   -2.930323

 Total Charge           Charge          ....    0
 Multiplicity           Mult            ....    1
 Number of Electrons    NEL             ....  102
 Basis Dimension        Dim             ....  640

ORBITAL ENERGIES
----------------

  NO   OCC          E(Eh)            E(eV)
   0   2.0000     -24.785865      -674.4577
   1   2.0000     -19.162279      -521.4321
   2   2.0000     -14.303935      -389.2298
   3   2.0000     -14.294057      -388.9611
   4   2.0000     -10.375611      -282.3347
   5   2.0000     -10.213667      -277.9280
   6   2.0000     -10.205529      -277.7066
   7   2.0000     -10.187797      -277.2240
   8   2.0000     -10.167376      -276.6684
   9   2.0000     -10.163804      -276.5712
  10   2.0000     -10.151660      -276.2407
  11   2.0000     -10.141198      -275.9560
  12   2.0000     -10.084903      -274.4242
  13   2.0000      -1.356874       -36.9224
  14   2.0000      -1.071123       -29.1467
  15   2.0000      -0.958174       -26.0732
  16   2.0000      -0.866374       -23.5752
  17   2.0000      -0.829937       -22.5837
  18   2.0000      -0.790089       -21.4994
  19   2.0000      -0.754216       -20.5233
  20   2.0000      -0.711520       -19.3614
  21   2.0000      -0.689866       -18.7722
  22   2.0000      -0.654009       -17.7965
  23   2.0000      -0.614448       -16.7200
  24   2.0000      -0.590060       -16.0564
  25   2.0000      -0.582573       -15.8526
  26   2.0000      -0.570021       -15.5110
  27   2.0000      -0.551725       -15.0132
  28   2.0000      -0.543540       -14.7905
  29   2.0000      -0.518130       -14.0990
  30   2.0000      -0.495041       -13.4708
  31   2.0000      -0.481473       -13.1016
  32   2.0000      -0.475827       -12.9479
  33   2.0000      -0.458652       -12.4805
  34   2.0000      -0.444684       -12.1005
  35   2.0000      -0.439030       -11.9466
  36   2.0000      -0.423353       -11.5200
  37   2.0000      -0.410092       -11.1592
  38   2.0000      -0.395675       -10.7669
  39   2.0000      -0.388748       -10.5784
  40   2.0000      -0.377986       -10.2855
  41   2.0000      -0.366939        -9.9849
  42   2.0000      -0.359330        -9.7779
  43   2.0000      -0.348787        -9.4910
  44   2.0000      -0.338700        -9.2165
  45   2.0000      -0.328282        -8.9330
  46   2.0000      -0.318157        -8.6575
  47   2.0000      -0.312871        -8.5137
  48   2.0000      -0.307362        -8.3638
  49   2.0000      -0.258673        -7.0389
  50   2.0000      -0.152053        -4.1376
  51   0.0000      -0.061994        -1.6870
  52   0.0000      -0.008359        -0.2275
  53   0.0000       0.010675         0.2905
  54   0.0000       0.015511         0.4221
  55   0.0000       0.018600         0.5061

MULLIKEN ATOMIC CHARGES
-----------------------
   0 C :   -0.293721
   1 C :   -0.677238
   2 C :   -0.485366
   3 C :   -0.419529
   4 H :    0.294730
   5 H :    0.262196
   6 C :    0.706706
   7 C :   -0.014852
   8 N :   -0.391136
   9 N :   -0.525613
  10 H :    0.191715
  11 H :    0.320756
  12 H :    0.355939
  13 H :    0.212736
  14 H :    0.310136
  15 F :   -0.317769
  16 O :   -0.619066
  17 C :   -0.610447
  18 H :    0.144847
  19 H :    0.335832
  20 C :   -0.405978
  21 H :    0.218691
  22 H :    0.255686
  23 C :   -0.369663
  24 H :    0.267495
  25 H :    0.285304
  26 H :    0.210330
  27 H :    0.274560
  28 H :    0.228271
  29 H :    0.254450
Sum of atomic charges:    0.0000000

LOEWDIN ATOMIC CHARGES
----------------------
   0 C :   -0.237269
   1 C :   -0.121825
   2 C :   -0.184871
   3 C :   -0.094154
   4 H :    0.114243
   5 H :    0.126620
   6 C :   -0.453335
   7 C :   -0.545813
   8 N :    0.152428
   9 N :    0.130088
  10 H :    0.109209
  11 H :    0.068578
  12 H :    0.056528
  13 H :    0.109694
  14 H :    0.045045
  15 F :    0.194245
  16 O :    0.078378
  17 C :   -0.192655
  18 H :    0.099853
  19 H :    0.088863
  20 C :   -0.199688
  21 H :    0.104141
  22 H :    0.108297
  23 C :   -0.200076
  24 H :    0.095882
  25 H :    0.113365
  26 H :    0.090286
  27 H :    0.118172
  28 H :    0.114151
  29 H :    0.111621

  Mayer bond orders larger than 0.100000
B(  0-C ,  1-C ) :   0.7453 B(  0-C , 17-C ) :   0.7073 B(  0-C , 18-H ) :   1.1374
B(  0-C , 19-H ) :   0.8396 B(  0-C , 23-C ) :   0.1397 B(  1-C ,  7-C ) :   1.4716
B(  1-C , 12-H ) :   1.0364 B(  2-C ,  3-C ) :   0.8761 B(  2-C , 20-C ) :   0.1525
B(  2-C , 23-C ) :   0.9116 B(  2-C , 28-H ) :   0.9689 B(  2-C , 29-H ) :   0.9111
B(  3-C ,  4-H ) :   0.9382 B(  3-C ,  5-H ) :   0.9063 B(  3-C ,  6-C ) :   0.9464
B(  3-C , 20-C ) :   0.1497 B(  6-C , 15-F ) :   0.7739 B(  6-C , 16-O ) :   1.5469
B(  7-C ,  8-N ) :   1.0510 B(  7-C ,  9-N ) :   0.9484 B(  7-C , 12-H ) :  -0.1408
B(  8-N , 13-H ) :   0.8577 B(  8-N , 14-H ) :   0.7102 B(  9-N , 10-H ) :   0.9167
B(  9-N , 11-H ) :   0.7154 B( 17-C , 20-C ) :   1.0039 B( 17-C , 21-H ) :   0.9485
B( 17-C , 22-H ) :   0.9514 B( 17-C , 23-C ) :   0.2196 B( 20-C , 23-C ) :   0.3492
B( 20-C , 24-H ) :   1.0824 B( 20-C , 25-H ) :   0.8458 B( 20-C , 26-H ) :  -0.1384
B( 23-C , 24-H ) :  -0.1485 B( 23-C , 26-H ) :   1.1708 B( 23-C , 27-H ) :   0.8480

Dispersion correction           -0.057339788
FINAL SINGLE POINT ENERGY      -637.646861340296

DIPOLE MOMENT
-------------
                                X             Y             Z
Electronic contribution:     -3.07790       2.21102     -14.51616
Nuclear contribution   :      2.31842      -0.27661      14.74721
                        -----------------------------------------
Total Dipole Moment    :     -0.75947       1.93441       0.23104
                        -----------------------------------------
Magnitude (a.u.)       :      2.09097
Magnitude (Debye)      :      5.31481

Rotational constants in cm-1:     0.032691     0.023990     0.017099
Rotational constants in MHz :   980.050971   719.190545   512.606858

                             ****ORCA TERMINATED NORMALLY****
TOTAL RUN TIME: 0 days 0 hours 6 minutes 34 seconds 62 msec
