                         Program Version 5.0.0 -  RELEASE  -
|  1> !B3LYP D3BJ RIJCOSX def2-TZVPD def2/J TightSCF xyzfile
|  2>
|  3> *xyzfile 0 1 D2.xyz
|  4>
|  5> %MaxCore 64000
|  6>
|  7> %pal nprocs 4
|  8> end
|  9>
| 10> %scf
| 11>   MaxIter 150
| 12> end
| 13>
| 14>
| 15>                          ****END OF INPUT****

CARTESIAN COORDINATES (ANGSTROEM)
---------------------------------
  C      2.234473   -2.989754   -2.397622
  N      2.756799   -2.945553   -3.765029
  C     -1.104325    0.251374   -2.860056
  C     -0.711893    0.842517   -4.218344
  H      0.154626    1.499800   -4.130909
  H     -1.538134    1.459222   -4.582671
  C     -0.397624   -0.205875   -5.288018
  C      1.987208   -2.590451   -4.818975
  C      0.743221   -3.017493   -4.913524
  N      2.499636   -1.848598   -5.803241
  H      3.309780   -1.292818   -5.558947
  H      1.801025   -1.304298   -6.289129
  H      3.716116   -2.628797   -3.829533
  H      0.395828   -3.627747   -4.185024
  H      0.039201   -2.454383   -5.371367
  F      0.617165   -0.005348   -5.998273
  O     -1.133173   -1.221380   -5.341465
  C      2.191199   -1.619503   -1.715492
  H      2.872783   -3.666368   -1.828014
  H      1.246188   -3.447444   -2.407842
  C      1.298729   -0.554314   -2.359773
  H      1.872917   -1.787955   -0.681310
  H      3.216809   -1.238432   -1.654428
  C     -0.196255   -0.863365   -2.325763
  H      1.612531   -0.371346   -3.393065
  H      1.480944    0.388638   -1.834444
  H     -0.404105   -1.761825   -2.909448
  H     -0.490439   -1.087880   -1.294131
  H     -1.143842    1.066711   -2.129680
  H     -2.114401   -0.156834   -2.930323

 Total Charge           Charge          ....    0
 Multiplicity           Mult            ....    1
 Number of Electrons    NEL             ....  102
 Basis Dimension        Dim             ....  640

ORBITAL ENERGIES
----------------

  NO   OCC          E(Eh)            E(eV)
   0   2.0000     -24.769771      -674.0197
   1   2.0000     -19.138707      -520.7907
   2   2.0000     -14.308471      -389.3533
   3   2.0000     -14.300899      -389.1472
   4   2.0000     -10.356268      -281.8084
   5   2.0000     -10.203882      -277.6617
   6   2.0000     -10.199267      -277.5362
   7   2.0000     -10.196520      -277.4614
   8   2.0000     -10.181912      -277.0639
   9   2.0000     -10.170345      -276.7492
  10   2.0000     -10.169701      -276.7316
  11   2.0000     -10.163748      -276.5697
  12   2.0000     -10.064075      -273.8574
  13   2.0000      -1.340752       -36.4837
  14   2.0000      -1.047789       -28.5118
  15   2.0000      -0.958127       -26.0720
  16   2.0000      -0.880841       -23.9689
  17   2.0000      -0.823017       -22.3954
  18   2.0000      -0.785077       -21.3630
  19   2.0000      -0.735227       -20.0066
  20   2.0000      -0.709377       -19.3031
  21   2.0000      -0.691921       -18.8281
  22   2.0000      -0.663723       -18.0608
  23   2.0000      -0.619166       -16.8484
  24   2.0000      -0.588036       -16.0013
  25   2.0000      -0.568867       -15.4797
  26   2.0000      -0.548824       -14.9343
  27   2.0000      -0.546192       -14.8626
  28   2.0000      -0.532144       -14.4804
  29   2.0000      -0.523703       -14.2507
  30   2.0000      -0.495199       -13.4750
  31   2.0000      -0.481209       -13.0944
  32   2.0000      -0.470224       -12.7954
  33   2.0000      -0.449769       -12.2388
  34   2.0000      -0.444332       -12.0909
  35   2.0000      -0.426254       -11.5990
  36   2.0000      -0.416438       -11.3318
  37   2.0000      -0.408745       -11.1225
  38   2.0000      -0.398224       -10.8362
  39   2.0000      -0.386223       -10.5097
  40   2.0000      -0.375792       -10.2258
  41   2.0000      -0.367964       -10.0128
  42   2.0000      -0.359315        -9.7775
  43   2.0000      -0.357200        -9.7199
  44   2.0000      -0.345666        -9.4061
  45   2.0000      -0.333265        -9.0686
  46   2.0000      -0.323338        -8.7985
  47   2.0000      -0.320952        -8.7335
  48   2.0000      -0.287563        -7.8250
  49   2.0000      -0.244096        -6.6422
  50   2.0000      -0.163591        -4.4515
  51   0.0000      -0.043845        -1.1931
  52   0.0000      -0.006917        -0.1882
  53   0.0000       0.007850         0.2136
  54   0.0000       0.011522         0.3135
  55   0.0000       0.023297         0.6339

MULLIKEN ATOMIC CHARGES
-----------------------
   0 C :   -0.554068
   1 N :   -0.157885
   2 C :   -0.510902
   3 C :   -0.466805
   4 H :    0.288604
   5 H :    0.274202
   6 C :    0.688946
   7 C :    0.110593
   8 C :   -1.486202
   9 N :   -0.452204
  10 H :    0.190186
  11 H :    0.252114
  12 H :    0.188260
  13 H :    0.520548
  14 H :    0.780750
  15 F :   -0.335623
  16 O :   -0.569267
  17 C :   -0.552394
  18 H :    0.221599
  19 H :    0.248923
  20 C :   -0.275022
  21 H :    0.250086
  22 H :    0.219586
  23 C :   -0.358944
  24 H :    0.198662
  25 H :    0.314970
  26 H :    0.210522
  27 H :    0.269278
  28 H :    0.223167
  29 H :    0.268322
Sum of atomic charges:    0.0000000

LOEWDIN ATOMIC CHARGES
----------------------
   0 C :   -0.186079
   1 N :    0.031317
   2 C :   -0.184107
   3 C :   -0.095949
   4 H :    0.111552
   5 H :    0.124881
   6 C :   -0.457859
   7 C :   -0.554755
   8 C :    0.019692
   9 N :    0.122987
  10 H :    0.095256
  11 H :    0.075814
  12 H :    0.125277
  13 H :    0.026815
  14 H :   -0.017454
  15 F :    0.192106
  16 O :    0.075889
  17 C :   -0.180333
  18 H :    0.111232
  19 H :    0.103274
  20 C :   -0.199214
  21 H :    0.108423
  22 H :    0.104868
  23 C :   -0.198300
  24 H :    0.095607
  25 H :    0.113914
  26 H :    0.093528
  27 H :    0.117030
  28 H :    0.112181
  29 H :    0.112408

  Mayer bond orders larger than 0.100000
B(  0-C ,  1-N ) :   0.8323 B(  0-C , 17-C ) :   0.7553 B(  0-C , 18-H ) :   0.9950
B(  0-C , 19-H ) :   0.9366 B(  0-C , 23-C ) :   0.1371 B(  1-N ,  7-C ) :   1.0097
B(  1-N , 12-H ) :   0.8696 B(  2-C ,  3-C ) :   0.8857 B(  2-C , 20-C ) :   0.1626
B(  2-C , 23-C ) :   0.9137 B(  2-C , 28-H ) :   0.9798 B(  2-C , 29-H ) :   0.8933
B(  3-C ,  4-H ) :   0.9442 B(  3-C ,  5-H ) :   0.9018 B(  3-C ,  6-C ) :   0.9432
B(  3-C , 20-C ) :   0.1571 B(  6-C , 15-F ) :   0.7336 B(  6-C , 16-O ) :   1.7016
B(  7-C ,  8-C ) :   1.7620 B(  7-C ,  9-N ) :   0.8400 B(  7-C , 14-H ) :  -0.2269
B(  8-C , 13-H ) :   0.8537 B(  8-C , 14-H ) :   0.4295 B(  9-N , 10-H ) :   0.8967
B(  9-N , 11-H ) :   0.7949 B( 13-H , 14-H ) :   0.2013 B( 14-H , 16-O ) :  -0.1137
B( 17-C , 20-C ) :   0.9339 B( 17-C , 21-H ) :   0.9682 B( 17-C , 22-H ) :   0.9722
B( 17-C , 23-C ) :   0.2099 B( 20-C , 23-C ) :   0.3684 B( 20-C , 24-H ) :   1.1157
B( 20-C , 25-H ) :   0.8095 B( 20-C , 26-H ) :  -0.1410 B( 23-C , 24-H ) :  -0.1304
B( 23-C , 26-H ) :   1.1613 B( 23-C , 27-H ) :   0.8486

Dispersion correction           -0.057433480
FINAL SINGLE POINT ENERGY      -637.627541800069

DIPOLE MOMENT
-------------
                                X             Y             Z
Electronic contribution:     -1.51621       2.15263     -13.53692
Nuclear contribution   :      2.00823      -0.28769      14.57028
                        -----------------------------------------
Total Dipole Moment    :      0.49202       1.86494       1.03336
                        -----------------------------------------
Magnitude (a.u.)       :      2.18813
Magnitude (Debye)      :      5.56179

Rotational constants in cm-1:     0.033070     0.023715     0.016943
Rotational constants in MHz :   991.423248   710.957140   507.940500

                             ****ORCA TERMINATED NORMALLY****
TOTAL RUN TIME: 0 days 0 hours 5 minutes 55 seconds 546 msec
