                         Program Version 5.0.0 -  RELEASE  -
|  1> !B3LYP D3BJ RIJCOSX def2-TZVPD def2/J TightSCF xyzfile
|  2>
|  3> *xyzfile 0 1 D3.xyz
|  4>
|  5> %MaxCore 64000
|  6>
|  7> %pal nprocs 4
|  8> end
|  9>
| 10> %scf
| 11>   MaxIter 150
| 12> end
| 13>
| 14>
| 15>                          ****END OF INPUT****

CARTESIAN COORDINATES (ANGSTROEM)
---------------------------------
  C      2.234473   -2.989754   -2.397622
  N      2.756799   -2.945553   -3.765029
  C     -1.104325    0.251374   -2.860056
  C     -0.711893    0.842517   -4.218344
  H      0.154626    1.499800   -4.130909
  H     -1.538134    1.459222   -4.582671
  C     -0.397624   -0.205875   -5.288018
  C      1.987208   -2.590451   -4.818975
  N      0.743221   -3.017493   -4.913524
  C      2.499636   -1.848598   -5.803241
  H      3.309780   -1.292818   -5.558947
  H      1.801025   -1.304298   -6.289129
  H      3.716116   -2.628797   -3.829533
  H      0.395828   -3.627747   -4.185024
  H      0.039201   -2.454383   -5.371367
  F      0.617165   -0.005348   -5.998273
  O     -1.133173   -1.221380   -5.341465
  C      2.191199   -1.619503   -1.715492
  H      2.872783   -3.666368   -1.828014
  H      1.246188   -3.447444   -2.407842
  C      1.298729   -0.554314   -2.359773
  H      1.872917   -1.787955   -0.681310
  H      3.216809   -1.238432   -1.654428
  C     -0.196255   -0.863365   -2.325763
  H      1.612531   -0.371346   -3.393065
  H      1.480944    0.388638   -1.834444
  H     -0.404105   -1.761825   -2.909448
  H     -0.490439   -1.087880   -1.294131
  H     -1.143842    1.066711   -2.129680
  H     -2.114401   -0.156834   -2.930323

 Total Charge           Charge          ....    0
 Multiplicity           Mult            ....    1
 Number of Electrons    NEL             ....  102
 Basis Dimension        Dim             ....  640

ORBITAL ENERGIES
----------------

  NO   OCC          E(Eh)            E(eV)
   0   2.0000     -24.763484      -673.8486
   1   2.0000     -19.152059      -521.1540
   2   2.0000     -14.308172      -389.3452
   3   2.0000     -14.290851      -388.8738
   4   2.0000     -10.366794      -282.0948
   5   2.0000     -10.209014      -277.8014
   6   2.0000     -10.204702      -277.6841
   7   2.0000     -10.203476      -277.6507
   8   2.0000     -10.188491      -277.2429
   9   2.0000     -10.172979      -276.8208
  10   2.0000     -10.172906      -276.8188
  11   2.0000     -10.172384      -276.8046
  12   2.0000     -10.067485      -273.9502
  13   2.0000      -1.335505       -36.3409
  14   2.0000      -1.061530       -28.8857
  15   2.0000      -0.957603       -26.0577
  16   2.0000      -0.876121       -23.8405
  17   2.0000      -0.829410       -22.5694
  18   2.0000      -0.790531       -21.5114
  19   2.0000      -0.745462       -20.2851
  20   2.0000      -0.710264       -19.3273
  21   2.0000      -0.689637       -18.7660
  22   2.0000      -0.655020       -17.8240
  23   2.0000      -0.618479       -16.8297
  24   2.0000      -0.595585       -16.2067
  25   2.0000      -0.580561       -15.7979
  26   2.0000      -0.560859       -15.2618
  27   2.0000      -0.543640       -14.7932
  28   2.0000      -0.532439       -14.4884
  29   2.0000      -0.525532       -14.3005
  30   2.0000      -0.492492       -13.4014
  31   2.0000      -0.481509       -13.1025
  32   2.0000      -0.474245       -12.9049
  33   2.0000      -0.463804       -12.6208
  34   2.0000      -0.449091       -12.2204
  35   2.0000      -0.436440       -11.8761
  36   2.0000      -0.415704       -11.3119
  37   2.0000      -0.411650       -11.2016
  38   2.0000      -0.392939       -10.6924
  39   2.0000      -0.382880       -10.4187
  40   2.0000      -0.379187       -10.3182
  41   2.0000      -0.371137       -10.0992
  42   2.0000      -0.363539        -9.8924
  43   2.0000      -0.357949        -9.7403
  44   2.0000      -0.347655        -9.4602
  45   2.0000      -0.337502        -9.1839
  46   2.0000      -0.332746        -9.0545
  47   2.0000      -0.327354        -8.9078
  48   2.0000      -0.312027        -8.4907
  49   2.0000      -0.241612        -6.5746
  50   2.0000      -0.161187        -4.3861
  51   0.0000      -0.052537        -1.4296
  52   0.0000      -0.004505        -0.1226
  53   0.0000       0.006955         0.1893
  54   0.0000       0.010416         0.2834
  55   0.0000       0.018659         0.5077

MULLIKEN ATOMIC CHARGES
-----------------------
   0 C :   -0.631016
   1 N :   -0.173843
   2 C :   -0.465515
   3 C :   -0.462049
   4 H :    0.291065
   5 H :    0.271339
   6 C :    0.690596
   7 C :    0.178308
   8 N :   -0.388420
   9 C :   -1.094780
  10 H :    0.256866
  11 H :    0.478112
  12 H :    0.211621
  13 H :    0.226612
  14 H :    0.289131
  15 F :   -0.274547
  16 O :   -0.637577
  17 C :   -0.526742
  18 H :    0.220960
  19 H :    0.264348
  20 C :   -0.331258
  21 H :    0.252057
  22 H :    0.224917
  23 C :   -0.376478
  24 H :    0.243426
  25 H :    0.299758
  26 H :    0.208851
  27 H :    0.267729
  28 H :    0.226639
  29 H :    0.259890
Sum of atomic charges:    0.0000000

LOEWDIN ATOMIC CHARGES
----------------------
   0 C :   -0.190706
   1 N :    0.036445
   2 C :   -0.184446
   3 C :   -0.091995
   4 H :    0.115097
   5 H :    0.126560
   6 C :   -0.449480
   7 C :   -0.559945
   8 N :    0.147960
   9 C :   -0.001906
  10 H :    0.011866
  11 H :   -0.009039
  12 H :    0.133508
  13 H :    0.100408
  14 H :    0.052728
  15 F :    0.195034
  16 O :    0.075171
  17 C :   -0.180008
  18 H :    0.110352
  19 H :    0.098701
  20 C :   -0.196448
  21 H :    0.107309
  22 H :    0.108069
  23 C :   -0.202110
  24 H :    0.099592
  25 H :    0.115246
  26 H :    0.089608
  27 H :    0.116776
  28 H :    0.113724
  29 H :    0.111928

  Mayer bond orders larger than 0.100000
B(  0-C ,  1-N ) :   0.9092 B(  0-C ,  8-N ) :   0.1015 B(  0-C , 17-C ) :   0.7160
B(  0-C , 18-H ) :   1.0219 B(  0-C , 19-H ) :   0.9306 B(  0-C , 23-C ) :   0.1317
B(  1-N ,  7-C ) :   1.0565 B(  1-N , 12-H ) :   0.8276 B(  2-C ,  3-C ) :   0.8791
B(  2-C , 20-C ) :   0.1502 B(  2-C , 23-C ) :   0.9032 B(  2-C , 28-H ) :   0.9725
B(  2-C , 29-H ) :   0.9040 B(  3-C ,  4-H ) :   0.9381 B(  3-C ,  5-H ) :   0.8983
B(  3-C ,  6-C ) :   0.9540 B(  3-C , 20-C ) :   0.1395 B(  6-C , 15-F ) :   0.8342
B(  6-C , 16-O ) :   1.5337 B(  7-C ,  8-N ) :   0.9084 B(  7-C ,  9-C ) :   1.4609
B(  7-C , 10-H ) :  -0.1622 B(  7-C , 11-H ) :  -0.1047 B(  8-N , 13-H ) :   0.8210
B(  8-N , 14-H ) :   0.7366 B(  9-C , 10-H ) :   1.2497 B(  9-C , 11-H ) :   0.7341
B( 17-C , 20-C ) :   0.9527 B( 17-C , 21-H ) :   0.9851 B( 17-C , 22-H ) :   0.9615
B( 17-C , 23-C ) :   0.2045 B( 20-C , 23-C ) :   0.3581 B( 20-C , 24-H ) :   1.0930
B( 20-C , 25-H ) :   0.8166 B( 20-C , 26-H ) :  -0.1464 B( 23-C , 24-H ) :  -0.1323
B( 23-C , 26-H ) :   1.1567 B( 23-C , 27-H ) :   0.8593

Dispersion correction           -0.057188487
FINAL SINGLE POINT ENERGY      -637.632844595441

DIPOLE MOMENT
-------------
                                X             Y             Z
Electronic contribution:     -2.87677       1.34533     -12.74420
Nuclear contribution   :      2.27881      -0.10762      14.43322
                        -----------------------------------------
Total Dipole Moment    :     -0.59796       1.23771       1.68901
                        -----------------------------------------
Magnitude (a.u.)       :      2.17767
Magnitude (Debye)      :      5.53520

Rotational constants in cm-1:     0.033336     0.023673     0.017062
Rotational constants in MHz :   999.388459   709.685364   511.514310

                             ****ORCA TERMINATED NORMALLY****
TOTAL RUN TIME: 0 days 0 hours 6 minutes 6 seconds 72 msec
