                         Program Version 5.0.0 -  RELEASE  -
|  1> !B3LYP D3BJ RIJCOSX def2-TZVPD def2/J TightSCF xyzfile
|  2>
|  3> *xyzfile 0 1 D4.xyz
|  4>
|  5> %MaxCore 64000
|  6>
|  7> %pal nprocs 4
|  8> end
|  9>
| 10> %scf
| 11>   MaxIter 150
| 12> end
| 13>
| 14>
| 15>                          ****END OF INPUT****

CARTESIAN COORDINATES (ANGSTROEM)
---------------------------------
  C      2.234473   -2.989754   -2.397622
  C      2.756799   -2.945553   -3.765029
  C     -1.104325    0.251374   -2.860056
  C     -0.711893    0.842517   -4.218344
  H      0.154626    1.499800   -4.130909
  H     -1.538134    1.459222   -4.582671
  C     -0.397624   -0.205875   -5.288018
  C      1.987208   -2.590451   -4.818975
  N      0.743221   -3.017493   -4.913524
  N      2.499636   -1.848598   -5.803241
  H      3.309780   -1.292818   -5.558947
  H      1.801025   -1.304298   -6.289129
  H      3.716116   -2.628797   -3.829533
  H      0.395828   -3.627747   -4.185024
  H      0.039201   -2.454383   -5.371367
  O      0.617165   -0.005348   -5.998273
  F     -1.133173   -1.221380   -5.341465
  C      2.191199   -1.619503   -1.715492
  H      2.872783   -3.666368   -1.828014
  H      1.246188   -3.447444   -2.407842
  C      1.298729   -0.554314   -2.359773
  H      1.872917   -1.787955   -0.681310
  H      3.216809   -1.238432   -1.654428
  C     -0.196255   -0.863365   -2.325763
  H      1.612531   -0.371346   -3.393065
  H      1.480944    0.388638   -1.834444
  H     -0.404105   -1.761825   -2.909448
  H     -0.490439   -1.087880   -1.294131
  H     -1.143842    1.066711   -2.129680
  H     -2.114401   -0.156834   -2.930323

 Total Charge           Charge          ....    0
 Multiplicity           Mult            ....    1
 Number of Electrons    NEL             ....  102
 Basis Dimension        Dim             ....  640

ORBITAL ENERGIES
----------------

  NO   OCC          E(Eh)            E(eV)
   0   2.0000     -24.786526      -674.4757
   1   2.0000     -19.161921      -521.4224
   2   2.0000     -14.305820      -389.2812
   3   2.0000     -14.289807      -388.8454
   4   2.0000     -10.374823      -282.3133
   5   2.0000     -10.212594      -277.8988
   6   2.0000     -10.203974      -277.6642
   7   2.0000     -10.191336      -277.3203
   8   2.0000     -10.172813      -276.8163
   9   2.0000     -10.162163      -276.5265
  10   2.0000     -10.150984      -276.2223
  11   2.0000     -10.141223      -275.9567
  12   2.0000     -10.083284      -274.3801
  13   2.0000      -1.358395       -36.9638
  14   2.0000      -1.068812       -29.0839
  15   2.0000      -0.956388       -26.0246
  16   2.0000      -0.864278       -23.5182
  17   2.0000      -0.833625       -22.6841
  18   2.0000      -0.790147       -21.5010
  19   2.0000      -0.753261       -20.4973
  20   2.0000      -0.707846       -19.2615
  21   2.0000      -0.690238       -18.7823
  22   2.0000      -0.657047       -17.8791
  23   2.0000      -0.615666       -16.7531
  24   2.0000      -0.597930       -16.2705
  25   2.0000      -0.582613       -15.8537
  26   2.0000      -0.572841       -15.5878
  27   2.0000      -0.561537       -15.2802
  28   2.0000      -0.528176       -14.3724
  29   2.0000      -0.517767       -14.0892
  30   2.0000      -0.489576       -13.3220
  31   2.0000      -0.483828       -13.1656
  32   2.0000      -0.475694       -12.9443
  33   2.0000      -0.453511       -12.3407
  34   2.0000      -0.441396       -12.0110
  35   2.0000      -0.438734       -11.9386
  36   2.0000      -0.430235       -11.7073
  37   2.0000      -0.405238       -11.0271
  38   2.0000      -0.399199       -10.8627
  39   2.0000      -0.393129       -10.6976
  40   2.0000      -0.385886       -10.5005
  41   2.0000      -0.364517        -9.9190
  42   2.0000      -0.360639        -9.8135
  43   2.0000      -0.347809        -9.4644
  44   2.0000      -0.339906        -9.2493
  45   2.0000      -0.326685        -8.8896
  46   2.0000      -0.319151        -8.6845
  47   2.0000      -0.309172        -8.4130
  48   2.0000      -0.307945        -8.3796
  49   2.0000      -0.258102        -7.0233
  50   2.0000      -0.150558        -4.0969
  51   0.0000      -0.058949        -1.6041
  52   0.0000      -0.010006        -0.2723
  53   0.0000       0.010104         0.2749
  54   0.0000       0.015567         0.4236
  55   0.0000       0.018198         0.4952

MULLIKEN ATOMIC CHARGES
-----------------------
   0 C :   -0.291110
   1 C :   -0.645265
   2 C :   -0.530559
   3 C :   -0.344233
   4 H :    0.235301
   5 H :    0.279226
   6 C :    0.676052
   7 C :   -0.098584
   8 N :   -0.413099
   9 N :   -0.500871
  10 H :    0.183382
  11 H :    0.350121
  12 H :    0.352258
  13 H :    0.221304
  14 H :    0.342710
  15 O :   -0.619570
  16 F :   -0.329712
  17 C :   -0.606054
  18 H :    0.139598
  19 H :    0.331367
  20 C :   -0.397856
  21 H :    0.219538
  22 H :    0.255400
  23 C :   -0.354665
  24 H :    0.311078
  25 H :    0.288269
  26 H :    0.181925
  27 H :    0.273788
  28 H :    0.228371
  29 H :    0.261892
Sum of atomic charges:   -0.0000000

LOEWDIN ATOMIC CHARGES
----------------------
   0 C :   -0.238928
   1 C :   -0.121375
   2 C :   -0.191518
   3 C :   -0.089181
   4 H :    0.122548
   5 H :    0.125138
   6 C :   -0.455423
   7 C :   -0.544580
   8 N :    0.152997
   9 N :    0.131270
  10 H :    0.110005
  11 H :    0.051255
  12 H :    0.057763
  13 H :    0.108605
  14 H :    0.065876
  15 O :    0.072944
  16 F :    0.195242
  17 C :   -0.192905
  18 H :    0.099524
  19 H :    0.087164
  20 C :   -0.197638
  21 H :    0.103256
  22 H :    0.109068
  23 C :   -0.202811
  24 H :    0.099413
  25 H :    0.114246
  26 H :    0.088083
  27 H :    0.117746
  28 H :    0.114187
  29 H :    0.108030

  Mayer bond orders larger than 0.100000
B(  0-C ,  1-C ) :   0.7496 B(  0-C , 17-C ) :   0.7020 B(  0-C , 18-H ) :   1.1426
B(  0-C , 19-H ) :   0.8375 B(  0-C , 23-C ) :   0.1336 B(  1-C ,  7-C ) :   1.4614
B(  1-C , 12-H ) :   1.0335 B(  2-C ,  3-C ) :   0.8200 B(  2-C , 20-C ) :   0.1610
B(  2-C , 23-C ) :   0.8323 B(  2-C , 28-H ) :   0.9676 B(  2-C , 29-H ) :   0.9478
B(  3-C ,  4-H ) :   0.9896 B(  3-C ,  5-H ) :   0.9045 B(  3-C ,  6-C ) :   0.9448
B(  3-C , 20-C ) :   0.1280 B(  6-C , 15-O ) :   1.5036 B(  6-C , 16-F ) :   0.8042
B(  7-C ,  8-N ) :   1.0899 B(  7-C ,  9-N ) :   0.9900 B(  7-C , 12-H ) :  -0.1294
B(  7-C , 20-C ) :   0.1121 B(  8-N , 13-H ) :   0.8561 B(  8-N , 14-H ) :   0.6747
B(  9-N , 10-H ) :   0.9141 B(  9-N , 11-H ) :   0.6961 B( 17-C , 20-C ) :   0.9942
B( 17-C , 21-H ) :   0.9508 B( 17-C , 22-H ) :   0.9505 B( 17-C , 23-C ) :   0.2317
B( 20-C , 23-C ) :   0.3516 B( 20-C , 24-H ) :   1.0740 B( 20-C , 25-H ) :   0.8320
B( 20-C , 26-H ) :  -0.1414 B( 23-C , 24-H ) :  -0.1333 B( 23-C , 26-H ) :   1.1737
B( 23-C , 27-H ) :   0.8625

Dispersion correction           -0.057308221
FINAL SINGLE POINT ENERGY      -637.646646839314

DIPOLE MOMENT
-------------
                                X             Y             Z
Electronic contribution:     -5.98926       0.20470     -13.42418
Nuclear contribution   :      4.38568       1.15960      13.97148
                        -----------------------------------------
Total Dipole Moment    :     -1.60358       1.36430       0.54730
                        -----------------------------------------
Magnitude (a.u.)       :      2.17539
Magnitude (Debye)      :      5.52940

Rotational constants in cm-1:     0.032892     0.023844     0.017123
Rotational constants in MHz :   986.091711   714.821905   513.334630

                             ****ORCA TERMINATED NORMALLY****
TOTAL RUN TIME: 0 days 0 hours 5 minutes 47 seconds 979 msec
