                         Program Version 5.0.0 -  RELEASE  -
|  1> !B3LYP D3BJ RIJCOSX def2-TZVPD def2/J TightSCF xyzfile
|  2>
|  3> *xyzfile 0 1 D5.xyz
|  4>
|  5> %MaxCore 64000
|  6>
|  7> %pal nprocs 4
|  8> end
|  9>
| 10> %scf
| 11>   MaxIter 150
| 12> end
| 13>
| 14>
| 15>                          ****END OF INPUT****

CARTESIAN COORDINATES (ANGSTROEM)
---------------------------------
  C      2.234473   -2.989754   -2.397622
  N      2.756799   -2.945553   -3.765029
  C     -1.104325    0.251374   -2.860056
  C     -0.711893    0.842517   -4.218344
  H      0.154626    1.499800   -4.130909
  H     -1.538134    1.459222   -4.582671
  C     -0.397624   -0.205875   -5.288018
  C      1.987208   -2.590451   -4.818975
  C      0.743221   -3.017493   -4.913524
  N      2.499636   -1.848598   -5.803241
  H      3.309780   -1.292818   -5.558947
  H      1.801025   -1.304298   -6.289129
  H      3.716116   -2.628797   -3.829533
  H      0.395828   -3.627747   -4.185024
  H      0.039201   -2.454383   -5.371367
  O      0.617165   -0.005348   -5.998273
  F     -1.133173   -1.221380   -5.341465
  C      2.191199   -1.619503   -1.715492
  H      2.872783   -3.666368   -1.828014
  H      1.246188   -3.447444   -2.407842
  C      1.298729   -0.554314   -2.359773
  H      1.872917   -1.787955   -0.681310
  H      3.216809   -1.238432   -1.654428
  C     -0.196255   -0.863365   -2.325763
  H      1.612531   -0.371346   -3.393065
  H      1.480944    0.388638   -1.834444
  H     -0.404105   -1.761825   -2.909448
  H     -0.490439   -1.087880   -1.294131
  H     -1.143842    1.066711   -2.129680
  H     -2.114401   -0.156834   -2.930323

 Total Charge           Charge          ....    0
 Multiplicity           Mult            ....    1
 Number of Electrons    NEL             ....  102
 Basis Dimension        Dim             ....  640

ORBITAL ENERGIES
----------------

  NO   OCC          E(Eh)            E(eV)
   0   2.0000     -24.758731      -673.7193
   1   2.0000     -19.145040      -520.9630
   2   2.0000     -14.308841      -389.3634
   3   2.0000     -14.288964      -388.8225
   4   2.0000     -10.359555      -281.8978
   5   2.0000     -10.203546      -277.6526
   6   2.0000     -10.201299      -277.5915
   7   2.0000     -10.197357      -277.4842
   8   2.0000     -10.185737      -277.1680
   9   2.0000     -10.169711      -276.7319
  10   2.0000     -10.168907      -276.7100
  11   2.0000     -10.168581      -276.7011
  12   2.0000     -10.071333      -274.0549
  13   2.0000      -1.331878       -36.2422
  14   2.0000      -1.052324       -28.6352
  15   2.0000      -0.954733       -25.9796
  16   2.0000      -0.874945       -23.8085
  17   2.0000      -0.826831       -22.4992
  18   2.0000      -0.785152       -21.3651
  19   2.0000      -0.735297       -20.0084
  20   2.0000      -0.706438       -19.2232
  21   2.0000      -0.688346       -18.7308
  22   2.0000      -0.663297       -18.0492
  23   2.0000      -0.619364       -16.8537
  24   2.0000      -0.586759       -15.9665
  25   2.0000      -0.571370       -15.5478
  26   2.0000      -0.554073       -15.0771
  27   2.0000      -0.543041       -14.7769
  28   2.0000      -0.528184       -14.3726
  29   2.0000      -0.518036       -14.0965
  30   2.0000      -0.487810       -13.2740
  31   2.0000      -0.481284       -13.0964
  32   2.0000      -0.473469       -12.8838
  33   2.0000      -0.450980       -12.2718
  34   2.0000      -0.444027       -12.0826
  35   2.0000      -0.422042       -11.4843
  36   2.0000      -0.416963       -11.3462
  37   2.0000      -0.410981       -11.1834
  38   2.0000      -0.394343       -10.7306
  39   2.0000      -0.387151       -10.5349
  40   2.0000      -0.378140       -10.2897
  41   2.0000      -0.372444       -10.1347
  42   2.0000      -0.360607        -9.8126
  43   2.0000      -0.359091        -9.7714
  44   2.0000      -0.343218        -9.3394
  45   2.0000      -0.332514        -9.0482
  46   2.0000      -0.330086        -8.9821
  47   2.0000      -0.322707        -8.7813
  48   2.0000      -0.302553        -8.2329
  49   2.0000      -0.239324        -6.5124
  50   2.0000      -0.166727        -4.5369
  51   0.0000      -0.043186        -1.1752
  52   0.0000      -0.004386        -0.1193
  53   0.0000       0.006489         0.1766
  54   0.0000       0.014003         0.3810
  55   0.0000       0.022976         0.6252

MULLIKEN ATOMIC CHARGES
-----------------------
   0 C :   -0.558103
   1 N :   -0.150381
   2 C :   -0.555630
   3 C :   -0.389232
   4 H :    0.230152
   5 H :    0.291929
   6 C :    0.676230
   7 C :    0.116264
   8 C :   -1.412446
   9 N :   -0.433811
  10 H :    0.185568
  11 H :    0.277352
  12 H :    0.190095
  13 H :    0.557101
  14 H :    0.619231
  15 O :   -0.638228
  16 F :   -0.290461
  17 C :   -0.541614
  18 H :    0.221043
  19 H :    0.240785
  20 C :   -0.287814
  21 H :    0.248859
  22 H :    0.219825
  23 C :   -0.327759
  24 H :    0.240604
  25 H :    0.318587
  26 H :    0.185687
  27 H :    0.270263
  28 H :    0.222817
  29 H :    0.273089
Sum of atomic charges:   -0.0000000

LOEWDIN ATOMIC CHARGES
----------------------
   0 C :   -0.186634
   1 N :    0.034414
   2 C :   -0.189961
   3 C :   -0.089435
   4 H :    0.120364
   5 H :    0.124067
   6 C :   -0.455279
   7 C :   -0.550060
   8 C :    0.015902
   9 N :    0.128377
  10 H :    0.097536
  11 H :    0.059003
  12 H :    0.127070
  13 H :    0.022821
  14 H :   -0.003255
  15 O :    0.066339
  16 F :    0.188100
  17 C :   -0.180177
  18 H :    0.111164
  19 H :    0.102250
  20 C :   -0.197438
  21 H :    0.107860
  22 H :    0.105659
  23 C :   -0.201597
  24 H :    0.098799
  25 H :    0.114766
  26 H :    0.091313
  27 H :    0.116503
  28 H :    0.112370
  29 H :    0.109157

  Mayer bond orders larger than 0.100000
B(  0-C ,  1-N ) :   0.8359 B(  0-C , 17-C ) :   0.7535 B(  0-C , 18-H ) :   0.9975
B(  0-C , 19-H ) :   0.9361 B(  0-C , 23-C ) :   0.1318 B(  1-N ,  7-C ) :   1.0190
B(  1-N , 12-H ) :   0.8647 B(  2-C ,  3-C ) :   0.8253 B(  2-C , 20-C ) :   0.1737
B(  2-C , 23-C ) :   0.8378 B(  2-C , 28-H ) :   0.9812 B(  2-C , 29-H ) :   0.9282
B(  3-C ,  4-H ) :   1.0025 B(  3-C ,  5-H ) :   0.8939 B(  3-C ,  6-C ) :   0.9474
B(  3-C , 20-C ) :   0.1306 B(  6-C , 15-O ) :   1.4641 B(  6-C , 16-F ) :   0.9035
B(  7-C ,  8-C ) :   1.7435 B(  7-C ,  9-N ) :   0.9006 B(  7-C , 14-H ) :  -0.1586
B(  8-C , 13-H ) :   0.7950 B(  8-C , 14-H ) :   0.5378 B(  9-N , 10-H ) :   0.8909
B(  9-N , 11-H ) :   0.7735 B( 13-H , 14-H ) :   0.1636 B( 17-C , 20-C ) :   0.9286
B( 17-C , 21-H ) :   0.9701 B( 17-C , 22-H ) :   0.9709 B( 17-C , 23-C ) :   0.2196
B( 20-C , 23-C ) :   0.3582 B( 20-C , 24-H ) :   1.1036 B( 20-C , 25-H ) :   0.7983
B( 20-C , 26-H ) :  -0.1438 B( 23-C , 24-H ) :  -0.1172 B( 23-C , 26-H ) :   1.1662
B( 23-C , 27-H ) :   0.8558

Dispersion correction           -0.057395307
FINAL SINGLE POINT ENERGY      -637.637699771672

DIPOLE MOMENT
-------------
                                X             Y             Z
Electronic contribution:     -4.36918       0.17733     -12.41400
Nuclear contribution   :      4.07548       1.14852      13.79455
                        -----------------------------------------
Total Dipole Moment    :     -0.29370       1.32585       1.38055
                        -----------------------------------------
Magnitude (a.u.)       :      1.93651
Magnitude (Debye)      :      4.92221

Rotational constants in cm-1:     0.033274     0.023559     0.016968
Rotational constants in MHz :   997.539108   706.293545   508.690532

                             ****ORCA TERMINATED NORMALLY****
TOTAL RUN TIME: 0 days 0 hours 6 minutes 9 seconds 548 msec
