                         Program Version 5.0.0 -  RELEASE  -
|  1> !B3LYP D3BJ RIJCOSX def2-TZVPD def2/J TightSCF xyzfile
|  2>
|  3> *xyzfile 0 1 D6.xyz
|  4>
|  5> %MaxCore 64000
|  6>
|  7> %pal nprocs 4
|  8> end
|  9>
| 10> %scf
| 11>   MaxIter 150
| 12> end
| 13>
| 14>
| 15>                          ****END OF INPUT****

CARTESIAN COORDINATES (ANGSTROEM)
---------------------------------
  C      2.234473   -2.989754   -2.397622
  N      2.756799   -2.945553   -3.765029
  C     -1.104325    0.251374   -2.860056
  C     -0.711893    0.842517   -4.218344
  H      0.154626    1.499800   -4.130909
  H     -1.538134    1.459222   -4.582671
  C     -0.397624   -0.205875   -5.288018
  C      1.987208   -2.590451   -4.818975
  N      0.743221   -3.017493   -4.913524
  C      2.499636   -1.848598   -5.803241
  H      3.309780   -1.292818   -5.558947
  H      1.801025   -1.304298   -6.289129
  H      3.716116   -2.628797   -3.829533
  H      0.395828   -3.627747   -4.185024
  H      0.039201   -2.454383   -5.371367
  O      0.617165   -0.005348   -5.998273
  F     -1.133173   -1.221380   -5.341465
  C      2.191199   -1.619503   -1.715492
  H      2.872783   -3.666368   -1.828014
  H      1.246188   -3.447444   -2.407842
  C      1.298729   -0.554314   -2.359773
  H      1.872917   -1.787955   -0.681310
  H      3.216809   -1.238432   -1.654428
  C     -0.196255   -0.863365   -2.325763
  H      1.612531   -0.371346   -3.393065
  H      1.480944    0.388638   -1.834444
  H     -0.404105   -1.761825   -2.909448
  H     -0.490439   -1.087880   -1.294131
  H     -1.143842    1.066711   -2.129680
  H     -2.114401   -0.156834   -2.930323

 Total Charge           Charge          ....    0
 Multiplicity           Mult            ....    1
 Number of Electrons    NEL             ....  102
 Basis Dimension        Dim             ....  640

ORBITAL ENERGIES
----------------

  NO   OCC          E(Eh)            E(eV)
   0   2.0000     -24.772611      -674.0970
   1   2.0000     -19.141941      -520.8787
   2   2.0000     -14.306974      -389.3126
   3   2.0000     -14.303292      -389.2124
   4   2.0000     -10.355938      -281.7994
   5   2.0000     -10.204765      -277.6858
   6   2.0000     -10.203466      -277.6504
   7   2.0000     -10.201574      -277.5989
   8   2.0000     -10.189690      -277.2756
   9   2.0000     -10.177162      -276.9346
  10   2.0000     -10.172194      -276.7995
  11   2.0000     -10.170582      -276.7556
  12   2.0000     -10.059401      -273.7302
  13   2.0000      -1.345072       -36.6013
  14   2.0000      -1.048226       -28.5237
  15   2.0000      -0.959816       -26.1179
  16   2.0000      -0.880822       -23.9684
  17   2.0000      -0.831217       -22.6186
  18   2.0000      -0.789855       -21.4930
  19   2.0000      -0.742896       -20.2152
  20   2.0000      -0.710489       -19.3334
  21   2.0000      -0.684801       -18.6344
  22   2.0000      -0.663358       -18.0509
  23   2.0000      -0.618003       -16.8167
  24   2.0000      -0.604888       -16.4598
  25   2.0000      -0.582248       -15.8438
  26   2.0000      -0.566016       -15.4021
  27   2.0000      -0.559728       -15.2310
  28   2.0000      -0.529920       -14.4199
  29   2.0000      -0.510689       -13.8966
  30   2.0000      -0.491810       -13.3828
  31   2.0000      -0.481533       -13.1032
  32   2.0000      -0.470906       -12.8140
  33   2.0000      -0.462094       -12.5742
  34   2.0000      -0.446653       -12.1540
  35   2.0000      -0.437943       -11.9170
  36   2.0000      -0.415921       -11.3178
  37   2.0000      -0.410786       -11.1781
  38   2.0000      -0.389658       -10.6031
  39   2.0000      -0.384838       -10.4720
  40   2.0000      -0.382034       -10.3957
  41   2.0000      -0.373396       -10.1606
  42   2.0000      -0.367738       -10.0067
  43   2.0000      -0.359771        -9.7899
  44   2.0000      -0.339094        -9.2272
  45   2.0000      -0.335536        -9.1304
  46   2.0000      -0.333759        -9.0821
  47   2.0000      -0.327308        -8.9065
  48   2.0000      -0.288489        -7.8502
  49   2.0000      -0.245782        -6.6881
  50   2.0000      -0.157038        -4.2732
  51   0.0000      -0.043082        -1.1723
  52   0.0000      -0.007891        -0.2147
  53   0.0000       0.006244         0.1699
  54   0.0000       0.008149         0.2217
  55   0.0000       0.018732         0.5097

MULLIKEN ATOMIC CHARGES
-----------------------
   0 C :   -0.627778
   1 N :   -0.171816
   2 C :   -0.519961
   3 C :   -0.374196
   4 H :    0.229212
   5 H :    0.279354
   6 C :    0.614711
   7 C :    0.086180
   8 N :   -0.404156
   9 C :   -1.075960
  10 H :    0.230103
  11 H :    0.575990
  12 H :    0.218046
  13 H :    0.243118
  14 H :    0.310276
  15 O :   -0.547218
  16 F :   -0.343590
  17 C :   -0.523092
  18 H :    0.219104
  19 H :    0.256956
  20 C :   -0.323752
  21 H :    0.250561
  22 H :    0.225956
  23 C :   -0.351407
  24 H :    0.270549
  25 H :    0.312940
  26 H :    0.177730
  27 H :    0.268819
  28 H :    0.225507
  29 H :    0.267814
Sum of atomic charges:    0.0000000

LOEWDIN ATOMIC CHARGES
----------------------
   0 C :   -0.192269
   1 N :    0.035307
   2 C :   -0.192098
   3 C :   -0.089902
   4 H :    0.122265
   5 H :    0.123666
   6 C :   -0.461390
   7 C :   -0.558221
   8 N :    0.149676
   9 C :    0.004113
  10 H :    0.016662
  11 H :   -0.019902
  12 H :    0.134243
  13 H :    0.099473
  14 H :    0.074228
  15 O :    0.077231
  16 F :    0.189562
  17 C :   -0.180311
  18 H :    0.110072
  19 H :    0.097202
  20 C :   -0.194207
  21 H :    0.106592
  22 H :    0.108720
  23 C :   -0.205063
  24 H :    0.103282
  25 H :    0.116263
  26 H :    0.087371
  27 H :    0.116156
  28 H :    0.113184
  29 H :    0.108096

  Mayer bond orders larger than 0.100000
B(  0-C ,  1-N ) :   0.9136 B(  0-C , 17-C ) :   0.7145 B(  0-C , 18-H ) :   1.0269
B(  0-C , 19-H ) :   0.9307 B(  0-C , 23-C ) :   0.1258 B(  1-N ,  7-C ) :   1.0511
B(  1-N , 12-H ) :   0.8201 B(  2-C ,  3-C ) :   0.8259 B(  2-C , 20-C ) :   0.1629
B(  2-C , 23-C ) :   0.8295 B(  2-C , 28-H ) :   0.9720 B(  2-C , 29-H ) :   0.9408
B(  3-C ,  4-H ) :   0.9876 B(  3-C ,  5-H ) :   0.9067 B(  3-C ,  6-C ) :   0.9572
B(  3-C , 20-C ) :   0.1179 B(  6-C , 15-O ) :   1.6063 B(  6-C , 16-F ) :   0.7728
B(  7-C ,  8-N ) :   0.9389 B(  7-C ,  9-C ) :   1.5305 B(  7-C , 10-H ) :  -0.1457
B(  7-C , 11-H ) :  -0.1258 B(  8-N , 13-H ) :   0.8144 B(  8-N , 14-H ) :   0.7118
B(  9-C , 10-H ) :   1.2544 B(  9-C , 11-H ) :   0.6676 B( 11-H , 15-O ) :  -0.1027
B( 17-C , 20-C ) :   0.9513 B( 17-C , 21-H ) :   0.9867 B( 17-C , 22-H ) :   0.9602
B( 17-C , 23-C ) :   0.2193 B( 20-C , 23-C ) :   0.3560 B( 20-C , 24-H ) :   1.0866
B( 20-C , 25-H ) :   0.7995 B( 20-C , 26-H ) :  -0.1506 B( 23-C , 24-H ) :  -0.1172
B( 23-C , 26-H ) :   1.1617 B( 23-C , 27-H ) :   0.8734

Dispersion correction           -0.057166499
FINAL SINGLE POINT ENERGY      -637.622772785306

DIPOLE MOMENT
-------------
                                X             Y             Z
Electronic contribution:     -5.68570      -0.71408     -11.71214
Nuclear contribution   :      4.34606       1.32859      13.65749
                        -----------------------------------------
Total Dipole Moment    :     -1.33963       0.61451       1.94535
                        -----------------------------------------
Magnitude (a.u.)       :      2.44062
Magnitude (Debye)      :      6.20355

Rotational constants in cm-1:     0.033551     0.023540     0.017085
Rotational constants in MHz :  1005.818710   705.725032   512.192443

                             ****ORCA TERMINATED NORMALLY****
TOTAL RUN TIME: 0 days 0 hours 6 minutes 29 seconds 932 msec
