                         Program Version 5.0.0 -  RELEASE  -
|  1> !B3LYP D3BJ RIJCOSX def2-TZVPD def2/J TightSCF
|  2> *xyz -1 1
|  3> C         -7.33044       -2.67899       -3.20681
|  4> S         -6.01966       -2.92697       -4.41913
|  5> O         -5.64583       -1.58838       -4.91931
|  6> O         -4.88196       -3.50370       -3.66724
|  7> O         -6.54927       -3.80515       -5.42507
|  8> C         -7.46900       -1.24615       -2.71383
|  9> H         -7.11825       -3.37982       -2.39805
| 10> H         -8.24184       -3.00474       -3.70651
| 11> H         -7.67580       -0.60214       -3.54292
| 12> H         -6.55749       -0.94096       -2.24382
| 13> H         -8.27114       -1.18777       -2.00810
| 14> *
| 15> %MaxCore 64000
| 16>
| 17> %pal nprocs 4
| 18> end
| 19>
| 20> %scf
| 21>   MaxIter 150
| 22> end
| 23>
| 24>
| 25>                          ****END OF INPUT****

CARTESIAN COORDINATES (ANGSTROEM)
---------------------------------
  C     -7.330440   -2.678990   -3.206810
  S     -6.019660   -2.926970   -4.419130
  O     -5.645830   -1.588380   -4.919310
  O     -4.881960   -3.503700   -3.667240
  O     -6.549270   -3.805150   -5.425070
  C     -7.469000   -1.246150   -2.713830
  H     -7.118250   -3.379820   -2.398050
  H     -8.241840   -3.004740   -3.706510
  H     -7.675800   -0.602140   -3.542920
  H     -6.557490   -0.940960   -2.243820
  H     -8.271140   -1.187770   -2.008100

 Total Charge           Charge          ....   -1
 Multiplicity           Mult            ....    1
 Number of Electrons    NEL             ....   58
 Basis Dimension        Dim             ....  285

ORBITAL ENERGIES
----------------

  NO   OCC          E(Eh)            E(eV)
   0   2.0000     -88.838243     -2417.4115
   1   2.0000     -18.907671      -514.5039
   2   2.0000     -18.897046      -514.2148
   3   2.0000     -18.893821      -514.1270
   4   2.0000     -10.031996      -272.9845
   5   2.0000     -10.024078      -272.7690
   6   2.0000      -7.881692      -214.4717
   7   2.0000      -5.845124      -159.0539
   8   2.0000      -5.844217      -159.0292
   9   2.0000      -5.844001      -159.0233
  10   2.0000      -0.919079       -25.0094
  11   2.0000      -0.789353       -21.4794
  12   2.0000      -0.767231       -20.8774
  13   2.0000      -0.634160       -17.2564
  14   2.0000      -0.507877       -13.8200
  15   2.0000      -0.381907       -10.3922
  16   2.0000      -0.320524        -8.7219
  17   2.0000      -0.312017        -8.4904
  18   2.0000      -0.273497        -7.4422
  19   2.0000      -0.255490        -6.9522
  20   2.0000      -0.254106        -6.9146
  21   2.0000      -0.228569        -6.2197
  22   2.0000      -0.220723        -6.0062
  23   2.0000      -0.148769        -4.0482
  24   2.0000      -0.146700        -3.9919
  25   2.0000      -0.114143        -3.1060
  26   2.0000      -0.107420        -2.9230
  27   2.0000      -0.098156        -2.6710
  28   2.0000      -0.062070        -1.6890
  29   0.0000       0.120536         3.2800
  30   0.0000       0.144539         3.9331
  31   0.0000       0.151872         4.1326
  32   0.0000       0.162438         4.4202
  33   0.0000       0.177534         4.8309

MULLIKEN ATOMIC CHARGES
-----------------------
   0 C :   -0.390441
   1 S :    1.255916
   2 O :   -0.747635
   3 O :   -0.753692
   4 O :   -0.710466
   5 C :   -0.954186
   6 H :    0.246301
   7 H :    0.238713
   8 H :    0.263402
   9 H :    0.260342
  10 H :    0.291747
Sum of atomic charges:   -1.0000000

LOEWDIN ATOMIC CHARGES
----------------------
   0 C :   -0.317386
   1 S :    0.372031
   2 O :   -0.410612
   3 O :   -0.424209
   4 O :   -0.389496
   5 C :   -0.148701
   6 H :    0.078233
   7 H :    0.073948
   8 H :    0.056155
   9 H :    0.062719
  10 H :    0.047318

  Mayer bond orders larger than 0.100000
B(  0-C ,  1-S ) :   0.9004 B(  0-C ,  3-O ) :   0.1318 B(  0-C ,  4-O ) :   0.1341
B(  0-C ,  5-C ) :   0.6079 B(  0-C ,  6-H ) :   0.9766 B(  0-C ,  7-H ) :   0.9804
B(  1-S ,  2-O ) :   1.4482 B(  1-S ,  3-O ) :   1.4603 B(  1-S ,  4-O ) :   1.4877
B(  5-C ,  8-H ) :   1.0008 B(  5-C ,  9-H ) :   0.9919 B(  5-C , 10-H ) :   0.9395

Dispersion correction           -0.016663319
FINAL SINGLE POINT ENERGY      -703.120087574740

DIPOLE MOMENT
-------------
                                X             Y             Z
Electronic contribution:      4.68561      -3.51005      -5.10358
Nuclear contribution   :     -6.18165       4.01759       6.33106
                        -----------------------------------------
Total Dipole Moment    :     -1.49604       0.50755       1.22748
                        -----------------------------------------
Magnitude (a.u.)       :      2.00061
Magnitude (Debye)      :      5.08514

Rotational constants in cm-1:     0.161711     0.082788     0.081165
Rotational constants in MHz :  4847.971521  2481.906910  2433.276832

                             ****ORCA TERMINATED NORMALLY****
TOTAL RUN TIME: 0 days 0 hours 0 minutes 38 seconds 466 msec
