                         Program Version 5.0.0 -  RELEASE  -
|  1> !B3LYP D3BJ RIJCOSX def2-TZVPD def2/J TightSCF
|  2> *xyz 1 1
|  3> C         -2.16038       -1.36949       -3.46710
|  4> N         -3.03011       -1.91086       -4.54107
|  5> C         -2.04772        0.14658       -3.51177
|  6> H         -3.47744       -2.79151       -4.25710
|  7> H         -2.53801       -2.01786       -5.43808
|  8> H         -3.89159       -1.37604       -4.71437
|  9> H         -1.18444       -1.84400       -3.56639
| 10> H         -2.59819       -1.70838       -2.52848
| 11> H         -1.61525        0.44478       -4.44395
| 12> H         -1.42718        0.48198       -2.70720
| 13> H         -3.02145        0.57958       -3.41560
| 14> *
| 15> %MaxCore 64000
| 16>
| 17> %pal nprocs 4
| 18> end
| 19>
| 20> %scf
| 21>   MaxIter 150
| 22> end
| 23>
| 24>
| 25>                          ****END OF INPUT****

CARTESIAN COORDINATES (ANGSTROEM)
---------------------------------
  C     -2.160380   -1.369490   -3.467100
  N     -3.030110   -1.910860   -4.541070
  C     -2.047720    0.146580   -3.511770
  H     -3.477440   -2.791510   -4.257100
  H     -2.538010   -2.017860   -5.438080
  H     -3.891590   -1.376040   -4.714370
  H     -1.184440   -1.844000   -3.566390
  H     -2.598190   -1.708380   -2.528480
  H     -1.615250    0.444780   -4.443950
  H     -1.427180    0.481980   -2.707200
  H     -3.021450    0.579580   -3.415600

 Total Charge           Charge          ....    1
 Multiplicity           Mult            ....    1
 Number of Electrons    NEL             ....   26
 Basis Dimension        Dim             ....  183

ORBITAL ENERGIES
----------------

  NO   OCC          E(Eh)            E(eV)
   0   2.0000     -14.649984      -398.6463
   1   2.0000     -10.422809      -283.6190
   2   2.0000     -10.341587      -281.4089
   3   2.0000      -1.217343       -33.1256
   4   2.0000      -0.967383       -26.3238
   5   2.0000      -0.847190       -23.0532
   6   2.0000      -0.809767       -22.0349
   7   2.0000      -0.769952       -20.9515
   8   2.0000      -0.700874       -19.0718
   9   2.0000      -0.643464       -17.5095
  10   2.0000      -0.583018       -15.8647
  11   2.0000      -0.568767       -15.4769
  12   2.0000      -0.551694       -15.0124
  13   0.0000      -0.204620        -5.5680
  14   0.0000      -0.145211        -3.9514
  15   0.0000      -0.144364        -3.9283
  16   0.0000      -0.132787        -3.6133
  17   0.0000      -0.103999        -2.8300

MULLIKEN ATOMIC CHARGES
-----------------------
   0 C :   -0.256480
   1 N :   -0.277832
   2 C :   -1.051651
   3 H :    0.338373
   4 H :    0.340081
   5 H :    0.324558
   6 H :    0.291570
   7 H :    0.289217
   8 H :    0.339490
   9 H :    0.312248
  10 H :    0.350425
Sum of atomic charges:    1.0000000

LOEWDIN ATOMIC CHARGES
----------------------
   0 C :   -0.194940
   1 N :    0.179291
   2 C :   -0.048448
   3 H :    0.179084
   4 H :    0.184391
   5 H :    0.178446
   6 H :    0.135798
   7 H :    0.133225
   8 H :    0.081513
   9 H :    0.091071
  10 H :    0.080570

  Mayer bond orders larger than 0.100000
B(  0-C ,  1-N ) :   0.9376 B(  0-C ,  2-C ) :   0.6642 B(  0-C ,  6-H ) :   0.9401
B(  0-C ,  7-H ) :   0.9069 B(  1-N ,  3-H ) :   0.8747 B(  1-N ,  4-H ) :   0.8671
B(  1-N ,  5-H ) :   0.8776 B(  2-C ,  8-H ) :   0.9546 B(  2-C ,  9-H ) :   0.9773
B(  2-C , 10-H ) :   0.9175

Dispersion correction           -0.009980011
FINAL SINGLE POINT ENERGY      -135.502914936032

DIPOLE MOMENT
-------------
                                X             Y             Z
Electronic contribution:     -0.63593      -1.47516      -0.76213
Nuclear contribution   :     -0.15215       0.37393      -0.04773
                        -----------------------------------------
Total Dipole Moment    :     -0.78807      -1.10122      -0.80986
                        -----------------------------------------
Magnitude (a.u.)       :      1.57786
Magnitude (Debye)      :      4.01059

Rotational constants in cm-1:     1.020762     0.277172     0.247319
Rotational constants in MHz : 30601.664035  8309.399682  7414.438136

                             ****ORCA TERMINATED NORMALLY****
TOTAL RUN TIME: 0 days 0 hours 0 minutes 17 seconds 263 msec
