                         Program Version 5.0.0 -  RELEASE  -
|  1> !B3LYP D3BJ RIJCOSX def2-TZVPD def2/J TightSCF xyzfile
|  2>
|  3> *xyzfile 0 1 B.xyz
|  4>
|  5> %MaxCore 64000
|  6>
|  7> %pal nprocs 4
|  8> end
|  9>
| 10> %scf
| 11>   MaxIter 150
| 12> end
| 13>
| 14>
| 15>                          ****END OF INPUT****

CARTESIAN COORDINATES (ANGSTROEM)
---------------------------------
  C     -2.160376   -1.369486   -3.467104
  N     -3.030108   -1.910857   -4.541074
  C     -2.047717    0.146583   -3.511774
  C     -7.330440   -2.678991   -3.206811
  S     -6.019659   -2.926965   -4.419128
  H     -3.477443   -2.791513   -4.257096
  H     -2.538013   -2.017860   -5.438075
  H     -3.891589   -1.376039   -4.714365
  O     -5.645830   -1.588384   -4.919307
  O     -4.881961   -3.503697   -3.667235
  H     -1.184438   -1.843997   -3.566393
  H     -2.598195   -1.708376   -2.528477
  O     -6.549267   -3.805150   -5.425071
  C     -3.328755    0.875037   -3.103669
  H     -1.740034    0.452343   -4.517126
  H     -1.232611    0.434938   -2.842208
  C     -3.628487    0.771601   -1.609363
  H     -4.175106    0.490791   -3.682203
  H     -3.237812    1.928663   -3.381480
  C     -4.975718    1.361432   -1.190644
  H     -2.830700    1.276234   -1.054766
  H     -3.594312   -0.275838   -1.294603
  C     -6.184720    0.784347   -1.926464
  H     -4.956292    2.445725   -1.342200
  H     -5.097256    1.205252   -0.114136
  C     -6.286921   -0.735882   -1.893531
  H     -6.163994    1.100199   -2.974250
  H     -7.094530    1.223459   -1.504509
  C     -7.468999   -1.246153   -2.713833
  H     -6.360641   -1.090347   -0.859176
  H     -5.369848   -1.171853   -2.295982
  H     -7.601914   -0.601349   -3.585329
  H     -8.389791   -1.173436   -2.126922
  H     -7.118254   -3.379818   -2.398055
  H     -8.241838   -3.004745   -3.706513

 Total Charge           Charge          ....    0
 Multiplicity           Mult            ....    1
 Number of Electrons    NEL             ....  122
 Basis Dimension        Dim             ....  725

ORBITAL ENERGIES
----------------

  NO   OCC          E(Eh)            E(eV)
   0   2.0000     -89.005904     -2421.9738
   1   2.0000     -19.077327      -519.1205
   2   2.0000     -19.077263      -519.1187
   3   2.0000     -19.062927      -518.7286
   4   2.0000     -14.417526      -392.3208
   5   2.0000     -10.251684      -278.9625
   6   2.0000     -10.204479      -277.6780
   7   2.0000     -10.184339      -277.1300
   8   2.0000     -10.176082      -276.9053
   9   2.0000     -10.169598      -276.7288
  10   2.0000     -10.168262      -276.6925
  11   2.0000     -10.160645      -276.4852
  12   2.0000     -10.159935      -276.4659
  13   2.0000     -10.156894      -276.3831
  14   2.0000      -8.050323      -219.0604
  15   2.0000      -6.013888      -163.6462
  16   2.0000      -6.012920      -163.6199
  17   2.0000      -6.012125      -163.5983
  18   2.0000      -1.094069       -29.7711
  19   2.0000      -1.005266       -27.3547
  20   2.0000      -0.956804       -26.0360
  21   2.0000      -0.954686       -25.9783
  22   2.0000      -0.836179       -22.7536
  23   2.0000      -0.807220       -21.9656
  24   2.0000      -0.781310       -21.2605
  25   2.0000      -0.738295       -20.0900
  26   2.0000      -0.705537       -19.1986
  27   2.0000      -0.661976       -18.0133
  28   2.0000      -0.624666       -16.9980
  29   2.0000      -0.608308       -16.5529
  30   2.0000      -0.594549       -16.1785
  31   2.0000      -0.569893       -15.5076
  32   2.0000      -0.561123       -15.2689
  33   2.0000      -0.537358       -14.6223
  34   2.0000      -0.514767       -14.0075
  35   2.0000      -0.488451       -13.2914
  36   2.0000      -0.487116       -13.2551
  37   2.0000      -0.472765       -12.8646
  38   2.0000      -0.457336       -12.4447
  39   2.0000      -0.446061       -12.1379
  40   2.0000      -0.439172       -11.9505
  41   2.0000      -0.434150       -11.8138
  42   2.0000      -0.429469       -11.6864
  43   2.0000      -0.414704       -11.2847
  44   2.0000      -0.409701       -11.1485
  45   2.0000      -0.400667       -10.9027
  46   2.0000      -0.388227       -10.5642
  47   2.0000      -0.376382       -10.2419
  48   2.0000      -0.369948       -10.0668
  49   2.0000      -0.355453        -9.6724
  50   2.0000      -0.347462        -9.4549
  51   2.0000      -0.338651        -9.2152
  52   2.0000      -0.326395        -8.8817
  53   2.0000      -0.323009        -8.7895
  54   2.0000      -0.318456        -8.6656
  55   2.0000      -0.317359        -8.6358
  56   2.0000      -0.312936        -8.5154
  57   2.0000      -0.282860        -7.6970
  58   2.0000      -0.276962        -7.5365
  59   2.0000      -0.267362        -7.2753
  60   2.0000      -0.241753        -6.5784
  61   0.0000      -0.027438        -0.7466
  62   0.0000      -0.000448        -0.0122
  63   0.0000       0.004833         0.1315
  64   0.0000       0.011742         0.3195
  65   0.0000       0.022467         0.6114

MULLIKEN ATOMIC CHARGES
-----------------------
   0 C :   -0.561837
   1 N :   -0.086987
   2 C :   -0.447043
   3 C :   -0.857778
   4 S :    1.394808
   5 H :    0.389043
   6 H :    0.308101
   7 H :    0.254410
   8 O :   -0.891701
   9 O :   -0.884329
  10 H :    0.290787
  11 H :    0.287173
  12 O :   -0.668669
  13 C :   -0.253281
  14 H :    0.232826
  15 H :    0.278356
  16 C :   -0.390077
  17 H :    0.140567
  18 H :    0.233429
  19 C :   -0.698182
  20 H :    0.266919
  21 H :    0.218243
  22 C :   -0.599566
  23 H :    0.225509
  24 H :    0.254122
  25 C :   -0.011575
  26 H :    0.275971
  27 H :    0.259900
  28 C :   -0.482475
  29 H :    0.277180
  30 H :    0.096958
  31 H :    0.257085
  32 H :    0.313719
  33 H :    0.315934
  34 H :    0.262460
Sum of atomic charges:   -0.0000000

LOEWDIN ATOMIC CHARGES
----------------------
   0 C :   -0.155216
   1 N :    0.150029
   2 C :   -0.182065
   3 C :   -0.229528
   4 S :    0.470319
   5 H :    0.075465
   6 H :    0.173580
   7 H :    0.082220
   8 O :   -0.376619
   9 O :   -0.382005
  10 H :    0.124604
  11 H :    0.121542
  12 O :   -0.320387
  13 C :   -0.198214
  14 H :    0.113568
  15 H :    0.116244
  16 C :   -0.212192
  17 H :    0.095912
  18 H :    0.120165
  19 C :   -0.203422
  20 H :    0.113393
  21 H :    0.098232
  22 C :   -0.211492
  23 H :    0.108240
  24 H :    0.108923
  25 C :   -0.213548
  26 H :    0.108213
  27 H :    0.114609
  28 C :   -0.232581
  29 H :    0.123842
  30 H :    0.082540
  31 H :    0.106616
  32 H :    0.114180
  33 H :    0.100054
  34 H :    0.094781

  Mayer bond orders larger than 0.100000
B(  0-C ,  1-N ) :   0.9026 B(  0-C ,  2-C ) :   0.8500 B(  0-C , 10-H ) :   0.8736
B(  0-C , 11-H ) :   0.8864 B(  0-C , 16-C ) :   0.1025 B(  1-N ,  5-H ) :   0.7798
B(  1-N ,  6-H ) :   0.8298 B(  1-N ,  7-H ) :   0.9364 B(  2-C , 13-C ) :   0.8468
B(  2-C , 14-H ) :   0.9546 B(  2-C , 15-H ) :   0.9273 B(  2-C , 16-C ) :   0.1583
B(  3-C ,  4-S ) :   0.9692 B(  3-C ,  9-O ) :   0.1378 B(  3-C , 12-O ) :   0.1706
B(  3-C , 25-C ) :   0.1446 B(  3-C , 28-C ) :   0.7426 B(  3-C , 33-H ) :   0.8786
B(  3-C , 34-H ) :   1.0433 B(  4-S ,  8-O ) :   1.3615 B(  4-S ,  9-O ) :   1.2937
B(  4-S , 12-O ) :   1.3163 B(  8-O ,  9-O ) :   0.1176 B( 13-C , 16-C ) :   0.3423
B( 13-C , 17-H ) :   1.1350 B( 13-C , 18-H ) :   0.9215 B( 13-C , 19-C ) :   0.1530
B( 13-C , 20-H ) :  -0.1005 B( 13-C , 21-H ) :  -0.1421 B( 13-C , 22-C ) :   0.1189
B( 16-C , 19-C ) :   0.9541 B( 16-C , 20-H ) :   0.9415 B( 16-C , 21-H ) :   1.0374
B( 16-C , 25-C ) :   0.1249 B( 19-C , 22-C ) :   0.8821 B( 19-C , 23-H ) :   0.9951
B( 19-C , 24-H ) :   0.9474 B( 19-C , 25-C ) :   0.1432 B( 22-C , 25-C ) :   0.4167
B( 22-C , 26-H ) :   0.9800 B( 22-C , 27-H ) :   0.9163 B( 22-C , 28-C ) :   0.4612
B( 25-C , 26-H ) :  -0.1116 B( 25-C , 28-C ) :   0.5360 B( 25-C , 29-H ) :   0.7761
B( 25-C , 30-H ) :   1.4321 B( 28-C , 29-H ) :  -0.1271 B( 28-C , 31-H ) :   0.8911
B( 28-C , 32-H ) :   0.9474 B( 28-C , 34-H ) :  -0.1004 B( 29-H , 30-H ) :   0.1427

Dispersion correction           -0.068374650
FINAL SINGLE POINT ENERGY     -1034.137600992429

DIPOLE MOMENT
-------------
                                X             Y             Z
Electronic contribution:     -5.97769     -15.21151     -11.41971
Nuclear contribution   :      8.59301      16.99497      12.41069
                        -----------------------------------------
Total Dipole Moment    :      2.61533       1.78346       0.99098
                        -----------------------------------------
Magnitude (a.u.)       :      3.31703
Magnitude (Debye)      :      8.43122

Rotational constants in cm-1:     0.025617     0.015295     0.010641
Rotational constants in MHz :   767.991150   458.522408   319.013093

                             ****ORCA TERMINATED NORMALLY****
TOTAL RUN TIME: 0 days 0 hours 7 minutes 7 seconds 349 msec
