                         Program Version 5.0.0 -  RELEASE  -
|  1> !B3LYP D3BJ RIJCOSX def2-TZVPD def2/J TightSCF
|  2> *xyz 0 1
|  3> C         -7.33044       -2.67899       -3.20681
|  4> S         -6.01966       -2.92697       -4.41913
|  5> F         -5.64583       -1.58838       -4.91931
|  6> O         -4.88196       -3.50370       -3.66724
|  7> O         -6.54927       -3.80515       -5.42507
|  8> C         -7.46900       -1.24615       -2.71383
|  9> H         -7.11825       -3.37982       -2.39805
| 10> H         -8.24184       -3.00474       -3.70651
| 11> H         -7.67580       -0.60214       -3.54292
| 12> H         -6.55749       -0.94096       -2.24382
| 13> H         -8.27114       -1.18777       -2.00810
| 14> *
| 15> %MaxCore 64000
| 16>
| 17> %pal nprocs 4
| 18> end
| 19>
| 20> %scf
| 21>   MaxIter 150
| 22> end
| 23>
| 24>
| 25>                          ****END OF INPUT****

CARTESIAN COORDINATES (ANGSTROEM)
---------------------------------
  C     -7.330440   -2.678990   -3.206810
  S     -6.019660   -2.926970   -4.419130
  F     -5.645830   -1.588380   -4.919310
  O     -4.881960   -3.503700   -3.667240
  O     -6.549270   -3.805150   -5.425070
  C     -7.469000   -1.246150   -2.713830
  H     -7.118250   -3.379820   -2.398050
  H     -8.241840   -3.004740   -3.706510
  H     -7.675800   -0.602140   -3.542920
  H     -6.557490   -0.940960   -2.243820
  H     -8.271140   -1.187770   -2.008100

 Total Charge           Charge          ....    0
 Multiplicity           Mult            ....    1
 Number of Electrons    NEL             ....   58
 Basis Dimension        Dim             ....  285

ORBITAL ENERGIES
----------------

  NO   OCC          E(Eh)            E(eV)
   0   2.0000     -89.097874     -2424.4764
   1   2.0000     -24.786764      -674.4821
   2   2.0000     -19.141924      -520.8782
   3   2.0000     -19.127575      -520.4878
   4   2.0000     -10.233111      -278.4571
   5   2.0000     -10.195526      -277.4344
   6   2.0000      -8.141847      -221.5509
   7   2.0000      -6.108779      -166.2283
   8   2.0000      -6.102119      -166.0471
   9   2.0000      -6.102018      -166.0444
  10   2.0000      -1.357166       -36.9304
  11   2.0000      -1.108452       -30.1625
  12   2.0000      -1.010039       -27.4845
  13   2.0000      -0.829428       -22.5699
  14   2.0000      -0.725633       -19.7455
  15   2.0000      -0.677441       -18.4341
  16   2.0000      -0.586602       -15.9623
  17   2.0000      -0.568303       -15.4643
  18   2.0000      -0.544435       -14.8148
  19   2.0000      -0.500788       -13.6271
  20   2.0000      -0.475253       -12.9323
  21   2.0000      -0.450987       -12.2720
  22   2.0000      -0.445438       -12.1210
  23   2.0000      -0.417321       -11.3559
  24   2.0000      -0.401260       -10.9188
  25   2.0000      -0.386744       -10.5239
  26   2.0000      -0.338169        -9.2020
  27   2.0000      -0.324517        -8.8306
  28   2.0000      -0.311839        -8.4856
  29   0.0000      -0.019077        -0.5191
  30   0.0000       0.017264         0.4698
  31   0.0000       0.019180         0.5219
  32   0.0000       0.025836         0.7030
  33   0.0000       0.037195         1.0121

MULLIKEN ATOMIC CHARGES
-----------------------
   0 C :   -0.295226
   1 S :    1.213087
   2 F :   -0.187064
   3 O :   -0.605758
   4 O :   -0.568505
   5 C :   -1.072018
   6 H :    0.291949
   7 H :    0.287536
   8 H :    0.322566
   9 H :    0.320315
  10 H :    0.293119
Sum of atomic charges:    0.0000000

LOEWDIN ATOMIC CHARGES
----------------------
   0 C :   -0.265537
   1 S :    0.617040
   2 F :   -0.081839
   3 O :   -0.305461
   4 O :   -0.272468
   5 C :   -0.111492
   6 H :    0.105631
   7 H :    0.097300
   8 H :    0.068381
   9 H :    0.074646
  10 H :    0.073800

  Mayer bond orders larger than 0.100000
B(  0-C ,  1-S ) :   0.8682 B(  0-C ,  4-O ) :   0.1045 B(  0-C ,  5-C ) :   0.6078
B(  0-C ,  6-H ) :   0.9397 B(  0-C ,  7-H ) :   0.9476 B(  1-S ,  2-F ) :   0.9854
B(  1-S ,  3-O ) :   1.6500 B(  1-S ,  4-O ) :   1.6860 B(  5-C ,  8-H ) :   0.9400
B(  5-C ,  9-H ) :   0.9582 B(  5-C , 10-H ) :   0.9636

Dispersion correction           -0.015809017
FINAL SINGLE POINT ENERGY      -727.649958090884

DIPOLE MOMENT
-------------
                                X             Y             Z
Electronic contribution:      5.64435      -1.72077      -6.37605
Nuclear contribution   :     -6.81251       2.87933       7.15058
                        -----------------------------------------
Total Dipole Moment    :     -1.16817       1.15856       0.77452
                        -----------------------------------------
Magnitude (a.u.)       :      1.81845
Magnitude (Debye)      :      4.62213

Rotational constants in cm-1:     0.152543     0.082494     0.078987
Rotational constants in MHz :  4573.135887  2473.116216  2367.980829

                             ****ORCA TERMINATED NORMALLY****
TOTAL RUN TIME: 0 days 0 hours 0 minutes 40 seconds 857 msec
