                         Program Version 5.0.0 -  RELEASE  -
|  1> !B3LYP D3BJ RIJCOSX def2-TZVPD def2/J TightSCF
|  2> *xyz 0 1
|  3> C         -2.16038       -1.36949       -3.46710
|  4> C         -3.03011       -1.91086       -4.54107
|  5> C         -2.04772        0.14658       -3.51177
|  6> H         -3.47744       -2.79151       -4.25710
|  7> H         -2.53801       -2.01786       -5.43808
|  8> H         -3.89159       -1.37604       -4.71437
|  9> H         -1.18444       -1.84400       -3.56639
| 10> H         -2.59819       -1.70838       -2.52848
| 11> H         -1.61525        0.44478       -4.44395
| 12> H         -1.42718        0.48198       -2.70720
| 13> H         -3.02145        0.57958       -3.41560
| 14> *
| 15> %MaxCore 64000
| 16>
| 17> %pal nprocs 4
| 18> end
| 19>
| 20> %scf
| 21>   MaxIter 150
| 22> end
| 23>
| 24>
| 25>                          ****END OF INPUT****

CARTESIAN COORDINATES (ANGSTROEM)
---------------------------------
  C     -2.160380   -1.369490   -3.467100
  C     -3.030110   -1.910860   -4.541070
  C     -2.047720    0.146580   -3.511770
  H     -3.477440   -2.791510   -4.257100
  H     -2.538010   -2.017860   -5.438080
  H     -3.891590   -1.376040   -4.714370
  H     -1.184440   -1.844000   -3.566390
  H     -2.598190   -1.708380   -2.528480
  H     -1.615250    0.444780   -4.443950
  H     -1.427180    0.481980   -2.707200
  H     -3.021450    0.579580   -3.415600

 Total Charge           Charge          ....    0
 Multiplicity           Mult            ....    1
 Number of Electrons    NEL             ....   26
 Basis Dimension        Dim             ....  183

ORBITAL ENERGIES
----------------

  NO   OCC          E(Eh)            E(eV)
   0   2.0000     -10.153950      -276.3030
   1   2.0000     -10.144507      -276.0461
   2   2.0000     -10.126011      -275.5428
   3   2.0000      -0.789432       -21.4815
   4   2.0000      -0.690962       -18.8020
   5   2.0000      -0.587944       -15.9988
   6   2.0000      -0.468797       -12.7566
   7   2.0000      -0.438594       -11.9348
   8   2.0000      -0.401291       -10.9197
   9   2.0000      -0.393753       -10.7146
  10   2.0000      -0.340142        -9.2557
  11   2.0000      -0.328443        -8.9374
  12   2.0000      -0.327348        -8.9076
  13   0.0000       0.012469         0.3393
  14   0.0000       0.036342         0.9889
  15   0.0000       0.039635         1.0785
  16   0.0000       0.058614         1.5950
  17   0.0000       0.082401         2.2422

MULLIKEN ATOMIC CHARGES
-----------------------
   0 C :    0.077115
   1 C :   -1.294218
   2 C :   -1.046313
   3 H :    0.348495
   4 H :    0.318432
   5 H :    0.352090
   6 H :    0.197176
   7 H :    0.205587
   8 H :    0.284331
   9 H :    0.274228
  10 H :    0.283077
Sum of atomic charges:   -0.0000000

LOEWDIN ATOMIC CHARGES
----------------------
   0 C :   -0.309347
   1 C :   -0.128408
   2 C :   -0.109891
   3 H :    0.049520
   4 H :    0.055544
   5 H :    0.051990
   6 H :    0.102122
   7 H :    0.100506
   8 H :    0.065257
   9 H :    0.058548
  10 H :    0.064160

  Mayer bond orders larger than 0.100000
B(  0-C ,  1-C ) :   0.6213 B(  0-C ,  2-C ) :   0.6244 B(  0-C ,  6-H ) :   0.9900
B(  0-C ,  7-H ) :   0.9928 B(  1-C ,  2-C ) :   0.1147 B(  1-C ,  3-H ) :   0.9339
B(  1-C ,  4-H ) :   0.9534 B(  1-C ,  5-H ) :   0.9428 B(  2-C ,  8-H ) :   0.9839
B(  2-C ,  9-H ) :   0.9968 B(  2-C , 10-H ) :   0.9820

Dispersion correction           -0.010057642
FINAL SINGLE POINT ENERGY      -119.091482503218

DIPOLE MOMENT
-------------
                                X             Y             Z
Electronic contribution:      0.31916      -0.12994       0.27546
Nuclear contribution   :     -0.34625       0.09603      -0.26933
                        -----------------------------------------
Total Dipole Moment    :     -0.02708      -0.03390       0.00613
                        -----------------------------------------
Magnitude (a.u.)       :      0.04382
Magnitude (Debye)      :      0.11139

Rotational constants in cm-1:     1.028617     0.291238     0.258956
Rotational constants in MHz : 30837.159054  8731.095379  7763.318586

                             ****ORCA TERMINATED NORMALLY****
TOTAL RUN TIME: 0 days 0 hours 0 minutes 18 seconds 173 msec
