                         Program Version 5.0.0 -  RELEASE  -
|  1> !B3LYP D3BJ RIJCOSX def2-TZVPD def2/J TightSCF
|  2> *xyz 0 1
|  3> C         -7.33044       -2.67899       -3.20681
|  4> S         -6.01966       -2.92697       -4.41913
|  5> O         -5.64583       -1.58838       -4.91931
|  6> F         -4.88196       -3.50370       -3.66724
|  7> O         -6.54927       -3.80515       -5.42507
|  8> C         -7.46900       -1.24615       -2.71383
|  9> H         -7.11825       -3.37982       -2.39805
| 10> H         -8.24184       -3.00474       -3.70651
| 11> H         -7.67580       -0.60214       -3.54292
| 12> H         -6.55749       -0.94096       -2.24382
| 13> H         -8.27114       -1.18777       -2.00810
| 14> *
| 15> %MaxCore 64000
| 16>
| 17> %pal nprocs 4
| 18> end
| 19>
| 20> %scf
| 21>   MaxIter 150
| 22> end
| 23>
| 24>
| 25>                          ****END OF INPUT****

CARTESIAN COORDINATES (ANGSTROEM)
---------------------------------
  C     -7.330440   -2.678990   -3.206810
  S     -6.019660   -2.926970   -4.419130
  O     -5.645830   -1.588380   -4.919310
  F     -4.881960   -3.503700   -3.667240
  O     -6.549270   -3.805150   -5.425070
  C     -7.469000   -1.246150   -2.713830
  H     -7.118250   -3.379820   -2.398050
  H     -8.241840   -3.004740   -3.706510
  H     -7.675800   -0.602140   -3.542920
  H     -6.557490   -0.940960   -2.243820
  H     -8.271140   -1.187770   -2.008100

 Total Charge           Charge          ....    0
 Multiplicity           Mult            ....    1
 Number of Electrons    NEL             ....   58
 Basis Dimension        Dim             ....  285

ORBITAL ENERGIES
----------------

  NO   OCC          E(Eh)            E(eV)
   0   2.0000     -89.097864     -2424.4761
   1   2.0000     -24.784025      -674.4076
   2   2.0000     -19.141878      -520.8770
   3   2.0000     -19.130588      -520.5698
   4   2.0000     -10.233393      -278.4648
   5   2.0000     -10.186820      -277.1975
   6   2.0000      -8.141833      -221.5505
   7   2.0000      -6.108694      -166.2260
   8   2.0000      -6.102312      -166.0523
   9   2.0000      -6.101879      -166.0406
  10   2.0000      -1.353522       -36.8312
  11   2.0000      -1.109427       -30.1890
  12   2.0000      -1.013337       -27.5743
  13   2.0000      -0.825108       -22.4523
  14   2.0000      -0.726352       -19.7650
  15   2.0000      -0.670815       -18.2538
  16   2.0000      -0.577248       -15.7077
  17   2.0000      -0.564573       -15.3628
  18   2.0000      -0.552057       -15.0222
  19   2.0000      -0.495396       -13.4804
  20   2.0000      -0.482474       -13.1288
  21   2.0000      -0.455472       -12.3940
  22   2.0000      -0.430962       -11.7271
  23   2.0000      -0.406235       -11.0542
  24   2.0000      -0.399961       -10.8835
  25   2.0000      -0.385497       -10.4899
  26   2.0000      -0.337557        -9.1854
  27   2.0000      -0.330365        -8.9897
  28   2.0000      -0.314641        -8.5618
  29   0.0000      -0.012829        -0.3491
  30   0.0000       0.009028         0.2457
  31   0.0000       0.020185         0.5493
  32   0.0000       0.023771         0.6468
  33   0.0000       0.038816         1.0562

MULLIKEN ATOMIC CHARGES
-----------------------
   0 C :   -0.395452
   1 S :    1.209326
   2 O :   -0.600828
   3 F :   -0.178243
   4 O :   -0.572958
   5 C :   -0.975039
   6 H :    0.329137
   7 H :    0.281675
   8 H :    0.300079
   9 H :    0.297324
  10 H :    0.304979
Sum of atomic charges:    0.0000000

LOEWDIN ATOMIC CHARGES
----------------------
   0 C :   -0.268948
   1 S :    0.619942
   2 O :   -0.296394
   3 F :   -0.087249
   4 O :   -0.273068
   5 C :   -0.109839
   6 H :    0.095995
   7 H :    0.100670
   8 H :    0.072330
   9 H :    0.073618
  10 H :    0.072940

  Mayer bond orders larger than 0.100000
B(  0-C ,  1-S ) :   0.8875 B(  0-C ,  4-O ) :   0.1128 B(  0-C ,  5-C ) :   0.6600
B(  0-C ,  6-H ) :   0.8838 B(  0-C ,  7-H ) :   0.9576 B(  1-S ,  2-O ) :   1.6388
B(  1-S ,  3-F ) :   0.9847 B(  1-S ,  4-O ) :   1.6834 B(  2-O ,  4-O ) :   0.1010
B(  5-C ,  8-H ) :   0.9845 B(  5-C ,  9-H ) :   0.9525 B(  5-C , 10-H ) :   0.9449

Dispersion correction           -0.015892975
FINAL SINGLE POINT ENERGY      -727.652990026329

DIPOLE MOMENT
-------------
                                X             Y             Z
Electronic contribution:      6.97787      -4.96553      -4.27768
Nuclear contribution   :     -7.60849       4.87515       5.84588
                        -----------------------------------------
Total Dipole Moment    :     -0.63062      -0.09037       1.56820
                        -----------------------------------------
Magnitude (a.u.)       :      1.69266
Magnitude (Debye)      :      4.30241

Rotational constants in cm-1:     0.153704     0.080342     0.079431
Rotational constants in MHz :  4607.928650  2408.599360  2381.267225

                             ****ORCA TERMINATED NORMALLY****
TOTAL RUN TIME: 0 days 0 hours 0 minutes 41 seconds 123 msec
