                         Program Version 5.0.0 -  RELEASE  -
|  1> !B3LYP D3BJ RIJCOSX def2-TZVPD def2/J TightSCF
|  2> *xyz 0 1
|  3> C         -7.33044       -2.67899       -3.20681
|  4> S         -6.01966       -2.92697       -4.41913
|  5> O         -5.64583       -1.58838       -4.91931
|  6> O         -4.88196       -3.50370       -3.66724
|  7> F         -6.54927       -3.80515       -5.42507
|  8> C         -7.46900       -1.24615       -2.71383
|  9> H         -7.11825       -3.37982       -2.39805
| 10> H         -8.24184       -3.00474       -3.70651
| 11> H         -7.67580       -0.60214       -3.54292
| 12> H         -6.55749       -0.94096       -2.24382
| 13> H         -8.27114       -1.18777       -2.00810
| 14> *
| 15> %MaxCore 64000
| 16>
| 17> %pal nprocs 4
| 18> end
| 19>
| 20> %scf
| 21>   MaxIter 150
| 22> end
| 23>
| 24>
| 25>                          ****END OF INPUT****

CARTESIAN COORDINATES (ANGSTROEM)
---------------------------------
  C     -7.330440   -2.678990   -3.206810
  S     -6.019660   -2.926970   -4.419130
  O     -5.645830   -1.588380   -4.919310
  O     -4.881960   -3.503700   -3.667240
  F     -6.549270   -3.805150   -5.425070
  C     -7.469000   -1.246150   -2.713830
  H     -7.118250   -3.379820   -2.398050
  H     -8.241840   -3.004740   -3.706510
  H     -7.675800   -0.602140   -3.542920
  H     -6.557490   -0.940960   -2.243820
  H     -8.271140   -1.187770   -2.008100

 Total Charge           Charge          ....    0
 Multiplicity           Mult            ....    1
 Number of Electrons    NEL             ....   58
 Basis Dimension        Dim             ....  285

ORBITAL ENERGIES
----------------

  NO   OCC          E(Eh)            E(eV)
   0   2.0000     -89.100298     -2424.5424
   1   2.0000     -24.806195      -675.0109
   2   2.0000     -19.131042      -520.5821
   3   2.0000     -19.128185      -520.5044
   4   2.0000     -10.234101      -278.4840
   5   2.0000     -10.187059      -277.2040
   6   2.0000      -8.144218      -221.6154
   7   2.0000      -6.111005      -166.2889
   8   2.0000      -6.104595      -166.1145
   9   2.0000      -6.104302      -166.1065
  10   2.0000      -1.390377       -37.8341
  11   2.0000      -1.093390       -29.7527
  12   2.0000      -0.996619       -27.1194
  13   2.0000      -0.825482       -22.4625
  14   2.0000      -0.740895       -20.1608
  15   2.0000      -0.678339       -18.4585
  16   2.0000      -0.592919       -16.1342
  17   2.0000      -0.590673       -16.0730
  18   2.0000      -0.557103       -15.1595
  19   2.0000      -0.496797       -13.5185
  20   2.0000      -0.481192       -13.0939
  21   2.0000      -0.445568       -12.1245
  22   2.0000      -0.427991       -11.6462
  23   2.0000      -0.408425       -11.1138
  24   2.0000      -0.392915       -10.6918
  25   2.0000      -0.379786       -10.3345
  26   2.0000      -0.329492        -8.9659
  27   2.0000      -0.322311        -8.7705
  28   2.0000      -0.301258        -8.1976
  29   0.0000      -0.012810        -0.3486
  30   0.0000       0.005205         0.1416
  31   0.0000       0.021118         0.5747
  32   0.0000       0.024209         0.6588
  33   0.0000       0.040295         1.0965

MULLIKEN ATOMIC CHARGES
-----------------------
   0 C :   -0.388807
   1 S :    1.200674
   2 O :   -0.597798
   3 O :   -0.597563
   4 F :   -0.135013
   5 C :   -1.003080
   6 H :    0.295643
   7 H :    0.313843
   8 H :    0.299882
   9 H :    0.307174
  10 H :    0.305046
Sum of atomic charges:    0.0000000

LOEWDIN ATOMIC CHARGES
----------------------
   0 C :   -0.274017
   1 S :    0.618928
   2 O :   -0.297280
   3 O :   -0.304271
   4 F :   -0.053395
   5 C :   -0.104657
   6 H :    0.099902
   7 H :    0.091352
   8 H :    0.070714
   9 H :    0.078606
  10 H :    0.074120

  Mayer bond orders larger than 0.100000
B(  0-C ,  1-S ) :   0.8873 B(  0-C ,  3-O ) :   0.1021 B(  0-C ,  5-C ) :   0.6816
B(  0-C ,  6-H ) :   0.9551 B(  0-C ,  7-H ) :   0.8856 B(  1-S ,  2-O ) :   1.6469
B(  1-S ,  3-O ) :   1.6562 B(  1-S ,  4-F ) :   1.0225 B(  5-C ,  8-H ) :   0.9676
B(  5-C ,  9-H ) :   0.9637 B(  5-C , 10-H ) :   0.9349

Dispersion correction           -0.015916971
FINAL SINGLE POINT ENERGY      -727.634901286622

DIPOLE MOMENT
-------------
                                X             Y             Z
Electronic contribution:      4.15083      -5.45709      -7.25944
Nuclear contribution   :     -5.87110       5.18927       7.67759
                        -----------------------------------------
Total Dipole Moment    :     -1.72027      -0.26782       0.41815
                        -----------------------------------------
Magnitude (a.u.)       :      1.79051
Magnitude (Debye)      :      4.55110

Rotational constants in cm-1:     0.155988     0.080452     0.078187
Rotational constants in MHz :  4676.405251  2411.902056  2343.983816

                             ****ORCA TERMINATED NORMALLY****
TOTAL RUN TIME: 0 days 0 hours 0 minutes 40 seconds 828 msec
