                         Program Version 5.0.0 -  RELEASE  -
|  1> !B3LYP D3BJ RIJCOSX def2-TZVPD def2/J TightSCF xyzfile
|  2>
|  3> *xyzfile 0 1 D1.xyz
|  4>
|  5> %MaxCore 64000
|  6>
|  7> %pal nprocs 4
|  8> end
|  9>
| 10> %scf
| 11>   MaxIter 150
| 12> end
| 13>
| 14>
| 15>                          ****END OF INPUT****

CARTESIAN COORDINATES (ANGSTROEM)
---------------------------------
  C     -2.160376   -1.369486   -3.467104
  C     -3.030108   -1.910857   -4.541074
  C     -2.047717    0.146583   -3.511774
  C     -7.330440   -2.678991   -3.206811
  S     -6.019659   -2.926965   -4.419128
  H     -3.477443   -2.791513   -4.257096
  H     -2.538013   -2.017860   -5.438075
  H     -3.891589   -1.376039   -4.714365
  F     -5.645830   -1.588384   -4.919307
  O     -4.881961   -3.503697   -3.667235
  H     -1.184438   -1.843997   -3.566393
  H     -2.598195   -1.708376   -2.528477
  O     -6.549267   -3.805150   -5.425071
  C     -3.328755    0.875037   -3.103669
  H     -1.740034    0.452343   -4.517126
  H     -1.232611    0.434938   -2.842208
  C     -3.628487    0.771601   -1.609363
  H     -4.175106    0.490791   -3.682203
  H     -3.237812    1.928663   -3.381480
  C     -4.975718    1.361432   -1.190644
  H     -2.830700    1.276234   -1.054766
  H     -3.594312   -0.275838   -1.294603
  C     -6.184720    0.784347   -1.926464
  H     -4.956292    2.445725   -1.342200
  H     -5.097256    1.205252   -0.114136
  C     -6.286921   -0.735882   -1.893531
  H     -6.163994    1.100199   -2.974250
  H     -7.094530    1.223459   -1.504509
  C     -7.468999   -1.246153   -2.713833
  H     -6.360641   -1.090347   -0.859176
  H     -5.369848   -1.171853   -2.295982
  H     -7.601914   -0.601349   -3.585329
  H     -8.389791   -1.173436   -2.126922
  H     -7.118254   -3.379818   -2.398055
  H     -8.241838   -3.004745   -3.706513

 Total Charge           Charge          ....    0
 Multiplicity           Mult            ....    1
 Number of Electrons    NEL             ....  122
 Basis Dimension        Dim             ....  725

ORBITAL ENERGIES
----------------

  NO   OCC          E(Eh)            E(eV)
   0   2.0000     -89.101903     -2424.5861
   1   2.0000     -24.790413      -674.5814
   2   2.0000     -19.145856      -520.9852
   3   2.0000     -19.130532      -520.5682
   4   2.0000     -10.232044      -278.4281
   5   2.0000     -10.201447      -277.5955
   6   2.0000     -10.180295      -277.0199
   7   2.0000     -10.172687      -276.8129
   8   2.0000     -10.165845      -276.6267
   9   2.0000     -10.158936      -276.4387
  10   2.0000     -10.156504      -276.3725
  11   2.0000     -10.149130      -276.1719
  12   2.0000     -10.138951      -275.8949
  13   2.0000     -10.091346      -274.5995
  14   2.0000      -8.146267      -221.6712
  15   2.0000      -6.113158      -166.3475
  16   2.0000      -6.106523      -166.1669
  17   2.0000      -6.106384      -166.1632
  18   2.0000      -1.365047       -37.1448
  19   2.0000      -1.114344       -30.3229
  20   2.0000      -1.019064       -27.7301
  21   2.0000      -0.846292       -23.0288
  22   2.0000      -0.814923       -22.1752
  23   2.0000      -0.786877       -21.4120
  24   2.0000      -0.760051       -20.6820
  25   2.0000      -0.722002       -19.6467
  26   2.0000      -0.706738       -19.2313
  27   2.0000      -0.670920       -18.2567
  28   2.0000      -0.636938       -17.3320
  29   2.0000      -0.620342       -16.8804
  30   2.0000      -0.591403       -16.0929
  31   2.0000      -0.582657       -15.8549
  32   2.0000      -0.567595       -15.4450
  33   2.0000      -0.552660       -15.0387
  34   2.0000      -0.545601       -14.8466
  35   2.0000      -0.497395       -13.5348
  36   2.0000      -0.490735       -13.3536
  37   2.0000      -0.476984       -12.9794
  38   2.0000      -0.468176       -12.7397
  39   2.0000      -0.463046       -12.6001
  40   2.0000      -0.450584       -12.2610
  41   2.0000      -0.437937       -11.9169
  42   2.0000      -0.433222       -11.7886
  43   2.0000      -0.427009       -11.6195
  44   2.0000      -0.411116       -11.1870
  45   2.0000      -0.396801       -10.7975
  46   2.0000      -0.391511       -10.6535
  47   2.0000      -0.388513       -10.5720
  48   2.0000      -0.376708       -10.2508
  49   2.0000      -0.367243        -9.9932
  50   2.0000      -0.357277        -9.7220
  51   2.0000      -0.353682        -9.6242
  52   2.0000      -0.341076        -9.2811
  53   2.0000      -0.336796        -9.1647
  54   2.0000      -0.331075        -9.0090
  55   2.0000      -0.324701        -8.8356
  56   2.0000      -0.317143        -8.6299
  57   2.0000      -0.315668        -8.5898
  58   2.0000      -0.305252        -8.3063
  59   2.0000      -0.302822        -8.2402
  60   2.0000      -0.278299        -7.5729
  61   0.0000      -0.017769        -0.4835
  62   0.0000       0.006748         0.1836
  63   0.0000       0.007605         0.2069
  64   0.0000       0.014607         0.3975
  65   0.0000       0.023820         0.6482

MULLIKEN ATOMIC CHARGES
-----------------------
   0 C :   -0.080484
   1 C :   -1.942803
   2 C :   -0.512802
   3 C :   -0.693147
   4 S :    1.307732
   5 H :    0.644703
   6 H :    0.456970
   7 H :    0.583283
   8 F :   -0.249853
   9 O :   -0.655734
  10 H :    0.204319
  11 H :    0.229214
  12 O :   -0.589921
  13 C :   -0.250157
  14 H :    0.247991
  15 H :    0.208267
  16 C :   -0.363045
  17 H :    0.084824
  18 H :    0.234767
  19 C :   -0.709179
  20 H :    0.280872
  21 H :    0.163051
  22 C :   -0.561112
  23 H :    0.227669
  24 H :    0.249566
  25 C :   -0.078040
  26 H :    0.293705
  27 H :    0.252981
  28 C :   -0.586435
  29 H :    0.285756
  30 H :    0.159066
  31 H :    0.242103
  32 H :    0.322397
  33 H :    0.324750
  34 H :    0.268730
Sum of atomic charges:    0.0000000

LOEWDIN ATOMIC CHARGES
----------------------
   0 C :   -0.232784
   1 C :   -0.128956
   2 C :   -0.205549
   3 C :   -0.204294
   4 S :    0.655550
   5 H :    0.001280
   6 H :    0.071143
   7 H :    0.017751
   8 F :   -0.096373
   9 O :   -0.300171
  10 H :    0.109617
  11 H :    0.100459
  12 O :   -0.253076
  13 C :   -0.204386
  14 H :    0.111265
  15 H :    0.104927
  16 C :   -0.212070
  17 H :    0.089588
  18 H :    0.114376
  19 C :   -0.204525
  20 H :    0.113906
  21 H :    0.098136
  22 C :   -0.212840
  23 H :    0.108604
  24 H :    0.107799
  25 C :   -0.208470
  26 H :    0.106032
  27 H :    0.114161
  28 C :   -0.226792
  29 H :    0.128545
  30 H :    0.089898
  31 H :    0.108976
  32 H :    0.121500
  33 H :    0.114380
  34 H :    0.102391

  Mayer bond orders larger than 0.100000
B(  0-C ,  1-C ) :   0.3331 B(  0-C ,  2-C ) :   0.7707 B(  0-C , 10-H ) :   0.9656
B(  0-C , 11-H ) :   0.9885 B(  0-C , 16-C ) :   0.1018 B(  1-C ,  2-C ) :   0.1899
B(  1-C ,  5-H ) :   0.7053 B(  1-C ,  6-H ) :   0.6975 B(  1-C ,  7-H ) :   0.8992
B(  1-C ,  8-F ) :   0.2132 B(  1-C ,  9-O ) :   0.1122 B(  2-C , 13-C ) :   0.9476
B(  2-C , 14-H ) :   0.9403 B(  2-C , 15-H ) :   0.9596 B(  2-C , 16-C ) :   0.1863
B(  3-C ,  4-S ) :   0.9226 B(  3-C ,  9-O ) :   0.1094 B(  3-C , 12-O ) :   0.1545
B(  3-C , 28-C ) :   0.7797 B(  3-C , 33-H ) :   0.8731 B(  3-C , 34-H ) :   1.0599
B(  4-S ,  8-F ) :   1.0541 B(  4-S ,  9-O ) :   1.5728 B(  4-S , 12-O ) :   1.3979
B(  5-H ,  9-O ) :  -0.1888 B(  7-H ,  8-F ) :  -0.2565 B( 13-C , 16-C ) :   0.3522
B( 13-C , 17-H ) :   1.1558 B( 13-C , 18-H ) :   0.9004 B( 13-C , 19-C ) :   0.1538
B( 13-C , 21-H ) :  -0.1448 B( 13-C , 22-C ) :   0.1360 B( 16-C , 19-C ) :   0.9147
B( 16-C , 20-H ) :   0.9047 B( 16-C , 21-H ) :   1.0890 B( 16-C , 25-C ) :   0.1021
B( 19-C , 22-C ) :   0.9263 B( 19-C , 23-H ) :   0.9978 B( 19-C , 24-H ) :   0.9583
B( 19-C , 25-C ) :   0.1476 B( 22-C , 25-C ) :   0.4144 B( 22-C , 26-H ) :   0.9682
B( 22-C , 27-H ) :   0.9219 B( 22-C , 28-C ) :   0.4225 B( 25-C , 26-H ) :  -0.1193
B( 25-C , 28-C ) :   0.3768 B( 25-C , 29-H ) :   0.7895 B( 25-C , 30-H ) :   1.3732
B( 28-C , 29-H ) :  -0.1264 B( 28-C , 31-H ) :   0.9587 B( 28-C , 32-H ) :   0.9323
B( 28-C , 34-H ) :  -0.1044 B( 29-H , 30-H ) :   0.1585

Dispersion correction           -0.067108340
FINAL SINGLE POINT ENERGY     -1042.030678928307

DIPOLE MOMENT
-------------
                                X             Y             Z
Electronic contribution:    -10.84587     -16.20104     -13.17498
Nuclear contribution   :      9.63012      17.20461      14.03552
                        -----------------------------------------
Total Dipole Moment    :     -1.21575       1.00357       0.86054
                        -----------------------------------------
Magnitude (a.u.)       :      1.79603
Magnitude (Debye)      :      4.56515

Rotational constants in cm-1:     0.025899     0.015189     0.010690
Rotational constants in MHz :   776.424978   455.369614   320.488876

                             ****ORCA TERMINATED NORMALLY****
TOTAL RUN TIME: 0 days 0 hours 7 minutes 8 seconds 597 msec
