                         Program Version 5.0.0 -  RELEASE  -
|  1> !B3LYP D3BJ RIJCOSX def2-TZVPD def2/J TightSCF xyzfile
|  2>
|  3> *xyzfile 0 1 D2.xyz
|  4>
|  5> %MaxCore 64000
|  6>
|  7> %pal nprocs 4
|  8> end
|  9>
| 10> %scf
| 11>   MaxIter 150
| 12> end
| 13>
| 14>
| 15>                          ****END OF INPUT****

CARTESIAN COORDINATES (ANGSTROEM)
---------------------------------
  C     -2.160376   -1.369486   -3.467104
  C     -3.030108   -1.910857   -4.541074
  C     -2.047717    0.146583   -3.511774
  C     -7.330440   -2.678991   -3.206811
  S     -6.019659   -2.926965   -4.419128
  H     -3.477443   -2.791513   -4.257096
  H     -2.538013   -2.017860   -5.438075
  H     -3.891589   -1.376039   -4.714365
  O     -5.645830   -1.588384   -4.919307
  F     -4.881961   -3.503697   -3.667235
  H     -1.184438   -1.843997   -3.566393
  H     -2.598195   -1.708376   -2.528477
  O     -6.549267   -3.805150   -5.425071
  C     -3.328755    0.875037   -3.103669
  H     -1.740034    0.452343   -4.517126
  H     -1.232611    0.434938   -2.842208
  C     -3.628487    0.771601   -1.609363
  H     -4.175106    0.490791   -3.682203
  H     -3.237812    1.928663   -3.381480
  C     -4.975718    1.361432   -1.190644
  H     -2.830700    1.276234   -1.054766
  H     -3.594312   -0.275838   -1.294603
  C     -6.184720    0.784347   -1.926464
  H     -4.956292    2.445725   -1.342200
  H     -5.097256    1.205252   -0.114136
  C     -6.286921   -0.735882   -1.893531
  H     -6.163994    1.100199   -2.974250
  H     -7.094530    1.223459   -1.504509
  C     -7.468999   -1.246153   -2.713833
  H     -6.360641   -1.090347   -0.859176
  H     -5.369848   -1.171853   -2.295982
  H     -7.601914   -0.601349   -3.585329
  H     -8.389791   -1.173436   -2.126922
  H     -7.118254   -3.379818   -2.398055
  H     -8.241838   -3.004745   -3.706513

 Total Charge           Charge          ....    0
 Multiplicity           Mult            ....    1
 Number of Electrons    NEL             ....  122
 Basis Dimension        Dim             ....  725

ORBITAL ENERGIES
----------------

  NO   OCC          E(Eh)            E(eV)
   0   2.0000     -89.102049     -2424.5900
   1   2.0000     -24.788035      -674.5167
   2   2.0000     -19.145931      -520.9873
   3   2.0000     -19.133723      -520.6551
   4   2.0000     -10.232762      -278.4476
   5   2.0000     -10.194624      -277.4098
   6   2.0000     -10.177091      -276.9327
   7   2.0000     -10.167197      -276.6635
   8   2.0000     -10.162243      -276.5287
   9   2.0000     -10.156295      -276.3668
  10   2.0000     -10.150850      -276.2187
  11   2.0000     -10.148084      -276.1434
  12   2.0000     -10.141577      -275.9663
  13   2.0000     -10.094470      -274.6845
  14   2.0000      -8.146387      -221.6745
  15   2.0000      -6.113222      -166.3492
  16   2.0000      -6.106765      -166.1735
  17   2.0000      -6.106455      -166.1651
  18   2.0000      -1.362934       -37.0873
  19   2.0000      -1.115236       -30.3471
  20   2.0000      -1.021368       -27.7928
  21   2.0000      -0.841475       -22.8977
  22   2.0000      -0.812211       -22.1014
  23   2.0000      -0.785799       -21.3827
  24   2.0000      -0.760411       -20.6918
  25   2.0000      -0.721313       -19.6279
  26   2.0000      -0.706011       -19.2115
  27   2.0000      -0.667579       -18.1657
  28   2.0000      -0.633632       -17.2420
  29   2.0000      -0.619084       -16.8461
  30   2.0000      -0.581386       -15.8203
  31   2.0000      -0.576906       -15.6984
  32   2.0000      -0.571465       -15.5504
  33   2.0000      -0.558371       -15.1940
  34   2.0000      -0.543140       -14.7796
  35   2.0000      -0.502089       -13.6625
  36   2.0000      -0.485491       -13.2109
  37   2.0000      -0.475109       -12.9284
  38   2.0000      -0.469510       -12.7760
  39   2.0000      -0.463214       -12.6047
  40   2.0000      -0.444487       -12.0951
  41   2.0000      -0.432991       -11.7823
  42   2.0000      -0.430797       -11.7226
  43   2.0000      -0.426503       -11.6057
  44   2.0000      -0.406104       -11.0507
  45   2.0000      -0.398285       -10.8379
  46   2.0000      -0.388836       -10.5808
  47   2.0000      -0.382266       -10.4020
  48   2.0000      -0.373919       -10.1749
  49   2.0000      -0.364809        -9.9269
  50   2.0000      -0.358044        -9.7429
  51   2.0000      -0.345841        -9.4108
  52   2.0000      -0.339227        -9.2308
  53   2.0000      -0.334926        -9.1138
  54   2.0000      -0.330068        -8.9816
  55   2.0000      -0.325311        -8.8522
  56   2.0000      -0.319204        -8.6860
  57   2.0000      -0.313804        -8.5391
  58   2.0000      -0.302620        -8.2347
  59   2.0000      -0.300807        -8.1854
  60   2.0000      -0.287188        -7.8148
  61   0.0000      -0.011117        -0.3025
  62   0.0000       0.005119         0.1393
  63   0.0000       0.008553         0.2327
  64   0.0000       0.013301         0.3619
  65   0.0000       0.026014         0.7079

MULLIKEN ATOMIC CHARGES
-----------------------
   0 C :   -0.049792
   1 C :   -1.988352
   2 C :   -0.521195
   3 C :   -0.869605
   4 S :    1.316355
   5 H :    0.519575
   6 H :    0.443390
   7 H :    0.741780
   8 O :   -0.675184
   9 F :   -0.214824
  10 H :    0.194070
  11 H :    0.229271
  12 O :   -0.588746
  13 C :   -0.277997
  14 H :    0.249701
  15 H :    0.211444
  16 C :   -0.388925
  17 H :    0.154648
  18 H :    0.215981
  19 C :   -0.686445
  20 H :    0.278846
  21 H :    0.163693
  22 C :   -0.658229
  23 H :    0.225965
  24 H :    0.247677
  25 C :    0.004093
  26 H :    0.312715
  27 H :    0.262623
  28 C :   -0.407258
  29 H :    0.297949
  30 H :    0.016022
  31 H :    0.267447
  32 H :    0.335020
  33 H :    0.375534
  34 H :    0.262751
Sum of atomic charges:    0.0000000

LOEWDIN ATOMIC CHARGES
----------------------
   0 C :   -0.237225
   1 C :   -0.123948
   2 C :   -0.203155
   3 C :   -0.207849
   4 S :    0.656030
   5 H :    0.018904
   6 H :    0.072921
   7 H :    0.005487
   8 O :   -0.292894
   9 F :   -0.106934
  10 H :    0.107186
  11 H :    0.096815
  12 O :   -0.253954
  13 C :   -0.201007
  14 H :    0.112535
  15 H :    0.104511
  16 C :   -0.213747
  17 H :    0.094475
  18 H :    0.114721
  19 C :   -0.204994
  20 H :    0.112928
  21 H :    0.095580
  22 C :   -0.209098
  23 H :    0.108570
  24 H :    0.106680
  25 C :   -0.210603
  26 H :    0.109934
  27 H :    0.114212
  28 C :   -0.223848
  29 H :    0.125056
  30 H :    0.087667
  31 H :    0.112323
  32 H :    0.121698
  33 H :    0.105420
  34 H :    0.105604

  Mayer bond orders larger than 0.100000
B(  0-C ,  1-C ) :   0.2355 B(  0-C ,  2-C ) :   0.8175 B(  0-C , 10-H ) :   0.9926
B(  0-C , 11-H ) :   0.9749 B(  0-C , 16-C ) :   0.1037 B(  1-C ,  2-C ) :   0.1979
B(  1-C ,  5-H ) :   0.8166 B(  1-C ,  6-H ) :   0.7227 B(  1-C ,  7-H ) :   0.6844
B(  1-C ,  8-O ) :   0.2299 B(  1-C ,  9-F ) :   0.1268 B(  2-C , 13-C ) :   0.9259
B(  2-C , 14-H ) :   0.9328 B(  2-C , 15-H ) :   0.9664 B(  2-C , 16-C ) :   0.1944
B(  3-C ,  4-S ) :   0.9463 B(  3-C , 12-O ) :   0.1601 B(  3-C , 25-C ) :   0.1882
B(  3-C , 28-C ) :   0.6771 B(  3-C , 33-H ) :   0.8248 B(  3-C , 34-H ) :   1.0512
B(  4-S ,  8-O ) :   1.6738 B(  4-S ,  9-F ) :   0.9174 B(  4-S , 12-O ) :   1.4292
B(  5-H ,  9-F ) :  -0.1121 B(  7-H ,  8-O ) :  -0.2776 B( 13-C , 16-C ) :   0.3394
B( 13-C , 17-H ) :   1.1343 B( 13-C , 18-H ) :   0.9129 B( 13-C , 19-C ) :   0.1387
B( 13-C , 21-H ) :  -0.1475 B( 13-C , 22-C ) :   0.1505 B( 16-C , 19-C ) :   0.9095
B( 16-C , 20-H ) :   0.9109 B( 16-C , 21-H ) :   1.0856 B( 16-C , 25-C ) :   0.1231
B( 19-C , 22-C ) :   0.9132 B( 19-C , 23-H ) :   0.9951 B( 19-C , 24-H ) :   0.9580
B( 19-C , 25-C ) :   0.1439 B( 22-C , 25-C ) :   0.4773 B( 22-C , 26-H ) :   0.9489
B( 22-C , 27-H ) :   0.9158 B( 22-C , 28-C ) :   0.4539 B( 25-C , 26-H ) :  -0.1074
B( 25-C , 28-C ) :   0.4831 B( 25-C , 29-H ) :   0.7951 B( 25-C , 30-H ) :   1.3680
B( 28-C , 29-H ) :  -0.1279 B( 28-C , 30-H ) :  -0.1049 B( 28-C , 31-H ) :   0.9020
B( 28-C , 32-H ) :   0.9247 B( 29-H , 30-H ) :   0.1121

Dispersion correction           -0.067306216
FINAL SINGLE POINT ENERGY     -1042.034050197239

DIPOLE MOMENT
-------------
                                X             Y             Z
Electronic contribution:     -9.52127     -19.49802     -11.10263
Nuclear contribution   :      8.71934      19.48829      12.54264
                        -----------------------------------------
Total Dipole Moment    :     -0.80193      -0.00973       1.44001
                        -----------------------------------------
Magnitude (a.u.)       :      1.64828
Magnitude (Debye)      :      4.18958

Rotational constants in cm-1:     0.025810     0.015137     0.010647
Rotational constants in MHz :   773.773140   453.802427   319.195213

                             ****ORCA TERMINATED NORMALLY****
TOTAL RUN TIME: 0 days 0 hours 7 minutes 52 seconds 231 msec
