                         Program Version 5.0.0 -  RELEASE  -
|  1> !B3LYP D3BJ RIJCOSX def2-TZVPD def2/J TightSCF xyzfile
|  2>
|  3> *xyzfile 0 1 D3.xyz
|  4>
|  5> %MaxCore 64000
|  6>
|  7> %pal nprocs 4
|  8> end
|  9>
| 10> %scf
| 11>   MaxIter 150
| 12> end
| 13>
| 14>
| 15>                          ****END OF INPUT****

CARTESIAN COORDINATES (ANGSTROEM)
---------------------------------
  C     -2.160376   -1.369486   -3.467104
  C     -3.030108   -1.910857   -4.541074
  C     -2.047717    0.146583   -3.511774
  C     -7.330440   -2.678991   -3.206811
  S     -6.019659   -2.926965   -4.419128
  H     -3.477443   -2.791513   -4.257096
  H     -2.538013   -2.017860   -5.438075
  H     -3.891589   -1.376039   -4.714365
  O     -5.645830   -1.588384   -4.919307
  O     -4.881961   -3.503697   -3.667235
  H     -1.184438   -1.843997   -3.566393
  H     -2.598195   -1.708376   -2.528477
  F     -6.549267   -3.805150   -5.425071
  C     -3.328755    0.875037   -3.103669
  H     -1.740034    0.452343   -4.517126
  H     -1.232611    0.434938   -2.842208
  C     -3.628487    0.771601   -1.609363
  H     -4.175106    0.490791   -3.682203
  H     -3.237812    1.928663   -3.381480
  C     -4.975718    1.361432   -1.190644
  H     -2.830700    1.276234   -1.054766
  H     -3.594312   -0.275838   -1.294603
  C     -6.184720    0.784347   -1.926464
  H     -4.956292    2.445725   -1.342200
  H     -5.097256    1.205252   -0.114136
  C     -6.286921   -0.735882   -1.893531
  H     -6.163994    1.100199   -2.974250
  H     -7.094530    1.223459   -1.504509
  C     -7.468999   -1.246153   -2.713833
  H     -6.360641   -1.090347   -0.859176
  H     -5.369848   -1.171853   -2.295982
  H     -7.601914   -0.601349   -3.585329
  H     -8.389791   -1.173436   -2.126922
  H     -7.118254   -3.379818   -2.398055
  H     -8.241838   -3.004745   -3.706513

 Total Charge           Charge          ....    0
 Multiplicity           Mult            ....    1
 Number of Electrons    NEL             ....  122
 Basis Dimension        Dim             ....  725

ORBITAL ENERGIES
----------------

  NO   OCC          E(Eh)            E(eV)
   0   2.0000     -89.108120     -2424.7552
   1   2.0000     -24.812569      -675.1843
   2   2.0000     -19.138643      -520.7889
   3   2.0000     -19.135730      -520.7097
   4   2.0000     -10.234572      -278.4969
   5   2.0000     -10.195187      -277.4251
   6   2.0000     -10.169468      -276.7253
   7   2.0000     -10.161878      -276.5188
   8   2.0000     -10.156192      -276.3640
   9   2.0000     -10.148158      -276.1454
  10   2.0000     -10.142337      -275.9870
  11   2.0000     -10.136720      -275.8342
  12   2.0000     -10.125297      -275.5233
  13   2.0000     -10.070082      -274.0209
  14   2.0000      -8.152363      -221.8371
  15   2.0000      -6.119214      -166.5123
  16   2.0000      -6.112693      -166.3348
  17   2.0000      -6.112398      -166.3268
  18   2.0000      -1.396861       -38.0105
  19   2.0000      -1.107060       -30.1246
  20   2.0000      -1.010317       -27.4921
  21   2.0000      -0.840414       -22.8688
  22   2.0000      -0.805950       -21.9310
  23   2.0000      -0.777399       -21.1541
  24   2.0000      -0.757826       -20.6215
  25   2.0000      -0.725071       -19.7302
  26   2.0000      -0.698775       -19.0146
  27   2.0000      -0.663204       -18.0467
  28   2.0000      -0.628420       -17.1002
  29   2.0000      -0.608553       -16.5596
  30   2.0000      -0.599775       -16.3207
  31   2.0000      -0.591577       -16.0976
  32   2.0000      -0.565753       -15.3949
  33   2.0000      -0.559783       -15.2325
  34   2.0000      -0.532832       -14.4991
  35   2.0000      -0.499151       -13.5826
  36   2.0000      -0.488704       -13.2983
  37   2.0000      -0.471348       -12.8260
  38   2.0000      -0.468277       -12.7425
  39   2.0000      -0.458251       -12.4696
  40   2.0000      -0.445078       -12.1112
  41   2.0000      -0.431676       -11.7465
  42   2.0000      -0.420706       -11.4480
  43   2.0000      -0.416099       -11.3226
  44   2.0000      -0.403612       -10.9828
  45   2.0000      -0.387234       -10.5372
  46   2.0000      -0.382638       -10.4121
  47   2.0000      -0.377457       -10.2711
  48   2.0000      -0.365685        -9.9508
  49   2.0000      -0.353906        -9.6303
  50   2.0000      -0.348542        -9.4843
  51   2.0000      -0.339116        -9.2278
  52   2.0000      -0.334116        -9.0918
  53   2.0000      -0.331625        -9.0240
  54   2.0000      -0.323568        -8.8047
  55   2.0000      -0.313722        -8.5368
  56   2.0000      -0.308757        -8.4017
  57   2.0000      -0.304617        -8.2891
  58   2.0000      -0.290219        -7.8973
  59   2.0000      -0.281147        -7.6504
  60   2.0000      -0.266547        -7.2531
  61   0.0000      -0.015772        -0.4292
  62   0.0000       0.001242         0.0338
  63   0.0000       0.012698         0.3455
  64   0.0000       0.016020         0.4359
  65   0.0000       0.023967         0.6522

MULLIKEN ATOMIC CHARGES
-----------------------
   0 C :   -0.075179
   1 C :   -1.949725
   2 C :   -0.505321
   3 C :   -0.874521
   4 S :    1.274314
   5 H :    0.535154
   6 H :    0.448043
   7 H :    0.713353
   8 O :   -0.679176
   9 O :   -0.645755
  10 H :    0.196948
  11 H :    0.224795
  12 F :   -0.103848
  13 C :   -0.270198
  14 H :    0.243583
  15 H :    0.209296
  16 C :   -0.382734
  17 H :    0.134387
  18 H :    0.220522
  19 C :   -0.695029
  20 H :    0.279225
  21 H :    0.165242
  22 C :   -0.618640
  23 H :    0.224574
  24 H :    0.246743
  25 C :   -0.061960
  26 H :    0.307934
  27 H :    0.258613
  28 C :   -0.460189
  29 H :    0.287864
  30 H :    0.115046
  31 H :    0.246493
  32 H :    0.325685
  33 H :    0.317458
  34 H :    0.347003
Sum of atomic charges:   -0.0000000

LOEWDIN ATOMIC CHARGES
----------------------
   0 C :   -0.236502
   1 C :   -0.133989
   2 C :   -0.206149
   3 C :   -0.212345
   4 S :    0.675985
   5 H :   -0.000130
   6 H :    0.068275
   7 H :    0.005680
   8 O :   -0.292169
   9 O :   -0.297732
  10 H :    0.106056
  11 H :    0.098707
  12 F :   -0.037507
  13 C :   -0.202227
  14 H :    0.110633
  15 H :    0.102800
  16 C :   -0.213163
  17 H :    0.093775
  18 H :    0.113187
  19 C :   -0.205737
  20 H :    0.112359
  21 H :    0.097410
  22 C :   -0.210836
  23 H :    0.107716
  24 H :    0.106225
  25 C :   -0.206460
  26 H :    0.108885
  27 H :    0.112572
  28 C :   -0.221393
  29 H :    0.125990
  30 H :    0.092369
  31 H :    0.110336
  32 H :    0.121822
  33 H :    0.108865
  34 H :    0.096691

  Mayer bond orders larger than 0.100000
B(  0-C ,  1-C ) :   0.2856 B(  0-C ,  2-C ) :   0.7932 B(  0-C , 10-H ) :   0.9749
B(  0-C , 11-H ) :   0.9810 B(  0-C , 16-C ) :   0.1022 B(  1-C ,  2-C ) :   0.1812
B(  1-C ,  5-H ) :   0.8501 B(  1-C ,  6-H ) :   0.7316 B(  1-C ,  7-H ) :   0.7415
B(  1-C ,  8-O ) :   0.1939 B(  2-C , 13-C ) :   0.9271 B(  2-C , 14-H ) :   0.9394
B(  2-C , 15-H ) :   0.9632 B(  2-C , 16-C ) :   0.1938 B(  3-C ,  4-S ) :   0.9119
B(  3-C ,  9-O ) :   0.1259 B(  3-C , 25-C ) :   0.1395 B(  3-C , 28-C ) :   0.7733
B(  3-C , 33-H ) :   0.9008 B(  3-C , 34-H ) :   0.9245 B(  4-S ,  8-O ) :   1.6979
B(  4-S ,  9-O ) :   1.6314 B(  4-S , 12-F ) :   0.8553 B(  5-H ,  9-O ) :  -0.1753
B(  7-H ,  8-O ) :  -0.3149 B(  8-O ,  9-O ) :   0.1611 B( 13-C , 16-C ) :   0.3502
B( 13-C , 17-H ) :   1.1465 B( 13-C , 18-H ) :   0.9059 B( 13-C , 19-C ) :   0.1379
B( 13-C , 21-H ) :  -0.1431 B( 13-C , 22-C ) :   0.1517 B( 16-C , 19-C ) :   0.9040
B( 16-C , 20-H ) :   0.9090 B( 16-C , 21-H ) :   1.0884 B( 16-C , 25-C ) :   0.1174
B( 19-C , 22-C ) :   0.9191 B( 19-C , 23-H ) :   0.9991 B( 19-C , 24-H ) :   0.9574
B( 19-C , 25-C ) :   0.1417 B( 22-C , 25-C ) :   0.4308 B( 22-C , 26-H ) :   0.9576
B( 22-C , 27-H ) :   0.9164 B( 22-C , 28-C ) :   0.4481 B( 25-C , 26-H ) :  -0.1154
B( 25-C , 28-C ) :   0.5003 B( 25-C , 29-H ) :   0.7891 B( 25-C , 30-H ) :   1.3699
B( 28-C , 29-H ) :  -0.1350 B( 28-C , 31-H ) :   0.9021 B( 28-C , 32-H ) :   0.9276
B( 29-H , 30-H ) :   0.1390

Dispersion correction           -0.067753719
FINAL SINGLE POINT ENERGY     -1042.016167317672

DIPOLE MOMENT
-------------
                                X             Y             Z
Electronic contribution:    -12.63165     -20.26920     -14.30593
Nuclear contribution   :     10.70731      19.84772      14.63855
                        -----------------------------------------
Total Dipole Moment    :     -1.92434      -0.42149       0.33263
                        -----------------------------------------
Magnitude (a.u.)       :      1.99784
Magnitude (Debye)      :      5.07811

Rotational constants in cm-1:     0.026014     0.014812     0.010477
Rotational constants in MHz :   779.874765   444.063394   314.081855

                             ****ORCA TERMINATED NORMALLY****
TOTAL RUN TIME: 0 days 0 hours 7 minutes 9 seconds 683 msec
