                         Program Version 5.0.0 -  RELEASE  -
|  1> !LC-BLYP RIJCOSX def2-SVP def2/J TightSCF
|  2> *xyz -1 1
|  3> C         -1.10433        0.25137       -2.86006
|  4> C         -0.71189        0.84252       -4.21834
|  5> H          0.15463        1.49980       -4.13091
|  6> H         -1.53813        1.45922       -4.58267
|  7> C         -0.39762       -0.20587       -5.28802
|  8> O          0.61717       -0.00535       -5.99827
|  9> O         -1.13317       -1.22138       -5.34147
| 10> H         -1.95489       -0.38644       -2.98099
| 11> H         -1.34603        1.04362       -2.18269
| 12> H         -0.28606       -0.31581       -2.46809
| 13> *
| 14>
| 15> %MaxCore 64000
| 16>
| 17> %pal nprocs 4
| 18> end
| 19>
| 20> %scf
| 21>   MaxIter 150
| 22> end
| 23>
| 24>
| 25>                          ****END OF INPUT****

CARTESIAN COORDINATES (ANGSTROEM)
---------------------------------
  C     -1.104330    0.251370   -2.860060
  C     -0.711890    0.842520   -4.218340
  H      0.154630    1.499800   -4.130910
  H     -1.538130    1.459220   -4.582670
  C     -0.397620   -0.205870   -5.288020
  O      0.617170   -0.005350   -5.998270
  O     -1.133170   -1.221380   -5.341470
  H     -1.954890   -0.386440   -2.980990
  H     -1.346030    1.043620   -2.182690
  H     -0.286060   -0.315810   -2.468090

 Total Charge           Charge          ....   -1
 Multiplicity           Mult            ....    1
 Number of Electrons    NEL             ....   40
 Basis Dimension        Dim             ....   95

ORBITAL ENERGIES
----------------

  NO   OCC          E(Eh)            E(eV)
   0   2.0000     -18.646325      -507.3923
   1   2.0000     -18.643692      -507.3206
   2   2.0000      -9.934538      -270.3325
   3   2.0000      -9.911228      -269.6982
   4   2.0000      -9.891692      -269.1666
   5   2.0000      -0.863950       -23.5093
   6   2.0000      -0.767640       -20.8886
   7   2.0000      -0.691883       -18.8271
   8   2.0000      -0.559590       -15.2272
   9   2.0000      -0.402106       -10.9419
  10   2.0000      -0.383861       -10.4454
  11   2.0000      -0.335339        -9.1250
  12   2.0000      -0.309591        -8.4244
  13   2.0000      -0.295371        -8.0375
  14   2.0000      -0.278229        -7.5710
  15   2.0000      -0.246245        -6.7007
  16   2.0000      -0.235817        -6.4169
  17   2.0000      -0.105498        -2.8707
  18   2.0000      -0.102866        -2.7991
  19   2.0000      -0.086181        -2.3451
  20   0.0000       0.288089         7.8393
  21   0.0000       0.339998         9.2518
  22   0.0000       0.354429         9.6445
  23   0.0000       0.358960         9.7678
  24   0.0000       0.369582        10.0568

MULLIKEN ATOMIC CHARGES
-----------------------
   0 C :    0.033067
   1 C :    0.027179
   2 H :   -0.061903
   3 H :   -0.048673
   4 C :   -0.120353
   5 O :   -0.364339
   6 O :   -0.368580
   7 H :   -0.012509
   8 H :   -0.061829
   9 H :   -0.022061
Sum of atomic charges:   -1.0000000

LOEWDIN ATOMIC CHARGES
----------------------
   0 C :   -0.076730
   1 C :   -0.101134
   2 H :   -0.000754
   3 H :    0.007336
   4 C :   -0.091364
   5 O :   -0.376874
   6 O :   -0.379917
   7 H :    0.012650
   8 H :   -0.005559
   9 H :    0.012347

  Mayer bond orders larger than 0.100000
B(  0-C ,  1-C ) :   1.0895 B(  0-C ,  7-H ) :   0.9562 B(  0-C ,  8-H ) :   0.9577
B(  0-C ,  9-H ) :   0.9732 B(  1-C ,  2-H ) :   0.9334 B(  1-C ,  3-H ) :   0.9313
B(  1-C ,  4-C ) :   0.9132 B(  4-C ,  5-O ) :   1.9429 B(  4-C ,  6-O ) :   1.9073
B(  5-O ,  6-O ) :   0.1212

FINAL SINGLE POINT ENERGY      -267.007475460768

DIPOLE MOMENT
-------------
                                X             Y             Z
Electronic contribution:      1.60214      -2.49667      -5.41191
Nuclear contribution   :     -2.09607       3.44215       6.87744
                        -----------------------------------------
Total Dipole Moment    :     -0.49394       0.94548       1.46553
                        -----------------------------------------
Magnitude (a.u.)       :      1.81264
Magnitude (Debye)      :      4.60738

Rotational constants in cm-1:     0.324698     0.133739     0.103466
Rotational constants in MHz :  9734.203431  4009.406827  3101.846422

                             ****ORCA TERMINATED NORMALLY****
TOTAL RUN TIME: 0 days 0 hours 0 minutes 11 seconds 953 msec
