                         Program Version 5.0.0 -  RELEASE  -
|  1> !LC-BLYP RIJCOSX def2-SVP def2/J TightSCF
|  2> *xyz 1 1
|  3> C          2.23447       -2.98975       -2.39762
|  4> N          2.75680       -2.94555       -3.76503
|  5> C          1.98721       -2.59045       -4.81898
|  6> N          0.74322       -3.01749       -4.91352
|  7> N          2.49964       -1.84860       -5.80324
|  8> H          3.30978       -1.29282       -5.55895
|  9> H          1.80103       -1.30430       -6.28913
| 10> H          3.71612       -2.62880       -3.82953
| 11> H          0.39583       -3.62775       -4.18502
| 12> H          0.03920       -2.45438       -5.37137
| 13> C          2.19120       -1.61950       -1.71549
| 14> H          2.87278       -3.66637       -1.82801
| 15> H          1.24619       -3.44744       -2.40784
| 16> H          1.56387       -0.96046       -2.27853
| 17> H          3.18033       -1.21449       -1.66568
| 18> H          1.79916       -1.72608       -0.72562
| 19> *
| 20>
| 21> %MaxCore 64000
| 22>
| 23> %pal nprocs 4
| 24> end
| 25>
| 26> %scf
| 27>   MaxIter 150
| 28> end
| 29>
| 30>
| 31>                          ****END OF INPUT****

CARTESIAN COORDINATES (ANGSTROEM)
---------------------------------
  C      2.234470   -2.989750   -2.397620
  N      2.756800   -2.945550   -3.765030
  C      1.987210   -2.590450   -4.818980
  N      0.743220   -3.017490   -4.913520
  N      2.499640   -1.848600   -5.803240
  H      3.309780   -1.292820   -5.558950
  H      1.801030   -1.304300   -6.289130
  H      3.716120   -2.628800   -3.829530
  H      0.395830   -3.627750   -4.185020
  H      0.039200   -2.454380   -5.371370
  C      2.191200   -1.619500   -1.715490
  H      2.872780   -3.666370   -1.828010
  H      1.246190   -3.447440   -2.407840
  H      1.563870   -0.960460   -2.278530
  H      3.180330   -1.214490   -1.665680
  H      1.799160   -1.726080   -0.725620

 Total Charge           Charge          ....    1
 Multiplicity           Mult            ....    1
 Number of Electrons    NEL             ....   48
 Basis Dimension        Dim             ....  134

ORBITAL ENERGIES
----------------

  NO   OCC          E(Eh)            E(eV)
   0   2.0000     -14.415690      -392.2709
   1   2.0000     -14.411327      -392.1521
   2   2.0000     -14.406766      -392.0280
   3   2.0000     -10.425056      -283.6802
   4   2.0000     -10.292349      -280.0691
   5   2.0000     -10.226106      -278.2665
   6   2.0000      -1.312970       -35.7277
   7   2.0000      -1.198757       -32.6198
   8   2.0000      -1.193105       -32.4660
   9   2.0000      -1.030499       -28.0413
  10   2.0000      -0.942965       -25.6594
  11   2.0000      -0.907603       -24.6971
  12   2.0000      -0.890012       -24.2184
  13   2.0000      -0.842829       -22.9346
  14   2.0000      -0.804657       -21.8958
  15   2.0000      -0.784892       -21.3580
  16   2.0000      -0.754013       -20.5177
  17   2.0000      -0.725216       -19.7341
  18   2.0000      -0.704511       -19.1707
  19   2.0000      -0.670661       -18.2496
  20   2.0000      -0.633015       -17.2252
  21   2.0000      -0.612680       -16.6719
  22   2.0000      -0.584158       -15.8957
  23   2.0000      -0.545188       -14.8353
  24   0.0000      -0.103930        -2.8281
  25   0.0000      -0.068170        -1.8550
  26   0.0000      -0.035906        -0.9770
  27   0.0000      -0.020482        -0.5573
  28   0.0000      -0.000649        -0.0177

MULLIKEN ATOMIC CHARGES
-----------------------
   0 C :   -0.008520
   1 N :   -0.055736
   2 C :   -0.107646
   3 N :    0.029155
   4 N :    0.046600
   5 H :    0.163666
   6 H :    0.165313
   7 H :    0.156076
   8 H :    0.168949
   9 H :    0.176447
  10 C :    0.002634
  11 H :    0.080140
  12 H :    0.043350
  13 H :    0.023492
  14 H :    0.044294
  15 H :    0.071787
Sum of atomic charges:    1.0000000

LOEWDIN ATOMIC CHARGES
----------------------
   0 C :    0.027486
   1 N :    0.023754
   2 C :    0.131179
   3 N :    0.066294
   4 N :    0.051771
   5 H :    0.109197
   6 H :    0.111601
   7 H :    0.103364
   8 H :    0.111153
   9 H :    0.116235
  10 C :   -0.062846
  11 H :    0.053691
  12 H :    0.034024
  13 H :    0.028733
  14 H :    0.038226
  15 H :    0.056140

  Mayer bond orders larger than 0.100000
B(  0-C ,  1-N ) :   0.9590 B(  0-C , 10-C ) :   1.0998 B(  0-C , 11-H ) :   0.9482
B(  0-C , 12-H ) :   0.9542 B(  1-N ,  2-C ) :   1.3697 B(  1-N ,  7-H ) :   0.9096
B(  2-C ,  3-N ) :   1.4301 B(  2-C ,  4-N ) :   1.3957 B(  3-N ,  8-H ) :   0.9233
B(  3-N ,  9-H ) :   0.9242 B(  4-N ,  5-H ) :   0.9260 B(  4-N ,  6-H ) :   0.9269
B( 10-C , 13-H ) :   0.9662 B( 10-C , 14-H ) :   0.9678 B( 10-C , 15-H ) :   0.9580

FINAL SINGLE POINT ENERGY      -283.441962042876

DIPOLE MOMENT
-------------
                                X             Y             Z
Electronic contribution:      0.16231      -1.63736      -5.26531
Nuclear contribution   :     -0.59121       2.30298       4.63196
                        -----------------------------------------
Total Dipole Moment    :     -0.42890       0.66562      -0.63335
                        -----------------------------------------
Magnitude (a.u.)       :      1.01397
Magnitude (Debye)      :      2.57732

Rotational constants in cm-1:     0.205874     0.074757     0.066901
Rotational constants in MHz :  6171.937773  2241.151057  2005.629823

                             ****ORCA TERMINATED NORMALLY****
TOTAL RUN TIME: 0 days 0 hours 0 minutes 20 seconds 614 msec
