                         Program Version 5.0.0 -  RELEASE  -
|  1> !LC-BLYP RIJCOSX def2-TZVP def2/J TightSCF xyzfile
|  2>
|  3> *xyzfile 0 1 B.xyz
|  4>
|  5> %MaxCore 64000
|  6>
|  7> %pal nprocs 18
|  8> end
|  9>
| 10> %scf
| 11>   MaxIter 150
| 12> end
| 13>
| 14>
| 15>                          ****END OF INPUT****

CARTESIAN COORDINATES (ANGSTROEM)
---------------------------------
  C      2.234473   -2.989754   -2.397622
  N      2.756799   -2.945553   -3.765029
  C     -1.104325    0.251374   -2.860056
  C     -0.711893    0.842517   -4.218344
  H      0.154626    1.499800   -4.130909
  H     -1.538134    1.459222   -4.582671
  C     -0.397624   -0.205875   -5.288018
  C      1.987208   -2.590451   -4.818975
  N      0.743221   -3.017493   -4.913524
  N      2.499636   -1.848598   -5.803241
  H      3.309780   -1.292818   -5.558947
  H      1.801025   -1.304298   -6.289129
  H      3.716116   -2.628797   -3.829533
  H      0.395828   -3.627747   -4.185024
  H      0.039201   -2.454383   -5.371367
  O      0.617165   -0.005348   -5.998273
  O     -1.133173   -1.221380   -5.341465
  C      2.191199   -1.619503   -1.715492
  H      2.872783   -3.666368   -1.828014
  H      1.246188   -3.447444   -2.407842
  C      1.298729   -0.554314   -2.359773
  H      1.872917   -1.787955   -0.681310
  H      3.216809   -1.238432   -1.654428
  C     -0.196255   -0.863365   -2.325763
  H      1.612531   -0.371346   -3.393065
  H      1.480944    0.388638   -1.834444
  H     -0.404105   -1.761825   -2.909448
  H     -0.490439   -1.087880   -1.294131
  H     -1.143842    1.066711   -2.129680
  H     -2.114401   -0.156834   -2.930323

 Total Charge           Charge          ....    0
 Multiplicity           Mult            ....    1
 Number of Electrons    NEL             ....  102
 Basis Dimension        Dim             ....  505

ORBITAL ENERGIES
----------------

  NO   OCC          E(Eh)            E(eV)
   0   2.0000     -18.853528      -513.0306
   1   2.0000     -18.851995      -512.9889
   2   2.0000     -14.238595      -387.4519
   3   2.0000     -14.207436      -386.6040
   4   2.0000     -14.206618      -386.5817
   5   2.0000     -10.237486      -278.5762
   6   2.0000     -10.143811      -276.0271
   7   2.0000     -10.128419      -275.6083
   8   2.0000     -10.093306      -274.6528
   9   2.0000     -10.073144      -274.1042
  10   2.0000     -10.059313      -273.7278
  11   2.0000     -10.049714      -273.4666
  12   2.0000     -10.036840      -273.1163
  13   2.0000      -1.151676       -31.3387
  14   2.0000      -1.099498       -29.9189
  15   2.0000      -1.046599       -28.4794
  16   2.0000      -1.024776       -27.8856
  17   2.0000      -1.001549       -27.2535
  18   2.0000      -0.930248       -25.3133
  19   2.0000      -0.887140       -24.1403
  20   2.0000      -0.835243       -22.7281
  21   2.0000      -0.790446       -21.5091
  22   2.0000      -0.762220       -20.7411
  23   2.0000      -0.731029       -19.8923
  24   2.0000      -0.720342       -19.6015
  25   2.0000      -0.687416       -18.7055
  26   2.0000      -0.663479       -18.0542
  27   2.0000      -0.642552       -17.4847
  28   2.0000      -0.616337       -16.7714
  29   2.0000      -0.605156       -16.4671
  30   2.0000      -0.588453       -16.0126
  31   2.0000      -0.578447       -15.7403
  32   2.0000      -0.567735       -15.4489
  33   2.0000      -0.554614       -15.0918
  34   2.0000      -0.543135       -14.7795
  35   2.0000      -0.531542       -14.4640
  36   2.0000      -0.515448       -14.0261
  37   2.0000      -0.510395       -13.8885
  38   2.0000      -0.491153       -13.3649
  39   2.0000      -0.483210       -13.1488
  40   2.0000      -0.468430       -12.7466
  41   2.0000      -0.458035       -12.4638
  42   2.0000      -0.444883       -12.1059
  43   2.0000      -0.426634       -11.6093
  44   2.0000      -0.413700       -11.2573
  45   2.0000      -0.406115       -11.0509
  46   2.0000      -0.401328       -10.9207
  47   2.0000      -0.391906       -10.6643
  48   2.0000      -0.328509        -8.9392
  49   2.0000      -0.317912        -8.6508
  50   2.0000      -0.311305        -8.4710
  51   0.0000       0.054427         1.4810
  52   0.0000       0.060489         1.6460
  53   0.0000       0.081904         2.2287
  54   0.0000       0.096594         2.6285
  55   0.0000       0.111423         3.0320

MULLIKEN ATOMIC CHARGES
-----------------------
   0 C :   -0.272124
   1 N :   -0.210572
   2 C :   -0.213508
   3 C :   -0.262389
   4 H :    0.124516
   5 H :    0.131248
   6 C :    0.150477
   7 C :    0.183891
   8 N :   -0.297168
   9 N :   -0.290054
  10 H :    0.228709
  11 H :    0.276242
  12 H :    0.221027
  13 H :    0.235834
  14 H :    0.279249
  15 O :   -0.462654
  16 O :   -0.430339
  17 C :   -0.246856
  18 H :    0.175450
  19 H :    0.157928
  20 C :   -0.268216
  21 H :    0.141294
  22 H :    0.141274
  23 C :   -0.253041
  24 H :    0.146796
  25 H :    0.140863
  26 H :    0.102466
  27 H :    0.120544
  28 H :    0.118323
  29 H :    0.130790
Sum of atomic charges:    0.0000000

LOEWDIN ATOMIC CHARGES
----------------------
   0 C :   -0.288200
   1 N :    0.131709
   2 C :   -0.274336
   3 C :   -0.256467
   4 H :    0.139947
   5 H :    0.150400
   6 C :   -0.673336
   7 C :   -0.440640
   8 N :    0.090770
   9 N :    0.047285
  10 H :    0.177599
  11 H :    0.172801
  12 H :    0.194016
  13 H :    0.178921
  14 H :    0.165934
  15 O :   -0.057233
  16 O :   -0.046352
  17 C :   -0.279623
  18 H :    0.144307
  19 H :    0.138617
  20 C :   -0.275579
  21 H :    0.149963
  22 H :    0.141364
  23 C :   -0.281822
  24 H :    0.147091
  25 H :    0.147532
  26 H :    0.134215
  27 H :    0.138052
  28 H :    0.136734
  29 H :    0.146331

  Mayer bond orders larger than 0.100000
B(  0-C ,  1-N ) :   0.8732 B(  0-C , 17-C ) :   0.9110 B(  0-C , 18-H ) :   0.9891
B(  0-C , 19-H ) :   0.9902 B(  1-N ,  7-C ) :   1.2989 B(  1-N , 12-H ) :   0.9204
B(  2-C ,  3-C ) :   0.9040 B(  2-C , 23-C ) :   0.9562 B(  2-C , 28-H ) :   0.9812
B(  2-C , 29-H ) :   0.9754 B(  3-C ,  4-H ) :   0.9769 B(  3-C ,  5-H ) :   0.9634
B(  3-C ,  6-C ) :   0.9213 B(  6-C , 15-O ) :   1.7990 B(  6-C , 16-O ) :   1.8062
B(  7-C ,  8-N ) :   1.4143 B(  7-C ,  9-N ) :   1.3876 B(  8-N , 13-H ) :   0.9205
B(  8-N , 14-H ) :   0.7760 B(  9-N , 10-H ) :   0.9209 B(  9-N , 11-H ) :   0.8154
B( 11-H , 15-O ) :   0.1492 B( 14-H , 16-O ) :   0.1943 B( 17-C , 20-C ) :   0.9246
B( 17-C , 21-H ) :   0.9795 B( 17-C , 22-H ) :   0.9885 B( 20-C , 23-C ) :   0.8658
B( 20-C , 24-H ) :   0.9582 B( 20-C , 25-H ) :   0.9799 B( 23-C , 26-H ) :   0.9800
B( 23-C , 27-H ) :   0.9816

FINAL SINGLE POINT ENERGY      -628.548101129974

DIPOLE MOMENT
-------------
                                X             Y             Z
Electronic contribution:      0.60426      -2.83086     -10.22563
Nuclear contribution   :      1.76912       1.50070      12.36652
                        -----------------------------------------
Total Dipole Moment    :      2.37338      -1.33016       2.14090
                        -----------------------------------------
Magnitude (a.u.)       :      3.46204
Magnitude (Debye)      :      8.79980

Rotational constants in cm-1:     0.033272     0.023886     0.017112
Rotational constants in MHz :   997.469575   716.074432   513.001395

                             ****ORCA TERMINATED NORMALLY****
TOTAL RUN TIME: 0 days 0 hours 1 minutes 6 seconds 828 msec
