                         Program Version 5.0.0 -  RELEASE  -
|  1> !LC-BLYP RIJCOSX def2-SVP def2/J TightSCF
|  2> *xyz 0 1
|  3> C         -1.10433        0.25137       -2.86006
|  4> C         -0.71189        0.84252       -4.21834
|  5> H          0.15463        1.49980       -4.13091
|  6> H         -1.53813        1.45922       -4.58267
|  7> C         -0.39762       -0.20587       -5.28802
|  8> F          0.61717       -0.00535       -5.99827
|  9> O         -1.13317       -1.22138       -5.34147
| 10> H         -1.95489       -0.38644       -2.98099
| 11> H         -1.34603        1.04362       -2.18269
| 12> H         -0.28606       -0.31581       -2.46809
| 13> *
| 14>
| 15> %MaxCore 64000
| 16>
| 17> %pal nprocs 4
| 18> end
| 19>
| 20> %scf
| 21>   MaxIter 150
| 22> end
| 23>
| 24>
| 25>                          ****END OF INPUT****

CARTESIAN COORDINATES (ANGSTROEM)
---------------------------------
  C     -1.104330    0.251370   -2.860060
  C     -0.711890    0.842520   -4.218340
  H      0.154630    1.499800   -4.130910
  H     -1.538130    1.459220   -4.582670
  C     -0.397620   -0.205870   -5.288020
  F      0.617170   -0.005350   -5.998270
  O     -1.133170   -1.221380   -5.341470
  H     -1.954890   -0.386440   -2.980990
  H     -1.346030    1.043620   -2.182690
  H     -0.286060   -0.315810   -2.468090

 Total Charge           Charge          ....    0
 Multiplicity           Mult            ....    1
 Number of Electrons    NEL             ....   40
 Basis Dimension        Dim             ....   95

ORBITAL ENERGIES
----------------

  NO   OCC          E(Eh)            E(eV)
   0   2.0000     -24.525545      -667.3740
   1   2.0000     -18.948991      -515.6283
   2   2.0000     -10.254797      -279.0472
   3   2.0000     -10.111987      -275.1612
   4   2.0000     -10.085721      -274.4464
   5   2.0000      -1.371298       -37.3149
   6   2.0000      -1.105114       -30.0717
   7   2.0000      -0.897301       -24.4168
   8   2.0000      -0.783777       -21.3277
   9   2.0000      -0.728761       -19.8306
  10   2.0000      -0.646789       -17.6000
  11   2.0000      -0.630369       -17.1532
  12   2.0000      -0.597827       -16.2677
  13   2.0000      -0.564011       -15.3475
  14   2.0000      -0.527393       -14.3511
  15   2.0000      -0.491617       -13.3776
  16   2.0000      -0.469609       -12.7787
  17   2.0000      -0.467459       -12.7202
  18   2.0000      -0.439847       -11.9688
  19   2.0000      -0.382541       -10.4095
  20   0.0000       0.067940         1.8487
  21   0.0000       0.131636         3.5820
  22   0.0000       0.178454         4.8560
  23   0.0000       0.186450         5.0736
  24   0.0000       0.204422         5.5626

MULLIKEN ATOMIC CHARGES
-----------------------
   0 C :    0.013305
   1 C :   -0.062228
   2 H :    0.020591
   3 H :    0.054289
   4 C :    0.110276
   5 F :   -0.022226
   6 O :   -0.193674
   7 H :    0.040193
   8 H :    0.017547
   9 H :    0.021927
Sum of atomic charges:   -0.0000000

LOEWDIN ATOMIC CHARGES
----------------------
   0 C :   -0.052555
   1 C :   -0.083967
   2 H :    0.032177
   3 H :    0.053930
   4 C :    0.065151
   5 F :    0.064682
   6 O :   -0.175317
   7 H :    0.034929
   8 H :    0.030828
   9 H :    0.030141

  Mayer bond orders larger than 0.100000
B(  0-C ,  1-C ) :   1.1009 B(  0-C ,  7-H ) :   0.9662 B(  0-C ,  8-H ) :   0.9646
B(  0-C ,  9-H ) :   0.9785 B(  1-C ,  2-H ) :   0.9381 B(  1-C ,  3-H ) :   0.9259
B(  1-C ,  4-C ) :   0.9919 B(  4-C ,  5-F ) :   1.2680 B(  4-C ,  6-O ) :   2.1404

FINAL SINGLE POINT ENERGY      -291.552281041775

DIPOLE MOMENT
-------------
                                X             Y             Z
Electronic contribution:      3.60020      -2.43045      -7.79502
Nuclear contribution   :     -3.36368       3.36392       8.24820
                        -----------------------------------------
Total Dipole Moment    :      0.23652       0.93347       0.45317
                        -----------------------------------------
Magnitude (a.u.)       :      1.06427
Magnitude (Debye)      :      2.70515

Rotational constants in cm-1:     0.315013     0.126712     0.098430
Rotational constants in MHz :  9443.861322  3798.734540  2950.846388

                             ****ORCA TERMINATED NORMALLY****
TOTAL RUN TIME: 0 days 0 hours 0 minutes 10 seconds 835 msec
