                         Program Version 5.0.0 -  RELEASE  -
|  1> !LC-BLYP RIJCOSX def2-SVP def2/J TightSCF
|  2> *xyz 0 1
|  3> C          2.23447       -2.98975       -2.39762
|  4> C          2.75680       -2.94555       -3.76503
|  5> C          1.98721       -2.59045       -4.81898
|  6> N          0.74322       -3.01749       -4.91352
|  7> N          2.49964       -1.84860       -5.80324
|  8> H          3.30978       -1.29282       -5.55895
|  9> H          1.80103       -1.30430       -6.28913
| 10> H          3.71612       -2.62880       -3.82953
| 11> H          0.39583       -3.62775       -4.18502
| 12> H          0.03920       -2.45438       -5.37137
| 13> C          2.19120       -1.61950       -1.71549
| 14> H          2.87278       -3.66637       -1.82801
| 15> H          1.24619       -3.44744       -2.40784
| 16> H          1.56387       -0.96046       -2.27853
| 17> H          3.18033       -1.21449       -1.66568
| 18> H          1.79916       -1.72608       -0.72562
| 19> *
| 20>
| 21> %MaxCore 64000
| 22>
| 23> %pal nprocs 4
| 24> end
| 25>
| 26> %scf
| 27>   MaxIter 150
| 28> end
| 29>
| 30>
| 31>                          ****END OF INPUT****

CARTESIAN COORDINATES (ANGSTROEM)
---------------------------------
  C      2.234470   -2.989750   -2.397620
  C      2.756800   -2.945550   -3.765030
  C      1.987210   -2.590450   -4.818980
  N      0.743220   -3.017490   -4.913520
  N      2.499640   -1.848600   -5.803240
  H      3.309780   -1.292820   -5.558950
  H      1.801030   -1.304300   -6.289130
  H      3.716120   -2.628800   -3.829530
  H      0.395830   -3.627750   -4.185020
  H      0.039200   -2.454380   -5.371370
  C      2.191200   -1.619500   -1.715490
  H      2.872780   -3.666370   -1.828010
  H      1.246190   -3.447440   -2.407840
  H      1.563870   -0.960460   -2.278530
  H      3.180330   -1.214490   -1.665680
  H      1.799160   -1.726080   -0.725620

 Total Charge           Charge          ....    0
 Multiplicity           Mult            ....    1
 Number of Electrons    NEL             ....   48
 Basis Dimension        Dim             ....  134

ORBITAL ENERGIES
----------------

  NO   OCC          E(Eh)            E(eV)
   0   2.0000     -14.185340      -386.0027
   1   2.0000     -14.179194      -385.8355
   2   2.0000     -10.127404      -275.5807
   3   2.0000     -10.056375      -273.6479
   4   2.0000     -10.050459      -273.4869
   5   2.0000      -9.999815      -272.1088
   6   2.0000      -1.055557       -28.7232
   7   2.0000      -0.962855       -26.2006
   8   2.0000      -0.869108       -23.6496
   9   2.0000      -0.786128       -21.3916
  10   2.0000      -0.714277       -19.4365
  11   2.0000      -0.676334       -18.4040
  12   2.0000      -0.640398       -17.4261
  13   2.0000      -0.602995       -16.4083
  14   2.0000      -0.562372       -15.3029
  15   2.0000      -0.550168       -14.9708
  16   2.0000      -0.510566       -13.8932
  17   2.0000      -0.490602       -13.3500
  18   2.0000      -0.466936       -12.7060
  19   2.0000      -0.455251       -12.3880
  20   2.0000      -0.418820       -11.3967
  21   2.0000      -0.410629       -11.1738
  22   2.0000      -0.364518        -9.9190
  23   2.0000      -0.241998        -6.5851
  24   0.0000       0.108064         2.9406
  25   0.0000       0.145969         3.9720
  26   0.0000       0.159422         4.3381
  27   0.0000       0.163893         4.4598
  28   0.0000       0.179314         4.8794

MULLIKEN ATOMIC CHARGES
-----------------------
   0 C :    0.027041
   1 C :   -0.094761
   2 C :   -0.196159
   3 N :   -0.005282
   4 N :    0.001376
   5 H :    0.112339
   6 H :    0.090308
   7 H :   -0.117330
   8 H :    0.113195
   9 H :    0.098266
  10 C :    0.058422
  11 H :   -0.012894
  12 H :   -0.043728
  13 H :   -0.017320
  14 H :   -0.007672
  15 H :   -0.005801
Sum of atomic charges:    0.0000000

LOEWDIN ATOMIC CHARGES
----------------------
   0 C :   -0.045901
   1 C :   -0.232281
   2 C :    0.012692
   3 N :   -0.006634
   4 N :   -0.018858
   5 H :    0.079161
   6 H :    0.064147
   7 H :   -0.013984
   8 H :    0.081313
   9 H :    0.065831
  10 C :   -0.068098
  11 H :    0.021628
  12 H :    0.007726
  13 H :    0.014811
  14 H :    0.020455
  15 H :    0.017993

  Mayer bond orders larger than 0.100000
B(  0-C ,  1-C ) :   1.0865 B(  0-C , 10-C ) :   1.0934 B(  0-C , 11-H ) :   0.9280
B(  0-C , 12-H ) :   0.9410 B(  1-C ,  2-C ) :   1.6820 B(  1-C ,  7-H ) :   0.9080
B(  2-C ,  3-N ) :   1.2850 B(  2-C ,  4-N ) :   1.2264 B(  3-N ,  8-H ) :   0.9465
B(  3-N ,  9-H ) :   0.9431 B(  4-N ,  5-H ) :   0.9448 B(  4-N ,  6-H ) :   0.9540
B( 10-C , 13-H ) :   0.9686 B( 10-C , 14-H ) :   0.9656 B( 10-C , 15-H ) :   0.9608

FINAL SINGLE POINT ENERGY      -266.973969550857

DIPOLE MOMENT
-------------
                                X             Y             Z
Electronic contribution:     -0.41966      -1.34747      -5.12777
Nuclear contribution   :     -0.44240       2.20379       4.66256
                        -----------------------------------------
Total Dipole Moment    :     -0.86206       0.85632      -0.46520
                        -----------------------------------------
Magnitude (a.u.)       :      1.30109
Magnitude (Debye)      :      3.30712

Rotational constants in cm-1:     0.209447     0.075194     0.066975
Rotational constants in MHz :  6279.068019  2254.272519  2007.845458

                             ****ORCA TERMINATED NORMALLY****
TOTAL RUN TIME: 0 days 0 hours 0 minutes 21 seconds 837 msec
