                         Program Version 5.0.0 -  RELEASE  -
|  1> !LC-BLYP RIJCOSX def2-SVP def2/J TightSCF
|  2> *xyz 0 1
|  3> C         -1.10433        0.25137       -2.86006
|  4> C         -0.71189        0.84252       -4.21834
|  5> H          0.15463        1.49980       -4.13091
|  6> H         -1.53813        1.45922       -4.58267
|  7> C         -0.39762       -0.20587       -5.28802
|  8> O          0.61717       -0.00535       -5.99827
|  9> F         -1.13317       -1.22138       -5.34147
| 10> H         -1.95489       -0.38644       -2.98099
| 11> H         -1.34603        1.04362       -2.18269
| 12> H         -0.28606       -0.31581       -2.46809
| 13> *
| 14>
| 15> %MaxCore 64000
| 16>
| 17> %pal nprocs 4
| 18> end
| 19>
| 20> %scf
| 21>   MaxIter 150
| 22> end
| 23>
| 24>
| 25>                          ****END OF INPUT****

CARTESIAN COORDINATES (ANGSTROEM)
---------------------------------
  C     -1.104330    0.251370   -2.860060
  C     -0.711890    0.842520   -4.218340
  H      0.154630    1.499800   -4.130910
  H     -1.538130    1.459220   -4.582670
  C     -0.397620   -0.205870   -5.288020
  O      0.617170   -0.005350   -5.998270
  F     -1.133170   -1.221380   -5.341470
  H     -1.954890   -0.386440   -2.980990
  H     -1.346030    1.043620   -2.182690
  H     -0.286060   -0.315810   -2.468090

 Total Charge           Charge          ....    0
 Multiplicity           Mult            ....    1
 Number of Electrons    NEL             ....   40
 Basis Dimension        Dim             ....   95

ORBITAL ENERGIES
----------------

  NO   OCC          E(Eh)            E(eV)
   0   2.0000     -24.527106      -667.4165
   1   2.0000     -18.946806      -515.5688
   2   2.0000     -10.253622      -279.0152
   3   2.0000     -10.110805      -275.1290
   4   2.0000     -10.091565      -274.6054
   5   2.0000      -1.372141       -37.3378
   6   2.0000      -1.103253       -30.0210
   7   2.0000      -0.901626       -24.5345
   8   2.0000      -0.778624       -21.1874
   9   2.0000      -0.736072       -20.0295
  10   2.0000      -0.649080       -17.6624
  11   2.0000      -0.637607       -17.3502
  12   2.0000      -0.588022       -16.0009
  13   2.0000      -0.563925       -15.3452
  14   2.0000      -0.529072       -14.3968
  15   2.0000      -0.496546       -13.5117
  16   2.0000      -0.478005       -13.0072
  17   2.0000      -0.471287       -12.8244
  18   2.0000      -0.439532       -11.9603
  19   2.0000      -0.377057       -10.2602
  20   0.0000       0.070630         1.9219
  21   0.0000       0.126351         3.4382
  22   0.0000       0.176072         4.7912
  23   0.0000       0.187682         5.1071
  24   0.0000       0.204104         5.5539

MULLIKEN ATOMIC CHARGES
-----------------------
   0 C :   -0.011918
   1 C :   -0.055590
   2 H :    0.047286
   3 H :    0.046441
   4 C :    0.108622
   5 O :   -0.188272
   6 F :   -0.025438
   7 H :    0.025089
   8 H :    0.025020
   9 H :    0.028759
Sum of atomic charges:   -0.0000000

LOEWDIN ATOMIC CHARGES
----------------------
   0 C :   -0.063921
   1 C :   -0.079974
   2 H :    0.048191
   3 H :    0.048291
   4 C :    0.063806
   5 O :   -0.172479
   6 F :    0.063659
   7 H :    0.027658
   8 H :    0.033999
   9 H :    0.030769

  Mayer bond orders larger than 0.100000
B(  0-C ,  1-C ) :   1.0766 B(  0-C ,  7-H ) :   0.9710 B(  0-C ,  8-H ) :   0.9646
B(  0-C ,  9-H ) :   0.9785 B(  1-C ,  2-H ) :   0.9477 B(  1-C ,  3-H ) :   0.9295
B(  1-C ,  4-C ) :   1.0004 B(  4-C ,  5-O ) :   2.1588 B(  4-C ,  6-F ) :   1.2555

FINAL SINGLE POINT ENERGY      -291.550949735358

DIPOLE MOMENT
-------------
                                X             Y             Z
Electronic contribution:      0.72667      -4.41771      -6.69238
Nuclear contribution   :     -1.45527       4.68977       7.53208
                        -----------------------------------------
Total Dipole Moment    :     -0.72859       0.27206       0.83970
                        -----------------------------------------
Magnitude (a.u.)       :      1.14453
Magnitude (Debye)      :      2.90918

Rotational constants in cm-1:     0.298240     0.132464     0.099915
Rotational constants in MHz :  8940.998095  3971.171647  2995.369122

                             ****ORCA TERMINATED NORMALLY****
TOTAL RUN TIME: 0 days 0 hours 0 minutes 11 seconds 260 msec
