                         Program Version 5.0.0 -  RELEASE  -
|  1> !LC-BLYP RIJCOSX def2-SVP def2/J TightSCF
|  2> *xyz 0 1
|  3> C          2.23447       -2.98975       -2.39762
|  4> N          2.75680       -2.94555       -3.76503
|  5> C          1.98721       -2.59045       -4.81898
|  6> C          0.74322       -3.01749       -4.91352
|  7> N          2.49964       -1.84860       -5.80324
|  8> H          3.30978       -1.29282       -5.55895
|  9> H          1.80103       -1.30430       -6.28913
| 10> H          3.71612       -2.62880       -3.82953
| 11> H          0.39583       -3.62775       -4.18502
| 12> H          0.03920       -2.45438       -5.37137
| 13> C          2.19120       -1.61950       -1.71549
| 14> H          2.87278       -3.66637       -1.82801
| 15> H          1.24619       -3.44744       -2.40784
| 16> H          1.56387       -0.96046       -2.27853
| 17> H          3.18033       -1.21449       -1.66568
| 18> H          1.79916       -1.72608       -0.72562
| 19> *
| 20>
| 21> %MaxCore 64000
| 22>
| 23> %pal nprocs 4
| 24> end
| 25>
| 26> %scf
| 27>   MaxIter 150
| 28> end
| 29>
| 30>
| 31>                          ****END OF INPUT****

CARTESIAN COORDINATES (ANGSTROEM)
---------------------------------
  C      2.234470   -2.989750   -2.397620
  N      2.756800   -2.945550   -3.765030
  C      1.987210   -2.590450   -4.818980
  C      0.743220   -3.017490   -4.913520
  N      2.499640   -1.848600   -5.803240
  H      3.309780   -1.292820   -5.558950
  H      1.801030   -1.304300   -6.289130
  H      3.716120   -2.628800   -3.829530
  H      0.395830   -3.627750   -4.185020
  H      0.039200   -2.454380   -5.371370
  C      2.191200   -1.619500   -1.715490
  H      2.872780   -3.666370   -1.828010
  H      1.246190   -3.447440   -2.407840
  H      1.563870   -0.960460   -2.278530
  H      3.180330   -1.214490   -1.665680
  H      1.799160   -1.726080   -0.725620

 Total Charge           Charge          ....    0
 Multiplicity           Mult            ....    1
 Number of Electrons    NEL             ....   48
 Basis Dimension        Dim             ....  134

ORBITAL ENERGIES
----------------

  NO   OCC          E(Eh)            E(eV)
   0   2.0000     -14.179966      -385.8565
   1   2.0000     -14.178474      -385.8159
   2   2.0000     -10.124795      -275.5097
   3   2.0000     -10.112936      -275.1870
   4   2.0000     -10.073149      -274.1043
   5   2.0000      -9.996299      -272.0131
   6   2.0000      -1.054072       -28.6827
   7   2.0000      -0.974720       -26.5235
   8   2.0000      -0.853148       -23.2153
   9   2.0000      -0.807838       -21.9824
  10   2.0000      -0.739077       -20.1113
  11   2.0000      -0.657825       -17.9003
  12   2.0000      -0.642126       -17.4731
  13   2.0000      -0.608344       -16.5539
  14   2.0000      -0.561318       -15.2742
  15   2.0000      -0.545992       -14.8572
  16   2.0000      -0.515229       -14.0201
  17   2.0000      -0.491982       -13.3875
  18   2.0000      -0.489300       -13.3145
  19   2.0000      -0.464741       -12.6462
  20   2.0000      -0.453206       -12.3324
  21   2.0000      -0.440647       -11.9906
  22   2.0000      -0.341568        -9.2945
  23   2.0000      -0.260751        -7.0954
  24   0.0000       0.113399         3.0857
  25   0.0000       0.145332         3.9547
  26   0.0000       0.154745         4.2108
  27   0.0000       0.170278         4.6335
  28   0.0000       0.184258         5.0139

MULLIKEN ATOMIC CHARGES
-----------------------
   0 C :    0.055876
   1 N :   -0.100492
   2 C :   -0.100960
   3 C :   -0.079848
   4 N :   -0.012652
   5 H :    0.082613
   6 H :    0.113251
   7 H :    0.086461
   8 H :   -0.061697
   9 H :   -0.060891
  10 C :    0.009466
  11 H :    0.008788
  12 H :    0.030115
  13 H :    0.018203
  14 H :   -0.000859
  15 H :    0.012626
Sum of atomic charges:   -0.0000000

LOEWDIN ATOMIC CHARGES
----------------------
   0 C :    0.026675
   1 N :   -0.032044
   2 C :    0.023810
   3 C :   -0.238812
   4 N :   -0.023213
   5 H :    0.057868
   6 H :    0.082347
   7 H :    0.060593
   8 H :   -0.005078
   9 H :   -0.005727
  10 C :   -0.078090
  11 H :    0.022456
  12 H :    0.032897
  13 H :    0.027528
  14 H :    0.019240
  15 H :    0.029550

  Mayer bond orders larger than 0.100000
B(  0-C ,  1-N ) :   1.0247 B(  0-C , 10-C ) :   1.1049 B(  0-C , 11-H ) :   0.9561
B(  0-C , 12-H ) :   0.9509 B(  1-N ,  2-C ) :   1.1796 B(  1-N ,  7-H ) :   0.9364
B(  2-C ,  3-C ) :   1.7842 B(  2-C ,  4-N ) :   1.2247 B(  3-C ,  8-H ) :   0.9352
B(  3-C ,  9-H ) :   0.9396 B(  4-N ,  5-H ) :   0.9470 B(  4-N ,  6-H ) :   0.9469
B( 10-C , 13-H ) :   0.9665 B( 10-C , 14-H ) :   0.9677 B( 10-C , 15-H ) :   0.9607

FINAL SINGLE POINT ENERGY      -266.969804465881

DIPOLE MOMENT
-------------
                                X             Y             Z
Electronic contribution:      1.57738      -1.19447      -3.90128
Nuclear contribution   :     -0.86957       2.18853       4.41892
                        -----------------------------------------
Total Dipole Moment    :      0.70781       0.99406       0.51764
                        -----------------------------------------
Magnitude (a.u.)       :      1.32556
Magnitude (Debye)      :      3.36930

Rotational constants in cm-1:     0.214718     0.075736     0.068547
Rotational constants in MHz :  6437.075121  2270.519635  2054.974198

                             ****ORCA TERMINATED NORMALLY****
TOTAL RUN TIME: 0 days 0 hours 0 minutes 21 seconds 361 msec
