                         Program Version 5.0.0 -  RELEASE  -
|  1> !LC-BLYP RIJCOSX def2-SVP def2/J TightSCF
|  2> *xyz 0 1
|  3> C          2.23447       -2.98975       -2.39762
|  4> N          2.75680       -2.94555       -3.76503
|  5> C          1.98721       -2.59045       -4.81898
|  6> N          0.74322       -3.01749       -4.91352
|  7> C          2.49964       -1.84860       -5.80324
|  8> H          3.30978       -1.29282       -5.55895
|  9> H          1.80103       -1.30430       -6.28913
| 10> H          3.71612       -2.62880       -3.82953
| 11> H          0.39583       -3.62775       -4.18502
| 12> H          0.03920       -2.45438       -5.37137
| 13> C          2.19120       -1.61950       -1.71549
| 14> H          2.87278       -3.66637       -1.82801
| 15> H          1.24619       -3.44744       -2.40784
| 16> H          1.56387       -0.96046       -2.27853
| 17> H          3.18033       -1.21449       -1.66568
| 18> H          1.79916       -1.72608       -0.72562
| 19> *
| 20>
| 21> %MaxCore 64000
| 22>
| 23> %pal nprocs 4
| 24> end
| 25>
| 26> %scf
| 27>   MaxIter 150
| 28> end
| 29>
| 30>
| 31>                          ****END OF INPUT****

CARTESIAN COORDINATES (ANGSTROEM)
---------------------------------
  C      2.234470   -2.989750   -2.397620
  N      2.756800   -2.945550   -3.765030
  C      1.987210   -2.590450   -4.818980
  N      0.743220   -3.017490   -4.913520
  C      2.499640   -1.848600   -5.803240
  H      3.309780   -1.292820   -5.558950
  H      1.801030   -1.304300   -6.289130
  H      3.716120   -2.628800   -3.829530
  H      0.395830   -3.627750   -4.185020
  H      0.039200   -2.454380   -5.371370
  C      2.191200   -1.619500   -1.715490
  H      2.872780   -3.666370   -1.828010
  H      1.246190   -3.447440   -2.407840
  H      1.563870   -0.960460   -2.278530
  H      3.180330   -1.214490   -1.665680
  H      1.799160   -1.726080   -0.725620

 Total Charge           Charge          ....    0
 Multiplicity           Mult            ....    1
 Number of Electrons    NEL             ....   48
 Basis Dimension        Dim             ....  134

ORBITAL ENERGIES
----------------

  NO   OCC          E(Eh)            E(eV)
   0   2.0000     -14.182223      -385.9179
   1   2.0000     -14.178349      -385.8125
   2   2.0000     -10.127883      -275.5937
   3   2.0000     -10.122559      -275.4488
   4   2.0000     -10.077315      -274.2177
   5   2.0000      -9.990909      -271.8664
   6   2.0000      -1.055785       -28.7294
   7   2.0000      -0.974020       -26.5044
   8   2.0000      -0.865759       -23.5585
   9   2.0000      -0.801928       -21.8216
  10   2.0000      -0.727677       -19.8011
  11   2.0000      -0.698001       -18.9936
  12   2.0000      -0.637274       -17.3411
  13   2.0000      -0.591109       -16.0849
  14   2.0000      -0.586366       -15.9558
  15   2.0000      -0.536804       -14.6072
  16   2.0000      -0.526885       -14.3373
  17   2.0000      -0.499147       -13.5825
  18   2.0000      -0.471100       -12.8193
  19   2.0000      -0.461889       -12.5686
  20   2.0000      -0.459530       -12.5044
  21   2.0000      -0.448119       -12.1939
  22   2.0000      -0.344362        -9.3706
  23   2.0000      -0.255331        -6.9479
  24   0.0000       0.112944         3.0734
  25   0.0000       0.140073         3.8116
  26   0.0000       0.149200         4.0599
  27   0.0000       0.165020         4.4904
  28   0.0000       0.177003         4.8165

MULLIKEN ATOMIC CHARGES
-----------------------
   0 C :    0.028852
   1 N :   -0.086630
   2 C :   -0.133592
   3 N :   -0.030147
   4 C :   -0.027221
   5 H :   -0.079716
   6 H :   -0.075478
   7 H :    0.109601
   8 H :    0.094451
   9 H :    0.123904
  10 C :    0.020775
  11 H :    0.015126
  12 H :   -0.001403
  13 H :    0.018725
  14 H :    0.011618
  15 H :    0.011135
Sum of atomic charges:   -0.0000000

LOEWDIN ATOMIC CHARGES
----------------------
   0 C :    0.015768
   1 N :   -0.033904
   2 C :    0.029574
   3 N :   -0.006507
   4 C :   -0.261675
   5 H :   -0.012298
   6 H :   -0.007916
   7 H :    0.080036
   8 H :    0.064507
   9 H :    0.084435
  10 C :   -0.076795
  11 H :    0.024930
  12 H :    0.017756
  13 H :    0.028338
  14 H :    0.025425
  15 H :    0.028326

  Mayer bond orders larger than 0.100000
B(  0-C ,  1-N ) :   1.0438 B(  0-C , 10-C ) :   1.0886 B(  0-C , 11-H ) :   0.9554
B(  0-C , 12-H ) :   0.9529 B(  1-N ,  2-C ) :   1.1943 B(  1-N ,  7-H ) :   0.9307
B(  2-C ,  3-N ) :   1.2303 B(  2-C ,  4-C ) :   1.7835 B(  3-N ,  8-H ) :   0.9553
B(  3-N ,  9-H ) :   0.9480 B(  4-C ,  5-H ) :   0.9302 B(  4-C ,  6-H ) :   0.9357
B( 10-C , 13-H ) :   0.9674 B( 10-C , 14-H ) :   0.9680 B( 10-C , 15-H ) :   0.9602

FINAL SINGLE POINT ENERGY      -266.965353010285

DIPOLE MOMENT
-------------
                                X             Y             Z
Electronic contribution:     -0.17032      -2.43898      -2.97086
Nuclear contribution   :     -0.49695       2.43650       4.23017
                        -----------------------------------------
Total Dipole Moment    :     -0.66727      -0.00248       1.25931
                        -----------------------------------------
Magnitude (a.u.)       :      1.42518
Magnitude (Debye)      :      3.62251

Rotational constants in cm-1:     0.211102     0.077011     0.069221
Rotational constants in MHz :  6328.667765  2308.731604  2075.192956

                             ****ORCA TERMINATED NORMALLY****
TOTAL RUN TIME: 0 days 0 hours 0 minutes 21 seconds 24 msec
