                         Program Version 5.0.0 -  RELEASE  -
|  1> !LC-BLYP RIJCOSX def2-TZVP def2/J TightSCF xyzfile
|  2>
|  3> *xyzfile 0 1 D3.xyz
|  4>
|  5> %MaxCore 64000
|  6>
|  7> %pal nprocs 18
|  8> end
|  9>
| 10> %scf
| 11>   MaxIter 150
| 12> end
| 13>
| 14>
| 15>                          ****END OF INPUT****

CARTESIAN COORDINATES (ANGSTROEM)
---------------------------------
  C      2.234473   -2.989754   -2.397622
  N      2.756799   -2.945553   -3.765029
  C     -1.104325    0.251374   -2.860056
  C     -0.711893    0.842517   -4.218344
  H      0.154626    1.499800   -4.130909
  H     -1.538134    1.459222   -4.582671
  C     -0.397624   -0.205875   -5.288018
  C      1.987208   -2.590451   -4.818975
  N      0.743221   -3.017493   -4.913524
  C      2.499636   -1.848598   -5.803241
  H      3.309780   -1.292818   -5.558947
  H      1.801025   -1.304298   -6.289129
  H      3.716116   -2.628797   -3.829533
  H      0.395828   -3.627747   -4.185024
  H      0.039201   -2.454383   -5.371367
  F      0.617165   -0.005348   -5.998273
  O     -1.133173   -1.221380   -5.341465
  C      2.191199   -1.619503   -1.715492
  H      2.872783   -3.666368   -1.828014
  H      1.246188   -3.447444   -2.407842
  C      1.298729   -0.554314   -2.359773
  H      1.872917   -1.787955   -0.681310
  H      3.216809   -1.238432   -1.654428
  C     -0.196255   -0.863365   -2.325763
  H      1.612531   -0.371346   -3.393065
  H      1.480944    0.388638   -1.834444
  H     -0.404105   -1.761825   -2.909448
  H     -0.490439   -1.087880   -1.294131
  H     -1.143842    1.066711   -2.129680
  H     -2.114401   -0.156834   -2.930323

 Total Charge           Charge          ....    0
 Multiplicity           Mult            ....    1
 Number of Electrons    NEL             ....  102
 Basis Dimension        Dim             ....  505

ORBITAL ENERGIES
----------------

  NO   OCC          E(Eh)            E(eV)
   0   2.0000     -24.536414      -667.6698
   1   2.0000     -18.966018      -516.0916
   2   2.0000     -14.161993      -385.3674
   3   2.0000     -14.144277      -384.8853
   4   2.0000     -10.269267      -279.4410
   5   2.0000     -10.109321      -275.0886
   6   2.0000     -10.107359      -275.0352
   7   2.0000     -10.103306      -274.9249
   8   2.0000     -10.088450      -274.5207
   9   2.0000     -10.073099      -274.1030
  10   2.0000     -10.072913      -274.0979
  11   2.0000     -10.072496      -274.0865
  12   2.0000      -9.965861      -271.1849
  13   2.0000      -1.414982       -38.5036
  14   2.0000      -1.154300       -31.4101
  15   2.0000      -1.060241       -28.8506
  16   2.0000      -0.977912       -26.6103
  17   2.0000      -0.941386       -25.6164
  18   2.0000      -0.901220       -24.5235
  19   2.0000      -0.854470       -23.2513
  20   2.0000      -0.818947       -22.2847
  21   2.0000      -0.795930       -21.6584
  22   2.0000      -0.760340       -20.6899
  23   2.0000      -0.727386       -19.7932
  24   2.0000      -0.704527       -19.1712
  25   2.0000      -0.688706       -18.7406
  26   2.0000      -0.669010       -18.2047
  27   2.0000      -0.647078       -17.6079
  28   2.0000      -0.638023       -17.3615
  29   2.0000      -0.631253       -17.1773
  30   2.0000      -0.602540       -16.3959
  31   2.0000      -0.587850       -15.9962
  32   2.0000      -0.579427       -15.7670
  33   2.0000      -0.566697       -15.4206
  34   2.0000      -0.553749       -15.0683
  35   2.0000      -0.539560       -14.6822
  36   2.0000      -0.517957       -14.0943
  37   2.0000      -0.512597       -13.9485
  38   2.0000      -0.493553       -13.4303
  39   2.0000      -0.484180       -13.1752
  40   2.0000      -0.479277       -13.0418
  41   2.0000      -0.469580       -12.7779
  42   2.0000      -0.463440       -12.6108
  43   2.0000      -0.460089       -12.5197
  44   2.0000      -0.444577       -12.0976
  45   2.0000      -0.432730       -11.7752
  46   2.0000      -0.430960       -11.7270
  47   2.0000      -0.422590       -11.4992
  48   2.0000      -0.409036       -11.1304
  49   2.0000      -0.338884        -9.2215
  50   2.0000      -0.254202        -6.9172
  51   0.0000       0.033611         0.9146
  52   0.0000       0.084230         2.2920
  53   0.0000       0.100832         2.7438
  54   0.0000       0.103868         2.8264
  55   0.0000       0.117113         3.1868

MULLIKEN ATOMIC CHARGES
-----------------------
   0 C :   -0.275024
   1 N :   -0.217065
   2 C :   -0.228476
   3 C :   -0.323639
   4 H :    0.168754
   5 H :    0.171227
   6 C :    0.319140
   7 C :    0.103245
   8 N :   -0.361967
   9 C :   -0.399215
  10 H :    0.071369
  11 H :    0.043783
  12 H :    0.211188
  13 H :    0.204590
  14 H :    0.242631
  15 F :   -0.049725
  16 O :   -0.294861
  17 C :   -0.229965
  18 H :    0.157481
  19 H :    0.136388
  20 C :   -0.259201
  21 H :    0.121956
  22 H :    0.134180
  23 C :   -0.284033
  24 H :    0.155385
  25 H :    0.133653
  26 H :    0.123756
  27 H :    0.132319
  28 H :    0.141876
  29 H :    0.150249
Sum of atomic charges:    0.0000000

LOEWDIN ATOMIC CHARGES
----------------------
   0 C :   -0.305310
   1 N :    0.109685
   2 C :   -0.265169
   3 C :   -0.242537
   4 H :    0.152053
   5 H :    0.164880
   6 C :   -0.507751
   7 C :   -0.489070
   8 N :    0.018346
   9 C :   -0.366335
  10 H :    0.094745
  11 H :    0.095242
  12 H :    0.189809
  13 H :    0.158424
  14 H :    0.154998
  15 F :    0.368160
  16 O :    0.085190
  17 C :   -0.280001
  18 H :    0.138211
  19 H :    0.131422
  20 C :   -0.275990
  21 H :    0.143145
  22 H :    0.141594
  23 C :   -0.279988
  24 H :    0.146525
  25 H :    0.142956
  26 H :    0.137825
  27 H :    0.143089
  28 H :    0.146007
  29 H :    0.149848

  Mayer bond orders larger than 0.100000
B(  0-C ,  1-N ) :   0.9410 B(  0-C , 17-C ) :   0.9100 B(  0-C , 18-H ) :   0.9957
B(  0-C , 19-H ) :   0.9967 B(  1-N ,  7-C ) :   1.1810 B(  1-N , 12-H ) :   0.9299
B(  2-C ,  3-C ) :   0.9060 B(  2-C , 23-C ) :   0.9371 B(  2-C , 28-H ) :   0.9781
B(  2-C , 29-H ) :   0.9792 B(  3-C ,  4-H ) :   0.9630 B(  3-C ,  5-H ) :   0.9510
B(  3-C ,  6-C ) :   0.9589 B(  6-C , 15-F ) :   1.2096 B(  6-C , 16-O ) :   2.0123
B(  7-C ,  8-N ) :   1.1579 B(  7-C ,  9-C ) :   1.6833 B(  8-N , 13-H ) :   0.9409
B(  8-N , 14-H ) :   0.8738 B(  9-C , 10-H ) :   1.0199 B(  9-C , 11-H ) :   1.0216
B( 17-C , 20-C ) :   0.9320 B( 17-C , 21-H ) :   0.9774 B( 17-C , 22-H ) :   0.9854
B( 20-C , 23-C ) :   0.8499 B( 20-C , 24-H ) :   0.9674 B( 20-C , 25-H ) :   0.9814
B( 23-C , 26-H ) :   0.9834 B( 23-C , 27-H ) :   0.9806

FINAL SINGLE POINT ENERGY      -636.415856880980

DIPOLE MOMENT
-------------
                                X             Y             Z
Electronic contribution:     -2.86715       1.35742     -12.72045
Nuclear contribution   :      2.27881      -0.10762      14.43322
                        -----------------------------------------
Total Dipole Moment    :     -0.58834       1.24980       1.71277
                        -----------------------------------------
Magnitude (a.u.)       :      2.20039
Magnitude (Debye)      :      5.59295

Rotational constants in cm-1:     0.033336     0.023673     0.017062
Rotational constants in MHz :   999.388459   709.685364   511.514310

                             ****ORCA TERMINATED NORMALLY****
TOTAL RUN TIME: 0 days 0 hours 0 minutes 57 seconds 691 msec
