                         Program Version 5.0.0 -  RELEASE  -
|  1> !CAM-B3LYP RIJCOSX def2-SVP def2/J TightSCF
|  2> *xyz -1 1
|  3> C         -0.87096        0.24804       -2.66280
|  4> C         -0.47749        0.60819       -4.10105
|  5> H          0.20677        1.45830       -4.11875
|  6> H         -1.36844        0.92942       -4.64785
|  7> C          0.18467       -0.50664       -4.91676
|  8> O         -0.15869       -1.70109       -4.65798
|  9> O          1.05594       -0.17441       -5.74037
| 10> H         -1.54056       -0.58646       -2.67455
| 11> H         -1.35339        1.08600       -2.20455
| 12> H          0.00660       -0.00662       -2.10609
| 13> *
| 14>
| 15> %MaxCore 64000
| 16>
| 17> %pal nprocs 4
| 18> end
| 19>
| 20> %scf
| 21>   MaxIter 150
| 22> end
| 23>
| 24>
| 25>                          ****END OF INPUT****

CARTESIAN COORDINATES (ANGSTROEM)
---------------------------------
  C     -0.870960    0.248040   -2.662800
  C     -0.477490    0.608190   -4.101050
  H      0.206770    1.458300   -4.118750
  H     -1.368440    0.929420   -4.647850
  C      0.184670   -0.506640   -4.916760
  O     -0.158690   -1.701090   -4.657980
  O      1.055940   -0.174410   -5.740370
  H     -1.540560   -0.586460   -2.674550
  H     -1.353390    1.086000   -2.204550
  H      0.006600   -0.006620   -2.106090

 Total Charge           Charge          ....   -1
 Multiplicity           Mult            ....    1
 Number of Electrons    NEL             ....   40
 Basis Dimension        Dim             ....   95

ORBITAL ENERGIES
----------------

  NO   OCC          E(Eh)            E(eV)
   0   2.0000     -18.906580      -514.4742
   1   2.0000     -18.903664      -514.3949
   2   2.0000     -10.112877      -275.1854
   3   2.0000     -10.085996      -274.4539
   4   2.0000     -10.067875      -273.9608
   5   2.0000      -0.855671       -23.2840
   6   2.0000      -0.758269       -20.6336
   7   2.0000      -0.665475       -18.1085
   8   2.0000      -0.533128       -14.5071
   9   2.0000      -0.368504       -10.0275
  10   2.0000      -0.350453        -9.5363
  11   2.0000      -0.306382        -8.3371
  12   2.0000      -0.276314        -7.5189
  13   2.0000      -0.264886        -7.2079
  14   2.0000      -0.250000        -6.8028
  15   2.0000      -0.217609        -5.9214
  16   2.0000      -0.201559        -5.4847
  17   2.0000      -0.074383        -2.0241
  18   2.0000      -0.073238        -1.9929
  19   2.0000      -0.058140        -1.5821
  20   0.0000       0.256989         6.9930
  21   0.0000       0.307899         8.3784
  22   0.0000       0.318207         8.6589
  23   0.0000       0.325925         8.8689
  24   0.0000       0.336979         9.1697

MULLIKEN ATOMIC CHARGES
-----------------------
   0 C :    0.054364
   1 C :    0.000546
   2 H :   -0.056538
   3 H :   -0.045131
   4 C :    0.003128
   5 O :   -0.444279
   6 O :   -0.409918
   7 H :   -0.013981
   8 H :   -0.064607
   9 H :   -0.023583
Sum of atomic charges:   -1.0000000

LOEWDIN ATOMIC CHARGES
----------------------
   0 C :   -0.062963
   1 C :   -0.092315
   2 H :   -0.002549
   3 H :    0.005181
   4 C :   -0.052972
   5 O :   -0.417377
   6 O :   -0.385140
   7 H :    0.009561
   8 H :   -0.009887
   9 H :    0.008462

  Mayer bond orders larger than 0.100000
B(  0-C ,  1-C ) :   1.0790 B(  0-C ,  7-H ) :   0.9599 B(  0-C ,  8-H ) :   0.9562
B(  0-C ,  9-H ) :   0.9745 B(  1-C ,  2-H ) :   0.9396 B(  1-C ,  3-H ) :   0.9351
B(  1-C ,  4-C ) :   0.9132 B(  4-C ,  5-O ) :   1.8501 B(  4-C ,  6-O ) :   1.9009
B(  5-O ,  6-O ) :   0.1115

FINAL SINGLE POINT ENERGY      -267.498179088366

DIPOLE MOMENT
-------------
                                X             Y             Z
Electronic contribution:      2.70078      -3.03445      -4.68720
Nuclear contribution   :     -3.54611       4.15440       5.90446
                        -----------------------------------------
Total Dipole Moment    :     -0.84533       1.11996       1.21726
                        -----------------------------------------
Magnitude (a.u.)       :      1.85758
Magnitude (Debye)      :      4.72160

Rotational constants in cm-1:     0.332789     0.132085     0.101080
Rotational constants in MHz :  9976.755824  3959.803182  3030.288811

                             ****ORCA TERMINATED NORMALLY****
TOTAL RUN TIME: 0 days 0 hours 0 minutes 17 seconds 128 msec
