                         Program Version 5.0.0 -  RELEASE  -
|  1> !CAM-B3LYP RIJCOSX def2-SVP def2/J TightSCF
|  2> *xyz 1 1
|  3> C          2.48645       -2.67712       -2.56345
|  4> C          3.03764       -2.36672       -3.92351
|  5> N          2.28036       -2.45441       -4.96769
|  6> N          4.32174       -2.01793       -4.01664
|  7> H          4.87994       -1.91167       -3.17382
|  8> H          4.71015       -1.67088       -4.88356
|  9> H          1.27042       -2.41265       -4.86614
| 10> H          2.58183       -2.05528       -5.84688
| 11> C          2.49799       -1.46946       -1.61030
| 12> H          1.47259       -3.05153       -2.69437
| 13> H          3.08320       -3.49064       -2.14147
| 14> H          1.91240       -0.67831       -2.02991
| 15> H          3.50450       -1.13364       -1.47227
| 16> H          2.08509       -1.75655       -0.66585
| 17> *
| 18>
| 19> %MaxCore 64000
| 20>
| 21> %pal nprocs 4
| 22> end
| 23>
| 24> %scf
| 25>   MaxIter 150
| 26> end
| 27>
| 28>
| 29>                          ****END OF INPUT****

CARTESIAN COORDINATES (ANGSTROEM)
---------------------------------
  C      2.486450   -2.677120   -2.563450
  C      3.037640   -2.366720   -3.923510
  N      2.280360   -2.454410   -4.967690
  N      4.321740   -2.017930   -4.016640
  H      4.879940   -1.911670   -3.173820
  H      4.710150   -1.670880   -4.883560
  H      1.270420   -2.412650   -4.866140
  H      2.581830   -2.055280   -5.846880
  C      2.497990   -1.469460   -1.610300
  H      1.472590   -3.051530   -2.694370
  H      3.083200   -3.490640   -2.141470
  H      1.912400   -0.678310   -2.029910
  H      3.504500   -1.133640   -1.472270
  H      2.085090   -1.756550   -0.665850

 Total Charge           Charge          ....    1
 Multiplicity           Mult            ....    1
 Number of Electrons    NEL             ....   40
 Basis Dimension        Dim             ....  115

ORBITAL ENERGIES
----------------

  NO   OCC          E(Eh)            E(eV)
   0   2.0000     -14.654339      -398.7648
   1   2.0000     -14.648568      -398.6078
   2   2.0000     -10.585513      -288.0464
   3   2.0000     -10.456432      -284.5340
   4   2.0000     -10.417062      -283.4627
   5   2.0000      -1.283471       -34.9250
   6   2.0000      -1.183469       -32.2038
   7   2.0000      -1.045339       -28.4451
   8   2.0000      -0.938029       -25.5251
   9   2.0000      -0.888591       -24.1798
  10   2.0000      -0.847827       -23.0705
  11   2.0000      -0.820390       -22.3239
  12   2.0000      -0.771040       -20.9811
  13   2.0000      -0.723516       -19.6879
  14   2.0000      -0.692274       -18.8377
  15   2.0000      -0.677874       -18.4459
  16   2.0000      -0.614491       -16.7212
  17   2.0000      -0.603934       -16.4339
  18   2.0000      -0.593439       -16.1483
  19   2.0000      -0.559194       -15.2164
  20   0.0000      -0.158733        -4.3193
  21   0.0000      -0.102314        -2.7841
  22   0.0000      -0.058765        -1.5991
  23   0.0000      -0.057115        -1.5542
  24   0.0000      -0.023981        -0.6526

MULLIKEN ATOMIC CHARGES
-----------------------
   0 C :    0.002903
   1 C :   -0.091793
   2 N :    0.057270
   3 N :    0.006409
   4 H :    0.182731
   5 H :    0.173068
   6 H :    0.187356
   7 H :    0.167971
   8 C :    0.020661
   9 H :    0.048378
  10 H :    0.092540
  11 H :    0.043741
  12 H :    0.031586
  13 H :    0.077179
Sum of atomic charges:    1.0000000

LOEWDIN ATOMIC CHARGES
----------------------
   0 C :   -0.031707
   1 C :    0.156660
   2 N :    0.106856
   3 N :    0.083991
   4 H :    0.120347
   5 H :    0.111326
   6 H :    0.125763
   7 H :    0.113208
   8 C :   -0.023094
   9 H :    0.050153
  10 H :    0.067696
  11 H :    0.036844
  12 H :    0.028158
  13 H :    0.053799

  Mayer bond orders larger than 0.100000
B(  0-C ,  1-C ) :   1.0235 B(  0-C ,  8-C ) :   1.0737 B(  0-C ,  9-H ) :   0.9269
B(  0-C , 10-H ) :   0.9213 B(  1-C ,  2-N ) :   1.5361 B(  1-C ,  3-N ) :   1.4985
B(  2-N ,  6-H ) :   0.9188 B(  2-N ,  7-H ) :   0.9317 B(  3-N ,  4-H ) :   0.9242
B(  3-N ,  5-H ) :   0.9310 B(  8-C , 11-H ) :   0.9715 B(  8-C , 12-H ) :   0.9729
B(  8-C , 13-H ) :   0.9629

FINAL SINGLE POINT ENERGY      -228.736139606317

DIPOLE MOMENT
-------------
                                X             Y             Z
Electronic contribution:      1.07252      -1.05649      -3.96975
Nuclear contribution   :     -0.84604       1.34287       2.92710
                        -----------------------------------------
Total Dipole Moment    :      0.22648       0.28638      -1.04265
                        -----------------------------------------
Magnitude (a.u.)       :      1.10473
Magnitude (Debye)      :      2.80799

Rotational constants in cm-1:     0.265816     0.126189     0.097583
Rotational constants in MHz :  7968.948902  3783.040103  2925.457702

                             ****ORCA TERMINATED NORMALLY****
TOTAL RUN TIME: 0 days 0 hours 0 minutes 24 seconds 342 msec
