                         Program Version 5.0.0 -  RELEASE  -
|  1> !CAM-B3LYP RIJCOSX def2-TZVP def2/J TightSCF xyzfile
|  2>
|  3> *xyzfile 0 1 B.xyz
|  4>
|  5> %MaxCore 64000
|  6>
|  7> %pal nprocs 18
|  8> end
|  9>
| 10> %scf
| 11>   MaxIter 150
| 12> end
| 13>
| 14>
| 15>                          ****END OF INPUT****

CARTESIAN COORDINATES (ANGSTROEM)
---------------------------------
  C      2.486452   -2.677121   -2.563447
  C     -0.870963    0.248043   -2.662804
  C     -0.477492    0.608191   -4.101052
  H      0.206773    1.458299   -4.118748
  H     -1.368442    0.929419   -4.647855
  C      0.184673   -0.506640   -4.916760
  C      3.037640   -2.366715   -3.923509
  N      2.280360   -2.454408   -4.967692
  N      4.321736   -2.017932   -4.016641
  H      4.879940   -1.911668   -3.173823
  H      4.710148   -1.670882   -4.883561
  H      1.270423   -2.412650   -4.866143
  H      2.581829   -2.055282   -5.846878
  O     -0.158685   -1.701088   -4.657981
  O      1.055938   -0.174410   -5.740373
  C      2.497991   -1.469464   -1.610303
  C      1.582841   -0.321986   -2.042619
  H      2.193083   -1.833912   -0.625420
  H      3.523356   -1.103982   -1.490392
  C      0.100160   -0.673551   -1.915815
  H      1.822311   -0.040361   -3.072834
  H      1.813180    0.557019   -1.433266
  H     -0.063284   -1.679120   -2.301112
  H     -0.168820   -0.691680   -0.853831
  H     -1.001048    1.181040   -2.104071
  H     -1.844645   -0.246592   -2.663281
  H      1.472592   -3.051527   -2.694366
  H      3.083201   -3.490638   -2.141472

 Total Charge           Charge          ....    0
 Multiplicity           Mult            ....    1
 Number of Electrons    NEL             ....   94
 Basis Dimension        Dim             ....  468

ORBITAL ENERGIES
----------------

  NO   OCC          E(Eh)            E(eV)
   0   2.0000     -19.106271      -519.9081
   1   2.0000     -19.099057      -519.7118
   2   2.0000     -14.471751      -393.7964
   3   2.0000     -14.434671      -392.7874
   4   2.0000     -10.396580      -282.9053
   5   2.0000     -10.294168      -280.1186
   6   2.0000     -10.288770      -279.9717
   7   2.0000     -10.270197      -279.4663
   8   2.0000     -10.239277      -278.6249
   9   2.0000     -10.220682      -278.1189
  10   2.0000     -10.216073      -277.9935
  11   2.0000     -10.204027      -277.6657
  12   2.0000      -1.117253       -30.4020
  13   2.0000      -1.079242       -29.3677
  14   2.0000      -1.016265       -27.6540
  15   2.0000      -0.982547       -26.7365
  16   2.0000      -0.915523       -24.9127
  17   2.0000      -0.860556       -23.4169
  18   2.0000      -0.814821       -22.1724
  19   2.0000      -0.757795       -20.6206
  20   2.0000      -0.737361       -20.0646
  21   2.0000      -0.693174       -18.8622
  22   2.0000      -0.680423       -18.5152
  23   2.0000      -0.653474       -17.7819
  24   2.0000      -0.631603       -17.1868
  25   2.0000      -0.595411       -16.2020
  26   2.0000      -0.571847       -15.5607
  27   2.0000      -0.550845       -14.9892
  28   2.0000      -0.528940       -14.3932
  29   2.0000      -0.522712       -14.2237
  30   2.0000      -0.515567       -14.0293
  31   2.0000      -0.492084       -13.3903
  32   2.0000      -0.480500       -13.0751
  33   2.0000      -0.476556       -12.9678
  34   2.0000      -0.459388       -12.5006
  35   2.0000      -0.447408       -12.1746
  36   2.0000      -0.435556       -11.8521
  37   2.0000      -0.423017       -11.5109
  38   2.0000      -0.417057       -11.3487
  39   2.0000      -0.400231       -10.8908
  40   2.0000      -0.386789       -10.5251
  41   2.0000      -0.378144       -10.2898
  42   2.0000      -0.368924       -10.0389
  43   2.0000      -0.359580        -9.7847
  44   2.0000      -0.287911        -7.8344
  45   2.0000      -0.276527        -7.5247
  46   2.0000      -0.265743        -7.2312
  47   0.0000       0.005254         0.1430
  48   0.0000       0.022596         0.6149
  49   0.0000       0.063734         1.7343
  50   0.0000       0.084499         2.2993
  51   0.0000       0.091554         2.4913

MULLIKEN ATOMIC CHARGES
-----------------------
   0 C :   -0.275376
   1 C :   -0.157773
   2 C :   -0.229689
   3 H :    0.105967
   4 H :    0.106499
   5 C :    0.242407
   6 C :    0.269058
   7 N :   -0.254326
   8 N :   -0.388649
   9 H :    0.261759
  10 H :    0.259025
  11 H :    0.285726
  12 H :    0.246934
  13 O :   -0.537510
  14 O :   -0.483386
  15 C :   -0.200506
  16 C :   -0.245541
  17 H :    0.120291
  18 H :    0.101353
  19 C :   -0.196079
  20 H :    0.146024
  21 H :    0.102072
  22 H :    0.123050
  23 H :    0.091774
  24 H :    0.089106
  25 H :    0.094000
  26 H :    0.171251
  27 H :    0.152540
Sum of atomic charges:   -0.0000000

LOEWDIN ATOMIC CHARGES
----------------------
   0 C :   -0.205732
   1 C :   -0.263925
   2 C :   -0.250284
   3 H :    0.137738
   4 H :    0.144412
   5 C :   -0.653198
   6 C :   -0.311024
   7 N :    0.148140
   8 N :    0.052135
   9 H :    0.188948
  10 H :    0.184657
  11 H :    0.162638
  12 H :    0.186298
  13 O :   -0.086030
  14 O :   -0.063244
  15 C :   -0.254903
  16 C :   -0.257613
  17 H :    0.144792
  18 H :    0.128552
  19 C :   -0.271302
  20 H :    0.148674
  21 H :    0.135868
  22 H :    0.139012
  23 H :    0.129685
  24 H :    0.130136
  25 H :    0.138435
  26 H :    0.162040
  27 H :    0.155093

  Mayer bond orders larger than 0.100000
B(  0-C ,  6-C ) :   0.9478 B(  0-C , 15-C ) :   0.9292 B(  0-C , 26-H ) :   0.9801
B(  0-C , 27-H ) :   0.9660 B(  1-C ,  2-C ) :   0.9307 B(  1-C , 19-C ) :   0.9650
B(  1-C , 24-H ) :   0.9778 B(  1-C , 25-H ) :   0.9720 B(  2-C ,  3-H ) :   0.9768
B(  2-C ,  4-H ) :   0.9599 B(  2-C ,  5-C ) :   0.9457 B(  5-C , 13-O ) :   1.6335
B(  5-C , 14-O ) :   1.8571 B(  6-C ,  7-N ) :   1.6165 B(  6-C ,  8-N ) :   1.2947
B(  7-N , 11-H ) :   0.7410 B(  7-N , 12-H ) :   0.8978 B(  8-N ,  9-H ) :   0.9075
B(  8-N , 10-H ) :   0.9080 B( 11-H , 13-O ) :   0.2442 B( 15-C , 16-C ) :   0.9287
B( 15-C , 17-H ) :   0.9702 B( 15-C , 18-H ) :   0.9873 B( 16-C , 19-C ) :   0.9117
B( 16-C , 20-H ) :   0.9825 B( 16-C , 21-H ) :   0.9710 B( 19-C , 22-H ) :   0.9811
B( 19-C , 23-H ) :   0.9660

FINAL SINGLE POINT ENERGY      -574.402506004279

DIPOLE MOMENT
-------------
                                X             Y             Z
Electronic contribution:      1.75392      -2.92205      -8.81360
Nuclear contribution   :      1.39386       1.90489      10.36520
                        -----------------------------------------
Total Dipole Moment    :      3.14778      -1.01716       1.55160
                        -----------------------------------------
Magnitude (a.u.)       :      3.65385
Magnitude (Debye)      :      9.28734

Rotational constants in cm-1:     0.041165     0.025922     0.019001
Rotational constants in MHz :  1234.086888   777.109255   569.639629

                             ****ORCA TERMINATED NORMALLY****
TOTAL RUN TIME: 0 days 0 hours 1 minutes 30 seconds 967 msec
