                         Program Version 5.0.0 -  RELEASE  -
|  1> !CAM-B3LYP RIJCOSX def2-SVP def2/J TightSCF
|  2> *xyz 0 1
|  3> C         -0.87096        0.24804       -2.66280
|  4> C         -0.47749        0.60819       -4.10105
|  5> H          0.20677        1.45830       -4.11875
|  6> H         -1.36844        0.92942       -4.64785
|  7> C          0.18467       -0.50664       -4.91676
|  8> F         -0.15869       -1.70109       -4.65798
|  9> O          1.05594       -0.17441       -5.74037
| 10> H         -1.54056       -0.58646       -2.67455
| 11> H         -1.35339        1.08600       -2.20455
| 12> H          0.00660       -0.00662       -2.10609
| 13> *
| 14>
| 15> %MaxCore 64000
| 16>
| 17> %pal nprocs 4
| 18> end
| 19>
| 20> %scf
| 21>   MaxIter 150
| 22> end
| 23>
| 24>
| 25>                          ****END OF INPUT****

CARTESIAN COORDINATES (ANGSTROEM)
---------------------------------
  C     -0.870960    0.248040   -2.662800
  C     -0.477490    0.608190   -4.101050
  H      0.206770    1.458300   -4.118750
  H     -1.368440    0.929420   -4.647850
  C      0.184670   -0.506640   -4.916760
  F     -0.158690   -1.701090   -4.657980
  O      1.055940   -0.174410   -5.740370
  H     -1.540560   -0.586460   -2.674550
  H     -1.353390    1.086000   -2.204550
  H      0.006600   -0.006620   -2.106090

 Total Charge           Charge          ....    0
 Multiplicity           Mult            ....    1
 Number of Electrons    NEL             ....   40
 Basis Dimension        Dim             ....   95

ORBITAL ENERGIES
----------------

  NO   OCC          E(Eh)            E(eV)
   0   2.0000     -24.823787      -675.4896
   1   2.0000     -19.209825      -522.7259
   2   2.0000     -10.432094      -283.8717
   3   2.0000     -10.286980      -279.9230
   4   2.0000     -10.266097      -279.3547
   5   2.0000      -1.367508       -37.2118
   6   2.0000      -1.102866       -30.0105
   7   2.0000      -0.875322       -23.8187
   8   2.0000      -0.752568       -20.4784
   9   2.0000      -0.708063       -19.2674
  10   2.0000      -0.614615       -16.7245
  11   2.0000      -0.606838       -16.5129
  12   2.0000      -0.558482       -15.1971
  13   2.0000      -0.533261       -14.5108
  14   2.0000      -0.498475       -13.5642
  15   2.0000      -0.466347       -12.6899
  16   2.0000      -0.450767       -12.2660
  17   2.0000      -0.441872       -12.0240
  18   2.0000      -0.408881       -11.1262
  19   2.0000      -0.352830        -9.6010
  20   0.0000       0.034130         0.9287
  21   0.0000       0.094080         2.5600
  22   0.0000       0.144609         3.9350
  23   0.0000       0.157024         4.2729
  24   0.0000       0.171117         4.6563

MULLIKEN ATOMIC CHARGES
-----------------------
   0 C :    0.009380
   1 C :   -0.078359
   2 H :    0.049136
   3 H :    0.050099
   4 C :    0.215609
   5 F :   -0.086609
   6 O :   -0.228539
   7 H :    0.023485
   8 H :    0.021115
   9 H :    0.024684
Sum of atomic charges:   -0.0000000

LOEWDIN ATOMIC CHARGES
----------------------
   0 C :   -0.050382
   1 C :   -0.070938
   2 H :    0.045899
   3 H :    0.047261
   4 C :    0.104138
   5 F :    0.025954
   6 O :   -0.182005
   7 H :    0.024291
   8 H :    0.029701
   9 H :    0.026082

  Mayer bond orders larger than 0.100000
B(  0-C ,  1-C ) :   1.0690 B(  0-C ,  7-H ) :   0.9727 B(  0-C ,  8-H ) :   0.9654
B(  0-C ,  9-H ) :   0.9801 B(  1-C ,  2-H ) :   0.9506 B(  1-C ,  3-H ) :   0.9320
B(  1-C ,  4-C ) :   0.9974 B(  4-C ,  5-F ) :   1.1908 B(  4-C ,  6-O ) :   2.1240

FINAL SINGLE POINT ENERGY      -292.058460578462

DIPOLE MOMENT
-------------
                                X             Y             Z
Electronic contribution:      2.65082      -5.39002      -5.36443
Nuclear contribution   :     -3.42837       5.66737       6.17046
                        -----------------------------------------
Total Dipole Moment    :     -0.77755       0.27735       0.80602
                        -----------------------------------------
Magnitude (a.u.)       :      1.15377
Magnitude (Debye)      :      2.93264

Rotational constants in cm-1:     0.304660     0.130969     0.097716
Rotational constants in MHz :  9133.464515  3926.366384  2929.457090

                             ****ORCA TERMINATED NORMALLY****
TOTAL RUN TIME: 0 days 0 hours 0 minutes 18 seconds 958 msec
