                         Program Version 5.0.0 -  RELEASE  -
|  1> !CAM-B3LYP RIJCOSX def2-SVP def2/J TightSCF
|  2> *xyz 0 1
|  3> C          2.48645       -2.67712       -2.56345
|  4> C          3.03764       -2.36672       -3.92351
|  5> C          2.28036       -2.45441       -4.96769
|  6> N          4.32174       -2.01793       -4.01664
|  7> H          4.87994       -1.91167       -3.17382
|  8> H          4.71015       -1.67088       -4.88356
|  9> H          1.27042       -2.41265       -4.86614
| 10> H          2.58183       -2.05528       -5.84688
| 11> C          2.49799       -1.46946       -1.61030
| 12> H          1.47259       -3.05153       -2.69437
| 13> H          3.08320       -3.49064       -2.14147
| 14> H          1.91240       -0.67831       -2.02991
| 15> H          3.50450       -1.13364       -1.47227
| 16> H          2.08509       -1.75655       -0.66585
| 17> *
| 18>
| 19> %MaxCore 64000
| 20>
| 21> %pal nprocs 4
| 22> end
| 23>
| 24> %scf
| 25>   MaxIter 150
| 26> end
| 27>
| 28>
| 29>                          ****END OF INPUT****

CARTESIAN COORDINATES (ANGSTROEM)
---------------------------------
  C      2.486450   -2.677120   -2.563450
  C      3.037640   -2.366720   -3.923510
  C      2.280360   -2.454410   -4.967690
  N      4.321740   -2.017930   -4.016640
  H      4.879940   -1.911670   -3.173820
  H      4.710150   -1.670880   -4.883560
  H      1.270420   -2.412650   -4.866140
  H      2.581830   -2.055280   -5.846880
  C      2.497990   -1.469460   -1.610300
  H      1.472590   -3.051530   -2.694370
  H      3.083200   -3.490640   -2.141470
  H      1.912400   -0.678310   -2.029910
  H      3.504500   -1.133640   -1.472270
  H      2.085090   -1.756550   -0.665850

 Total Charge           Charge          ....    0
 Multiplicity           Mult            ....    1
 Number of Electrons    NEL             ....   40
 Basis Dimension        Dim             ....  115

ORBITAL ENERGIES
----------------

  NO   OCC          E(Eh)            E(eV)
   0   2.0000     -14.396810      -391.7571
   1   2.0000     -10.273294      -279.5506
   2   2.0000     -10.254070      -279.0274
   3   2.0000     -10.247410      -278.8462
   4   2.0000     -10.184077      -277.1228
   5   2.0000      -0.991769       -26.9874
   6   2.0000      -0.850615       -23.1464
   7   2.0000      -0.793933       -21.6040
   8   2.0000      -0.704679       -19.1753
   9   2.0000      -0.632354       -17.2072
  10   2.0000      -0.588986       -16.0271
  11   2.0000      -0.543238       -14.7822
  12   2.0000      -0.502542       -13.6749
  13   2.0000      -0.496797       -13.5185
  14   2.0000      -0.450802       -12.2670
  15   2.0000      -0.446289       -12.1441
  16   2.0000      -0.417102       -11.3499
  17   2.0000      -0.394813       -10.7434
  18   2.0000      -0.386252       -10.5105
  19   2.0000      -0.247701        -6.7403
  20   0.0000       0.088946         2.4203
  21   0.0000       0.107406         2.9227
  22   0.0000       0.141539         3.8515
  23   0.0000       0.144882         3.9424
  24   0.0000       0.162183         4.4132

MULLIKEN ATOMIC CHARGES
-----------------------
   0 C :    0.056318
   1 C :   -0.102136
   2 C :   -0.042472
   3 N :   -0.076680
   4 H :    0.103073
   5 H :    0.111999
   6 H :   -0.041081
   7 H :   -0.062428
   8 C :    0.032779
   9 H :   -0.000676
  10 H :    0.005968
  11 H :    0.011680
  12 H :   -0.007785
  13 H :    0.011441
Sum of atomic charges:    0.0000000

LOEWDIN ATOMIC CHARGES
----------------------
   0 C :   -0.026955
   1 C :    0.016525
   2 C :   -0.177717
   3 N :   -0.018210
   4 H :    0.068414
   5 H :    0.075436
   6 H :    0.001413
   7 H :   -0.007864
   8 C :   -0.047205
   9 H :    0.031775
  10 H :    0.024539
  11 H :    0.024050
  12 H :    0.012801
  13 H :    0.022998

  Mayer bond orders larger than 0.100000
B(  0-C ,  1-C ) :   1.0331 B(  0-C ,  8-C ) :   1.0871 B(  0-C ,  9-H ) :   0.9345
B(  0-C , 10-H ) :   0.9337 B(  1-C ,  2-C ) :   1.9037 B(  1-C ,  3-N ) :   1.2519
B(  2-C ,  6-H ) :   0.9346 B(  2-C ,  7-H ) :   0.9481 B(  3-N ,  4-H ) :   0.9553
B(  3-N ,  5-H ) :   0.9513 B(  8-C , 11-H ) :   0.9707 B(  8-C , 12-H ) :   0.9715
B(  8-C , 13-H ) :   0.9688

FINAL SINGLE POINT ENERGY      -212.273833603023

DIPOLE MOMENT
-------------
                                X             Y             Z
Electronic contribution:      1.60470      -0.87347      -2.11833
Nuclear contribution   :     -0.99743       1.27863       2.57190
                        -----------------------------------------
Total Dipole Moment    :      0.60726       0.40515       0.45357
                        -----------------------------------------
Magnitude (a.u.)       :      0.85945
Magnitude (Debye)      :      2.18454

Rotational constants in cm-1:     0.274050     0.130114     0.100964
Rotational constants in MHz :  8215.815505  3900.722919  3026.834930

                             ****ORCA TERMINATED NORMALLY****
TOTAL RUN TIME: 0 days 0 hours 0 minutes 23 seconds 511 msec
