                         Program Version 5.0.0 -  RELEASE  -
|  1> !CAM-B3LYP RIJCOSX def2-SVP def2/J TightSCF
|  2> *xyz 0 1
|  3> C         -0.87096        0.24804       -2.66280
|  4> C         -0.47749        0.60819       -4.10105
|  5> H          0.20677        1.45830       -4.11875
|  6> H         -1.36844        0.92942       -4.64785
|  7> C          0.18467       -0.50664       -4.91676
|  8> O         -0.15869       -1.70109       -4.65798
|  9> F          1.05594       -0.17441       -5.74037
| 10> H         -1.54056       -0.58646       -2.67455
| 11> H         -1.35339        1.08600       -2.20455
| 12> H          0.00660       -0.00662       -2.10609
| 13> *
| 14>
| 15> %MaxCore 64000
| 16>
| 17> %pal nprocs 4
| 18> end
| 19>
| 20> %scf
| 21>   MaxIter 150
| 22> end
| 23>
| 24>
| 25>                          ****END OF INPUT****

CARTESIAN COORDINATES (ANGSTROEM)
---------------------------------
  C     -0.870960    0.248040   -2.662800
  C     -0.477490    0.608190   -4.101050
  H      0.206770    1.458300   -4.118750
  H     -1.368440    0.929420   -4.647850
  C      0.184670   -0.506640   -4.916760
  O     -0.158690   -1.701090   -4.657980
  F      1.055940   -0.174410   -5.740370
  H     -1.540560   -0.586460   -2.674550
  H     -1.353390    1.086000   -2.204550
  H      0.006600   -0.006620   -2.106090

 Total Charge           Charge          ....    0
 Multiplicity           Mult            ....    1
 Number of Electrons    NEL             ....   40
 Basis Dimension        Dim             ....   95

ORBITAL ENERGIES
----------------

  NO   OCC          E(Eh)            E(eV)
   0   2.0000     -24.832856      -675.7364
   1   2.0000     -19.206748      -522.6422
   2   2.0000     -10.434490      -283.9369
   3   2.0000     -10.288371      -279.9608
   4   2.0000     -10.260069      -279.1907
   5   2.0000      -1.386439       -37.7269
   6   2.0000      -1.088021       -29.6066
   7   2.0000      -0.871237       -23.7076
   8   2.0000      -0.762135       -20.7387
   9   2.0000      -0.707839       -19.2613
  10   2.0000      -0.622482       -16.9386
  11   2.0000      -0.607235       -16.5237
  12   2.0000      -0.570699       -15.5295
  13   2.0000      -0.532870       -14.5001
  14   2.0000      -0.495490       -13.4830
  15   2.0000      -0.458727       -12.4826
  16   2.0000      -0.438590       -11.9346
  17   2.0000      -0.436884       -11.8882
  18   2.0000      -0.403791       -10.9877
  19   2.0000      -0.350569        -9.5395
  20   0.0000       0.031126         0.8470
  21   0.0000       0.099436         2.7058
  22   0.0000       0.146287         3.9807
  23   0.0000       0.155935         4.2432
  24   0.0000       0.172715         4.6998

MULLIKEN ATOMIC CHARGES
-----------------------
   0 C :    0.035832
   1 C :   -0.081021
   2 H :    0.022765
   3 H :    0.051240
   4 C :    0.212707
   5 O :   -0.260333
   6 F :   -0.052665
   7 H :    0.037281
   8 H :    0.013317
   9 H :    0.020876
Sum of atomic charges:   -0.0000000

LOEWDIN ATOMIC CHARGES
----------------------
   0 C :   -0.037607
   1 C :   -0.073763
   2 H :    0.029878
   3 H :    0.049100
   4 C :    0.100503
   5 O :   -0.211157
   6 F :    0.058400
   7 H :    0.031403
   8 H :    0.026408
   9 H :    0.026836

  Mayer bond orders larger than 0.100000
B(  0-C ,  1-C ) :   1.0959 B(  0-C ,  7-H ) :   0.9683 B(  0-C ,  8-H ) :   0.9649
B(  0-C ,  9-H ) :   0.9798 B(  1-C ,  2-H ) :   0.9408 B(  1-C ,  3-H ) :   0.9260
B(  1-C ,  4-C ) :   0.9950 B(  4-C ,  5-O ) :   2.0840 B(  4-C ,  6-F ) :   1.2289

FINAL SINGLE POINT ENERGY      -292.051700142980

DIPOLE MOMENT
-------------
                                X             Y             Z
Electronic contribution:      4.65795      -2.89781      -7.16946
Nuclear contribution   :     -4.75269       4.00281       7.35060
                        -----------------------------------------
Total Dipole Moment    :     -0.09474       1.10500       0.18114
                        -----------------------------------------
Magnitude (a.u.)       :      1.12375
Magnitude (Debye)      :      2.85635

Rotational constants in cm-1:     0.323805     0.124913     0.096140
Rotational constants in MHz :  9707.430323  3744.789513  2882.191141

                             ****ORCA TERMINATED NORMALLY****
TOTAL RUN TIME: 0 days 0 hours 0 minutes 16 seconds 194 msec
