                         Program Version 5.0.0 -  RELEASE  -
|  1> !CAM-B3LYP RIJCOSX def2-SVP def2/J TightSCF
|  2> *xyz 0 1
|  3> C          2.48645       -2.67712       -2.56345
|  4> C          3.03764       -2.36672       -3.92351
|  5> N          2.28036       -2.45441       -4.96769
|  6> C          4.32174       -2.01793       -4.01664
|  7> H          4.87994       -1.91167       -3.17382
|  8> H          4.71015       -1.67088       -4.88356
|  9> H          1.27042       -2.41265       -4.86614
| 10> H          2.58183       -2.05528       -5.84688
| 11> C          2.49799       -1.46946       -1.61030
| 12> H          1.47259       -3.05153       -2.69437
| 13> H          3.08320       -3.49064       -2.14147
| 14> H          1.91240       -0.67831       -2.02991
| 15> H          3.50450       -1.13364       -1.47227
| 16> H          2.08509       -1.75655       -0.66585
| 17> *
| 18>
| 19> %MaxCore 64000
| 20>
| 21> %pal nprocs 4
| 22> end
| 23>
| 24> %scf
| 25>   MaxIter 150
| 26> end
| 27>
| 28>
| 29>                          ****END OF INPUT****

CARTESIAN COORDINATES (ANGSTROEM)
---------------------------------
  C      2.486450   -2.677120   -2.563450
  C      3.037640   -2.366720   -3.923510
  N      2.280360   -2.454410   -4.967690
  C      4.321740   -2.017930   -4.016640
  H      4.879940   -1.911670   -3.173820
  H      4.710150   -1.670880   -4.883560
  H      1.270420   -2.412650   -4.866140
  H      2.581830   -2.055280   -5.846880
  C      2.497990   -1.469460   -1.610300
  H      1.472590   -3.051530   -2.694370
  H      3.083200   -3.490640   -2.141470
  H      1.912400   -0.678310   -2.029910
  H      3.504500   -1.133640   -1.472270
  H      2.085090   -1.756550   -0.665850

 Total Charge           Charge          ....    0
 Multiplicity           Mult            ....    1
 Number of Electrons    NEL             ....   40
 Basis Dimension        Dim             ....  115

ORBITAL ENERGIES
----------------

  NO   OCC          E(Eh)            E(eV)
   0   2.0000     -14.400806      -391.8659
   1   2.0000     -10.273804      -279.5644
   2   2.0000     -10.254817      -279.0477
   3   2.0000     -10.242976      -278.7256
   4   2.0000     -10.184172      -277.1254
   5   2.0000      -1.007194       -27.4071
   6   2.0000      -0.852311       -23.1926
   7   2.0000      -0.777368       -21.1533
   8   2.0000      -0.709964       -19.3191
   9   2.0000      -0.636085       -17.3088
  10   2.0000      -0.585949       -15.9445
  11   2.0000      -0.547220       -14.8906
  12   2.0000      -0.511629       -13.9221
  13   2.0000      -0.472958       -12.8699
  14   2.0000      -0.457799       -12.4574
  15   2.0000      -0.440717       -11.9925
  16   2.0000      -0.414860       -11.2889
  17   2.0000      -0.398170       -10.8348
  18   2.0000      -0.395129       -10.7520
  19   2.0000      -0.237701        -6.4682
  20   0.0000       0.092634         2.5207
  21   0.0000       0.102037         2.7766
  22   0.0000       0.139840         3.8053
  23   0.0000       0.143911         3.9160
  24   0.0000       0.165746         4.5102

MULLIKEN ATOMIC CHARGES
-----------------------
   0 C :    0.054199
   1 C :   -0.162629
   2 N :   -0.023829
   3 C :   -0.037998
   4 H :   -0.044732
   5 H :   -0.060089
   6 H :    0.102833
   7 H :    0.106402
   8 C :    0.039872
   9 H :   -0.024273
  10 H :    0.026472
  11 H :    0.003158
  12 H :    0.015976
  13 H :    0.004638
Sum of atomic charges:   -0.0000000

LOEWDIN ATOMIC CHARGES
----------------------
   0 C :   -0.027953
   1 C :    0.001378
   2 N :    0.005469
   3 C :   -0.183888
   4 H :   -0.003644
   5 H :   -0.010339
   6 H :    0.069408
   7 H :    0.076214
   8 C :   -0.040249
   9 H :    0.013839
  10 H :    0.037397
  11 H :    0.019841
  12 H :    0.023249
  13 H :    0.019275

  Mayer bond orders larger than 0.100000
B(  0-C ,  1-C ) :   1.0040 B(  0-C ,  8-C ) :   1.1002 B(  0-C ,  9-H ) :   0.9355
B(  0-C , 10-H ) :   0.9386 B(  1-C ,  2-N ) :   1.2838 B(  1-C ,  3-C ) :   1.8668
B(  2-N ,  6-H ) :   0.9500 B(  2-N ,  7-H ) :   0.9520 B(  3-C ,  4-H ) :   0.9471
B(  3-C ,  5-H ) :   0.9490 B(  8-C , 11-H ) :   0.9708 B(  8-C , 12-H ) :   0.9742
B(  8-C , 13-H ) :   0.9669

FINAL SINGLE POINT ENERGY      -212.274188552171

DIPOLE MOMENT
-------------
                                X             Y             Z
Electronic contribution:     -0.30808      -1.21053      -3.00901
Nuclear contribution   :     -0.52463       1.37972       2.79217
                        -----------------------------------------
Total Dipole Moment    :     -0.83271       0.16919      -0.21684
                        -----------------------------------------
Magnitude (a.u.)       :      0.87696
Magnitude (Debye)      :      2.22905

Rotational constants in cm-1:     0.281086     0.127387     0.100311
Rotational constants in MHz :  8426.743103  3818.969834  3007.238026

                             ****ORCA TERMINATED NORMALLY****
TOTAL RUN TIME: 0 days 0 hours 0 minutes 21 seconds 344 msec
