                         Program Version 5.0.0 -  RELEASE  -
|  1> !CAM-B3LYP RIJCOSX def2-TZVP def2/J TightSCF xyzfile
|  2>
|  3> *xyzfile 0 1 D3.xyz
|  4>
|  5> %MaxCore 64000
|  6>
|  7> %pal nprocs 18
|  8> end
|  9>
| 10> %scf
| 11>   MaxIter 150
| 12> end
| 13>
| 14>
| 15>                          ****END OF INPUT****

CARTESIAN COORDINATES (ANGSTROEM)
---------------------------------
  C      2.486452   -2.677121   -2.563447
  C     -0.870963    0.248043   -2.662804
  C     -0.477492    0.608191   -4.101052
  H      0.206773    1.458299   -4.118748
  H     -1.368442    0.929419   -4.647855
  C      0.184673   -0.506640   -4.916760
  C      3.037640   -2.366715   -3.923509
  C      2.280360   -2.454408   -4.967692
  N      4.321736   -2.017932   -4.016641
  H      4.879940   -1.911668   -3.173823
  H      4.710148   -1.670882   -4.883561
  H      1.270423   -2.412650   -4.866143
  H      2.581829   -2.055282   -5.846878
  O     -0.158685   -1.701088   -4.657981
  F      1.055938   -0.174410   -5.740373
  C      2.497991   -1.469464   -1.610303
  C      1.582841   -0.321986   -2.042619
  H      2.193083   -1.833912   -0.625420
  H      3.523356   -1.103982   -1.490392
  C      0.100160   -0.673551   -1.915815
  H      1.822311   -0.040361   -3.072834
  H      1.813180    0.557019   -1.433266
  H     -0.063284   -1.679120   -2.301112
  H     -0.168820   -0.691680   -0.853831
  H     -1.001048    1.181040   -2.104071
  H     -1.844645   -0.246592   -2.663281
  H      1.472592   -3.051527   -2.694366
  H      3.083201   -3.490638   -2.141472

 Total Charge           Charge          ....    0
 Multiplicity           Mult            ....    1
 Number of Electrons    NEL             ....   94
 Basis Dimension        Dim             ....  468

ORBITAL ENERGIES
----------------

  NO   OCC          E(Eh)            E(eV)
   0   2.0000     -24.831268      -675.6932
   1   2.0000     -19.201918      -522.5107
   2   2.0000     -14.372968      -391.1084
   3   2.0000     -10.430110      -283.8177
   4   2.0000     -10.275390      -279.6076
   5   2.0000     -10.253945      -279.0240
   6   2.0000     -10.245505      -278.7944
   7   2.0000     -10.238664      -278.6082
   8   2.0000     -10.238415      -278.6014
   9   2.0000     -10.235645      -278.5261
  10   2.0000     -10.230371      -278.3826
  11   2.0000     -10.140934      -275.9488
  12   2.0000      -1.411947       -38.4210
  13   2.0000      -1.116683       -30.3865
  14   2.0000      -0.993756       -27.0415
  15   2.0000      -0.905873       -24.6501
  16   2.0000      -0.872612       -23.7450
  17   2.0000      -0.823217       -22.4009
  18   2.0000      -0.799477       -21.7549
  19   2.0000      -0.758711       -20.6456
  20   2.0000      -0.731666       -19.9097
  21   2.0000      -0.690856       -18.7992
  22   2.0000      -0.652192       -17.7471
  23   2.0000      -0.638440       -17.3728
  24   2.0000      -0.624654       -16.9977
  25   2.0000      -0.604748       -16.4560
  26   2.0000      -0.592249       -16.1159
  27   2.0000      -0.578146       -15.7321
  28   2.0000      -0.549304       -14.9473
  29   2.0000      -0.540553       -14.7092
  30   2.0000      -0.523764       -14.2523
  31   2.0000      -0.508570       -13.8389
  32   2.0000      -0.501798       -13.6546
  33   2.0000      -0.471317       -12.8252
  34   2.0000      -0.465238       -12.6598
  35   2.0000      -0.462893       -12.5960
  36   2.0000      -0.444150       -12.0859
  37   2.0000      -0.432179       -11.7602
  38   2.0000      -0.423266       -11.5177
  39   2.0000      -0.419163       -11.4060
  40   2.0000      -0.400568       -10.9000
  41   2.0000      -0.392838       -10.6897
  42   2.0000      -0.380431       -10.3521
  43   2.0000      -0.374445       -10.1892
  44   2.0000      -0.373270       -10.1572
  45   2.0000      -0.332336        -9.0433
  46   2.0000      -0.238055        -6.4778
  47   0.0000       0.017471         0.4754
  48   0.0000       0.063822         1.7367
  49   0.0000       0.073007         1.9866
  50   0.0000       0.088180         2.3995
  51   0.0000       0.099856         2.7172

MULLIKEN ATOMIC CHARGES
-----------------------
   0 C :   -0.271861
   1 C :   -0.167461
   2 C :   -0.271984
   3 H :    0.138682
   4 H :    0.144588
   5 C :    0.377354
   6 C :    0.196304
   7 C :   -0.435763
   8 N :   -0.456340
   9 H :    0.216585
  10 H :    0.220381
  11 H :    0.161926
  12 H :    0.066232
  13 O :   -0.345106
  14 F :   -0.089109
  15 C :   -0.177066
  16 C :   -0.217649
  17 H :    0.101000
  18 H :    0.096533
  19 C :   -0.233187
  20 H :    0.120236
  21 H :    0.098911
  22 H :    0.138101
  23 H :    0.106001
  24 H :    0.110836
  25 H :    0.113554
  26 H :    0.140444
  27 H :    0.117859
Sum of atomic charges:   -0.0000000

LOEWDIN ATOMIC CHARGES
----------------------
   0 C :   -0.214306
   1 C :   -0.253912
   2 C :   -0.238406
   3 H :    0.145919
   4 H :    0.157257
   5 C :   -0.488534
   6 C :   -0.376660
   7 C :   -0.270098
   8 N :   -0.019704
   9 H :    0.163151
  10 H :    0.166476
  11 H :    0.099659
  12 H :    0.094018
  13 O :    0.068762
  14 F :    0.359077
  15 C :   -0.259722
  16 C :   -0.258836
  17 H :    0.137152
  18 H :    0.128977
  19 C :   -0.266554
  20 H :    0.140296
  21 H :    0.133251
  22 H :    0.142770
  23 H :    0.136003
  24 H :    0.139057
  25 H :    0.143065
  26 H :    0.150186
  27 H :    0.141655

  Mayer bond orders larger than 0.100000
B(  0-C ,  6-C ) :   0.9269 B(  0-C , 15-C ) :   0.9143 B(  0-C , 26-H ) :   1.0085
B(  0-C , 27-H ) :   0.9835 B(  1-C ,  2-C ) :   0.9423 B(  1-C , 19-C ) :   0.9532
B(  1-C , 24-H ) :   0.9773 B(  1-C , 25-H ) :   0.9737 B(  2-C ,  3-H ) :   0.9622
B(  2-C ,  4-H ) :   0.9488 B(  2-C ,  5-C ) :   0.9859 B(  5-C , 13-O ) :   1.9643
B(  5-C , 14-F ) :   1.1777 B(  6-C ,  7-C ) :   1.7356 B(  6-C ,  8-N ) :   1.0931
B(  7-C , 11-H ) :   0.9935 B(  7-C , 12-H ) :   1.0103 B(  8-N ,  9-H ) :   0.9346
B(  8-N , 10-H ) :   0.9264 B( 15-C , 16-C ) :   0.9501 B( 15-C , 17-H ) :   0.9781
B( 15-C , 18-H ) :   0.9813 B( 16-C , 19-C ) :   0.9270 B( 16-C , 20-H ) :   0.9754
B( 16-C , 21-H ) :   0.9737 B( 19-C , 22-H ) :   0.9836 B( 19-C , 23-H ) :   0.9714

FINAL SINGLE POINT ENERGY      -582.292152923443

DIPOLE MOMENT
-------------
                                X             Y             Z
Electronic contribution:     -1.74074       0.93076     -12.10322
Nuclear contribution   :      1.88979       0.56282      12.66056
                        -----------------------------------------
Total Dipole Moment    :      0.14904       1.49358       0.55734
                        -----------------------------------------
Magnitude (a.u.)       :      1.60113
Magnitude (Debye)      :      4.06975

Rotational constants in cm-1:     0.040271     0.025954     0.018866
Rotational constants in MHz :  1207.302496   778.083475   565.600538

                             ****ORCA TERMINATED NORMALLY****
TOTAL RUN TIME: 0 days 0 hours 1 minutes 17 seconds 453 msec
