                         Program Version 5.0.0 -  RELEASE  -
|  1> !wB97X-D3 RIJCOSX def2-SVPD def2/J TightSCF CPCM(Water)
|  2> *xyz -1 1
|  3> C          1.22302        2.46987       -3.75691
|  4> O          2.35381        1.71203       -3.93448
|  5> H          1.26998        3.33359       -4.38673
|  6> H          1.15671        2.77738       -2.73420
|  7> H          0.36099        1.88932       -4.01140
|  8> *
|  9>
| 10> %MaxCore 64000
| 11>
| 12> %pal nprocs 18
| 13> end
| 14>
| 15> %scf
| 16>   MaxIter 150
| 17> end
| 18>
| 19>
| 20>                          ****END OF INPUT****

CARTESIAN COORDINATES (ANGSTROEM)
---------------------------------
  C      1.223020    2.469870   -3.756910
  O      2.353810    1.712030   -3.934480
  H      1.269980    3.333590   -4.386730
  H      1.156710    2.777380   -2.734200
  H      0.360990    1.889320   -4.011400

 Total Charge           Charge          ....   -1
 Multiplicity           Mult            ....    1
 Number of Electrons    NEL             ....   18
 Basis Dimension        Dim             ....   67

ORBITAL ENERGIES
----------------

  NO   OCC          E(Eh)            E(eV)
   0   2.0000     -19.113258      -520.0982
   1   2.0000     -10.270180      -279.4658
   2   2.0000      -0.981354       -26.7040
   3   2.0000      -0.701119       -19.0784
   4   2.0000      -0.495444       -13.4817
   5   2.0000      -0.495381       -13.4800
   6   2.0000      -0.417970       -11.3735
   7   2.0000      -0.267018        -7.2659
   8   2.0000      -0.266987        -7.2651
   9   0.0000       0.109263         2.9732
  10   0.0000       0.153923         4.1885
  11   0.0000       0.165399         4.5007
  12   0.0000       0.165552         4.5049
  13   0.0000       0.207790         5.6542

MULLIKEN ATOMIC CHARGES
-----------------------
   0 C :    0.708754
   1 O :   -1.089532
   2 H :   -0.206674
   3 H :   -0.206522
   4 H :   -0.206027
Sum of atomic charges:   -1.0000000

LOEWDIN ATOMIC CHARGES
----------------------
   0 C :   -0.098279
   1 O :   -0.741697
   2 H :   -0.053313
   3 H :   -0.053409
   4 H :   -0.053302

  Mayer bond orders larger than 0.100000
B(  0-C ,  1-O ) :   1.2795 B(  0-C ,  2-H ) :   0.9180 B(  0-C ,  3-H ) :   0.9175
B(  0-C ,  4-H ) :   0.9177

Dispersion correction           -0.000091274
FINAL SINGLE POINT ENERGY      -115.103084519432

DIPOLE MOMENT
-------------
                                X             Y             Z
Electronic contribution:      1.05407      -0.70684      -0.16525
Nuclear contribution   :     -2.37854       1.59406       0.37350
                        -----------------------------------------
Total Dipole Moment    :     -1.32448       0.88722       0.20825
                        -----------------------------------------
Magnitude (a.u.)       :      1.60772
Magnitude (Debye)      :      4.08651

Rotational constants in cm-1:     5.477743     0.935515     0.935515
Rotational constants in MHz : 164218.600605 28046.042741 28046.034116

                             ****ORCA TERMINATED NORMALLY****
TOTAL RUN TIME: 0 days 0 hours 0 minutes 3 seconds 790 msec
