                         Program Version 5.0.0 -  RELEASE  -
|  1> !wB97X-D3 RIJCOSX def2-SVPD def2/J TightSCF CPCM(Water)
|  2> *xyz 1 1
|  3> C          1.63556       -1.67040       -5.29211
|  4> N          2.48451       -0.50741       -5.14039
|  5> C          3.45115       -0.14953       -5.95259
|  6> N          3.92267        1.08956       -5.85071
|  7> N          3.96616       -1.00618       -6.86788
|  8> H          3.52139       -1.90647       -6.99527
|  9> H          4.44482       -0.62347       -7.67035
| 10> H          2.25200        0.24080       -4.49879
| 11> H          3.46428        1.64078       -5.13639
| 12> H          4.83447        1.31375       -6.22465
| 13> H          2.06372       -2.33262       -6.01532
| 14> H          0.66479       -1.36293       -5.62068
| 15> H          1.55078       -2.17513       -4.35245
| 16> *
| 17>
| 18> %MaxCore 64000
| 19>
| 20> %pal nprocs 18
| 21> end
| 22>
| 23> %scf
| 24>   MaxIter 150
| 25> end
| 26>
| 27>
| 28>                          ****END OF INPUT****

CARTESIAN COORDINATES (ANGSTROEM)
---------------------------------
  C      1.635560   -1.670400   -5.292110
  N      2.484510   -0.507410   -5.140390
  C      3.451150   -0.149530   -5.952590
  N      3.922670    1.089560   -5.850710
  N      3.966160   -1.006180   -6.867880
  H      3.521390   -1.906470   -6.995270
  H      4.444820   -0.623470   -7.670350
  H      2.252000    0.240800   -4.498790
  H      3.464280    1.640780   -5.136390
  H      4.834470    1.313750   -6.224650
  H      2.063720   -2.332620   -6.015320
  H      0.664790   -1.362930   -5.620680
  H      1.550780   -2.175130   -4.352450

 Total Charge           Charge          ....    1
 Multiplicity           Mult            ....    1
 Number of Electrons    NEL             ....   40
 Basis Dimension        Dim             ....  164

ORBITAL ENERGIES
----------------

  NO   OCC          E(Eh)            E(eV)
   0   2.0000     -14.495847      -394.4521
   1   2.0000     -14.484171      -394.1343
   2   2.0000     -14.483178      -394.1073
   3   2.0000     -10.455137      -284.4987
   4   2.0000     -10.332863      -281.1715
   5   2.0000      -1.158175       -31.5155
   6   2.0000      -1.042188       -28.3594
   7   2.0000      -1.025981       -27.9184
   8   2.0000      -0.851808       -23.1789
   9   2.0000      -0.756190       -20.5770
  10   2.0000      -0.712398       -19.3853
  11   2.0000      -0.687110       -18.6972
  12   2.0000      -0.615571       -16.7505
  13   2.0000      -0.612281       -16.6610
  14   2.0000      -0.590719       -16.0743
  15   2.0000      -0.576792       -15.6953
  16   2.0000      -0.524813       -14.2809
  17   2.0000      -0.515434       -14.0257
  18   2.0000      -0.400559       -10.8998
  19   2.0000      -0.380148       -10.3444
  20   0.0000       0.081962         2.2303
  21   0.0000       0.085194         2.3183
  22   0.0000       0.115617         3.1461
  23   0.0000       0.130169         3.5421
  24   0.0000       0.159610         4.3432

MULLIKEN ATOMIC CHARGES
-----------------------
   0 C :    1.141512
   1 N :   -0.675219
   2 C :    1.139366
   3 N :   -0.108245
   4 N :   -0.059653
   5 H :   -0.005259
   6 H :   -0.016551
   7 H :   -0.154298
   8 H :    0.102930
   9 H :   -0.015900
  10 H :   -0.218893
  11 H :   -0.065181
  12 H :   -0.064608
Sum of atomic charges:    1.0000000

LOEWDIN ATOMIC CHARGES
----------------------
   0 C :    0.267017
   1 N :    0.013725
   2 C :   -0.031451
   3 N :    0.262172
   4 N :    0.270550
   5 H :    0.008511
   6 H :    0.042497
   7 H :    0.068413
   8 H :    0.041626
   9 H :    0.050347
  10 H :   -0.012526
  11 H :    0.010017
  12 H :    0.009102

  Mayer bond orders larger than 0.100000
B(  0-C ,  1-N ) :   0.8808 B(  0-C ,  7-H ) :  -0.1633 B(  0-C , 10-H ) :   0.8530
B(  0-C , 11-H ) :   0.8027 B(  0-C , 12-H ) :   0.7698 B(  1-N ,  2-C ) :   1.0421
B(  1-N ,  3-N ) :   0.2616 B(  1-N ,  4-N ) :   0.1454 B(  1-N ,  7-H ) :   1.3595
B(  1-N , 10-H ) :   0.2161 B(  1-N , 11-H ) :   0.1621 B(  1-N , 12-H ) :   0.1984
B(  2-C ,  3-N ) :   0.9966 B(  2-C ,  4-N ) :   1.0271 B(  2-C ,  7-H ) :  -0.2081
B(  3-N ,  4-N ) :   0.1431 B(  3-N ,  8-H ) :   1.0262 B(  3-N ,  9-H ) :   1.1869
B(  4-N ,  5-H ) :   1.0148 B(  4-N ,  6-H ) :   1.1767 B(  5-H ,  6-H ) :  -0.1473
B(  8-H ,  9-H ) :  -0.1324

Dispersion correction           -0.002352595
FINAL SINGLE POINT ENERGY      -244.949624456452

DIPOLE MOMENT
-------------
                                X             Y             Z
Electronic contribution:      2.02905       2.07384      -0.29469
Nuclear contribution   :     -1.83770      -1.53167       0.12165
                        -----------------------------------------
Total Dipole Moment    :      0.19135       0.54217      -0.17303
                        -----------------------------------------
Magnitude (a.u.)       :      0.60042
Magnitude (Debye)      :      1.52615

Rotational constants in cm-1:     0.307545     0.135665     0.096412
Rotational constants in MHz :  9219.967860  4067.145400  2890.348280

                             ****ORCA TERMINATED NORMALLY****
TOTAL RUN TIME: 0 days 0 hours 0 minutes 9 seconds 419 msec
