                         Program Version 5.0.0 -  RELEASE  -
|  1> !wB97X-D3 RIJCOSX def2-SVPD def2/J TightSCF CPCM(Water)
|  2> *xyz 0 1
|  3> C          1.22302        2.46987       -3.75691
|  4> F          2.35381        1.71203       -3.93448
|  5> H          1.26998        3.33359       -4.38673
|  6> H          1.15671        2.77738       -2.73420
|  7> H          0.36099        1.88932       -4.01140
|  8> *
|  9>
| 10> %MaxCore 64000
| 11>
| 12> %pal nprocs 18
| 13> end
| 14>
| 15> %scf
| 16>   MaxIter 150
| 17> end
| 18>
| 19>
| 20>                          ****END OF INPUT****

CARTESIAN COORDINATES (ANGSTROEM)
---------------------------------
  C      1.223020    2.469870   -3.756910
  F      2.353810    1.712030   -3.934480
  H      1.269980    3.333590   -4.386730
  H      1.156710    2.777380   -2.734200
  H      0.360990    1.889320   -4.011400

 Total Charge           Charge          ....    0
 Multiplicity           Mult            ....    1
 Number of Electrons    NEL             ....   18
 Basis Dimension        Dim             ....   67

ORBITAL ENERGIES
----------------

  NO   OCC          E(Eh)            E(eV)
   0   2.0000     -24.791291      -674.6053
   1   2.0000     -10.350325      -281.6467
   2   2.0000      -1.301651       -35.4197
   3   2.0000      -0.808151       -21.9909
   4   2.0000      -0.601027       -16.3548
   5   2.0000      -0.592491       -16.1225
   6   2.0000      -0.592463       -16.1217
   7   2.0000      -0.449004       -12.2180
   8   2.0000      -0.448978       -12.2173
   9   0.0000       0.102565         2.7909
  10   0.0000       0.148595         4.0435
  11   0.0000       0.183898         5.0041
  12   0.0000       0.183905         5.0043
  13   0.0000       0.211573         5.7572

MULLIKEN ATOMIC CHARGES
-----------------------
   0 C :    0.734733
   1 F :   -0.522818
   2 H :   -0.070992
   3 H :   -0.070490
   4 H :   -0.070434
Sum of atomic charges:   -0.0000000

LOEWDIN ATOMIC CHARGES
----------------------
   0 C :    0.277333
   1 F :   -0.282586
   2 H :    0.001727
   3 H :    0.001731
   4 H :    0.001796

  Mayer bond orders larger than 0.100000
B(  0-C ,  1-F ) :   0.8107 B(  0-C ,  2-H ) :   0.9610 B(  0-C ,  3-H ) :   0.9604
B(  0-C ,  4-H ) :   0.9609

Dispersion correction           -0.000131037
FINAL SINGLE POINT ENERGY      -139.611172104222

DIPOLE MOMENT
-------------
                                X             Y             Z
Electronic contribution:      2.28327      -1.53025      -0.35852
Nuclear contribution   :     -3.01708       2.02200       0.47377
                        -----------------------------------------
Total Dipole Moment    :     -0.73382       0.49175       0.11525
                        -----------------------------------------
Magnitude (a.u.)       :      0.89083
Magnitude (Debye)      :      2.26432

Rotational constants in cm-1:     5.477743     0.870792     0.870792
Rotational constants in MHz : 164218.600605 26105.683059 26105.675587

                             ****ORCA TERMINATED NORMALLY****
TOTAL RUN TIME: 0 days 0 hours 0 minutes 3 seconds 449 msec
