                         Program Version 5.0.0 -  RELEASE  -
|  1> !wB97X-D3 RIJCOSX def2-SVPD def2/J TightSCF CPCM(Water)
|  2> *xyz 0 1
|  3> C          1.63556       -1.67040       -5.29211
|  4> C          2.48451       -0.50741       -5.14039
|  5> C          3.45115       -0.14953       -5.95259
|  6> N          3.92267        1.08956       -5.85071
|  7> N          3.96616       -1.00618       -6.86788
|  8> H          3.52139       -1.90647       -6.99527
|  9> H          4.44482       -0.62347       -7.67035
| 10> H          2.25200        0.24080       -4.49879
| 11> H          3.46428        1.64078       -5.13639
| 12> H          4.83447        1.31375       -6.22465
| 13> H          2.06372       -2.33262       -6.01532
| 14> H          0.66479       -1.36293       -5.62068
| 15> H          1.55078       -2.17513       -4.35245
| 16> *
| 17>
| 18> %MaxCore 64000
| 19>
| 20> %pal nprocs 18
| 21> end
| 22>
| 23> %scf
| 24>   MaxIter 150
| 25> end
| 26>
| 27>
| 28>                          ****END OF INPUT****

CARTESIAN COORDINATES (ANGSTROEM)
---------------------------------
  C      1.635560   -1.670400   -5.292110
  C      2.484510   -0.507410   -5.140390
  C      3.451150   -0.149530   -5.952590
  N      3.922670    1.089560   -5.850710
  N      3.966160   -1.006180   -6.867880
  H      3.521390   -1.906470   -6.995270
  H      4.444820   -0.623470   -7.670350
  H      2.252000    0.240800   -4.498790
  H      3.464280    1.640780   -5.136390
  H      4.834470    1.313750   -6.224650
  H      2.063720   -2.332620   -6.015320
  H      0.664790   -1.362930   -5.620680
  H      1.550780   -2.175130   -4.352450

 Total Charge           Charge          ....    0
 Multiplicity           Mult            ....    1
 Number of Electrons    NEL             ....   40
 Basis Dimension        Dim             ....  164

ORBITAL ENERGIES
----------------

  NO   OCC          E(Eh)            E(eV)
   0   2.0000     -14.429911      -392.6578
   1   2.0000     -14.427050      -392.5800
   2   2.0000     -10.332182      -281.1530
   3   2.0000     -10.260628      -279.2059
   4   2.0000     -10.216135      -277.9952
   5   2.0000      -1.064534       -28.9674
   6   2.0000      -0.971581       -26.4381
   7   2.0000      -0.869201       -23.6522
   8   2.0000      -0.766242       -20.8505
   9   2.0000      -0.683685       -18.6040
  10   2.0000      -0.637278       -17.3412
  11   2.0000      -0.608878       -16.5684
  12   2.0000      -0.559953       -15.2371
  13   2.0000      -0.527236       -14.3468
  14   2.0000      -0.513828       -13.9820
  15   2.0000      -0.483628       -13.1602
  16   2.0000      -0.460653       -12.5350
  17   2.0000      -0.443911       -12.0794
  18   2.0000      -0.357402        -9.7254
  19   2.0000      -0.253081        -6.8867
  20   0.0000       0.097921         2.6646
  21   0.0000       0.124289         3.3821
  22   0.0000       0.132797         3.6136
  23   0.0000       0.152632         4.1533
  24   0.0000       0.167661         4.5623

MULLIKEN ATOMIC CHARGES
-----------------------
   0 C :    0.869672
   1 C :   -0.661105
   2 C :    0.514398
   3 N :   -0.032697
   4 N :   -0.038420
   5 H :   -0.000032
   6 H :   -0.093506
   7 H :   -0.278253
   8 H :    0.102836
   9 H :   -0.108857
  10 H :   -0.304878
  11 H :   -0.020405
  12 H :    0.051247
Sum of atomic charges:    0.0000000

LOEWDIN ATOMIC CHARGES
----------------------
   0 C :    0.097804
   1 C :   -0.091136
   2 C :   -0.246479
   3 N :    0.171288
   4 N :    0.192405
   5 H :   -0.017847
   6 H :    0.003279
   7 H :   -0.053570
   8 H :    0.008866
   9 H :    0.008649
  10 H :   -0.037633
  11 H :   -0.016531
  12 H :   -0.019095

  Mayer bond orders larger than 0.100000
B(  0-C ,  1-C ) :   1.1475 B(  0-C ,  7-H ) :   0.1512 B(  0-C , 10-H ) :   0.8228
B(  0-C , 11-H ) :   0.7960 B(  0-C , 12-H ) :   0.5973 B(  1-C ,  2-C ) :   1.7691
B(  1-C ,  3-N ) :   0.2924 B(  1-C ,  4-N ) :   0.1618 B(  1-C ,  7-H ) :   0.9390
B(  1-C , 10-H ) :   0.3536 B(  1-C , 11-H ) :   0.1149 B(  1-C , 12-H ) :   0.2779
B(  2-C ,  3-N ) :   1.0559 B(  2-C ,  4-N ) :   1.1045 B(  2-C ,  7-H ) :   0.2784
B(  3-N ,  8-H ) :   1.0153 B(  3-N ,  9-H ) :   1.1745 B(  4-N ,  5-H ) :   0.9965
B(  4-N ,  6-H ) :   1.1503 B(  5-H ,  6-H ) :  -0.1259 B(  8-H ,  9-H ) :  -0.1313
B( 10-H , 12-H ) :   0.2064

Dispersion correction           -0.002355291
FINAL SINGLE POINT ENERGY      -228.399544311449

DIPOLE MOMENT
-------------
                                X             Y             Z
Electronic contribution:      2.53929       1.94723      -0.99140
Nuclear contribution   :     -1.96139      -1.54412       0.26148
                        -----------------------------------------
Total Dipole Moment    :      0.57790       0.40311      -0.72993
                        -----------------------------------------
Magnitude (a.u.)       :      1.01452
Magnitude (Debye)      :      2.57872

Rotational constants in cm-1:     0.312277     0.136708     0.097371
Rotational constants in MHz :  9361.815989  4098.393303  2919.105491

                             ****ORCA TERMINATED NORMALLY****
TOTAL RUN TIME: 0 days 0 hours 0 minutes 9 seconds 810 msec
