                         Program Version 5.0.0 -  RELEASE  -
|  1> !wB97X-D3 RIJCOSX def2-SVPD def2/J TightSCF CPCM(Water)
|  2> *xyz 0 1
|  3> C          1.63556       -1.67040       -5.29211
|  4> N          2.48451       -0.50741       -5.14039
|  5> C          3.45115       -0.14953       -5.95259
|  6> C          3.92267        1.08956       -5.85071
|  7> N          3.96616       -1.00618       -6.86788
|  8> H          3.52139       -1.90647       -6.99527
|  9> H          4.44482       -0.62347       -7.67035
| 10> H          2.25200        0.24080       -4.49879
| 11> H          3.46428        1.64078       -5.13639
| 12> H          4.83447        1.31375       -6.22465
| 13> H          2.06372       -2.33262       -6.01532
| 14> H          0.66479       -1.36293       -5.62068
| 15> H          1.55078       -2.17513       -4.35245
| 16> *
| 17>
| 18> %MaxCore 64000
| 19>
| 20> %pal nprocs 18
| 21> end
| 22>
| 23> %scf
| 24>   MaxIter 150
| 25> end
| 26>
| 27>
| 28>                          ****END OF INPUT****

CARTESIAN COORDINATES (ANGSTROEM)
---------------------------------
  C      1.635560   -1.670400   -5.292110
  N      2.484510   -0.507410   -5.140390
  C      3.451150   -0.149530   -5.952590
  C      3.922670    1.089560   -5.850710
  N      3.966160   -1.006180   -6.867880
  H      3.521390   -1.906470   -6.995270
  H      4.444820   -0.623470   -7.670350
  H      2.252000    0.240800   -4.498790
  H      3.464280    1.640780   -5.136390
  H      4.834470    1.313750   -6.224650
  H      2.063720   -2.332620   -6.015320
  H      0.664790   -1.362930   -5.620680
  H      1.550780   -2.175130   -4.352450

 Total Charge           Charge          ....    0
 Multiplicity           Mult            ....    1
 Number of Electrons    NEL             ....   40
 Basis Dimension        Dim             ....  164

ORBITAL ENERGIES
----------------

  NO   OCC          E(Eh)            E(eV)
   0   2.0000     -14.438367      -392.8880
   1   2.0000     -14.434748      -392.7895
   2   2.0000     -10.344766      -281.4954
   3   2.0000     -10.310555      -280.5645
   4   2.0000     -10.207011      -277.7469
   5   2.0000      -1.081362       -29.4254
   6   2.0000      -0.987522       -26.8718
   7   2.0000      -0.858844       -23.3703
   8   2.0000      -0.773519       -21.0485
   9   2.0000      -0.701435       -19.0870
  10   2.0000      -0.638666       -17.3790
  11   2.0000      -0.594124       -16.1669
  12   2.0000      -0.571406       -15.5487
  13   2.0000      -0.549493       -14.9525
  14   2.0000      -0.496497       -13.5104
  15   2.0000      -0.493742       -13.4354
  16   2.0000      -0.483931       -13.1684
  17   2.0000      -0.465125       -12.6567
  18   2.0000      -0.350174        -9.5287
  19   2.0000      -0.260918        -7.0999
  20   0.0000       0.093446         2.5428
  21   0.0000       0.120651         3.2831
  22   0.0000       0.135538         3.6882
  23   0.0000       0.144096         3.9211
  24   0.0000       0.158464         4.3120

MULLIKEN ATOMIC CHARGES
-----------------------
   0 C :    1.172426
   1 N :   -0.586916
   2 C :    0.372236
   3 C :    0.453317
   4 N :    0.020843
   5 H :   -0.123734
   6 H :   -0.017687
   7 H :   -0.188761
   8 H :   -0.208611
   9 H :   -0.418672
  10 H :   -0.263025
  11 H :   -0.104036
  12 H :   -0.107380
Sum of atomic charges:    0.0000000

LOEWDIN ATOMIC CHARGES
----------------------
   0 C :    0.232568
   1 N :   -0.050666
   2 C :   -0.250186
   3 C :    0.098382
   4 N :    0.198942
   5 H :   -0.022963
   6 H :    0.015264
   7 H :    0.041442
   8 H :   -0.112287
   9 H :   -0.110705
  10 H :   -0.024566
  11 H :   -0.007926
  12 H :   -0.007299

  Mayer bond orders larger than 0.100000
B(  0-C ,  1-N ) :   0.8907 B(  0-C ,  7-H ) :  -0.1621 B(  0-C , 10-H ) :   0.8408
B(  0-C , 11-H ) :   0.8012 B(  0-C , 12-H ) :   0.7672 B(  1-N ,  2-C ) :   1.1177
B(  1-N ,  3-C ) :   0.2376 B(  1-N ,  7-H ) :   1.2983 B(  1-N , 10-H ) :   0.2419
B(  1-N , 11-H ) :   0.1461 B(  1-N , 12-H ) :   0.2089 B(  2-C ,  3-C ) :   1.7613
B(  2-C ,  4-N ) :   1.0471 B(  2-C ,  7-H ) :  -0.1665 B(  2-C ,  8-H ) :   0.2291
B(  2-C ,  9-H ) :   0.2521 B(  3-C ,  4-N ) :   0.2072 B(  3-C ,  8-H ) :   0.8053
B(  3-C ,  9-H ) :   0.7158 B(  4-N ,  5-H ) :   1.0288 B(  4-N ,  6-H ) :   1.1359
B(  5-H ,  6-H ) :  -0.1423

Dispersion correction           -0.002365914
FINAL SINGLE POINT ENERGY      -228.386713691237

DIPOLE MOMENT
-------------
                                X             Y             Z
Electronic contribution:      0.76034      -0.09598      -0.24476
Nuclear contribution   :     -1.67010      -1.22066       0.11760
                        -----------------------------------------
Total Dipole Moment    :     -0.90976      -1.31664      -0.12715
                        -----------------------------------------
Magnitude (a.u.)       :      1.60542
Magnitude (Debye)      :      4.08066

Rotational constants in cm-1:     0.314526     0.141398     0.099973
Rotational constants in MHz :  9429.255015  4239.015262  2997.111162

                             ****ORCA TERMINATED NORMALLY****
TOTAL RUN TIME: 0 days 0 hours 0 minutes 9 seconds 246 msec
