                         Program Version 5.0.0 -  RELEASE  -
|  1> !wB97X-D3 RIJCOSX def2-SVPD def2/J TightSCF CPCM(Water)
|  2> *xyz 0 1
|  3> C          1.63556       -1.67040       -5.29211
|  4> N          2.48451       -0.50741       -5.14039
|  5> C          3.45115       -0.14953       -5.95259
|  6> N          3.92267        1.08956       -5.85071
|  7> C          3.96616       -1.00618       -6.86788
|  8> H          3.52139       -1.90647       -6.99527
|  9> H          4.44482       -0.62347       -7.67035
| 10> H          2.25200        0.24080       -4.49879
| 11> H          3.46428        1.64078       -5.13639
| 12> H          4.83447        1.31375       -6.22465
| 13> H          2.06372       -2.33262       -6.01532
| 14> H          0.66479       -1.36293       -5.62068
| 15> H          1.55078       -2.17513       -4.35245
| 16> *
| 17>
| 18> %MaxCore 64000
| 19>
| 20> %pal nprocs 18
| 21> end
| 22>
| 23> %scf
| 24>   MaxIter 150
| 25> end
| 26>
| 27>
| 28>                          ****END OF INPUT****

CARTESIAN COORDINATES (ANGSTROEM)
---------------------------------
  C      1.635560   -1.670400   -5.292110
  N      2.484510   -0.507410   -5.140390
  C      3.451150   -0.149530   -5.952590
  N      3.922670    1.089560   -5.850710
  C      3.966160   -1.006180   -6.867880
  H      3.521390   -1.906470   -6.995270
  H      4.444820   -0.623470   -7.670350
  H      2.252000    0.240800   -4.498790
  H      3.464280    1.640780   -5.136390
  H      4.834470    1.313750   -6.224650
  H      2.063720   -2.332620   -6.015320
  H      0.664790   -1.362930   -5.620680
  H      1.550780   -2.175130   -4.352450

 Total Charge           Charge          ....    0
 Multiplicity           Mult            ....    1
 Number of Electrons    NEL             ....   40
 Basis Dimension        Dim             ....  164

ORBITAL ENERGIES
----------------

  NO   OCC          E(Eh)            E(eV)
   0   2.0000     -14.441913      -392.9844
   1   2.0000     -14.435667      -392.8145
   2   2.0000     -10.347121      -281.5595
   3   2.0000     -10.308607      -280.5114
   4   2.0000     -10.207979      -277.7732
   5   2.0000      -1.088665       -29.6241
   6   2.0000      -0.991643       -26.9840
   7   2.0000      -0.828502       -22.5447
   8   2.0000      -0.810499       -22.0548
   9   2.0000      -0.668240       -18.1837
  10   2.0000      -0.645765       -17.5722
  11   2.0000      -0.630282       -17.1508
  12   2.0000      -0.556829       -15.1521
  13   2.0000      -0.546804       -14.8793
  14   2.0000      -0.514326       -13.9955
  15   2.0000      -0.486777       -13.2459
  16   2.0000      -0.472406       -12.8548
  17   2.0000      -0.463326       -12.6077
  18   2.0000      -0.346070        -9.4170
  19   2.0000      -0.263311        -7.1651
  20   0.0000       0.096459         2.6248
  21   0.0000       0.122625         3.3368
  22   0.0000       0.127159         3.4602
  23   0.0000       0.140923         3.8347
  24   0.0000       0.166965         4.5433

MULLIKEN ATOMIC CHARGES
-----------------------
   0 C :    1.206858
   1 N :   -0.546110
   2 C :    0.361201
   3 N :    0.004891
   4 C :    0.408497
   5 H :   -0.357270
   6 H :   -0.286040
   7 H :   -0.273758
   8 H :   -0.042064
   9 H :   -0.017418
  10 H :   -0.271884
  11 H :   -0.101291
  12 H :   -0.085612
Sum of atomic charges:    0.0000000

LOEWDIN ATOMIC CHARGES
----------------------
   0 C :    0.236048
   1 N :   -0.048932
   2 C :   -0.252557
   3 N :    0.190747
   4 C :    0.111036
   5 H :   -0.145752
   6 H :   -0.119926
   7 H :    0.039071
   8 H :    0.008401
   9 H :    0.023025
  10 H :   -0.030408
  11 H :   -0.005198
  12 H :   -0.005555

  Mayer bond orders larger than 0.100000
B(  0-C ,  1-N ) :   0.8786 B(  0-C ,  7-H ) :  -0.1492 B(  0-C , 10-H ) :   0.8281
B(  0-C , 11-H ) :   0.7736 B(  0-C , 12-H ) :   0.7438 B(  1-N ,  2-C ) :   1.0998
B(  1-N ,  3-N ) :   0.1579 B(  1-N ,  4-C ) :   0.2576 B(  1-N ,  7-H ) :   1.3404
B(  1-N , 10-H ) :   0.2099 B(  1-N , 11-H ) :   0.1742 B(  1-N , 12-H ) :   0.2059
B(  2-C ,  3-N ) :   1.0095 B(  2-C ,  4-C ) :   1.8660 B(  2-C ,  5-H ) :   0.2399
B(  2-C ,  6-H ) :   0.2595 B(  2-C ,  7-H ) :  -0.1866 B(  3-N ,  4-C ) :   0.2415
B(  3-N ,  8-H ) :   1.0610 B(  3-N ,  9-H ) :   1.1614 B(  4-C ,  5-H ) :   0.7026
B(  4-C ,  6-H ) :   0.7477 B(  5-H ,  6-H ) :   0.2717 B(  5-H , 10-H ) :   0.1402
B(  8-H ,  9-H ) :  -0.1272

Dispersion correction           -0.002354049
FINAL SINGLE POINT ENERGY      -228.387139197510

DIPOLE MOMENT
-------------
                                X             Y             Z
Electronic contribution:      0.74506       2.67669       1.19527
Nuclear contribution   :     -1.66129      -1.64514      -0.08842
                        -----------------------------------------
Total Dipole Moment    :     -0.91622       1.03154       1.10685
                        -----------------------------------------
Magnitude (a.u.)       :      1.76880
Magnitude (Debye)      :      4.49594

Rotational constants in cm-1:     0.330436     0.136339     0.098902
Rotational constants in MHz :  9906.231858  4087.333233  2964.994979

                             ****ORCA TERMINATED NORMALLY****
TOTAL RUN TIME: 0 days 0 hours 0 minutes 9 seconds 928 msec
