                         Program Version 5.0.0 -  RELEASE  -
|  1> !TPSS D3BJ RIJCOSX def2-SVP def2/J TightSCF
|  2> *xyz -1 1
|  3> C          0.13297        2.38587       -4.02462
|  4> C         -1.36646        2.47911       -4.31393
|  5> C         -2.35773        2.30686       -3.13675
|  6> H         -1.63680        1.72709       -5.06399
|  7> H         -1.58235        3.44561       -4.76869
|  8> O         -3.44376        2.84652       -3.25274
|  9> O         -1.97092        1.58304       -2.15123
| 10> H          0.68084        2.52514       -4.93310
| 11> H          0.35823        1.42282       -3.61633
| 12> H          0.40851        3.14443       -3.32208
| 13> *
| 14> %MaxCore 64000
| 15>
| 16> %pal nprocs 4
| 17> end
| 18>
| 19> %scf
| 20>   MaxIter 150
| 21> end
| 22>
| 23>
| 24>                          ****END OF INPUT****

CARTESIAN COORDINATES (ANGSTROEM)
---------------------------------
  C      0.132970    2.385870   -4.024620
  C     -1.366460    2.479110   -4.313930
  C     -2.357730    2.306860   -3.136750
  H     -1.636800    1.727090   -5.063990
  H     -1.582350    3.445610   -4.768690
  O     -3.443760    2.846520   -3.252740
  O     -1.970920    1.583040   -2.151230
  H      0.680840    2.525140   -4.933100
  H      0.358230    1.422820   -3.616330
  H      0.408510    3.144430   -3.322080

 Total Charge           Charge          ....   -1
 Multiplicity           Mult            ....    1
 Number of Electrons    NEL             ....   40
 Basis Dimension        Dim             ....   95

ORBITAL ENERGIES
----------------

  NO   OCC          E(Eh)            E(eV)
   0   2.0000     -18.598251      -506.0841
   1   2.0000     -18.589446      -505.8445
   2   2.0000      -9.841717      -267.8067
   3   2.0000      -9.826077      -267.3812
   4   2.0000      -9.805589      -266.8237
   5   2.0000      -0.708914       -19.2905
   6   2.0000      -0.612141       -16.6572
   7   2.0000      -0.523338       -14.2408
   8   2.0000      -0.399085       -10.8596
   9   2.0000      -0.246291        -6.7019
  10   2.0000      -0.236168        -6.4265
  11   2.0000      -0.192354        -5.2342
  12   2.0000      -0.162082        -4.4105
  13   2.0000      -0.154420        -4.2020
  14   2.0000      -0.134987        -3.6732
  15   2.0000      -0.102643        -2.7931
  16   2.0000      -0.094631        -2.5750
  17   2.0000       0.026038         0.7085
  18   2.0000       0.035571         0.9679
  19   2.0000       0.052910         1.4398
  20   0.0000       0.206629         5.6227
  21   0.0000       0.248574         6.7640
  22   0.0000       0.258625         7.0376
  23   0.0000       0.271148         7.3783
  24   0.0000       0.276012         7.5107

MULLIKEN ATOMIC CHARGES
-----------------------
   0 C :    0.053497
   1 C :   -0.043403
   2 C :    0.032191
   3 H :   -0.037057
   4 H :   -0.055521
   5 O :   -0.383809
   6 O :   -0.459705
   7 H :   -0.063460
   8 H :   -0.021024
   9 H :   -0.021709
Sum of atomic charges:   -1.0000000

LOEWDIN ATOMIC CHARGES
----------------------
   0 C :   -0.057092
   1 C :   -0.096244
   2 C :   -0.075870
   3 H :    0.001594
   4 H :   -0.009582
   5 O :   -0.339045
   6 O :   -0.414414
   7 H :   -0.014794
   8 H :    0.001816
   9 H :    0.003630

  Mayer bond orders larger than 0.100000
B(  0-C ,  1-C ) :   1.0702 B(  0-C ,  7-H ) :   0.9478 B(  0-C ,  8-H ) :   0.9572
B(  0-C ,  9-H ) :   0.9719 B(  1-C ,  2-C ) :   0.8892 B(  1-C ,  3-H ) :   0.9361
B(  1-C ,  4-H ) :   0.9348 B(  2-C ,  5-O ) :   1.8849 B(  2-C ,  6-O ) :   1.8087
B(  5-O ,  6-O ) :   0.1356

Dispersion correction           -0.007963612
FINAL SINGLE POINT ENERGY      -267.659896787526

DIPOLE MOMENT
-------------
                                X             Y             Z
Electronic contribution:     -5.50860      -0.43750       3.44774
Nuclear contribution   :      6.75610       0.63068      -4.53972
                        -----------------------------------------
Total Dipole Moment    :      1.24750       0.19318      -1.09198
                        -----------------------------------------
Magnitude (a.u.)       :      1.66913
Magnitude (Debye)      :      4.24259

Rotational constants in cm-1:     0.335096     0.130241     0.099025
Rotational constants in MHz : 10045.924902  3904.536250  2968.708333

                             ****ORCA TERMINATED NORMALLY****
TOTAL RUN TIME: 0 days 0 hours 0 minutes 8 seconds 56 msec
