                         Program Version 5.0.0 -  RELEASE  -
|  1> !TPSS D3BJ RIJCOSX def2-SVP def2/J TightSCF
|  2> *xyz 1 1
|  3> C          0.64866        1.00359       -3.64560
|  4> N          0.28128        0.67645       -2.24018
|  5> C          0.13297        2.38587       -4.02462
|  6> H          0.39079       -0.31925       -2.02649
|  7> H         -0.69269        0.99010       -2.13812
|  8> H          0.85421        1.21221       -1.57528
|  9> H          0.19099        0.23965       -4.27575
| 10> H          1.73157        0.93173       -3.75075
| 11> H          0.40589        2.60338       -5.03610
| 12> H          0.56342        3.11797       -3.37374
| 13> H         -0.93265        2.40724       -3.93025
| 14> *
| 15> %MaxCore 64000
| 16>
| 17> %pal nprocs 4
| 18> end
| 19>
| 20> %scf
| 21>   MaxIter 150
| 22> end
| 23>
| 24>
| 25>                          ****END OF INPUT****

CARTESIAN COORDINATES (ANGSTROEM)
---------------------------------
  C      0.648660    1.003590   -3.645600
  N      0.281280    0.676450   -2.240180
  C      0.132970    2.385870   -4.024620
  H      0.390790   -0.319250   -2.026490
  H     -0.692690    0.990100   -2.138120
  H      0.854210    1.212210   -1.575280
  H      0.190990    0.239650   -4.275750
  H      1.731570    0.931730   -3.750750
  H      0.405890    2.603380   -5.036100
  H      0.563420    3.117970   -3.373740
  H     -0.932650    2.407240   -3.930250

 Total Charge           Charge          ....    1
 Multiplicity           Mult            ....    1
 Number of Electrons    NEL             ....   26
 Basis Dimension        Dim             ....   82

ORBITAL ENERGIES
----------------

  NO   OCC          E(Eh)            E(eV)
   0   2.0000     -14.455000      -393.3406
   1   2.0000     -10.254779      -279.0467
   2   2.0000     -10.181623      -277.0560
   3   2.0000      -1.149848       -31.2890
   4   2.0000      -0.906056       -24.6550
   5   2.0000      -0.793449       -21.5908
   6   2.0000      -0.758119       -20.6295
   7   2.0000      -0.750627       -20.4256
   8   2.0000      -0.654755       -17.8168
   9   2.0000      -0.603342       -16.4178
  10   2.0000      -0.546986       -14.8842
  11   2.0000      -0.534236       -14.5373
  12   2.0000      -0.518468       -14.1082
  13   0.0000      -0.196866        -5.3570
  14   0.0000      -0.140451        -3.8219
  15   0.0000      -0.136464        -3.7134
  16   0.0000      -0.104167        -2.8345
  17   0.0000      -0.070162        -1.9092

MULLIKEN ATOMIC CHARGES
-----------------------
   0 C :   -0.047214
   1 N :    0.028493
   2 C :   -0.034012
   3 H :    0.214863
   4 H :    0.205336
   5 H :    0.208754
   6 H :    0.101273
   7 H :    0.104930
   8 H :    0.096784
   9 H :    0.060457
  10 H :    0.060336
Sum of atomic charges:    1.0000000

LOEWDIN ATOMIC CHARGES
----------------------
   0 C :    0.056652
   1 N :    0.304442
   2 C :   -0.028988
   3 H :    0.144404
   4 H :    0.140755
   5 H :    0.143130
   6 H :    0.051966
   7 H :    0.052236
   8 H :    0.062523
   9 H :    0.036788
  10 H :    0.036093

  Mayer bond orders larger than 0.100000
B(  0-C ,  1-N ) :   0.9311 B(  0-C ,  2-C ) :   1.1010 B(  0-C ,  6-H ) :   0.9499
B(  0-C ,  7-H ) :   0.9505 B(  1-N ,  3-H ) :   0.9311 B(  1-N ,  4-H ) :   0.9361
B(  1-N ,  5-H ) :   0.9364 B(  2-C ,  8-H ) :   0.9555 B(  2-C ,  9-H ) :   0.9706
B(  2-C , 10-H ) :   0.9640

Dispersion correction           -0.007483701
FINAL SINGLE POINT ENERGY      -135.462979224120

DIPOLE MOMENT
-------------
                                X             Y             Z
Electronic contribution:      0.16307      -1.32402       1.36456
Nuclear contribution   :     -0.22655       0.48066      -0.09136
                        -----------------------------------------
Total Dipole Moment    :     -0.06348      -0.84336       1.27320
                        -----------------------------------------
Magnitude (a.u.)       :      1.52851
Magnitude (Debye)      :      3.88516

Rotational constants in cm-1:     0.998155     0.284845     0.251232
Rotational constants in MHz : 29923.943568  8539.431565  7531.732866

                             ****ORCA TERMINATED NORMALLY****
TOTAL RUN TIME: 0 days 0 hours 0 minutes 7 seconds 427 msec
