                         Program Version 5.0.0 -  RELEASE  -
|  1> !TPSS D3BJ RIJCOSX def2-SVP def2/J TightSCF
|  2> *xyz 0 1
|  3> C          0.13297        2.38587       -4.02462
|  4> C         -1.36646        2.47911       -4.31393
|  5> C         -2.35773        2.30686       -3.13675
|  6> H         -1.63680        1.72709       -5.06399
|  7> H         -1.58235        3.44561       -4.76869
|  8> F         -3.44376        2.84652       -3.25274
|  9> O         -1.97092        1.58304       -2.15123
| 10> H          0.68084        2.52514       -4.93310
| 11> H          0.35823        1.42282       -3.61633
| 12> H          0.40851        3.14443       -3.32208
| 13> *
| 14> %MaxCore 64000
| 15>
| 16> %pal nprocs 4
| 17> end
| 18>
| 19> %scf
| 20>   MaxIter 150
| 21> end
| 22>
| 23>
| 24>                          ****END OF INPUT****

CARTESIAN COORDINATES (ANGSTROEM)
---------------------------------
  C      0.132970    2.385870   -4.024620
  C     -1.366460    2.479110   -4.313930
  C     -2.357730    2.306860   -3.136750
  H     -1.636800    1.727090   -5.063990
  H     -1.582350    3.445610   -4.768690
  F     -3.443760    2.846520   -3.252740
  O     -1.970920    1.583040   -2.151230
  H      0.680840    2.525140   -4.933100
  H      0.358230    1.422820   -3.616330
  H      0.408510    3.144430   -3.322080

 Total Charge           Charge          ....    0
 Multiplicity           Mult            ....    1
 Number of Electrons    NEL             ....   40
 Basis Dimension        Dim             ....   95

ORBITAL ENERGIES
----------------

  NO   OCC          E(Eh)            E(eV)
   0   2.0000     -24.492766      -666.4821
   1   2.0000     -18.885476      -513.8999
   2   2.0000     -10.160362      -276.4775
   3   2.0000     -10.027120      -272.8518
   4   2.0000     -10.001245      -272.1477
   5   2.0000      -1.241581       -33.7851
   6   2.0000      -0.925957       -25.1966
   7   2.0000      -0.727212       -19.7884
   8   2.0000      -0.629406       -17.1270
   9   2.0000      -0.580662       -15.8006
  10   2.0000      -0.500146       -13.6097
  11   2.0000      -0.483534       -13.1576
  12   2.0000      -0.444802       -12.1037
  13   2.0000      -0.419470       -11.4143
  14   2.0000      -0.378909       -10.3106
  15   2.0000      -0.347160        -9.4467
  16   2.0000      -0.332261        -9.0413
  17   2.0000      -0.322782        -8.7833
  18   2.0000      -0.295071        -8.0293
  19   2.0000      -0.230083        -6.2609
  20   0.0000      -0.049972        -1.3598
  21   0.0000       0.048143         1.3100
  22   0.0000       0.092463         2.5161
  23   0.0000       0.101803         2.7702
  24   0.0000       0.112254         3.0546

MULLIKEN ATOMIC CHARGES
-----------------------
   0 C :    0.033173
   1 C :   -0.114673
   2 C :    0.225200
   3 H :    0.054502
   4 H :    0.025648
   5 F :   -0.018254
   6 O :   -0.282336
   7 H :    0.016150
   8 H :    0.035769
   9 H :    0.024822
Sum of atomic charges:    0.0000000

LOEWDIN ATOMIC CHARGES
----------------------
   0 C :   -0.029164
   1 C :   -0.072069
   2 C :    0.070985
   3 H :    0.044907
   4 H :    0.025075
   5 F :    0.100533
   6 O :   -0.214368
   7 H :    0.023607
   8 H :    0.026627
   9 H :    0.023866

  Mayer bond orders larger than 0.100000
B(  0-C ,  1-C ) :   1.0992 B(  0-C ,  7-H ) :   0.9605 B(  0-C ,  8-H ) :   0.9675
B(  0-C ,  9-H ) :   0.9774 B(  1-C ,  2-C ) :   0.9879 B(  1-C ,  3-H ) :   0.9220
B(  1-C ,  4-H ) :   0.9355 B(  2-C ,  5-F ) :   1.2454 B(  2-C ,  6-O ) :   2.0297

Dispersion correction           -0.007564272
FINAL SINGLE POINT ENERGY      -292.206807264951

DIPOLE MOMENT
-------------
                                X             Y             Z
Electronic contribution:     -8.45882       0.42347       3.69522
Nuclear contribution   :      8.54799       0.05434      -4.66633
                        -----------------------------------------
Total Dipole Moment    :      0.08917       0.47781      -0.97111
                        -----------------------------------------
Magnitude (a.u.)       :      1.08596
Magnitude (Debye)      :      2.76028

Rotational constants in cm-1:     0.325803     0.123345     0.094275
Rotational constants in MHz :  9767.324172  3697.779805  2826.305733

                             ****ORCA TERMINATED NORMALLY****
TOTAL RUN TIME: 0 days 0 hours 0 minutes 7 seconds 940 msec
