                         Program Version 5.0.0 -  RELEASE  -
|  1> !TPSS D3BJ RIJCOSX def2-SVP def2/J TightSCF
|  2> *xyz 0 1
|  3> C          0.64866        1.00359       -3.64560
|  4> C          0.28128        0.67645       -2.24018
|  5> C          0.13297        2.38587       -4.02462
|  6> H          0.39079       -0.31925       -2.02649
|  7> H         -0.69269        0.99010       -2.13812
|  8> H          0.85421        1.21221       -1.57528
|  9> H          0.19099        0.23965       -4.27575
| 10> H          1.73157        0.93173       -3.75075
| 11> H          0.40589        2.60338       -5.03610
| 12> H          0.56342        3.11797       -3.37374
| 13> H         -0.93265        2.40724       -3.93025
| 14> *
| 15> %MaxCore 64000
| 16>
| 17> %pal nprocs 4
| 18> end
| 19>
| 20> %scf
| 21>   MaxIter 150
| 22> end
| 23>
| 24>
| 25>                          ****END OF INPUT****

CARTESIAN COORDINATES (ANGSTROEM)
---------------------------------
  C      0.648660    1.003590   -3.645600
  C      0.281280    0.676450   -2.240180
  C      0.132970    2.385870   -4.024620
  H      0.390790   -0.319250   -2.026490
  H     -0.692690    0.990100   -2.138120
  H      0.854210    1.212210   -1.575280
  H      0.190990    0.239650   -4.275750
  H      1.731570    0.931730   -3.750750
  H      0.405890    2.603380   -5.036100
  H      0.563420    3.117970   -3.373740
  H     -0.932650    2.407240   -3.930250

 Total Charge           Charge          ....    0
 Multiplicity           Mult            ....    1
 Number of Electrons    NEL             ....   26
 Basis Dimension        Dim             ....   82

ORBITAL ENERGIES
----------------

  NO   OCC          E(Eh)            E(eV)
   0   2.0000      -9.985252      -271.7125
   1   2.0000      -9.981259      -271.6039
   2   2.0000      -9.963706      -271.1262
   3   2.0000      -0.726422       -19.7670
   4   2.0000      -0.628343       -17.0981
   5   2.0000      -0.531031       -14.4501
   6   2.0000      -0.423590       -11.5265
   7   2.0000      -0.405727       -11.0404
   8   2.0000      -0.361496        -9.8368
   9   2.0000      -0.346857        -9.4384
  10   2.0000      -0.299320        -8.1449
  11   2.0000      -0.295646        -8.0449
  12   2.0000      -0.290980        -7.9180
  13   0.0000       0.054887         1.4936
  14   0.0000       0.100366         2.7311
  15   0.0000       0.101100         2.7511
  16   0.0000       0.108015         2.9392
  17   0.0000       0.134087         3.6487

MULLIKEN ATOMIC CHARGES
-----------------------
   0 C :   -0.090990
   1 C :    0.080532
   2 C :    0.003471
   3 H :   -0.008562
   4 H :   -0.017220
   5 H :   -0.012739
   6 H :    0.007325
   7 H :    0.008411
   8 H :    0.009927
   9 H :    0.009209
  10 H :    0.010636
Sum of atomic charges:   -0.0000000

LOEWDIN ATOMIC CHARGES
----------------------
   0 C :   -0.034832
   1 C :   -0.031895
   2 C :   -0.041461
   3 H :    0.009981
   4 H :    0.009899
   5 H :    0.009853
   6 H :    0.015397
   7 H :    0.014108
   8 H :    0.016893
   9 H :    0.016087
  10 H :    0.015970

  Mayer bond orders larger than 0.100000
B(  0-C ,  1-C ) :   1.1084 B(  0-C ,  2-C ) :   1.1069 B(  0-C ,  6-H ) :   0.9532
B(  0-C ,  7-H ) :   0.9535 B(  1-C ,  3-H ) :   0.9625 B(  1-C ,  4-H ) :   0.9682
B(  1-C ,  5-H ) :   0.9666 B(  2-C ,  8-H ) :   0.9677 B(  2-C ,  9-H ) :   0.9744
B(  2-C , 10-H ) :   0.9703

Dispersion correction           -0.007507658
FINAL SINGLE POINT ENERGY      -119.065203863181

DIPOLE MOMENT
-------------
                                X             Y             Z
Electronic contribution:      0.25108      -0.27051      -0.23821
Nuclear contribution   :     -0.24754       0.26111       0.24628
                        -----------------------------------------
Total Dipole Moment    :      0.00354      -0.00940       0.00807
                        -----------------------------------------
Magnitude (a.u.)       :      0.01288
Magnitude (Debye)      :      0.03274

Rotational constants in cm-1:     1.006509     0.299509     0.263145
Rotational constants in MHz : 30174.379724  8979.049324  7888.875355

                             ****ORCA TERMINATED NORMALLY****
TOTAL RUN TIME: 0 days 0 hours 0 minutes 7 seconds 237 msec
