                         Program Version 5.0.0 -  RELEASE  -
|  1> !TPSS D3BJ RIJCOSX def2-SVP def2/J TightSCF
|  2> *xyz 0 1
|  3> C          0.13297        2.38587       -4.02462
|  4> C         -1.36646        2.47911       -4.31393
|  5> C         -2.35773        2.30686       -3.13675
|  6> H         -1.63680        1.72709       -5.06399
|  7> H         -1.58235        3.44561       -4.76869
|  8> O         -3.44376        2.84652       -3.25274
|  9> F         -1.97092        1.58304       -2.15123
| 10> H          0.68084        2.52514       -4.93310
| 11> H          0.35823        1.42282       -3.61633
| 12> H          0.40851        3.14443       -3.32208
| 13> *
| 14> %MaxCore 64000
| 15>
| 16> %pal nprocs 4
| 17> end
| 18>
| 19> %scf
| 20>   MaxIter 150
| 21> end
| 22>
| 23>
| 24>                          ****END OF INPUT****

CARTESIAN COORDINATES (ANGSTROEM)
---------------------------------
  C      0.132970    2.385870   -4.024620
  C     -1.366460    2.479110   -4.313930
  C     -2.357730    2.306860   -3.136750
  H     -1.636800    1.727090   -5.063990
  H     -1.582350    3.445610   -4.768690
  O     -3.443760    2.846520   -3.252740
  F     -1.970920    1.583040   -2.151230
  H      0.680840    2.525140   -4.933100
  H      0.358230    1.422820   -3.616330
  H      0.408510    3.144430   -3.322080

 Total Charge           Charge          ....    0
 Multiplicity           Mult            ....    1
 Number of Electrons    NEL             ....   40
 Basis Dimension        Dim             ....   95

ORBITAL ENERGIES
----------------

  NO   OCC          E(Eh)            E(eV)
   0   2.0000     -24.469696      -665.8543
   1   2.0000     -18.894522      -514.1461
   2   2.0000     -10.155767      -276.3525
   3   2.0000     -10.025854      -272.8174
   4   2.0000     -10.005911      -272.2747
   5   2.0000      -1.193933       -32.4886
   6   2.0000      -0.964792       -26.2533
   7   2.0000      -0.730030       -19.8651
   8   2.0000      -0.615185       -16.7400
   9   2.0000      -0.569885       -15.5074
  10   2.0000      -0.478418       -13.0184
  11   2.0000      -0.472222       -12.8498
  12   2.0000      -0.432174       -11.7601
  13   2.0000      -0.417188       -11.3523
  14   2.0000      -0.384526       -10.4635
  15   2.0000      -0.354051        -9.6342
  16   2.0000      -0.343045        -9.3347
  17   2.0000      -0.330035        -8.9807
  18   2.0000      -0.310040        -8.4366
  19   2.0000      -0.242779        -6.6063
  20   0.0000      -0.045027        -1.2253
  21   0.0000       0.042596         1.1591
  22   0.0000       0.092611         2.5201
  23   0.0000       0.101770         2.7693
  24   0.0000       0.111588         3.0365

MULLIKEN ATOMIC CHARGES
-----------------------
   0 C :    0.009939
   1 C :   -0.116852
   2 C :    0.238054
   3 H :    0.057325
   4 H :    0.051057
   5 O :   -0.213767
   6 F :   -0.097992
   7 H :    0.022231
   8 H :    0.024155
   9 H :    0.025850
Sum of atomic charges:    0.0000000

LOEWDIN ATOMIC CHARGES
----------------------
   0 C :   -0.042277
   1 C :   -0.069189
   2 C :    0.082954
   3 H :    0.045542
   4 H :    0.040857
   5 O :   -0.145886
   6 F :    0.020120
   7 H :    0.025858
   8 H :    0.020177
   9 H :    0.021844

  Mayer bond orders larger than 0.100000
B(  0-C ,  1-C ) :   1.0703 B(  0-C ,  7-H ) :   0.9613 B(  0-C ,  8-H ) :   0.9712
B(  0-C ,  9-H ) :   0.9779 B(  1-C ,  2-C ) :   0.9877 B(  1-C ,  3-H ) :   0.9293
B(  1-C ,  4-H ) :   0.9478 B(  2-C ,  5-O ) :   2.1026 B(  2-C ,  6-F ) :   1.1663

Dispersion correction           -0.007502915
FINAL SINGLE POINT ENERGY      -292.223731242987

DIPOLE MOMENT
-------------
                                X             Y             Z
Electronic contribution:     -6.02394      -1.63387       5.47316
Nuclear contribution   :      6.94213       1.43193      -5.86732
                        -----------------------------------------
Total Dipole Moment    :      0.91819      -0.20194      -0.39416
                        -----------------------------------------
Magnitude (a.u.)       :      1.01942
Magnitude (Debye)      :      2.59116

Rotational constants in cm-1:     0.306336     0.129048     0.095707
Rotational constants in MHz :  9183.725605  3868.769583  2869.236577

                             ****ORCA TERMINATED NORMALLY****
TOTAL RUN TIME: 0 days 0 hours 0 minutes 7 seconds 723 msec
