                         Program Version 5.0.0 -  RELEASE  -
|  1> !TPSS D3BJ RIJCOSX def2-TZVP def2/J TightSCF xyzfile
|  2>
|  3> *xyzfile 0 1 D2.xyz
|  4>
|  5> %MaxCore 64000
|  6>
|  7> %pal nprocs 18
|  8> end
|  9>
| 10> %scf
| 11>   MaxIter 150
| 12> end
| 13>
| 14>
| 15>                          ****END OF INPUT****

CARTESIAN COORDINATES (ANGSTROEM)
---------------------------------
  C      0.648656    1.003595   -3.645601
  C      0.281280    0.676454   -2.240179
  C      0.132968    2.385869   -4.024618
  C     -1.366462    2.479106   -4.313932
  C     -2.357732    2.306858   -3.136753
  H     -1.636802    1.727095   -5.063993
  H     -1.582347    3.445605   -4.768687
  H      0.390790   -0.319253   -2.026495
  H     -0.692686    0.990104   -2.138123
  H      0.854206    1.212214   -1.575279
  O     -3.443763    2.846518   -3.252744
  F     -1.970922    1.583042   -2.151229
  H      0.190993    0.239655   -4.275752
  H      1.731572    0.931729   -3.750751
  H      0.414839    3.102847   -3.245165
  H      0.683167    2.687560   -4.919721

 Total Charge           Charge          ....    0
 Multiplicity           Mult            ....    1
 Number of Electrons    NEL             ....   56
 Basis Dimension        Dim             ....  271

ORBITAL ENERGIES
----------------

  NO   OCC          E(Eh)            E(eV)
   0   2.0000     -24.478112      -666.0833
   1   2.0000     -18.896736      -514.2063
   2   2.0000     -10.155252      -276.3384
   3   2.0000     -10.018276      -272.6111
   4   2.0000      -9.995686      -271.9964
   5   2.0000      -9.977343      -271.4973
   6   2.0000      -9.926001      -270.1002
   7   2.0000      -1.240118       -33.7453
   8   2.0000      -0.991243       -26.9731
   9   2.0000      -0.764347       -20.7989
  10   2.0000      -0.706920       -19.2363
  11   2.0000      -0.623476       -16.9656
  12   2.0000      -0.619704       -16.8630
  13   2.0000      -0.536612       -14.6020
  14   2.0000      -0.506092       -13.7715
  15   2.0000      -0.493074       -13.4172
  16   2.0000      -0.457068       -12.4375
  17   2.0000      -0.425609       -11.5814
  18   2.0000      -0.408403       -11.1132
  19   2.0000      -0.406364       -11.0577
  20   2.0000      -0.378849       -10.3090
  21   2.0000      -0.350620        -9.5409
  22   2.0000      -0.341823        -9.3015
  23   2.0000      -0.326683        -8.8895
  24   2.0000      -0.300594        -8.1796
  25   2.0000      -0.295032        -8.0282
  26   2.0000      -0.284174        -7.7328
  27   2.0000      -0.249361        -6.7854
  28   0.0000      -0.061196        -1.6652
  29   0.0000       0.017133         0.4662
  30   0.0000       0.049472         1.3462
  31   0.0000       0.055420         1.5080
  32   0.0000       0.065010         1.7690

MULLIKEN ATOMIC CHARGES
-----------------------
   0 C :   -0.138217
   1 C :   -0.385159
   2 C :   -0.161689
   3 C :   -0.233023
   4 C :    0.273337
   5 H :    0.120022
   6 H :    0.138910
   7 H :    0.101686
   8 H :    0.137362
   9 H :    0.095578
  10 O :   -0.244930
  11 F :   -0.054797
  12 H :    0.070391
  13 H :    0.087409
  14 H :    0.096179
  15 H :    0.096940
Sum of atomic charges:    0.0000000

LOEWDIN ATOMIC CHARGES
----------------------
   0 C :   -0.294587
   1 C :   -0.308264
   2 C :   -0.262514
   3 C :   -0.226938
   4 C :   -0.504479
   5 H :    0.155313
   6 H :    0.154952
   7 H :    0.100880
   8 H :    0.076952
   9 H :    0.103484
  10 O :    0.132322
  11 F :    0.335072
  12 H :    0.131603
  13 H :    0.129742
  14 H :    0.138134
  15 H :    0.138329

  Mayer bond orders larger than 0.100000
B(  0-C ,  1-C ) :   1.0104 B(  0-C ,  2-C ) :   1.0043 B(  0-C , 12-H ) :   0.9540
B(  0-C , 13-H ) :   0.9490 B(  1-C ,  7-H ) :   0.9644 B(  1-C ,  8-H ) :   0.9831
B(  1-C ,  9-H ) :   0.9667 B(  2-C ,  3-C ) :   0.9959 B(  2-C , 14-H ) :   0.9577
B(  2-C , 15-H ) :   0.9358 B(  3-C ,  4-C ) :   1.0350 B(  3-C ,  5-H ) :   0.9236
B(  3-C ,  6-H ) :   0.9412 B(  4-C , 10-O ) :   2.1299 B(  4-C , 11-F ) :   1.1058

Dispersion correction           -0.016298124
FINAL SINGLE POINT ENERGY      -371.180188072561

DIPOLE MOMENT
-------------
                                X             Y             Z
Electronic contribution:    -10.33319       2.34426       3.32847
Nuclear contribution   :     11.08738      -2.45618      -3.73478
                        -----------------------------------------
Total Dipole Moment    :      0.75419      -0.11192      -0.40631
                        -----------------------------------------
Magnitude (a.u.)       :      0.86396
Magnitude (Debye)      :      2.19601

Rotational constants in cm-1:     0.156244     0.063730     0.048063
Rotational constants in MHz :  4684.071402  1910.571278  1440.877811

                             ****ORCA TERMINATED NORMALLY****
TOTAL RUN TIME: 0 days 0 hours 0 minutes 6 seconds 421 msec
