                         Program Version 5.0.0 -  RELEASE  -
|  1> !LC-BLYP RIJCOSX def2-SVPD def2/J TightSCF
|  2> *xyz -1 1
|  3> C          1.87218        0.42790       -2.07750
|  4> S          0.57902        0.14047       -3.29794
|  5> O          0.22886       -1.24687       -3.12787
|  6> O         -0.43927        1.11897       -3.01455
|  7> O          1.24788        0.40347       -4.59565
|  8> H          2.66832       -0.27048       -2.23022
|  9> H          1.46951        0.30034       -1.09440
| 10> H          2.24690        1.42458       -2.18288
| 11> *
| 12>
| 13> %MaxCore 64000
| 14>
| 15> %pal nprocs 8
| 16> end
| 17>
| 18> %scf
| 19>   MaxIter 150
| 20> end
| 21>
| 22>
| 23>                          ****END OF INPUT****

CARTESIAN COORDINATES (ANGSTROEM)
---------------------------------
  C      1.872180    0.427900   -2.077500
  S      0.579020    0.140470   -3.297940
  O      0.228860   -1.246870   -3.127870
  O     -0.439270    1.118970   -3.014550
  O      1.247880    0.403470   -4.595650
  H      2.668320   -0.270480   -2.230220
  H      1.469510    0.300340   -1.094400
  H      2.246900    1.424580   -2.182880

 Total Charge           Charge          ....   -1
 Multiplicity           Mult            ....    1
 Number of Electrons    NEL             ....   50
 Basis Dimension        Dim             ....  140

ORBITAL ENERGIES
----------------

  NO   OCC          E(Eh)            E(eV)
   0   2.0000     -88.311134     -2403.0681
   1   2.0000     -18.740112      -509.9444
   2   2.0000     -18.740035      -509.9423
   3   2.0000     -18.725967      -509.5595
   4   2.0000      -9.936736      -270.3923
   5   2.0000      -7.859876      -213.8781
   6   2.0000      -5.894124      -160.3873
   7   2.0000      -5.894045      -160.3851
   8   2.0000      -5.893835      -160.3794
   9   2.0000      -1.033778       -28.1305
  10   2.0000      -0.890371       -24.2282
  11   2.0000      -0.863860       -23.5068
  12   2.0000      -0.688604       -18.7379
  13   2.0000      -0.491862       -13.3842
  14   2.0000      -0.412989       -11.2380
  15   2.0000      -0.395701       -10.7676
  16   2.0000      -0.394321       -10.7300
  17   2.0000      -0.353070        -9.6075
  18   2.0000      -0.350956        -9.5500
  19   2.0000      -0.258515        -7.0345
  20   2.0000      -0.256584        -6.9820
  21   2.0000      -0.219319        -5.9680
  22   2.0000      -0.211053        -5.7430
  23   2.0000      -0.201963        -5.4957
  24   2.0000      -0.165075        -4.4919
  25   0.0000       0.197124         5.3640
  26   0.0000       0.222186         6.0460
  27   0.0000       0.222378         6.0512
  28   0.0000       0.226230         6.1560
  29   0.0000       0.258704         7.0397

MULLIKEN ATOMIC CHARGES
-----------------------
   0 C :    0.730103
   1 S :    0.875182
   2 O :   -0.686710
   3 O :   -0.682980
   4 O :   -0.736316
   5 H :   -0.162352
   6 H :   -0.169931
   7 H :   -0.166996
Sum of atomic charges:   -1.0000000

LOEWDIN ATOMIC CHARGES
----------------------
   0 C :    0.041910
   1 S :    0.776714
   2 O :   -0.564937
   3 O :   -0.563909
   4 O :   -0.587900
   5 H :   -0.033155
   6 H :   -0.035200
   7 H :   -0.033522

  Mayer bond orders larger than 0.100000
B(  0-C ,  1-S ) :   0.9399 B(  0-C ,  5-H ) :   0.8746 B(  0-C ,  6-H ) :   0.8728
B(  0-C ,  7-H ) :   0.8751 B(  1-S ,  2-O ) :   1.4033 B(  1-S ,  3-O ) :   1.4046
B(  1-S ,  4-O ) :   1.3612 B(  1-S ,  5-H ) :   0.1349 B(  1-S ,  6-H ) :   0.1251
B(  1-S ,  7-H ) :   0.1363

FINAL SINGLE POINT ENERGY      -662.776684345340

DIPOLE MOMENT
-------------
                                X             Y             Z
Electronic contribution:     -3.15427      -0.71154      -2.78811
Nuclear contribution   :      4.08143       0.90272       3.93680
                        -----------------------------------------
Total Dipole Moment    :      0.92715       0.19118       1.14869
                        -----------------------------------------
Magnitude (a.u.)       :      1.48851
Magnitude (Debye)      :      3.78349

Rotational constants in cm-1:     0.171796     0.158241     0.155560
Rotational constants in MHz :  5150.307583  4743.954688  4663.569252

                             ****ORCA TERMINATED NORMALLY****
TOTAL RUN TIME: 0 days 0 hours 0 minutes 7 seconds 301 msec
