                         Program Version 5.0.0 -  RELEASE  -
|  1> !LC-BLYP RIJCOSX def2-SVPD def2/J TightSCF
|  2> *xyz 1 1
|  3> C          3.38093        2.08304       -3.35013
|  4> N          4.53592        1.18245       -3.42852
|  5> C          4.67196        0.12227       -4.22060
|  6> N          5.86602       -0.50785       -4.22428
|  7> N          3.69888       -0.31284       -4.98699
|  8> H          2.73141       -0.05009       -4.84900
|  9> H          3.89005       -1.05517       -5.64373
| 10> H          5.25193        1.30346       -2.72101
| 11> H          6.69516       -0.06232       -3.85160
| 12> H          5.97538       -1.39688       -4.69141
| 13> H          2.69962        1.85926       -4.14426
| 14> H          3.71221        3.09654       -3.43937
| 15> H          2.88835        1.95032       -2.40957
| 16> *
| 17>
| 18> %MaxCore 64000
| 19>
| 20> %pal nprocs 8
| 21> end
| 22>
| 23> %scf
| 24>   MaxIter 150
| 25> end
| 26>
| 27>
| 28>                          ****END OF INPUT****

CARTESIAN COORDINATES (ANGSTROEM)
---------------------------------
  C      3.380930    2.083040   -3.350130
  N      4.535920    1.182450   -3.428520
  C      4.671960    0.122270   -4.220600
  N      5.866020   -0.507850   -4.224280
  N      3.698880   -0.312840   -4.986990
  H      2.731410   -0.050090   -4.849000
  H      3.890050   -1.055170   -5.643730
  H      5.251930    1.303460   -2.721010
  H      6.695160   -0.062320   -3.851600
  H      5.975380   -1.396880   -4.691410
  H      2.699620    1.859260   -4.144260
  H      3.712210    3.096540   -3.439370
  H      2.888350    1.950320   -2.409570

 Total Charge           Charge          ....    1
 Multiplicity           Mult            ....    1
 Number of Electrons    NEL             ....   40
 Basis Dimension        Dim             ....  164

ORBITAL ENERGIES
----------------

  NO   OCC          E(Eh)            E(eV)
   0   2.0000     -14.418917      -392.3587
   1   2.0000     -14.417938      -392.3320
   2   2.0000     -14.410574      -392.1317
   3   2.0000     -10.429166      -283.7920
   4   2.0000     -10.290253      -280.0120
   5   2.0000      -1.312577       -35.7170
   6   2.0000      -1.202247       -32.7148
   7   2.0000      -1.186563       -32.2880
   8   2.0000      -1.010994       -27.5106
   9   2.0000      -0.935422       -25.4541
  10   2.0000      -0.898304       -24.4441
  11   2.0000      -0.858963       -23.3736
  12   2.0000      -0.804590       -21.8940
  13   2.0000      -0.799884       -21.7660
  14   2.0000      -0.758880       -20.6502
  15   2.0000      -0.740308       -20.1448
  16   2.0000      -0.698150       -18.9976
  17   2.0000      -0.683519       -18.5995
  18   2.0000      -0.582752       -15.8575
  19   2.0000      -0.553002       -15.0480
  20   0.0000      -0.097242        -2.6461
  21   0.0000      -0.093049        -2.5320
  22   0.0000      -0.061503        -1.6736
  23   0.0000      -0.056344        -1.5332
  24   0.0000      -0.028344        -0.7713

MULLIKEN ATOMIC CHARGES
-----------------------
   0 C :    1.373568
   1 N :   -0.440120
   2 C :    1.008512
   3 N :    0.127610
   4 N :    0.196360
   5 H :   -0.107104
   6 H :   -0.098877
   7 H :   -0.257644
   8 H :   -0.109685
   9 H :   -0.066924
  10 H :   -0.268931
  11 H :   -0.177265
  12 H :   -0.179499
Sum of atomic charges:    1.0000000

LOEWDIN ATOMIC CHARGES
----------------------
   0 C :    0.251605
   1 N :    0.030885
   2 C :   -0.062228
   3 N :    0.268164
   4 N :    0.285513
   5 H :    0.032029
   6 H :    0.044063
   7 H :    0.060961
   8 H :    0.037113
   9 H :    0.034096
  10 H :   -0.010864
  11 H :    0.014881
  12 H :    0.013782

  Mayer bond orders larger than 0.100000
B(  0-C ,  1-N ) :   0.9973 B(  0-C ,  7-H ) :  -0.1771 B(  0-C , 10-H ) :   0.7791
B(  0-C , 11-H ) :   0.7313 B(  0-C , 12-H ) :   0.7509 B(  1-N ,  2-C ) :   1.0961
B(  1-N ,  3-N ) :   0.2482 B(  1-N ,  4-N ) :   0.2529 B(  1-N ,  7-H ) :   1.3095
B(  1-N , 10-H ) :   0.1974 B(  1-N , 11-H ) :   0.1934 B(  1-N , 12-H ) :   0.1661
B(  2-C ,  3-N ) :   0.9219 B(  2-C ,  4-N ) :   1.0915 B(  2-C ,  5-H ) :  -0.1691
B(  2-C ,  6-H ) :  -0.1465 B(  2-C ,  7-H ) :  -0.2424 B(  2-C ,  8-H ) :  -0.1801
B(  2-C ,  9-H ) :  -0.1108 B(  3-N ,  4-N ) :   0.1740 B(  3-N ,  8-H ) :   1.2187
B(  3-N ,  9-H ) :   1.1806 B(  4-N ,  5-H ) :   1.1899 B(  4-N ,  6-H ) :   1.1999
B(  5-H ,  6-H ) :  -0.1953 B(  8-H ,  9-H ) :  -0.1795

FINAL SINGLE POINT ENERGY      -244.311270130374

DIPOLE MOMENT
-------------
                                X             Y             Z
Electronic contribution:      1.69099      -1.97799      -0.72291
Nuclear contribution   :     -1.49827       1.51766       0.59175
                        -----------------------------------------
Total Dipole Moment    :      0.19272      -0.46033      -0.13115
                        -----------------------------------------
Magnitude (a.u.)       :      0.51599
Magnitude (Debye)      :      1.31154

Rotational constants in cm-1:     0.316446     0.130424     0.094259
Rotational constants in MHz :  9486.821695  3910.013387  2825.801764

                             ****ORCA TERMINATED NORMALLY****
TOTAL RUN TIME: 0 days 0 hours 0 minutes 9 seconds 420 msec
