                         Program Version 5.0.0 -  RELEASE  -
|  1> !LC-BLYP RIJCOSX def2-SVPD def2/J TightSCF
|  2> *xyz 0 1
|  3> C          1.87218        0.42790       -2.07750
|  4> S          0.57902        0.14047       -3.29794
|  5> F          0.22886       -1.24687       -3.12787
|  6> O         -0.43927        1.11897       -3.01455
|  7> O          1.24788        0.40347       -4.59565
|  8> H          2.66832       -0.27048       -2.23022
|  9> H          1.46951        0.30034       -1.09440
| 10> H          2.24690        1.42458       -2.18288
| 11> *
| 12>
| 13> %MaxCore 64000
| 14>
| 15> %pal nprocs 8
| 16> end
| 17>
| 18> %scf
| 19>   MaxIter 150
| 20> end
| 21>
| 22>
| 23>                          ****END OF INPUT****

CARTESIAN COORDINATES (ANGSTROEM)
---------------------------------
  C      1.872180    0.427900   -2.077500
  S      0.579020    0.140470   -3.297940
  F      0.228860   -1.246870   -3.127870
  O     -0.439270    1.118970   -3.014550
  O      1.247880    0.403470   -4.595650
  H      2.668320   -0.270480   -2.230220
  H      1.469510    0.300340   -1.094400
  H      2.246900    1.424580   -2.182880

 Total Charge           Charge          ....    0
 Multiplicity           Mult            ....    1
 Number of Electrons    NEL             ....   50
 Basis Dimension        Dim             ....  140

ORBITAL ENERGIES
----------------

  NO   OCC          E(Eh)            E(eV)
   0   2.0000     -88.575185     -2410.2533
   1   2.0000     -24.601548      -669.4421
   2   2.0000     -18.978317      -516.4263
   3   2.0000     -18.963778      -516.0306
   4   2.0000     -10.146290      -276.0946
   5   2.0000      -8.124623      -221.0822
   6   2.0000      -6.163469      -167.7165
   7   2.0000      -6.156468      -167.5260
   8   2.0000      -6.155387      -167.4966
   9   2.0000      -1.468276       -39.9538
  10   2.0000      -1.213047       -33.0087
  11   2.0000      -1.103890       -30.0384
  12   2.0000      -0.912021       -24.8173
  13   2.0000      -0.828934       -22.5564
  14   2.0000      -0.717968       -19.5369
  15   2.0000      -0.701208       -19.0809
  16   2.0000      -0.663895       -18.0655
  17   2.0000      -0.587817       -15.9953
  18   2.0000      -0.584992       -15.9184
  19   2.0000      -0.571753       -15.5582
  20   2.0000      -0.544073       -14.8050
  21   2.0000      -0.498337       -13.5604
  22   2.0000      -0.444733       -12.1018
  23   2.0000      -0.431158       -11.7324
  24   2.0000      -0.412409       -11.2222
  25   0.0000       0.040351         1.0980
  26   0.0000       0.075784         2.0622
  27   0.0000       0.082813         2.2535
  28   0.0000       0.084131         2.2893
  29   0.0000       0.104324         2.8388

MULLIKEN ATOMIC CHARGES
-----------------------
   0 C :    0.699510
   1 S :    1.048062
   2 F :   -0.316237
   3 O :   -0.534432
   4 O :   -0.584062
   5 H :   -0.101027
   6 H :   -0.104075
   7 H :   -0.107738
Sum of atomic charges:    0.0000000

LOEWDIN ATOMIC CHARGES
----------------------
   0 C :    0.110169
   1 S :    1.049509
   2 F :   -0.237985
   3 O :   -0.444609
   4 O :   -0.466729
   5 H :   -0.007453
   6 H :   -0.008612
   7 H :    0.005711

  Mayer bond orders larger than 0.100000
B(  0-C ,  1-S ) :   0.9951 B(  0-C ,  5-H ) :   0.8778 B(  0-C ,  6-H ) :   0.8773
B(  0-C ,  7-H ) :   0.8753 B(  1-S ,  2-F ) :   0.7913 B(  1-S ,  3-O ) :   1.6073
B(  1-S ,  4-O ) :   1.5645 B(  1-S ,  5-H ) :   0.1080 B(  1-S ,  7-H ) :   0.1344

FINAL SINGLE POINT ENERGY      -687.243842896055

DIPOLE MOMENT
-------------
                                X             Y             Z
Electronic contribution:     -3.75838      -3.03378      -2.47880
Nuclear contribution   :      4.52607       2.31146       3.82544
                        -----------------------------------------
Total Dipole Moment    :      0.76769      -0.72233       1.34664
                        -----------------------------------------
Magnitude (a.u.)       :      1.71013
Magnitude (Debye)      :      4.34680

Rotational constants in cm-1:     0.162724     0.156586     0.147157
Rotational constants in MHz :  4878.333818  4694.318771  4411.658495

                             ****ORCA TERMINATED NORMALLY****
TOTAL RUN TIME: 0 days 0 hours 0 minutes 7 seconds 644 msec
