                         Program Version 5.0.0 -  RELEASE  -
|  1> !LC-BLYP RIJCOSX def2-SVPD def2/J TightSCF
|  2> *xyz 0 1
|  3> C          3.38093        2.08304       -3.35013
|  4> C          4.53592        1.18245       -3.42852
|  5> C          4.67196        0.12227       -4.22060
|  6> N          5.86602       -0.50785       -4.22428
|  7> N          3.69888       -0.31284       -4.98699
|  8> H          2.73141       -0.05009       -4.84900
|  9> H          3.89005       -1.05517       -5.64373
| 10> H          5.25193        1.30346       -2.72101
| 11> H          6.69516       -0.06232       -3.85160
| 12> H          5.97538       -1.39688       -4.69141
| 13> H          2.69962        1.85926       -4.14426
| 14> H          3.71221        3.09654       -3.43937
| 15> H          2.88835        1.95032       -2.40957
| 16> *
| 17>
| 18> %MaxCore 64000
| 19>
| 20> %pal nprocs 8
| 21> end
| 22>
| 23> %scf
| 24>   MaxIter 150
| 25> end
| 26>
| 27>
| 28>                          ****END OF INPUT****

CARTESIAN COORDINATES (ANGSTROEM)
---------------------------------
  C      3.380930    2.083040   -3.350130
  C      4.535920    1.182450   -3.428520
  C      4.671960    0.122270   -4.220600
  N      5.866020   -0.507850   -4.224280
  N      3.698880   -0.312840   -4.986990
  H      2.731410   -0.050090   -4.849000
  H      3.890050   -1.055170   -5.643730
  H      5.251930    1.303460   -2.721010
  H      6.695160   -0.062320   -3.851600
  H      5.975380   -1.396880   -4.691410
  H      2.699620    1.859260   -4.144260
  H      3.712210    3.096540   -3.439370
  H      2.888350    1.950320   -2.409570

 Total Charge           Charge          ....    0
 Multiplicity           Mult            ....    1
 Number of Electrons    NEL             ....   40
 Basis Dimension        Dim             ....  164

ORBITAL ENERGIES
----------------

  NO   OCC          E(Eh)            E(eV)
   0   2.0000     -14.189989      -386.1292
   1   2.0000     -14.182246      -385.9185
   2   2.0000     -10.128131      -275.6005
   3   2.0000     -10.049193      -273.4524
   4   2.0000     -10.009238      -272.3652
   5   2.0000      -1.053411       -28.6648
   6   2.0000      -0.959925       -26.1209
   7   2.0000      -0.850844       -23.1526
   8   2.0000      -0.758674       -20.6446
   9   2.0000      -0.689876       -18.7725
  10   2.0000      -0.648109       -17.6359
  11   2.0000      -0.607563       -16.5326
  12   2.0000      -0.580160       -15.7870
  13   2.0000      -0.530740       -14.4422
  14   2.0000      -0.509203       -13.8561
  15   2.0000      -0.476843       -12.9756
  16   2.0000      -0.461108       -12.5474
  17   2.0000      -0.437610       -11.9080
  18   2.0000      -0.364130        -9.9085
  19   2.0000      -0.249680        -6.7941
  20   0.0000       0.071952         1.9579
  21   0.0000       0.098476         2.6797
  22   0.0000       0.109349         2.9756
  23   0.0000       0.139299         3.7905
  24   0.0000       0.142625         3.8810

MULLIKEN ATOMIC CHARGES
-----------------------
   0 C :    1.159763
   1 C :   -0.664384
   2 C :    0.794984
   3 N :    0.197198
   4 N :    0.265600
   5 H :   -0.142585
   6 H :   -0.251840
   7 H :   -0.524162
   8 H :   -0.132824
   9 H :   -0.165655
  10 H :   -0.299717
  11 H :   -0.099223
  12 H :   -0.137156
Sum of atomic charges:    0.0000000

LOEWDIN ATOMIC CHARGES
----------------------
   0 C :    0.090286
   1 C :   -0.072431
   2 C :   -0.250506
   3 N :    0.186694
   4 N :    0.200997
   5 H :   -0.002956
   6 H :   -0.007531
   7 H :   -0.050193
   8 H :    0.000404
   9 H :   -0.018862
  10 H :   -0.039415
  11 H :   -0.018519
  12 H :   -0.017966

  Mayer bond orders larger than 0.100000
B(  0-C ,  1-C ) :   1.1355 B(  0-C ,  7-H ) :   0.1934 B(  0-C , 10-H ) :   0.6727
B(  0-C , 11-H ) :   0.6253 B(  0-C , 12-H ) :   0.6451 B(  1-C ,  2-C ) :   1.5710
B(  1-C ,  3-N ) :   0.4791 B(  1-C ,  4-N ) :   0.3364 B(  1-C ,  7-H ) :   0.9032
B(  1-C , 10-H ) :   0.4527 B(  1-C , 11-H ) :   0.2409 B(  1-C , 12-H ) :   0.2056
B(  2-C ,  3-N ) :   0.8416 B(  2-C ,  4-N ) :   1.1009 B(  2-C ,  5-H ) :  -0.1017
B(  2-C ,  6-H ) :  -0.1438 B(  2-C ,  7-H ) :   0.1244 B(  2-C ,  8-H ) :  -0.1450
B(  2-C , 10-H ) :  -0.1327 B(  3-N ,  4-N ) :   0.1096 B(  3-N ,  8-H ) :   1.2190
B(  3-N ,  9-H ) :   1.1408 B(  4-N ,  5-H ) :   1.1780 B(  4-N ,  6-H ) :   1.2576
B(  5-H ,  6-H ) :  -0.1879 B(  8-H ,  9-H ) :  -0.1715 B( 10-H , 11-H ) :   0.1715
B( 10-H , 12-H ) :   0.1079

FINAL SINGLE POINT ENERGY      -227.850701490515

DIPOLE MOMENT
-------------
                                X             Y             Z
Electronic contribution:      1.56219      -2.44753      -1.21490
Nuclear contribution   :     -1.47697       1.65537       0.71722
                        -----------------------------------------
Total Dipole Moment    :      0.08522      -0.79217      -0.49769
                        -----------------------------------------
Magnitude (a.u.)       :      0.93941
Magnitude (Debye)      :      2.38779

Rotational constants in cm-1:     0.321284     0.131400     0.095192
Rotational constants in MHz :  9631.850868  3939.260061  2853.789421

                             ****ORCA TERMINATED NORMALLY****
TOTAL RUN TIME: 0 days 0 hours 0 minutes 11 seconds 148 msec
