                         Program Version 5.0.0 -  RELEASE  -
|  1> !LC-BLYP RIJCOSX def2-SVPD def2/J TightSCF
|  2> *xyz 0 1
|  3> C          1.87218        0.42790       -2.07750
|  4> S          0.57902        0.14047       -3.29794
|  5> O          0.22886       -1.24687       -3.12787
|  6> F         -0.43927        1.11897       -3.01455
|  7> O          1.24788        0.40347       -4.59565
|  8> H          2.66832       -0.27048       -2.23022
|  9> H          1.46951        0.30034       -1.09440
| 10> H          2.24690        1.42458       -2.18288
| 11> *
| 12>
| 13> %MaxCore 64000
| 14>
| 15> %pal nprocs 8
| 16> end
| 17>
| 18> %scf
| 19>   MaxIter 150
| 20> end
| 21>
| 22>
| 23>                          ****END OF INPUT****

CARTESIAN COORDINATES (ANGSTROEM)
---------------------------------
  C      1.872180    0.427900   -2.077500
  S      0.579020    0.140470   -3.297940
  O      0.228860   -1.246870   -3.127870
  F     -0.439270    1.118970   -3.014550
  O      1.247880    0.403470   -4.595650
  H      2.668320   -0.270480   -2.230220
  H      1.469510    0.300340   -1.094400
  H      2.246900    1.424580   -2.182880

 Total Charge           Charge          ....    0
 Multiplicity           Mult            ....    1
 Number of Electrons    NEL             ....   50
 Basis Dimension        Dim             ....  140

ORBITAL ENERGIES
----------------

  NO   OCC          E(Eh)            E(eV)
   0   2.0000     -88.575307     -2410.2566
   1   2.0000     -24.601621      -669.4442
   2   2.0000     -18.978413      -516.4289
   3   2.0000     -18.963950      -516.0353
   4   2.0000     -10.146133      -276.0903
   5   2.0000      -8.124722      -221.0849
   6   2.0000      -6.163575      -167.7194
   7   2.0000      -6.156542      -167.5280
   8   2.0000      -6.155508      -167.4999
   9   2.0000      -1.468530       -39.9607
  10   2.0000      -1.212622       -32.9971
  11   2.0000      -1.104735       -30.0614
  12   2.0000      -0.911240       -24.7961
  13   2.0000      -0.829014       -22.5586
  14   2.0000      -0.718183       -19.5428
  15   2.0000      -0.701004       -19.0753
  16   2.0000      -0.664151       -18.0725
  17   2.0000      -0.587213       -15.9789
  18   2.0000      -0.585015       -15.9191
  19   2.0000      -0.572521       -15.5791
  20   2.0000      -0.544218       -14.8089
  21   2.0000      -0.497656       -13.5419
  22   2.0000      -0.444041       -12.0830
  23   2.0000      -0.431130       -11.7316
  24   2.0000      -0.413458       -11.2508
  25   0.0000       0.040355         1.0981
  26   0.0000       0.075825         2.0633
  27   0.0000       0.082874         2.2551
  28   0.0000       0.084033         2.2867
  29   0.0000       0.103729         2.8226

MULLIKEN ATOMIC CHARGES
-----------------------
   0 C :    0.699428
   1 S :    1.051040
   2 O :   -0.538202
   3 F :   -0.313857
   4 O :   -0.585740
   5 H :   -0.103517
   6 H :   -0.105447
   7 H :   -0.103704
Sum of atomic charges:    0.0000000

LOEWDIN ATOMIC CHARGES
----------------------
   0 C :    0.110024
   1 S :    1.049811
   2 O :   -0.445687
   3 F :   -0.236844
   4 O :   -0.466770
   5 H :    0.005935
   6 H :   -0.009026
   7 H :   -0.007442

  Mayer bond orders larger than 0.100000
B(  0-C ,  1-S ) :   0.9959 B(  0-C ,  5-H ) :   0.8744 B(  0-C ,  6-H ) :   0.8761
B(  0-C ,  7-H ) :   0.8798 B(  1-S ,  2-O ) :   1.6068 B(  1-S ,  3-F ) :   0.7902
B(  1-S ,  4-O ) :   1.5636 B(  1-S ,  5-H ) :   0.1331 B(  1-S ,  7-H ) :   0.1088

FINAL SINGLE POINT ENERGY      -687.243861550963

DIPOLE MOMENT
-------------
                                X             Y             Z
Electronic contribution:     -4.87463       0.91513      -2.28710
Nuclear contribution   :      5.19357      -0.05217       3.71223
                        -----------------------------------------
Total Dipole Moment    :      0.31895       0.86296       1.42513
                        -----------------------------------------
Magnitude (a.u.)       :      1.69630
Magnitude (Debye)      :      4.31164

Rotational constants in cm-1:     0.163837     0.155047     0.147593
Rotational constants in MHz :  4911.724022  4648.196128  4424.713532

                             ****ORCA TERMINATED NORMALLY****
TOTAL RUN TIME: 0 days 0 hours 0 minutes 7 seconds 591 msec
