                         Program Version 5.0.0 -  RELEASE  -
|  1> !LC-BLYP RIJCOSX def2-SVPD def2/J TightSCF
|  2> *xyz 0 1
|  3> C          3.38093        2.08304       -3.35013
|  4> N          4.53592        1.18245       -3.42852
|  5> C          4.67196        0.12227       -4.22060
|  6> C          5.86602       -0.50785       -4.22428
|  7> N          3.69888       -0.31284       -4.98699
|  8> H          2.73141       -0.05009       -4.84900
|  9> H          3.89005       -1.05517       -5.64373
| 10> H          5.25193        1.30346       -2.72101
| 11> H          6.69516       -0.06232       -3.85160
| 12> H          5.97538       -1.39688       -4.69141
| 13> H          2.69962        1.85926       -4.14426
| 14> H          3.71221        3.09654       -3.43937
| 15> H          2.88835        1.95032       -2.40957
| 16> *
| 17>
| 18> %MaxCore 64000
| 19>
| 20> %pal nprocs 8
| 21> end
| 22>
| 23> %scf
| 24>   MaxIter 150
| 25> end
| 26>
| 27>
| 28>                          ****END OF INPUT****

CARTESIAN COORDINATES (ANGSTROEM)
---------------------------------
  C      3.380930    2.083040   -3.350130
  N      4.535920    1.182450   -3.428520
  C      4.671960    0.122270   -4.220600
  C      5.866020   -0.507850   -4.224280
  N      3.698880   -0.312840   -4.986990
  H      2.731410   -0.050090   -4.849000
  H      3.890050   -1.055170   -5.643730
  H      5.251930    1.303460   -2.721010
  H      6.695160   -0.062320   -3.851600
  H      5.975380   -1.396880   -4.691410
  H      2.699620    1.859260   -4.144260
  H      3.712210    3.096540   -3.439370
  H      2.888350    1.950320   -2.409570

 Total Charge           Charge          ....    0
 Multiplicity           Mult            ....    1
 Number of Electrons    NEL             ....   40
 Basis Dimension        Dim             ....  164

ORBITAL ENERGIES
----------------

  NO   OCC          E(Eh)            E(eV)
   0   2.0000     -14.191775      -386.1778
   1   2.0000     -14.189296      -386.1104
   2   2.0000     -10.135282      -275.7950
   3   2.0000     -10.117799      -275.3193
   4   2.0000      -9.993104      -271.9262
   5   2.0000      -1.062439       -28.9104
   6   2.0000      -0.979303       -26.6482
   7   2.0000      -0.843585       -22.9551
   8   2.0000      -0.764657       -20.8074
   9   2.0000      -0.707964       -19.2647
  10   2.0000      -0.649152       -17.6643
  11   2.0000      -0.596110       -16.2210
  12   2.0000      -0.581942       -15.8355
  13   2.0000      -0.557287       -15.1646
  14   2.0000      -0.508378       -13.8337
  15   2.0000      -0.496598       -13.5131
  16   2.0000      -0.483242       -13.1497
  17   2.0000      -0.457659       -12.4535
  18   2.0000      -0.353657        -9.6235
  19   2.0000      -0.251366        -6.8400
  20   0.0000       0.065802         1.7906
  21   0.0000       0.100339         2.7304
  22   0.0000       0.103243         2.8094
  23   0.0000       0.137463         3.7406
  24   0.0000       0.144081         3.9206

MULLIKEN ATOMIC CHARGES
-----------------------
   0 C :    1.421845
   1 N :   -0.376978
   2 C :    0.563810
   3 C :    0.577835
   4 N :    0.297325
   5 H :   -0.206877
   6 H :   -0.118186
   7 H :   -0.303857
   8 H :   -0.543336
   9 H :   -0.502085
  10 H :   -0.315715
  11 H :   -0.244351
  12 H :   -0.249428
Sum of atomic charges:   -0.0000000

LOEWDIN ATOMIC CHARGES
----------------------
   0 C :    0.199730
   1 N :   -0.025125
   2 C :   -0.258329
   3 C :    0.130208
   4 N :    0.202226
   5 H :   -0.015433
   6 H :    0.011136
   7 H :    0.033705
   8 H :   -0.106840
   9 H :   -0.110679
  10 H :   -0.029579
  11 H :   -0.014996
  12 H :   -0.016025

  Mayer bond orders larger than 0.100000
B(  0-C ,  1-N ) :   0.9547 B(  0-C ,  7-H ) :  -0.1822 B(  0-C , 10-H ) :   0.7745
B(  0-C , 11-H ) :   0.7153 B(  0-C , 12-H ) :   0.7356 B(  1-N ,  2-C ) :   1.1130
B(  1-N ,  3-C ) :   0.2665 B(  1-N ,  4-N ) :   0.1835 B(  1-N ,  7-H ) :   1.2858
B(  1-N , 10-H ) :   0.2203 B(  1-N , 11-H ) :   0.1971 B(  1-N , 12-H ) :   0.1815
B(  2-C ,  3-C ) :   1.3198 B(  2-C ,  4-N ) :   1.1448 B(  2-C ,  5-H ) :  -0.1040
B(  2-C ,  7-H ) :  -0.2297 B(  2-C ,  9-H ) :   0.1802 B(  3-C ,  4-N ) :   0.2232
B(  3-C ,  8-H ) :   0.8137 B(  3-C ,  9-H ) :   0.7073 B(  4-N ,  5-H ) :   1.1891
B(  4-N ,  6-H ) :   1.1706 B(  5-H ,  6-H ) :  -0.1914

FINAL SINGLE POINT ENERGY      -227.835750339568

DIPOLE MOMENT
-------------
                                X             Y             Z
Electronic contribution:      0.14736      -0.80239      -0.45595
Nuclear contribution   :     -1.20756       1.31300       0.55604
                        -----------------------------------------
Total Dipole Moment    :     -1.06021       0.51061       0.10009
                        -----------------------------------------
Magnitude (a.u.)       :      1.18101
Magnitude (Debye)      :      3.00188

Rotational constants in cm-1:     0.323683     0.135884     0.097747
Rotational constants in MHz :  9703.770798  4073.695357  2930.389562

                             ****ORCA TERMINATED NORMALLY****
TOTAL RUN TIME: 0 days 0 hours 0 minutes 10 seconds 157 msec
