                         Program Version 5.0.0 -  RELEASE  -
|  1> !LC-BLYP RIJCOSX def2-SVPD def2/J TightSCF
|  2> *xyz 0 1
|  3> C          1.87218        0.42790       -2.07750
|  4> S          0.57902        0.14047       -3.29794
|  5> O          0.22886       -1.24687       -3.12787
|  6> O         -0.43927        1.11897       -3.01455
|  7> F          1.24788        0.40347       -4.59565
|  8> H          2.66832       -0.27048       -2.23022
|  9> H          1.46951        0.30034       -1.09440
| 10> H          2.24690        1.42458       -2.18288
| 11> *
| 12>
| 13> %MaxCore 64000
| 14>
| 15> %pal nprocs 8
| 16> end
| 17>
| 18> %scf
| 19>   MaxIter 150
| 20> end
| 21>
| 22>
| 23>                          ****END OF INPUT****

CARTESIAN COORDINATES (ANGSTROEM)
---------------------------------
  C      1.872180    0.427900   -2.077500
  S      0.579020    0.140470   -3.297940
  O      0.228860   -1.246870   -3.127870
  O     -0.439270    1.118970   -3.014550
  F      1.247880    0.403470   -4.595650
  H      2.668320   -0.270480   -2.230220
  H      1.469510    0.300340   -1.094400
  H      2.246900    1.424580   -2.182880

 Total Charge           Charge          ....    0
 Multiplicity           Mult            ....    1
 Number of Electrons    NEL             ....   50
 Basis Dimension        Dim             ....  140

ORBITAL ENERGIES
----------------

  NO   OCC          E(Eh)            E(eV)
   0   2.0000     -88.573131     -2410.1974
   1   2.0000     -24.580436      -668.8677
   2   2.0000     -18.977945      -516.4161
   3   2.0000     -18.977880      -516.4144
   4   2.0000     -10.145137      -276.0632
   5   2.0000      -8.122451      -221.0231
   6   2.0000      -6.161068      -167.6512
   7   2.0000      -6.154495      -167.4723
   8   2.0000      -6.153481      -167.4447
   9   2.0000      -1.433138       -38.9977
  10   2.0000      -1.221993       -33.2521
  11   2.0000      -1.125601       -30.6292
  12   2.0000      -0.909103       -24.7380
  13   2.0000      -0.811562       -22.0837
  14   2.0000      -0.702155       -19.1066
  15   2.0000      -0.676341       -18.4042
  16   2.0000      -0.660661       -17.9775
  17   2.0000      -0.589297       -16.0356
  18   2.0000      -0.584923       -15.9166
  19   2.0000      -0.570234       -15.5169
  20   2.0000      -0.550569       -14.9817
  21   2.0000      -0.503655       -13.7052
  22   2.0000      -0.450032       -12.2460
  23   2.0000      -0.443073       -12.0566
  24   2.0000      -0.428363       -11.6563
  25   0.0000       0.042992         1.1699
  26   0.0000       0.077446         2.1074
  27   0.0000       0.083889         2.2827
  28   0.0000       0.084096         2.2884
  29   0.0000       0.103617         2.8196

MULLIKEN ATOMIC CHARGES
-----------------------
   0 C :    0.698887
   1 S :    1.055042
   2 O :   -0.550431
   3 O :   -0.547929
   4 F :   -0.339757
   5 H :   -0.099654
   6 H :   -0.109659
   7 H :   -0.106499
Sum of atomic charges:   -0.0000000

LOEWDIN ATOMIC CHARGES
----------------------
   0 C :    0.110396
   1 S :    1.047138
   2 O :   -0.446111
   3 O :   -0.445190
   4 F :   -0.255569
   5 H :   -0.007149
   6 H :    0.004438
   7 H :   -0.007954

  Mayer bond orders larger than 0.100000
B(  0-C ,  1-S ) :   0.9951 B(  0-C ,  5-H ) :   0.8800 B(  0-C ,  6-H ) :   0.8713
B(  0-C ,  7-H ) :   0.8793 B(  1-S ,  2-O ) :   1.6039 B(  1-S ,  3-O ) :   1.6040
B(  1-S ,  4-F ) :   0.7372 B(  1-S ,  5-H ) :   0.1089 B(  1-S ,  6-H ) :   0.1259
B(  1-S ,  7-H ) :   0.1098

FINAL SINGLE POINT ENERGY      -687.262134677618

DIPOLE MOMENT
-------------
                                X             Y             Z
Electronic contribution:     -2.04037      -0.27511      -4.95354
Nuclear contribution   :      3.50800       0.66266       5.29185
                        -----------------------------------------
Total Dipole Moment    :      1.46763       0.38755       0.33831
                        -----------------------------------------
Magnitude (a.u.)       :      1.55518
Magnitude (Debye)      :      3.95296

Rotational constants in cm-1:     0.163942     0.153101     0.149133
Rotational constants in MHz :  4914.860621  4589.839477  4470.901507

                             ****ORCA TERMINATED NORMALLY****
TOTAL RUN TIME: 0 days 0 hours 0 minutes 7 seconds 538 msec
