                         Program Version 5.0.0 -  RELEASE  -
|  1> !LC-BLYP RIJCOSX def2-SVPD def2/J TightSCF
|  2> *xyz 0 1
|  3> C          3.38093        2.08304       -3.35013
|  4> N          4.53592        1.18245       -3.42852
|  5> C          4.67196        0.12227       -4.22060
|  6> N          5.86602       -0.50785       -4.22428
|  7> C          3.69888       -0.31284       -4.98699
|  8> H          2.73141       -0.05009       -4.84900
|  9> H          3.89005       -1.05517       -5.64373
| 10> H          5.25193        1.30346       -2.72101
| 11> H          6.69516       -0.06232       -3.85160
| 12> H          5.97538       -1.39688       -4.69141
| 13> H          2.69962        1.85926       -4.14426
| 14> H          3.71221        3.09654       -3.43937
| 15> H          2.88835        1.95032       -2.40957
| 16> *
| 17>
| 18> %MaxCore 64000
| 19>
| 20> %pal nprocs 8
| 21> end
| 22>
| 23> %scf
| 24>   MaxIter 150
| 25> end
| 26>
| 27>
| 28>                          ****END OF INPUT****

CARTESIAN COORDINATES (ANGSTROEM)
---------------------------------
  C      3.380930    2.083040   -3.350130
  N      4.535920    1.182450   -3.428520
  C      4.671960    0.122270   -4.220600
  N      5.866020   -0.507850   -4.224280
  C      3.698880   -0.312840   -4.986990
  H      2.731410   -0.050090   -4.849000
  H      3.890050   -1.055170   -5.643730
  H      5.251930    1.303460   -2.721010
  H      6.695160   -0.062320   -3.851600
  H      5.975380   -1.396880   -4.691410
  H      2.699620    1.859260   -4.144260
  H      3.712210    3.096540   -3.439370
  H      2.888350    1.950320   -2.409570

 Total Charge           Charge          ....    0
 Multiplicity           Mult            ....    1
 Number of Electrons    NEL             ....   40
 Basis Dimension        Dim             ....  164

ORBITAL ENERGIES
----------------

  NO   OCC          E(Eh)            E(eV)
   0   2.0000     -14.189902      -386.1269
   1   2.0000     -14.185044      -385.9947
   2   2.0000     -10.132896      -275.7301
   3   2.0000     -10.108905      -275.0773
   4   2.0000      -9.998638      -272.0768
   5   2.0000      -1.056134       -28.7389
   6   2.0000      -0.970650       -26.4127
   7   2.0000      -0.823843       -22.4179
   8   2.0000      -0.799847       -21.7649
   9   2.0000      -0.670034       -18.2326
  10   2.0000      -0.651596       -17.7308
  11   2.0000      -0.618383       -16.8271
  12   2.0000      -0.559820       -15.2335
  13   2.0000      -0.542694       -14.7674
  14   2.0000      -0.520584       -14.1658
  15   2.0000      -0.487815       -13.2741
  16   2.0000      -0.483698       -13.1621
  17   2.0000      -0.457998       -12.4628
  18   2.0000      -0.346249        -9.4219
  19   2.0000      -0.264433        -7.1956
  20   0.0000       0.072915         1.9841
  21   0.0000       0.093052         2.5321
  22   0.0000       0.107522         2.9258
  23   0.0000       0.137496         3.7414
  24   0.0000       0.144361         3.9283

MULLIKEN ATOMIC CHARGES
-----------------------
   0 C :    1.382427
   1 N :   -0.344594
   2 C :    0.726785
   3 N :    0.228365
   4 C :    0.274825
   5 H :   -0.338658
   6 H :   -0.515568
   7 H :   -0.381263
   8 H :   -0.233536
   9 H :   -0.071036
  10 H :   -0.249994
  11 H :   -0.226856
  12 H :   -0.250896
Sum of atomic charges:   -0.0000000

LOEWDIN ATOMIC CHARGES
----------------------
   0 C :    0.208286
   1 N :   -0.035583
   2 C :   -0.259057
   3 N :    0.191119
   4 C :    0.141133
   5 H :   -0.102626
   6 H :   -0.096183
   7 H :    0.018486
   8 H :   -0.014250
   9 H :   -0.000114
  10 H :   -0.024630
  11 H :   -0.014019
  12 H :   -0.012561

  Mayer bond orders larger than 0.100000
B(  0-C ,  1-N ) :   0.9748 B(  0-C ,  7-H ) :  -0.1633 B(  0-C , 10-H ) :   0.8111
B(  0-C , 11-H ) :   0.7034 B(  0-C , 12-H ) :   0.7113 B(  1-N ,  2-C ) :   1.0314
B(  1-N ,  3-N ) :   0.1582 B(  1-N ,  4-C ) :   0.3569 B(  1-N ,  7-H ) :   1.3206
B(  1-N , 10-H ) :   0.1732 B(  1-N , 11-H ) :   0.1984 B(  1-N , 12-H ) :   0.2030
B(  2-C ,  3-N ) :   0.9993 B(  2-C ,  4-C ) :   1.4486 B(  2-C ,  5-H ) :   0.1069
B(  2-C ,  6-H ) :   0.1340 B(  2-C ,  7-H ) :  -0.2403 B(  2-C ,  8-H ) :  -0.1233
B(  3-N ,  4-C ) :   0.2669 B(  3-N ,  8-H ) :   1.2298 B(  3-N ,  9-H ) :   1.1529
B(  4-C ,  5-H ) :   0.6975 B(  4-C ,  6-H ) :   0.8773 B(  8-H ,  9-H ) :  -0.1791

FINAL SINGLE POINT ENERGY      -227.840736977648

DIPOLE MOMENT
-------------
                                X             Y             Z
Electronic contribution:      2.30635      -1.01102       0.23823
Nuclear contribution   :     -1.64651       1.35250       0.40156
                        -----------------------------------------
Total Dipole Moment    :      0.65985       0.34148       0.63979
                        -----------------------------------------
Magnitude (a.u.)       :      0.98048
Magnitude (Debye)      :      2.49218

Rotational constants in cm-1:     0.339624     0.131069     0.096565
Rotational constants in MHz : 10181.679558  3929.342810  2894.941560

                             ****ORCA TERMINATED NORMALLY****
TOTAL RUN TIME: 0 days 0 hours 0 minutes 10 seconds 202 msec
