                         Program Version 5.0.0 -  RELEASE  -
|  1> !LC-BLYP RIJCOSX def2-SVPD def2/J TightSCF xyzfile
|  2>
|  3> *xyzfile 0 1 D4.xyz
|  4>
|  5> %MaxCore 64000
|  6>
|  7> %pal nprocs 4
|  8> end
|  9>
| 10> %scf
| 11>   MaxIter 150
| 12> end
| 13>
| 14>
| 15>                          ****END OF INPUT****

CARTESIAN COORDINATES (ANGSTROEM)
---------------------------------
  C      3.380928    2.083045   -3.350127
  C      4.535924    1.182447   -3.428518
  C      2.495557    1.816150   -2.136364
  C      1.872181    0.427903   -2.077497
  H      2.614270   -0.365825   -2.198894
  H      1.389953    0.273087   -1.112360
  S      0.579024    0.140472   -3.297943
  C      4.671956    0.122273   -4.220598
  N      5.866023   -0.507849   -4.224284
  N      3.698881   -0.312844   -4.986988
  H      2.731405   -0.050091   -4.849000
  H      3.890046   -1.055172   -5.643730
  H      5.251933    1.303459   -2.721014
  H      6.695165   -0.062322   -3.851596
  H      5.975383   -1.396884   -4.691414
  O      0.228860   -1.246868   -3.127871
  F     -0.439269    1.118966   -3.014550
  O      1.247881    0.403474   -4.595647
  H      1.697003    2.561969   -2.141109
  H      3.080787    1.987436   -1.225838
  H      2.806463    1.986511   -4.268484
  H      3.778714    3.098282   -3.307383

 Total Charge           Charge          ....    0
 Multiplicity           Mult            ....    1
 Number of Electrons    NEL             ....   96
 Basis Dimension        Dim             ....  324

ORBITAL ENERGIES
----------------

  NO   OCC          E(Eh)            E(eV)
   0   2.0000     -88.578537     -2410.3445
   1   2.0000     -24.605116      -669.5392
   2   2.0000     -18.982883      -516.5505
   3   2.0000     -18.976214      -516.3690
   4   2.0000     -14.181804      -385.9065
   5   2.0000     -14.164422      -385.4335
   6   2.0000     -10.141743      -275.9709
   7   2.0000     -10.128901      -275.6214
   8   2.0000     -10.099683      -274.8263
   9   2.0000     -10.064353      -273.8650
  10   2.0000     -10.007846      -272.3273
  11   2.0000      -8.127611      -221.1635
  12   2.0000      -6.166528      -167.7998
  13   2.0000      -6.160012      -167.6224
  14   2.0000      -6.157664      -167.5586
  15   2.0000      -1.471200       -40.0334
  16   2.0000      -1.220745       -33.2182
  17   2.0000      -1.118918       -30.4473
  18   2.0000      -1.046116       -28.4663
  19   2.0000      -0.952425       -25.9168
  20   2.0000      -0.937643       -25.5146
  21   2.0000      -0.869676       -23.6651
  22   2.0000      -0.832837       -22.6627
  23   2.0000      -0.790592       -21.5131
  24   2.0000      -0.736013       -20.0279
  25   2.0000      -0.713224       -19.4078
  26   2.0000      -0.700183       -19.0530
  27   2.0000      -0.687602       -18.7106
  28   2.0000      -0.654794       -17.8178
  29   2.0000      -0.640112       -17.4183
  30   2.0000      -0.621827       -16.9208
  31   2.0000      -0.596148       -16.2220
  32   2.0000      -0.587541       -15.9878
  33   2.0000      -0.581849       -15.8329
  34   2.0000      -0.562017       -15.2933
  35   2.0000      -0.544756       -14.8236
  36   2.0000      -0.515227       -14.0201
  37   2.0000      -0.508125       -13.8268
  38   2.0000      -0.505038       -13.7428
  39   2.0000      -0.484750       -13.1907
  40   2.0000      -0.463496       -12.6124
  41   2.0000      -0.450160       -12.2495
  42   2.0000      -0.442444       -12.0395
  43   2.0000      -0.435885       -11.8610
  44   2.0000      -0.426879       -11.6160
  45   2.0000      -0.406454       -11.0602
  46   2.0000      -0.354545        -9.6476
  47   2.0000      -0.252711        -6.8766
  48   0.0000       0.045298         1.2326
  49   0.0000       0.072560         1.9745
  50   0.0000       0.074037         2.0146
  51   0.0000       0.082357         2.2410
  52   0.0000       0.098055         2.6682

MULLIKEN ATOMIC CHARGES
-----------------------
   0 C :    0.652464
   1 C :   -0.104899
   2 C :    0.404906
   3 C :    0.275124
   4 H :   -0.029002
   5 H :   -0.189802
   6 S :    1.401036
   7 C :    0.663999
   8 N :    0.182421
   9 N :    0.770570
  10 H :   -0.537426
  11 H :   -0.287955
  12 H :   -0.529213
  13 H :   -0.141230
  14 H :   -0.158374
  15 O :   -0.555821
  16 F :   -0.404792
  17 O :   -0.743085
  18 H :   -0.102703
  19 H :   -0.120420
  20 H :   -0.232546
  21 H :   -0.213251
Sum of atomic charges:    0.0000000

LOEWDIN ATOMIC CHARGES
----------------------
   0 C :   -0.050764
   1 C :   -0.035997
   2 C :   -0.042421
   3 C :   -0.043875
   4 H :    0.038225
   5 H :    0.026719
   6 S :    1.117135
   7 C :   -0.230305
   8 N :    0.191950
   9 N :    0.243200
  10 H :   -0.146225
  11 H :    0.002586
  12 H :   -0.048710
  13 H :   -0.000153
  14 H :   -0.015569
  15 O :   -0.428752
  16 F :   -0.222983
  17 O :   -0.441554
  18 H :    0.025425
  19 H :    0.040534
  20 H :   -0.003100
  21 H :    0.024633

  Mayer bond orders larger than 0.100000
B(  0-C ,  1-C ) :   1.0821 B(  0-C ,  2-C ) :   1.0979 B(  0-C ,  7-C ) :   0.1224
B(  0-C , 12-H ) :   0.2631 B(  0-C , 18-H ) :   0.1942 B(  0-C , 19-H ) :   0.1658
B(  0-C , 20-H ) :   0.6679 B(  0-C , 21-H ) :   0.6701 B(  1-C ,  2-C ) :   0.1534
B(  1-C ,  7-C ) :   1.5717 B(  1-C ,  8-N ) :   0.4216 B(  1-C ,  9-N ) :   0.2411
B(  1-C , 10-H ) :  -0.1114 B(  1-C , 12-H ) :   0.7215 B(  1-C , 20-H ) :   0.3678
B(  1-C , 21-H ) :   0.1507 B(  2-C ,  3-C ) :   1.2352 B(  2-C ,  4-H ) :   0.1633
B(  2-C ,  5-H ) :   0.1784 B(  2-C , 18-H ) :   0.7229 B(  2-C , 19-H ) :   0.7114
B(  2-C , 20-H ) :   0.2022 B(  2-C , 21-H ) :   0.1217 B(  3-C ,  4-H ) :   0.9540
B(  3-C ,  5-H ) :   0.7221 B(  3-C ,  6-S ) :   0.9392 B(  3-C , 17-O ) :   0.1306
B(  3-C , 18-H ) :   0.1657 B(  3-C , 19-H ) :   0.1543 B(  5-H ,  6-S ) :   0.1238
B(  6-S , 15-O ) :   1.6050 B(  6-S , 16-F ) :   0.7156 B(  6-S , 17-O ) :   1.3959
B(  7-C ,  8-N ) :   0.8345 B(  7-C ,  9-N ) :   1.1101 B(  7-C , 10-H ) :  -0.1354
B(  7-C , 11-H ) :  -0.1893 B(  7-C , 13-H ) :  -0.1907 B(  7-C , 20-H ) :  -0.1630
B(  8-N , 12-H ) :   0.1302 B(  8-N , 13-H ) :   1.2502 B(  8-N , 14-H ) :   1.1485
B(  9-N , 10-H ) :   1.1279 B(  9-N , 11-H ) :   1.1619 B( 10-H , 11-H ) :  -0.2028
B( 10-H , 17-O ) :   0.2249 B( 13-H , 14-H ) :  -0.1752 B( 18-H , 19-H ) :  -0.1098

FINAL SINGLE POINT ENERGY      -953.107804906082

DIPOLE MOMENT
-------------
                                X             Y             Z
Electronic contribution:    -16.36958      -2.62037      -0.91196
Nuclear contribution   :     16.65743       2.74852       1.69529
                        -----------------------------------------
Total Dipole Moment    :      0.28784       0.12815       0.78332
                        -----------------------------------------
Magnitude (a.u.)       :      0.84432
Magnitude (Debye)      :      2.14609

Rotational constants in cm-1:     0.059907     0.020458     0.017675
Rotational constants in MHz :  1795.978106   613.328205   529.885290

                             ****ORCA TERMINATED NORMALLY****
TOTAL RUN TIME: 0 days 0 hours 1 minutes 42 seconds 292 msec
