                         Program Version 5.0.0 -  RELEASE  -
|  1> !LC-BLYP RIJCOSX def2-SVP def2/J TightSCF
|  2> *xyz -1 1
|  3> C         -0.90349       -0.87394       -1.98739
|  4> C         -0.96015       -0.52236       -0.48987
|  5> H         -1.69039       -1.20813       -0.02168
|  6> H         -1.41449        0.48633       -0.40668
|  7> O          0.26170       -0.58031        0.13861
|  8> H         -1.88568       -0.80774       -2.40670
|  9> H         -0.53143       -1.87013       -2.10605
| 10> H         -0.25399       -0.18836       -2.49039
| 11> *
| 12>
| 13> %MaxCore 64000
| 14>
| 15> %pal nprocs 4
| 16> end
| 17>
| 18> %scf
| 19>   MaxIter 150
| 20> end
| 21>
| 22>
| 23>                          ****END OF INPUT****

CARTESIAN COORDINATES (ANGSTROEM)
---------------------------------
  C     -0.903490   -0.873940   -1.987390
  C     -0.960150   -0.522360   -0.489870
  H     -1.690390   -1.208130   -0.021680
  H     -1.414490    0.486330   -0.406680
  O      0.261700   -0.580310    0.138610
  H     -1.885680   -0.807740   -2.406700
  H     -0.531430   -1.870130   -2.106050
  H     -0.253990   -0.188360   -2.490390

 Total Charge           Charge          ....   -1
 Multiplicity           Mult            ....    1
 Number of Electrons    NEL             ....   26
 Basis Dimension        Dim             ....   67

ORBITAL ENERGIES
----------------

  NO   OCC          E(Eh)            E(eV)
   0   2.0000     -18.552405      -504.8366
   1   2.0000      -9.870371      -268.5865
   2   2.0000      -9.860621      -268.3211
   3   2.0000      -0.715721       -19.4758
   4   2.0000      -0.603023       -16.4091
   5   2.0000      -0.448059       -12.1923
   6   2.0000      -0.337106        -9.1731
   7   2.0000      -0.311875        -8.4866
   8   2.0000      -0.252383        -6.8677
   9   2.0000      -0.234060        -6.3691
  10   2.0000      -0.158889        -4.3236
  11   2.0000      -0.011098        -0.3020
  12   2.0000      -0.007525        -0.2048
  13   0.0000       0.324663         8.8345
  14   0.0000       0.372034        10.1236
  15   0.0000       0.385301        10.4846
  16   0.0000       0.392951        10.6927
  17   0.0000       0.438152        11.9227

MULLIKEN ATOMIC CHARGES
-----------------------
   0 C :    0.063174
   1 C :    0.221881
   2 H :   -0.180120
   3 H :   -0.181189
   4 O :   -0.665568
   5 H :   -0.119085
   6 H :   -0.069544
   7 H :   -0.069550
Sum of atomic charges:   -1.0000000

LOEWDIN ATOMIC CHARGES
----------------------
   0 C :   -0.123057
   1 C :   -0.009513
   2 H :   -0.078701
   3 H :   -0.079401
   4 O :   -0.658001
   5 H :   -0.028998
   6 H :   -0.011157
   7 H :   -0.011173

  Mayer bond orders larger than 0.100000
B(  0-C ,  1-C ) :   0.9990 B(  0-C ,  5-H ) :   0.9193 B(  0-C ,  6-H ) :   0.9529
B(  0-C ,  7-H ) :   0.9529 B(  1-C ,  2-H ) :   0.8690 B(  1-C ,  3-H ) :   0.8674
B(  1-C ,  4-O ) :   1.5714

FINAL SINGLE POINT ENERGY      -153.884566899644

DIPOLE MOMENT
-------------
                                X             Y             Z
Electronic contribution:      2.19446       0.15366       2.27814
Nuclear contribution   :     -2.90669      -0.27617      -3.31210
                        -----------------------------------------
Total Dipole Moment    :     -0.71224      -0.12250      -1.03397
                        -----------------------------------------
Magnitude (a.u.)       :      1.26150
Magnitude (Debye)      :      3.20648

Rotational constants in cm-1:     1.291883     0.321656     0.284469
Rotational constants in MHz : 38729.676116  9643.011620  8528.167295

                             ****ORCA TERMINATED NORMALLY****
TOTAL RUN TIME: 0 days 0 hours 0 minutes 7 seconds 754 msec
