                         Program Version 5.0.0 -  RELEASE  -
|  1> !LC-BLYP RIJCOSX def2-SVP def2/J TightSCF
|  2> *xyz 1 1
|  3> C          4.36645       -0.13321       -1.41606
|  4> C          4.50829       -0.93187       -2.72425
|  5> C          3.05650       -0.32080       -0.70738
|  6> N          2.38983        0.71129       -0.24391
|  7> N          2.51600       -1.50772       -0.55023
|  8> H          2.96768       -2.32291       -0.95631
|  9> H          1.54987       -1.49063       -0.24988
| 10> H          2.74307        1.64947       -0.41280
| 11> H          1.44036        0.50278        0.03703
| 12> H          4.48784        0.93300       -1.61157
| 13> H          5.16967       -0.41443       -0.72982
| 14> H          5.46700       -0.73824       -3.15818
| 15> H          3.74074       -0.63528       -3.40821
| 16> H          4.41574       -1.97727       -2.51573
| 17> *
| 18>
| 19> %MaxCore 64000
| 20>
| 21> %pal nprocs 4
| 22> end
| 23>
| 24> %scf
| 25>   MaxIter 150
| 26> end
| 27>
| 28>
| 29>                          ****END OF INPUT****

CARTESIAN COORDINATES (ANGSTROEM)
---------------------------------
  C      4.366450   -0.133210   -1.416060
  C      4.508290   -0.931870   -2.724250
  C      3.056500   -0.320800   -0.707380
  N      2.389830    0.711290   -0.243910
  N      2.516000   -1.507720   -0.550230
  H      2.967680   -2.322910   -0.956310
  H      1.549870   -1.490630   -0.249880
  H      2.743070    1.649470   -0.412800
  H      1.440360    0.502780    0.037030
  H      4.487840    0.933000   -1.611570
  H      5.169670   -0.414430   -0.729820
  H      5.467000   -0.738240   -3.158180
  H      3.740740   -0.635280   -3.408210
  H      4.415740   -1.977270   -2.515730

 Total Charge           Charge          ....    1
 Multiplicity           Mult            ....    1
 Number of Electrons    NEL             ....   40
 Basis Dimension        Dim             ....  115

ORBITAL ENERGIES
----------------

  NO   OCC          E(Eh)            E(eV)
   0   2.0000     -14.432907      -392.7394
   1   2.0000     -14.432067      -392.7165
   2   2.0000     -10.407109      -283.1918
   3   2.0000     -10.284770      -279.8628
   4   2.0000     -10.243723      -278.7459
   5   2.0000      -1.304737       -35.5037
   6   2.0000      -1.196729       -32.5647
   7   2.0000      -1.073197       -29.2032
   8   2.0000      -0.960548       -26.1378
   9   2.0000      -0.921395       -25.0724
  10   2.0000      -0.872082       -23.7306
  11   2.0000      -0.856567       -23.3084
  12   2.0000      -0.803208       -21.8564
  13   2.0000      -0.769586       -20.9415
  14   2.0000      -0.729915       -19.8620
  15   2.0000      -0.705050       -19.1854
  16   2.0000      -0.653210       -17.7747
  17   2.0000      -0.638336       -17.3700
  18   2.0000      -0.622668       -16.9437
  19   2.0000      -0.589889       -16.0517
  20   0.0000      -0.121957        -3.3186
  21   0.0000      -0.076862        -2.0915
  22   0.0000      -0.031206        -0.8492
  23   0.0000      -0.028076        -0.7640
  24   0.0000       0.012820         0.3489

MULLIKEN ATOMIC CHARGES
-----------------------
   0 C :    0.026607
   1 C :   -0.012230
   2 C :   -0.182200
   3 N :    0.066656
   4 N :    0.066384
   5 H :    0.182195
   6 H :    0.170058
   7 H :    0.190053
   8 H :    0.167346
   9 H :    0.048232
  10 H :    0.104739
  11 H :    0.078220
  12 H :    0.056318
  13 H :    0.037622
Sum of atomic charges:    1.0000000

LOEWDIN ATOMIC CHARGES
----------------------
   0 C :   -0.044670
   1 C :   -0.040344
   2 C :    0.141370
   3 N :    0.101542
   4 N :    0.098647
   5 H :    0.122313
   6 H :    0.112390
   7 H :    0.126357
   8 H :    0.111688
   9 H :    0.056897
  10 H :    0.078112
  11 H :    0.059797
  12 H :    0.043668
  13 H :    0.032232

  Mayer bond orders larger than 0.100000
B(  0-C ,  1-C ) :   1.0874 B(  0-C ,  2-C ) :   1.0282 B(  0-C ,  9-H ) :   0.9153
B(  0-C , 10-H ) :   0.9086 B(  1-C , 11-H ) :   0.9545 B(  1-C , 12-H ) :   0.9756
B(  1-C , 13-H ) :   0.9679 B(  2-C ,  3-N ) :   1.5342 B(  2-C ,  4-N ) :   1.5242
B(  3-N ,  7-H ) :   0.9125 B(  3-N ,  8-H ) :   0.9249 B(  4-N ,  5-H ) :   0.9195
B(  4-N ,  6-H ) :   0.9236

FINAL SINGLE POINT ENERGY      -228.240870953373

DIPOLE MOMENT
-------------
                                X             Y             Z
Electronic contribution:     -2.72783       0.62723       3.15999
Nuclear contribution   :      1.78847      -0.48174      -2.67127
                        -----------------------------------------
Total Dipole Moment    :     -0.93936       0.14549       0.48871
                        -----------------------------------------
Magnitude (a.u.)       :      1.06884
Magnitude (Debye)      :      2.71677

Rotational constants in cm-1:     0.286883     0.123210     0.094446
Rotational constants in MHz :  8600.540572  3693.747366  2831.415242

                             ****ORCA TERMINATED NORMALLY****
TOTAL RUN TIME: 0 days 0 hours 0 minutes 15 seconds 484 msec
