                         Program Version 5.0.0 -  RELEASE  -
|  1> !LC-BLYP RIJCOSX def2-TZVP def2/J TightSCF xyzfile
|  2>
|  3> *xyzfile 0 1 B.xyz
|  4>
|  5> %MaxCore 64000
|  6>
|  7> %pal nprocs 18
|  8> end
|  9>
| 10> %scf
| 11>   MaxIter 150
| 12> end
| 13>
| 14>
| 15>                          ****END OF INPUT****

CARTESIAN COORDINATES (ANGSTROEM)
---------------------------------
  C      4.366454   -0.133215   -1.416062
  C      4.508292   -0.931872   -2.724249
  H      4.753716   -1.972051   -2.488408
  C      3.294164   -0.918214   -3.656570
  H      5.385637   -0.536236   -3.242640
  H      2.483463   -1.477378   -3.185764
  H      3.553092   -1.478495   -4.560331
  C      2.772335    0.460100   -4.051448
  H      2.608762    1.065107   -3.155194
  C      1.465354    0.410537   -4.853644
  H      3.532940    0.988848   -4.635671
  C      0.326171   -0.375613   -4.192580
  H      1.666704   -0.022269   -5.839323
  H      1.138198    1.439246   -5.035449
  C     -0.017405    0.080588   -2.778406
  H      0.585573   -1.439385   -4.168057
  H     -0.560005   -0.311425   -4.831461
  H      0.902090    0.201296   -2.206729
  C     -0.903495   -0.873945   -1.987388
  H     -0.479549    1.074657   -2.811915
  H     -0.502554   -1.892096   -2.081204
  H     -1.917039   -0.895427   -2.406277
  C     -0.960148   -0.522365   -0.489867
  H     -1.690392   -1.208130   -0.021677
  H     -1.414490    0.486329   -0.406677
  O      0.261703   -0.580307    0.138611
  C      3.056503   -0.320797   -0.707384
  N      2.389825    0.711285   -0.243909
  N      2.515999   -1.507721   -0.550229
  H      2.967683   -2.322915   -0.956305
  H      1.549872   -1.490634   -0.249876
  H      2.743071    1.649471   -0.412802
  H      1.440364    0.502778    0.037031
  H      4.487835    0.932997   -1.611569
  H      5.169672   -0.414432   -0.729817

 Total Charge           Charge          ....    0
 Multiplicity           Mult            ....    1
 Number of Electrons    NEL             ....  104
 Basis Dimension        Dim             ....  535

ORBITAL ENERGIES
----------------

  NO   OCC          E(Eh)            E(eV)
   0   2.0000     -18.805900      -511.7346
   1   2.0000     -14.196256      -386.2998
   2   2.0000     -14.196031      -386.2937
   3   2.0000     -10.194871      -277.4165
   4   2.0000     -10.113959      -275.2148
   5   2.0000     -10.098437      -274.7924
   6   2.0000     -10.076977      -274.2085
   7   2.0000     -10.070643      -274.0361
   8   2.0000     -10.061952      -273.7996
   9   2.0000     -10.051026      -273.5023
  10   2.0000     -10.048077      -273.4221
  11   2.0000     -10.037313      -273.1292
  12   2.0000     -10.024298      -272.7750
  13   2.0000      -1.109079       -30.1796
  14   2.0000      -1.001243       -27.2452
  15   2.0000      -0.981664       -26.7124
  16   2.0000      -0.945670       -25.7330
  17   2.0000      -0.909107       -24.7381
  18   2.0000      -0.868601       -23.6358
  19   2.0000      -0.828945       -22.5567
  20   2.0000      -0.790549       -21.5119
  21   2.0000      -0.746154       -20.3039
  22   2.0000      -0.730274       -19.8718
  23   2.0000      -0.719547       -19.5799
  24   2.0000      -0.676409       -18.4060
  25   2.0000      -0.659894       -17.9566
  26   2.0000      -0.655573       -17.8390
  27   2.0000      -0.632498       -17.2111
  28   2.0000      -0.614001       -16.7078
  29   2.0000      -0.603272       -16.4159
  30   2.0000      -0.591139       -16.0857
  31   2.0000      -0.569932       -15.5087
  32   2.0000      -0.553385       -15.0584
  33   2.0000      -0.534021       -14.5315
  34   2.0000      -0.524309       -14.2672
  35   2.0000      -0.516948       -14.0669
  36   2.0000      -0.511400       -13.9159
  37   2.0000      -0.506833       -13.7916
  38   2.0000      -0.481557       -13.1038
  39   2.0000      -0.471849       -12.8397
  40   2.0000      -0.461183       -12.5494
  41   2.0000      -0.452362       -12.3094
  42   2.0000      -0.441669       -12.0184
  43   2.0000      -0.436400       -11.8750
  44   2.0000      -0.416703       -11.3391
  45   2.0000      -0.409711       -11.1488
  46   2.0000      -0.400403       -10.8955
  47   2.0000      -0.397104       -10.8058
  48   2.0000      -0.390912       -10.6372
  49   2.0000      -0.381410       -10.3787
  50   2.0000      -0.276568        -7.5258
  51   2.0000      -0.271309        -7.3827
  52   0.0000       0.055399         1.5075
  53   0.0000       0.068002         1.8504
  54   0.0000       0.084317         2.2944
  55   0.0000       0.103546         2.8176
  56   0.0000       0.113680         3.0934

MULLIKEN ATOMIC CHARGES
-----------------------
   0 C :   -0.283525
   1 C :   -0.341871
   2 H :    0.163771
   3 C :   -0.252517
   4 H :    0.148929
   5 H :    0.140541
   6 H :    0.139068
   7 C :   -0.286654
   8 H :    0.124837
   9 C :   -0.208247
  10 H :    0.131753
  11 C :   -0.299056
  12 H :    0.128894
  13 H :    0.129128
  14 C :   -0.197915
  15 H :    0.137783
  16 H :    0.129158
  17 H :    0.059722
  18 C :   -0.193952
  19 H :    0.112876
  20 H :    0.083604
  21 H :    0.091906
  22 C :   -0.019728
  23 H :    0.067021
  24 H :    0.051621
  25 O :   -0.707071
  26 C :    0.167852
  27 N :   -0.297019
  28 N :   -0.272412
  29 H :    0.238714
  30 H :    0.265689
  31 H :    0.233641
  32 H :    0.284438
  33 H :    0.155365
  34 H :    0.173654
Sum of atomic charges:   -0.0000000

LOEWDIN ATOMIC CHARGES
----------------------
   0 C :   -0.226573
   1 C :   -0.270270
   2 H :    0.141805
   3 C :   -0.278032
   4 H :    0.148829
   5 H :    0.143095
   6 H :    0.145877
   7 C :   -0.279699
   8 H :    0.135564
   9 C :   -0.274920
  10 H :    0.139433
  11 C :   -0.283010
  12 H :    0.139648
  13 H :    0.141146
  14 C :   -0.285100
  15 H :    0.135789
  16 H :    0.139954
  17 H :    0.137725
  18 C :   -0.297800
  19 H :    0.137481
  20 H :    0.128304
  21 H :    0.131933
  22 C :   -0.477371
  23 H :    0.106979
  24 H :    0.103388
  25 O :   -0.295014
  26 C :   -0.339235
  27 N :    0.087836
  28 N :    0.092497
  29 H :    0.180150
  30 H :    0.148341
  31 H :    0.178741
  32 H :    0.146475
  33 H :    0.152946
  34 H :    0.163087

  Mayer bond orders larger than 0.100000
B(  0-C ,  1-C ) :   0.8856 B(  0-C , 26-C ) :   0.9311 B(  0-C , 33-H ) :   0.9885
B(  0-C , 34-H ) :   0.9649 B(  1-C ,  2-H ) :   0.9997 B(  1-C ,  3-C ) :   0.8902
B(  1-C ,  4-H ) :   0.9774 B(  3-C ,  5-H ) :   0.9877 B(  3-C ,  6-H ) :   0.9797
B(  3-C ,  7-C ) :   0.8663 B(  7-C ,  8-H ) :   0.9862 B(  7-C ,  9-C ) :   0.9308
B(  7-C , 10-H ) :   0.9810 B(  9-C , 11-C ) :   0.9183 B(  9-C , 12-H ) :   0.9898
B(  9-C , 13-H ) :   0.9910 B( 11-C , 14-C ) :   0.8895 B( 11-C , 15-H ) :   0.9947
B( 11-C , 16-H ) :   0.9876 B( 14-C , 17-H ) :   0.9790 B( 14-C , 18-C ) :   0.9438
B( 14-C , 19-H ) :   0.9706 B( 18-C , 20-H ) :   0.9742 B( 18-C , 21-H ) :   0.9642
B( 18-C , 22-C ) :   0.9248 B( 22-C , 23-H ) :   0.9755 B( 22-C , 24-H ) :   0.9737
B( 22-C , 25-O ) :   1.1814 B( 25-O , 30-H ) :   0.2691 B( 25-O , 32-H ) :   0.2626
B( 26-C , 27-N ) :   1.5080 B( 26-C , 28-N ) :   1.4775 B( 27-N , 31-H ) :   0.9158
B( 27-N , 32-H ) :   0.7295 B( 28-N , 29-H ) :   0.9155 B( 28-N , 30-H ) :   0.7343

FINAL SINGLE POINT ENERGY      -577.698851556382

DIPOLE MOMENT
-------------
                                X             Y             Z
Electronic contribution:      2.79782      -0.26285       7.52648
Nuclear contribution   :     -0.17996       0.53390      -8.68067
                        -----------------------------------------
Total Dipole Moment    :      2.61785       0.27106      -1.15419
                        -----------------------------------------
Magnitude (a.u.)       :      2.87381
Magnitude (Debye)      :      7.30464

Rotational constants in cm-1:     0.028240     0.022734     0.014600
Rotational constants in MHz :   846.611263   681.554306   437.693928

                             ****ORCA TERMINATED NORMALLY****
TOTAL RUN TIME: 0 days 0 hours 1 minutes 27 seconds 109 msec
