                         Program Version 5.0.0 -  RELEASE  -
|  1> !LC-BLYP RIJCOSX def2-SVP def2/J TightSCF
|  2> *xyz 0 1
|  3> C         -0.90349       -0.87394       -1.98739
|  4> C         -0.96015       -0.52236       -0.48987
|  5> H         -1.69039       -1.20813       -0.02168
|  6> H         -1.41449        0.48633       -0.40668
|  7> F          0.26170       -0.58031        0.13861
|  8> H         -1.88568       -0.80774       -2.40670
|  9> H         -0.53143       -1.87013       -2.10605
| 10> H         -0.25399       -0.18836       -2.49039
| 11> *
| 12>
| 13> %MaxCore 64000
| 14>
| 15> %pal nprocs 4
| 16> end
| 17>
| 18> %scf
| 19>   MaxIter 150
| 20> end
| 21>
| 22>
| 23>                          ****END OF INPUT****

CARTESIAN COORDINATES (ANGSTROEM)
---------------------------------
  C     -0.903490   -0.873940   -1.987390
  C     -0.960150   -0.522360   -0.489870
  H     -1.690390   -1.208130   -0.021680
  H     -1.414490    0.486330   -0.406680
  F      0.261700   -0.580310    0.138610
  H     -1.885680   -0.807740   -2.406700
  H     -0.531430   -1.870130   -2.106050
  H     -0.253990   -0.188360   -2.490390

 Total Charge           Charge          ....    0
 Multiplicity           Mult            ....    1
 Number of Electrons    NEL             ....   26
 Basis Dimension        Dim             ....   67

ORBITAL ENERGIES
----------------

  NO   OCC          E(Eh)            E(eV)
   0   2.0000     -24.433938      -664.8813
   1   2.0000     -10.156616      -276.3756
   2   2.0000     -10.079148      -274.2676
   3   2.0000      -1.240368       -33.7521
   4   2.0000      -0.861941       -23.4546
   5   2.0000      -0.725298       -19.7364
   6   2.0000      -0.597765       -16.2660
   7   2.0000      -0.592869       -16.1328
   8   2.0000      -0.548035       -14.9128
   9   2.0000      -0.496401       -13.5078
  10   2.0000      -0.496244       -13.5035
  11   2.0000      -0.422889       -11.5074
  12   2.0000      -0.417321       -11.3559
  13   0.0000       0.135718         3.6931
  14   0.0000       0.183438         4.9916
  15   0.0000       0.192601         5.2409
  16   0.0000       0.210441         5.7264
  17   0.0000       0.230361         6.2684

MULLIKEN ATOMIC CHARGES
-----------------------
   0 C :   -0.040700
   1 C :    0.182152
   2 H :    0.008905
   3 H :    0.009371
   4 F :   -0.229391
   5 H :    0.016708
   6 H :    0.026459
   7 H :    0.026495
Sum of atomic charges:    0.0000000

LOEWDIN ATOMIC CHARGES
----------------------
   0 C :   -0.086997
   1 C :    0.088469
   2 H :    0.013460
   3 H :    0.013974
   4 F :   -0.122684
   5 H :    0.034557
   6 H :    0.029613
   7 H :    0.029608

  Mayer bond orders larger than 0.100000
B(  0-C ,  1-C ) :   1.0977 B(  0-C ,  5-H ) :   0.9586 B(  0-C ,  6-H ) :   0.9694
B(  0-C ,  7-H ) :   0.9694 B(  1-C ,  2-H ) :   0.9582 B(  1-C ,  3-H ) :   0.9579
B(  1-C ,  4-F ) :   1.0565

FINAL SINGLE POINT ENERGY      -178.518316871932

DIPOLE MOMENT
-------------
                                X             Y             Z
Electronic contribution:      3.27248       0.37690       4.02128
Nuclear contribution   :     -3.84149      -0.36812      -4.38946
                        -----------------------------------------
Total Dipole Moment    :     -0.56901       0.00878      -0.36818
                        -----------------------------------------
Magnitude (a.u.)       :      0.67779
Magnitude (Debye)      :      1.72281

Rotational constants in cm-1:     1.270659     0.299196     0.265842
Rotational constants in MHz : 38093.410361  8969.665806  7969.741481

                             ****ORCA TERMINATED NORMALLY****
TOTAL RUN TIME: 0 days 0 hours 0 minutes 7 seconds 714 msec
