                         Program Version 5.0.0 -  RELEASE  -
|  1> !LC-BLYP RIJCOSX def2-SVP def2/J TightSCF
|  2> *xyz 0 1
|  3> C          4.36645       -0.13321       -1.41606
|  4> C          4.50829       -0.93187       -2.72425
|  5> C          3.05650       -0.32080       -0.70738
|  6> C          2.38983        0.71129       -0.24391
|  7> N          2.51600       -1.50772       -0.55023
|  8> H          2.96768       -2.32291       -0.95631
|  9> H          1.54987       -1.49063       -0.24988
| 10> H          2.74307        1.64947       -0.41280
| 11> H          1.44036        0.50278        0.03703
| 12> H          4.48784        0.93300       -1.61157
| 13> H          5.16967       -0.41443       -0.72982
| 14> H          5.46700       -0.73824       -3.15818
| 15> H          3.74074       -0.63528       -3.40821
| 16> H          4.41574       -1.97727       -2.51573
| 17> *
| 18>
| 19> %MaxCore 64000
| 20>
| 21> %pal nprocs 4
| 22> end
| 23>
| 24> %scf
| 25>   MaxIter 150
| 26> end
| 27>
| 28>
| 29>                          ****END OF INPUT****

CARTESIAN COORDINATES (ANGSTROEM)
---------------------------------
  C      4.366450   -0.133210   -1.416060
  C      4.508290   -0.931870   -2.724250
  C      3.056500   -0.320800   -0.707380
  C      2.389830    0.711290   -0.243910
  N      2.516000   -1.507720   -0.550230
  H      2.967680   -2.322910   -0.956310
  H      1.549870   -1.490630   -0.249880
  H      2.743070    1.649470   -0.412800
  H      1.440360    0.502780    0.037030
  H      4.487840    0.933000   -1.611570
  H      5.169670   -0.414430   -0.729820
  H      5.467000   -0.738240   -3.158180
  H      3.740740   -0.635280   -3.408210
  H      4.415740   -1.977270   -2.515730

 Total Charge           Charge          ....    0
 Multiplicity           Mult            ....    1
 Number of Electrons    NEL             ....   40
 Basis Dimension        Dim             ....  115

ORBITAL ENERGIES
----------------

  NO   OCC          E(Eh)            E(eV)
   0   2.0000     -14.177176      -385.7806
   1   2.0000     -10.096526      -274.7405
   2   2.0000     -10.082472      -274.3580
   3   2.0000     -10.076687      -274.2006
   4   2.0000     -10.010417      -272.3973
   5   2.0000      -1.017793       -27.6956
   6   2.0000      -0.875944       -23.8356
   7   2.0000      -0.816448       -22.2167
   8   2.0000      -0.734189       -19.9783
   9   2.0000      -0.658040       -17.9062
  10   2.0000      -0.630590       -17.1592
  11   2.0000      -0.569946       -15.5090
  12   2.0000      -0.538967       -14.6660
  13   2.0000      -0.529414       -14.4061
  14   2.0000      -0.485247       -13.2042
  15   2.0000      -0.478881       -13.0310
  16   2.0000      -0.452420       -12.3110
  17   2.0000      -0.438228       -11.9248
  18   2.0000      -0.419293       -11.4095
  19   2.0000      -0.274704        -7.4751
  20   0.0000       0.118710         3.2303
  21   0.0000       0.140225         3.8157
  22   0.0000       0.167987         4.5711
  23   0.0000       0.173144         4.7115
  24   0.0000       0.193985         5.2786

MULLIKEN ATOMIC CHARGES
-----------------------
   0 C :    0.067394
   1 C :   -0.000536
   2 C :   -0.173681
   3 C :   -0.021759
   4 N :   -0.009802
   5 H :    0.097684
   6 H :    0.112920
   7 H :   -0.053290
   8 H :   -0.070670
   9 H :    0.001244
  10 H :    0.016519
  11 H :    0.014269
  12 H :    0.020428
  13 H :   -0.000721
Sum of atomic charges:    0.0000000

LOEWDIN ATOMIC CHARGES
----------------------
   0 C :   -0.038534
   1 C :   -0.063452
   2 C :    0.004418
   3 C :   -0.184891
   4 N :   -0.007954
   5 H :    0.069654
   6 H :    0.080454
   7 H :    0.000176
   8 H :   -0.007172
   9 H :    0.037267
  10 H :    0.033845
  11 H :    0.029845
  12 H :    0.029097
  13 H :    0.017247

  Mayer bond orders larger than 0.100000
B(  0-C ,  1-C ) :   1.0916 B(  0-C ,  2-C ) :   1.0384 B(  0-C ,  9-H ) :   0.9261
B(  0-C , 10-H ) :   0.9289 B(  1-C , 11-H ) :   0.9632 B(  1-C , 12-H ) :   0.9735
B(  1-C , 13-H ) :   0.9694 B(  2-C ,  3-C ) :   1.8851 B(  2-C ,  4-N ) :   1.2845
B(  3-C ,  7-H ) :   0.9355 B(  3-C ,  8-H ) :   0.9322 B(  4-N ,  5-H ) :   0.9516
B(  4-N ,  6-H ) :   0.9410

FINAL SINGLE POINT ENERGY      -211.784031522233

DIPOLE MOMENT
-------------
                                X             Y             Z
Electronic contribution:     -1.49098      -0.51989       2.07651
Nuclear contribution   :      1.56827      -0.21459      -2.46657
                        -----------------------------------------
Total Dipole Moment    :      0.07728      -0.73448      -0.39006
                        -----------------------------------------
Magnitude (a.u.)       :      0.83521
Magnitude (Debye)      :      2.12294

Rotational constants in cm-1:     0.294070     0.127722     0.097792
Rotational constants in MHz :  8815.983970  3829.010547  2931.715816

                             ****ORCA TERMINATED NORMALLY****
TOTAL RUN TIME: 0 days 0 hours 0 minutes 16 seconds 92 msec
