                         Program Version 5.0.0 -  RELEASE  -
|  1> !LC-BLYP RIJCOSX def2-SVP def2/J TightSCF
|  2> *xyz 0 1
|  3> C          4.36645       -0.13321       -1.41606
|  4> C          4.50829       -0.93187       -2.72425
|  5> C          3.05650       -0.32080       -0.70738
|  6> N          2.38983        0.71129       -0.24391
|  7> C          2.51600       -1.50772       -0.55023
|  8> H          2.96768       -2.32291       -0.95631
|  9> H          1.54987       -1.49063       -0.24988
| 10> H          2.74307        1.64947       -0.41280
| 11> H          1.44036        0.50278        0.03703
| 12> H          4.48784        0.93300       -1.61157
| 13> H          5.16967       -0.41443       -0.72982
| 14> H          5.46700       -0.73824       -3.15818
| 15> H          3.74074       -0.63528       -3.40821
| 16> H          4.41574       -1.97727       -2.51573
| 17> *
| 18>
| 19> %MaxCore 64000
| 20>
| 21> %pal nprocs 4
| 22> end
| 23>
| 24> %scf
| 25>   MaxIter 150
| 26> end
| 27>
| 28>
| 29>                          ****END OF INPUT****

CARTESIAN COORDINATES (ANGSTROEM)
---------------------------------
  C      4.366450   -0.133210   -1.416060
  C      4.508290   -0.931870   -2.724250
  C      3.056500   -0.320800   -0.707380
  N      2.389830    0.711290   -0.243910
  C      2.516000   -1.507720   -0.550230
  H      2.967680   -2.322910   -0.956310
  H      1.549870   -1.490630   -0.249880
  H      2.743070    1.649470   -0.412800
  H      1.440360    0.502780    0.037030
  H      4.487840    0.933000   -1.611570
  H      5.169670   -0.414430   -0.729820
  H      5.467000   -0.738240   -3.158180
  H      3.740740   -0.635280   -3.408210
  H      4.415740   -1.977270   -2.515730

 Total Charge           Charge          ....    0
 Multiplicity           Mult            ....    1
 Number of Electrons    NEL             ....   40
 Basis Dimension        Dim             ....  115

ORBITAL ENERGIES
----------------

  NO   OCC          E(Eh)            E(eV)
   0   2.0000     -14.177076      -385.7779
   1   2.0000     -10.096869      -274.7498
   2   2.0000     -10.083931      -274.3977
   3   2.0000     -10.069347      -274.0009
   4   2.0000     -10.008692      -272.3503
   5   2.0000      -1.017561       -27.6892
   6   2.0000      -0.877240       -23.8709
   7   2.0000      -0.804236       -21.8844
   8   2.0000      -0.744447       -20.2574
   9   2.0000      -0.647568       -17.6212
  10   2.0000      -0.627579       -17.0773
  11   2.0000      -0.576218       -15.6797
  12   2.0000      -0.552112       -15.0237
  13   2.0000      -0.503376       -13.6976
  14   2.0000      -0.485419       -13.2089
  15   2.0000      -0.476499       -12.9662
  16   2.0000      -0.452905       -12.3242
  17   2.0000      -0.435134       -11.8406
  18   2.0000      -0.420814       -11.4509
  19   2.0000      -0.273049        -7.4301
  20   0.0000       0.125514         3.4154
  21   0.0000       0.137017         3.7284
  22   0.0000       0.168169         4.5761
  23   0.0000       0.171311         4.6616
  24   0.0000       0.200096         5.4449

MULLIKEN ATOMIC CHARGES
-----------------------
   0 C :    0.066909
   1 C :    0.014423
   2 C :   -0.176971
   3 N :   -0.015953
   4 C :   -0.023713
   5 H :   -0.055861
   6 H :   -0.067630
   7 H :    0.102835
   8 H :    0.109936
   9 H :   -0.025023
  10 H :    0.027760
  11 H :    0.004972
  12 H :    0.015119
  13 H :    0.023196
Sum of atomic charges:    0.0000000

LOEWDIN ATOMIC CHARGES
----------------------
   0 C :   -0.040374
   1 C :   -0.053818
   2 C :    0.005010
   3 N :   -0.005696
   4 C :   -0.189518
   5 H :   -0.001269
   6 H :   -0.006455
   7 H :    0.071118
   8 H :    0.079607
   9 H :    0.019820
  10 H :    0.041311
  11 H :    0.024634
  12 H :    0.027520
  13 H :    0.028111

  Mayer bond orders larger than 0.100000
B(  0-C ,  1-C ) :   1.1140 B(  0-C ,  2-C ) :   1.0089 B(  0-C ,  9-H ) :   0.9253
B(  0-C , 10-H ) :   0.9279 B(  1-C , 11-H ) :   0.9619 B(  1-C , 12-H ) :   0.9740
B(  1-C , 13-H ) :   0.9713 B(  2-C ,  3-N ) :   1.2855 B(  2-C ,  4-C ) :   1.8857
B(  3-N ,  7-H ) :   0.9451 B(  3-N ,  8-H ) :   0.9424 B(  4-C ,  5-H ) :   0.9458
B(  4-C ,  6-H ) :   0.9320

FINAL SINGLE POINT ENERGY      -211.782688717924

DIPOLE MOMENT
-------------
                                X             Y             Z
Electronic contribution:     -1.60812       1.53343       2.38152
Nuclear contribution   :      1.59749      -0.72853      -2.53752
                        -----------------------------------------
Total Dipole Moment    :     -0.01063       0.80490      -0.15600
                        -----------------------------------------
Magnitude (a.u.)       :      0.81995
Magnitude (Debye)      :      2.08415

Rotational constants in cm-1:     0.304597     0.124127     0.096828
Rotational constants in MHz :  9131.600925  3721.227051  2902.830760

                             ****ORCA TERMINATED NORMALLY****
TOTAL RUN TIME: 0 days 0 hours 0 minutes 15 seconds 527 msec
