                         Program Version 5.0.0 -  RELEASE  -
|  1> !wB97X-D3 RIJCOSX def2-SVPD def2/J TightSCF
|  2> *xyz -1 1
|  3> C         -0.91495        0.61511        2.50554
|  4> C         -0.05915        1.50352        3.41058
|  5> H          0.36536        2.34431        2.86116
|  6> H         -0.69226        1.92021        4.19898
|  7> C          1.08303        0.74964        4.08571
|  8> O          2.22817        1.26348        4.01983
|  9> O          0.81003       -0.34541        4.63627
| 10> H         -0.30401        0.20228        1.73015
| 11> H         -1.69811        1.19946        2.06954
| 12> H         -1.34124       -0.17772        3.08397
| 13> *
| 14>
| 15> %MaxCore 64000
| 16>
| 17> %pal nprocs 18
| 18> end
| 19>
| 20> %scf
| 21>   MaxIter 150
| 22> end
| 23>
| 24>
| 25>                          ****END OF INPUT****

CARTESIAN COORDINATES (ANGSTROEM)
---------------------------------
  C     -0.914950    0.615110    2.505540
  C     -0.059150    1.503520    3.410580
  H      0.365360    2.344310    2.861160
  H     -0.692260    1.920210    4.198980
  C      1.083030    0.749640    4.085710
  O      2.228170    1.263480    4.019830
  O      0.810030   -0.345410    4.636270
  H     -0.304010    0.202280    1.730150
  H     -1.698110    1.199460    2.069540
  H     -1.341240   -0.177720    3.083970

 Total Charge           Charge          ....   -1
 Multiplicity           Mult            ....    1
 Number of Electrons    NEL             ....   40
 Basis Dimension        Dim             ....  146

ORBITAL ENERGIES
----------------

  NO   OCC          E(Eh)            E(eV)
   0   2.0000     -18.981749      -516.5196
   1   2.0000     -18.981109      -516.5022
   2   2.0000     -10.176183      -276.9080
   3   2.0000     -10.127513      -275.5836
   4   2.0000     -10.116158      -275.2747
   5   2.0000      -0.927889       -25.2491
   6   2.0000      -0.831701       -22.6317
   7   2.0000      -0.716740       -19.5035
   8   2.0000      -0.581966       -15.8361
   9   2.0000      -0.423316       -11.5190
  10   2.0000      -0.395792       -10.7701
  11   2.0000      -0.360323        -9.8049
  12   2.0000      -0.331864        -9.0305
  13   2.0000      -0.314325        -8.5532
  14   2.0000      -0.307109        -8.3569
  15   2.0000      -0.276491        -7.5237
  16   2.0000      -0.259571        -7.0633
  17   2.0000      -0.143465        -3.9039
  18   2.0000      -0.137743        -3.7482
  19   2.0000      -0.125044        -3.4026
  20   0.0000       0.222921         6.0660
  21   0.0000       0.256801         6.9879
  22   0.0000       0.266692         7.2571
  23   0.0000       0.289523         7.8783
  24   0.0000       0.315124         8.5750

MULLIKEN ATOMIC CHARGES
-----------------------
   0 C :    0.528086
   1 C :   -0.315738
   2 H :   -0.059579
   3 H :    0.002004
   4 C :    0.442469
   5 O :   -0.698623
   6 O :   -0.727290
   7 H :   -0.065208
   8 H :   -0.074986
   9 H :   -0.031135
Sum of atomic charges:   -1.0000000

LOEWDIN ATOMIC CHARGES
----------------------
   0 C :    0.095204
   1 C :   -0.043995
   2 H :    0.000757
   3 H :    0.012247
   4 C :   -0.306047
   5 O :   -0.338008
   6 O :   -0.328808
   7 H :   -0.021389
   8 H :   -0.042059
   9 H :   -0.027903

  Mayer bond orders larger than 0.100000
B(  0-C ,  1-C ) :   1.2476 B(  0-C ,  7-H ) :   0.8682 B(  0-C ,  8-H ) :   0.8439
B(  0-C ,  9-H ) :   0.8402 B(  1-C ,  2-H ) :   0.9778 B(  1-C ,  3-H ) :   0.8936
B(  1-C ,  4-C ) :   1.0298 B(  1-C ,  7-H ) :   0.1534 B(  1-C ,  8-H ) :   0.1592
B(  1-C ,  9-H ) :   0.1879 B(  2-H ,  4-C ) :   0.1854 B(  4-C ,  5-O ) :   1.5023
B(  4-C ,  6-O ) :   1.5187

Dispersion correction           -0.001940068
FINAL SINGLE POINT ENERGY      -267.584340734615

DIPOLE MOMENT
-------------
                                X             Y             Z
Electronic contribution:      4.67567      -0.98173       3.32751
Nuclear contribution   :     -6.38408       1.63097      -4.40540
                        -----------------------------------------
Total Dipole Moment    :     -1.70840       0.64924      -1.07789
                        -----------------------------------------
Magnitude (a.u.)       :      2.12179
Magnitude (Debye)      :      5.39316

Rotational constants in cm-1:     0.319732     0.134414     0.104753
Rotational constants in MHz :  9585.336550  4029.633034  3140.404334

                             ****ORCA TERMINATED NORMALLY****
TOTAL RUN TIME: 0 days 0 hours 0 minutes 7 seconds 302 msec
