                         Program Version 5.0.0 -  RELEASE  -
|  1> !wB97X-D3 RIJCOSX def2-SVPD def2/J TightSCF
|  2> *xyz 1 1
|  3> C          4.60295       -2.44010        2.63478
|  4> C          3.86085       -1.59157        3.62289
|  5> N          2.75650       -2.04616        4.16633
|  6> N          4.25433       -0.36291        3.86046
|  7> H          3.56526        0.31099        4.16898
|  8> H          5.05429       -0.01606        3.33784
|  9> H          2.43970       -2.97389        3.89740
| 10> H          2.06687       -1.41253        4.54981
| 11> C          3.74469       -2.58056        1.36188
| 12> H          5.56156       -1.97135        2.40708
| 13> H          4.81050       -3.42255        3.06310
| 14> H          4.26314       -3.18477        0.64702
| 15> H          3.56325       -1.61180        0.94535
| 16> H          2.81197       -3.04259        1.60980
| 17> *
| 18>
| 19> %MaxCore 64000
| 20>
| 21> %pal nprocs 18
| 22> end
| 23>
| 24> %scf
| 25>   MaxIter 150
| 26> end
| 27>
| 28>
| 29>                          ****END OF INPUT****

CARTESIAN COORDINATES (ANGSTROEM)
---------------------------------
  C      4.602950   -2.440100    2.634780
  C      3.860850   -1.591570    3.622890
  N      2.756500   -2.046160    4.166330
  N      4.254330   -0.362910    3.860460
  H      3.565260    0.310990    4.168980
  H      5.054290   -0.016060    3.337840
  H      2.439700   -2.973890    3.897400
  H      2.066870   -1.412530    4.549810
  C      3.744690   -2.580560    1.361880
  H      5.561560   -1.971350    2.407080
  H      4.810500   -3.422550    3.063100
  H      4.263140   -3.184770    0.647020
  H      3.563250   -1.611800    0.945350
  H      2.811970   -3.042590    1.609800

 Total Charge           Charge          ....    1
 Multiplicity           Mult            ....    1
 Number of Electrons    NEL             ....   40
 Basis Dimension        Dim             ....  172

ORBITAL ENERGIES
----------------

  NO   OCC          E(Eh)            E(eV)
   0   2.0000     -14.685091      -399.6016
   1   2.0000     -14.684273      -399.5794
   2   2.0000     -10.617648      -288.9209
   3   2.0000     -10.493395      -285.5398
   4   2.0000     -10.452366      -284.4233
   5   2.0000      -1.321261       -35.9533
   6   2.0000      -1.220200       -33.2033
   7   2.0000      -1.084378       -29.5074
   8   2.0000      -0.969306       -26.3762
   9   2.0000      -0.924844       -25.1663
  10   2.0000      -0.879251       -23.9256
  11   2.0000      -0.858267       -23.3546
  12   2.0000      -0.799591       -21.7580
  13   2.0000      -0.769525       -20.9398
  14   2.0000      -0.727853       -19.8059
  15   2.0000      -0.703384       -19.1401
  16   2.0000      -0.647173       -17.6105
  17   2.0000      -0.640831       -17.4379
  18   2.0000      -0.627687       -17.0802
  19   2.0000      -0.591659       -16.0999
  20   0.0000      -0.136561        -3.7160
  21   0.0000      -0.081960        -2.2303
  22   0.0000      -0.038316        -1.0426
  23   0.0000      -0.036279        -0.9872
  24   0.0000      -0.012389        -0.3371

MULLIKEN ATOMIC CHARGES
-----------------------
   0 C :   -0.272874
   1 C :    0.516238
   2 N :    0.055872
   3 N :   -0.036335
   4 H :   -0.038124
   5 H :    0.103958
   6 H :    0.095161
   7 H :   -0.098852
   8 C :    0.556481
   9 H :    0.035840
  10 H :    0.086889
  11 H :    0.042387
  12 H :   -0.008915
  13 H :   -0.037726
Sum of atomic charges:    1.0000000

LOEWDIN ATOMIC CHARGES
----------------------
   0 C :    0.017982
   1 C :   -0.047032
   2 N :    0.277974
   3 N :    0.276322
   4 H :    0.052237
   5 H :    0.055553
   6 H :    0.054502
   7 H :    0.054113
   8 C :    0.169267
   9 H :    0.038687
  10 H :    0.051147
  11 H :    0.010288
  12 H :    0.002009
  13 H :   -0.013048

  Mayer bond orders larger than 0.100000
B(  0-C ,  1-C ) :   1.2350 B(  0-C ,  8-C ) :   1.2267 B(  0-C ,  9-H ) :   0.9165
B(  0-C , 10-H ) :   0.8600 B(  0-C , 11-H ) :   0.1261 B(  0-C , 12-H ) :   0.1324
B(  0-C , 13-H ) :   0.1616 B(  1-C ,  2-N ) :   1.1358 B(  1-C ,  3-N ) :   1.0978
B(  1-C ,  4-H ) :  -0.1035 B(  1-C ,  7-H ) :  -0.1107 B(  1-C ,  9-H ) :   0.1409
B(  1-C , 10-H ) :   0.1468 B(  2-N ,  3-N ) :   0.1547 B(  2-N ,  6-H ) :   1.0003
B(  2-N ,  7-H ) :   1.2498 B(  3-N ,  4-H ) :   1.2009 B(  3-N ,  5-H ) :   0.9954
B(  4-H ,  5-H ) :  -0.1302 B(  6-H ,  7-H ) :  -0.1477 B(  8-C , 11-H ) :   0.8837
B(  8-C , 12-H ) :   0.8634 B(  8-C , 13-H ) :   0.8298

Dispersion correction           -0.003043751
FINAL SINGLE POINT ENERGY      -228.816288249970

DIPOLE MOMENT
-------------
                                X             Y             Z
Electronic contribution:     -0.23800       1.79171       3.73754
Nuclear contribution   :     -0.22400      -1.16268      -3.30447
                        -----------------------------------------
Total Dipole Moment    :     -0.46200       0.62904       0.43306
                        -----------------------------------------
Magnitude (a.u.)       :      0.89257
Magnitude (Debye)      :      2.26873

Rotational constants in cm-1:     0.258103     0.130571     0.102508
Rotational constants in MHz :  7737.732062  3914.431392  3073.119154

                             ****ORCA TERMINATED NORMALLY****
TOTAL RUN TIME: 0 days 0 hours 0 minutes 9 seconds 220 msec
