                         Program Version 5.0.0 -  RELEASE  -
|  1> !wB97X-D3 RIJCOSX def2-SVPD def2/J TightSCF
|  2> *xyz 0 1
|  3> C         -0.91495        0.61511        2.50554
|  4> C         -0.05915        1.50352        3.41058
|  5> H          0.36536        2.34431        2.86116
|  6> H         -0.69226        1.92021        4.19898
|  7> C          1.08303        0.74964        4.08571
|  8> F          2.22817        1.26348        4.01983
|  9> O          0.81003       -0.34541        4.63627
| 10> H         -0.30401        0.20228        1.73015
| 11> H         -1.69811        1.19946        2.06954
| 12> H         -1.34124       -0.17772        3.08397
| 13> *
| 14>
| 15> %MaxCore 64000
| 16>
| 17> %pal nprocs 18
| 18> end
| 19>
| 20> %scf
| 21>   MaxIter 150
| 22> end
| 23>
| 24>
| 25>                          ****END OF INPUT****

CARTESIAN COORDINATES (ANGSTROEM)
---------------------------------
  C     -0.914950    0.615110    2.505540
  C     -0.059150    1.503520    3.410580
  H      0.365360    2.344310    2.861160
  H     -0.692260    1.920210    4.198980
  C      1.083030    0.749640    4.085710
  F      2.228170    1.263480    4.019830
  O      0.810030   -0.345410    4.636270
  H     -0.304010    0.202280    1.730150
  H     -1.698110    1.199460    2.069540
  H     -1.341240   -0.177720    3.083970

 Total Charge           Charge          ....    0
 Multiplicity           Mult            ....    1
 Number of Electrons    NEL             ....   40
 Basis Dimension        Dim             ....  146

ORBITAL ENERGIES
----------------

  NO   OCC          E(Eh)            E(eV)
   0   2.0000     -24.875278      -676.8907
   1   2.0000     -19.256017      -523.9829
   2   2.0000     -10.476024      -285.0671
   3   2.0000     -10.324646      -280.9479
   4   2.0000     -10.295152      -280.1453
   5   2.0000      -1.424767       -38.7699
   6   2.0000      -1.143121       -31.1059
   7   2.0000      -0.913758       -24.8646
   8   2.0000      -0.800605       -21.7856
   9   2.0000      -0.747320       -20.3356
  10   2.0000      -0.659429       -17.9440
  11   2.0000      -0.643991       -17.5239
  12   2.0000      -0.614234       -16.7142
  13   2.0000      -0.569506       -15.4970
  14   2.0000      -0.537291       -14.6204
  15   2.0000      -0.498509       -13.5651
  16   2.0000      -0.477338       -12.9890
  17   2.0000      -0.473067       -12.8728
  18   2.0000      -0.446755       -12.1568
  19   2.0000      -0.394882       -10.7453
  20   0.0000       0.049939         1.3589
  21   0.0000       0.085702         2.3321
  22   0.0000       0.114105         3.1050
  23   0.0000       0.125498         3.4150
  24   0.0000       0.148116         4.0304

MULLIKEN ATOMIC CHARGES
-----------------------
   0 C :    0.501808
   1 C :   -0.425674
   2 H :    0.005508
   3 H :    0.095727
   4 C :    0.766038
   5 F :   -0.376419
   6 O :   -0.511571
   7 H :   -0.032383
   8 H :   -0.020714
   9 H :   -0.002321
Sum of atomic charges:    0.0000000

LOEWDIN ATOMIC CHARGES
----------------------
   0 C :    0.136921
   1 C :   -0.000235
   2 H :    0.024000
   3 H :    0.043070
   4 C :    0.001419
   5 F :   -0.039815
   6 O :   -0.139235
   7 H :   -0.006606
   8 H :   -0.011224
   9 H :   -0.008293

  Mayer bond orders larger than 0.100000
B(  0-C ,  1-C ) :   1.2943 B(  0-C ,  7-H ) :   0.8713 B(  0-C ,  8-H ) :   0.8563
B(  0-C ,  9-H ) :   0.8467 B(  1-C ,  2-H ) :   0.9716 B(  1-C ,  3-H ) :   0.8818
B(  1-C ,  4-C ) :   1.0919 B(  1-C ,  7-H ) :   0.1435 B(  1-C ,  8-H ) :   0.1469
B(  1-C ,  9-H ) :   0.1671 B(  4-C ,  5-F ) :   0.7534 B(  4-C ,  6-O ) :   1.8353

Dispersion correction           -0.001903263
FINAL SINGLE POINT ENERGY      -292.116953498694

DIPOLE MOMENT
-------------
                                X             Y             Z
Electronic contribution:      7.71909      -0.14229       4.07507
Nuclear contribution   :     -8.12386       1.06915      -4.71960
                        -----------------------------------------
Total Dipole Moment    :     -0.40477       0.92685      -0.64452
                        -----------------------------------------
Magnitude (a.u.)       :      1.19929
Magnitude (Debye)      :      3.04836

Rotational constants in cm-1:     0.309513     0.127560     0.099675
Rotational constants in MHz :  9278.979128  3824.146597  2988.174827

                             ****ORCA TERMINATED NORMALLY****
TOTAL RUN TIME: 0 days 0 hours 0 minutes 7 seconds 604 msec
