                         Program Version 5.0.0 -  RELEASE  -
|  1> !wB97X-D3 RIJCOSX def2-SVPD def2/J TightSCF
|  2> *xyz 0 1
|  3> C          4.60295       -2.44010        2.63478
|  4> C          3.86085       -1.59157        3.62289
|  5> C          2.75650       -2.04616        4.16633
|  6> N          4.25433       -0.36291        3.86046
|  7> H          3.56526        0.31099        4.16898
|  8> H          5.05429       -0.01606        3.33784
|  9> H          2.43970       -2.97389        3.89740
| 10> H          2.06687       -1.41253        4.54981
| 11> C          3.74469       -2.58056        1.36188
| 12> H          5.56156       -1.97135        2.40708
| 13> H          4.81050       -3.42255        3.06310
| 14> H          4.26314       -3.18477        0.64702
| 15> H          3.56325       -1.61180        0.94535
| 16> H          2.81197       -3.04259        1.60980
| 17> *
| 18>
| 19> %MaxCore 64000
| 20>
| 21> %pal nprocs 18
| 22> end
| 23>
| 24> %scf
| 25>   MaxIter 150
| 26> end
| 27>
| 28>
| 29>                          ****END OF INPUT****

CARTESIAN COORDINATES (ANGSTROEM)
---------------------------------
  C      4.602950   -2.440100    2.634780
  C      3.860850   -1.591570    3.622890
  C      2.756500   -2.046160    4.166330
  N      4.254330   -0.362910    3.860460
  H      3.565260    0.310990    4.168980
  H      5.054290   -0.016060    3.337840
  H      2.439700   -2.973890    3.897400
  H      2.066870   -1.412530    4.549810
  C      3.744690   -2.580560    1.361880
  H      5.561560   -1.971350    2.407080
  H      4.810500   -3.422550    3.063100
  H      4.263140   -3.184770    0.647020
  H      3.563250   -1.611800    0.945350
  H      2.811970   -3.042590    1.609800

 Total Charge           Charge          ....    0
 Multiplicity           Mult            ....    1
 Number of Electrons    NEL             ....   40
 Basis Dimension        Dim             ....  172

ORBITAL ENERGIES
----------------

  NO   OCC          E(Eh)            E(eV)
   0   2.0000     -14.438910      -392.9027
   1   2.0000     -10.309429      -280.5338
   2   2.0000     -10.292851      -280.0827
   3   2.0000     -10.276302      -279.6324
   4   2.0000     -10.217974      -278.0452
   5   2.0000      -1.043805       -28.4034
   6   2.0000      -0.893193       -24.3050
   7   2.0000      -0.821229       -22.3468
   8   2.0000      -0.747593       -20.3430
   9   2.0000      -0.667109       -18.1529
  10   2.0000      -0.627693       -17.0804
  11   2.0000      -0.585540       -15.9333
  12   2.0000      -0.550206       -14.9719
  13   2.0000      -0.512756       -13.9528
  14   2.0000      -0.487458       -13.2644
  15   2.0000      -0.475690       -12.9442
  16   2.0000      -0.448865       -12.2142
  17   2.0000      -0.438287       -11.9264
  18   2.0000      -0.425624       -11.5818
  19   2.0000      -0.279049        -7.5933
  20   0.0000       0.089728         2.4416
  21   0.0000       0.111186         3.0255
  22   0.0000       0.121767         3.3135
  23   0.0000       0.130780         3.5587
  24   0.0000       0.139599         3.7987

MULLIKEN ATOMIC CHARGES
-----------------------
   0 C :   -0.090539
   1 C :   -0.148241
   2 C :    0.355457
   3 N :    0.090346
   4 H :   -0.076267
   5 H :   -0.038018
   6 H :   -0.112655
   7 H :   -0.406875
   8 C :    0.579546
   9 H :   -0.061295
  10 H :    0.047816
  11 H :    0.006810
  12 H :   -0.063264
  13 H :   -0.082819
Sum of atomic charges:    0.0000000

LOEWDIN ATOMIC CHARGES
----------------------
   0 C :   -0.024300
   1 C :   -0.268482
   2 C :    0.161243
   3 N :    0.161254
   4 H :    0.011375
   5 H :    0.001300
   6 H :   -0.077318
   7 H :   -0.080745
   8 C :    0.132615
   9 H :    0.011155
  10 H :    0.028248
  11 H :   -0.019961
  12 H :   -0.012667
  13 H :   -0.023716

  Mayer bond orders larger than 0.100000
B(  0-C ,  1-C ) :   1.2035 B(  0-C ,  2-C ) :   0.1051 B(  0-C ,  8-C ) :   1.2480
B(  0-C ,  9-H ) :   0.8382 B(  0-C , 10-H ) :   0.8437 B(  0-C , 11-H ) :   0.1444
B(  0-C , 12-H ) :   0.1635 B(  0-C , 13-H ) :   0.1735 B(  1-C ,  2-C ) :   1.9037
B(  1-C ,  3-N ) :   1.0711 B(  1-C ,  6-H ) :   0.1320 B(  1-C ,  7-H ) :   0.1252
B(  1-C ,  9-H ) :   0.1748 B(  1-C , 10-H ) :   0.1814 B(  2-C ,  3-N ) :   0.2553
B(  2-C ,  6-H ) :   0.7444 B(  2-C ,  7-H ) :   0.8932 B(  3-N ,  4-H ) :   1.1115
B(  3-N ,  5-H ) :   1.0116 B(  4-H ,  5-H ) :  -0.1172 B(  8-C , 11-H ) :   0.8323
B(  8-C , 12-H ) :   0.8561 B(  8-C , 13-H ) :   0.8735

Dispersion correction           -0.003025704
FINAL SINGLE POINT ENERGY      -212.356681702382

DIPOLE MOMENT
-------------
                                X             Y             Z
Electronic contribution:      0.80148       1.76994       2.53741
Nuclear contribution   :     -0.47010      -1.22282      -3.06417
                        -----------------------------------------
Total Dipole Moment    :      0.33138       0.54712      -0.52676
                        -----------------------------------------
Magnitude (a.u.)       :      0.82863
Magnitude (Debye)      :      2.10621

Rotational constants in cm-1:     0.271862     0.131962     0.105499
Rotational constants in MHz :  8150.219120  3956.123671  3162.785522

                             ****ORCA TERMINATED NORMALLY****
TOTAL RUN TIME: 0 days 0 hours 0 minutes 9 seconds 954 msec
