                         Program Version 5.0.0 -  RELEASE  -
|  1> !wB97X-D3 RIJCOSX def2-SVPD def2/J TightSCF
|  2> *xyz 0 1
|  3> C         -0.91495        0.61511        2.50554
|  4> C         -0.05915        1.50352        3.41058
|  5> H          0.36536        2.34431        2.86116
|  6> H         -0.69226        1.92021        4.19898
|  7> C          1.08303        0.74964        4.08571
|  8> O          2.22817        1.26348        4.01983
|  9> F          0.81003       -0.34541        4.63627
| 10> H         -0.30401        0.20228        1.73015
| 11> H         -1.69811        1.19946        2.06954
| 12> H         -1.34124       -0.17772        3.08397
| 13> *
| 14>
| 15> %MaxCore 64000
| 16>
| 17> %pal nprocs 18
| 18> end
| 19>
| 20> %scf
| 21>   MaxIter 150
| 22> end
| 23>
| 24>
| 25>                          ****END OF INPUT****

CARTESIAN COORDINATES (ANGSTROEM)
---------------------------------
  C     -0.914950    0.615110    2.505540
  C     -0.059150    1.503520    3.410580
  H      0.365360    2.344310    2.861160
  H     -0.692260    1.920210    4.198980
  C      1.083030    0.749640    4.085710
  O      2.228170    1.263480    4.019830
  F      0.810030   -0.345410    4.636270
  H     -0.304010    0.202280    1.730150
  H     -1.698110    1.199460    2.069540
  H     -1.341240   -0.177720    3.083970

 Total Charge           Charge          ....    0
 Multiplicity           Mult            ....    1
 Number of Electrons    NEL             ....   40
 Basis Dimension        Dim             ....  146

ORBITAL ENERGIES
----------------

  NO   OCC          E(Eh)            E(eV)
   0   2.0000     -24.876557      -676.9255
   1   2.0000     -19.254931      -523.9533
   2   2.0000     -10.475448      -285.0514
   3   2.0000     -10.324130      -280.9338
   4   2.0000     -10.300823      -280.2996
   5   2.0000      -1.426334       -38.8125
   6   2.0000      -1.141236       -31.0546
   7   2.0000      -0.918182       -24.9850
   8   2.0000      -0.796257       -21.6673
   9   2.0000      -0.754444       -20.5295
  10   2.0000      -0.662031       -18.0148
  11   2.0000      -0.651464       -17.7272
  12   2.0000      -0.604631       -16.4528
  13   2.0000      -0.570405       -15.5215
  14   2.0000      -0.537727       -14.6323
  15   2.0000      -0.504209       -13.7202
  16   2.0000      -0.485033       -13.1984
  17   2.0000      -0.476364       -12.9625
  18   2.0000      -0.448702       -12.2098
  19   2.0000      -0.389402       -10.5962
  20   0.0000       0.052385         1.4255
  21   0.0000       0.083499         2.2721
  22   0.0000       0.115541         3.1440
  23   0.0000       0.123768         3.3679
  24   0.0000       0.148303         4.0355

MULLIKEN ATOMIC CHARGES
-----------------------
   0 C :    0.497683
   1 C :   -0.406062
   2 H :   -0.011414
   3 H :    0.084976
   4 C :    0.779948
   5 O :   -0.487164
   6 F :   -0.398675
   7 H :   -0.028919
   8 H :   -0.018714
   9 H :   -0.011659
Sum of atomic charges:   -0.0000000

LOEWDIN ATOMIC CHARGES
----------------------
   0 C :    0.129603
   1 C :    0.005605
   2 H :    0.035265
   3 H :    0.040218
   4 C :   -0.002406
   5 O :   -0.143554
   6 F :   -0.034757
   7 H :   -0.006438
   8 H :   -0.010698
   9 H :   -0.012839

  Mayer bond orders larger than 0.100000
B(  0-C ,  1-C ) :   1.2610 B(  0-C ,  7-H ) :   0.8811 B(  0-C ,  8-H ) :   0.8630
B(  0-C ,  9-H ) :   0.8401 B(  1-C ,  2-H ) :   1.0098 B(  1-C ,  3-H ) :   0.8809
B(  1-C ,  4-C ) :   1.0597 B(  1-C ,  7-H ) :   0.1364 B(  1-C ,  8-H ) :   0.1490
B(  1-C ,  9-H ) :   0.1565 B(  2-H ,  4-C ) :   0.1293 B(  4-C ,  5-O ) :   1.8350
B(  4-C ,  6-F ) :   0.7367

Dispersion correction           -0.001900834
FINAL SINGLE POINT ENERGY      -292.115901418312

DIPOLE MOMENT
-------------
                                X             Y             Z
Electronic contribution:      5.31152      -2.83829       5.09513
Nuclear contribution   :     -6.57765       2.82334      -5.39171
                        -----------------------------------------
Total Dipole Moment    :     -1.26613      -0.01495      -0.29658
                        -----------------------------------------
Magnitude (a.u.)       :      1.30049
Magnitude (Debye)      :      3.30557

Rotational constants in cm-1:     0.294245     0.132994     0.101060
Rotational constants in MHz :  8821.228602  3987.049251  3029.696815

                             ****ORCA TERMINATED NORMALLY****
TOTAL RUN TIME: 0 days 0 hours 0 minutes 7 seconds 383 msec
