                         Program Version 5.0.0 -  RELEASE  -
|  1> !wB97X-D3 RIJCOSX def2-SVPD def2/J TightSCF
|  2> *xyz 0 1
|  3> C          4.60295       -2.44010        2.63478
|  4> C          3.86085       -1.59157        3.62289
|  5> N          2.75650       -2.04616        4.16633
|  6> C          4.25433       -0.36291        3.86046
|  7> H          3.56526        0.31099        4.16898
|  8> H          5.05429       -0.01606        3.33784
|  9> H          2.43970       -2.97389        3.89740
| 10> H          2.06687       -1.41253        4.54981
| 11> C          3.74469       -2.58056        1.36188
| 12> H          5.56156       -1.97135        2.40708
| 13> H          4.81050       -3.42255        3.06310
| 14> H          4.26314       -3.18477        0.64702
| 15> H          3.56325       -1.61180        0.94535
| 16> H          2.81197       -3.04259        1.60980
| 17> *
| 18>
| 19> %MaxCore 64000
| 20>
| 21> %pal nprocs 18
| 22> end
| 23>
| 24> %scf
| 25>   MaxIter 150
| 26> end
| 27>
| 28>
| 29>                          ****END OF INPUT****

CARTESIAN COORDINATES (ANGSTROEM)
---------------------------------
  C      4.602950   -2.440100    2.634780
  C      3.860850   -1.591570    3.622890
  N      2.756500   -2.046160    4.166330
  C      4.254330   -0.362910    3.860460
  H      3.565260    0.310990    4.168980
  H      5.054290   -0.016060    3.337840
  H      2.439700   -2.973890    3.897400
  H      2.066870   -1.412530    4.549810
  C      3.744690   -2.580560    1.361880
  H      5.561560   -1.971350    2.407080
  H      4.810500   -3.422550    3.063100
  H      4.263140   -3.184770    0.647020
  H      3.563250   -1.611800    0.945350
  H      2.811970   -3.042590    1.609800

 Total Charge           Charge          ....    0
 Multiplicity           Mult            ....    1
 Number of Electrons    NEL             ....   40
 Basis Dimension        Dim             ....  172

ORBITAL ENERGIES
----------------

  NO   OCC          E(Eh)            E(eV)
   0   2.0000     -14.438897      -392.9024
   1   2.0000     -10.310413      -280.5606
   2   2.0000     -10.292405      -280.0706
   3   2.0000     -10.280140      -279.7368
   4   2.0000     -10.219163      -278.0776
   5   2.0000      -1.043573       -28.3971
   6   2.0000      -0.891167       -24.2499
   7   2.0000      -0.829589       -22.5743
   8   2.0000      -0.742740       -20.2110
   9   2.0000      -0.674297       -18.3486
  10   2.0000      -0.629230       -17.1222
  11   2.0000      -0.580619       -15.7994
  12   2.0000      -0.540062       -14.6958
  13   2.0000      -0.530693       -14.4409
  14   2.0000      -0.486819       -13.2470
  15   2.0000      -0.478491       -13.0204
  16   2.0000      -0.452438       -12.3115
  17   2.0000      -0.436463       -11.8767
  18   2.0000      -0.421265       -11.4632
  19   2.0000      -0.281540        -7.6611
  20   0.0000       0.087753         2.3879
  21   0.0000       0.113195         3.0802
  22   0.0000       0.125780         3.4227
  23   0.0000       0.129654         3.5281
  24   0.0000       0.136829         3.7233

MULLIKEN ATOMIC CHARGES
-----------------------
   0 C :   -0.217609
   1 C :   -0.225103
   2 N :    0.209969
   3 C :    0.351593
   4 H :   -0.336839
   5 H :   -0.081436
   6 H :   -0.062902
   7 H :   -0.164013
   8 C :    0.623333
   9 H :    0.071586
  10 H :   -0.022022
  11 H :   -0.051293
  12 H :   -0.038790
  13 H :   -0.056474
Sum of atomic charges:   -0.0000000

LOEWDIN ATOMIC CHARGES
----------------------
   0 C :   -0.025335
   1 C :   -0.273705
   2 N :    0.165033
   3 C :    0.162750
   4 H :   -0.081671
   5 H :   -0.080827
   6 H :    0.002982
   7 H :    0.013202
   8 C :    0.131901
   9 H :    0.022931
  10 H :    0.020665
  11 H :   -0.018542
  12 H :   -0.009965
  13 H :   -0.029419

  Mayer bond orders larger than 0.100000
B(  0-C ,  1-C ) :   1.2934 B(  0-C ,  8-C ) :   1.2329 B(  0-C ,  9-H ) :   0.8960
B(  0-C , 10-H ) :   0.8550 B(  0-C , 11-H ) :   0.1751 B(  0-C , 12-H ) :   0.1457
B(  0-C , 13-H ) :   0.1963 B(  1-C ,  2-N ) :   1.1050 B(  1-C ,  3-C ) :   2.0238
B(  1-C ,  4-H ) :   0.2223 B(  1-C ,  5-H ) :   0.1366 B(  1-C ,  9-H ) :   0.1704
B(  1-C , 10-H ) :   0.1880 B(  2-N ,  3-C ) :   0.2350 B(  2-N ,  6-H ) :   1.0390
B(  2-N ,  7-H ) :   1.1563 B(  3-C ,  4-H ) :   0.7881 B(  3-C ,  5-H ) :   0.8856
B(  6-H ,  7-H ) :  -0.1196 B(  8-C , 11-H ) :   0.8614 B(  8-C , 12-H ) :   0.8642
B(  8-C , 13-H ) :   0.8101

Dispersion correction           -0.003043251
FINAL SINGLE POINT ENERGY      -212.357322365503

DIPOLE MOMENT
-------------
                                X             Y             Z
Electronic contribution:     -0.48954       0.31205       2.81219
Nuclear contribution   :     -0.12319      -0.83296      -3.13501
                        -----------------------------------------
Total Dipole Moment    :     -0.61273      -0.52091      -0.32282
                        -----------------------------------------
Magnitude (a.u.)       :      0.86660
Magnitude (Debye)      :      2.20273

Rotational constants in cm-1:     0.266453     0.134423     0.106086
Rotational constants in MHz :  7988.053142  4029.892766  3180.375228

                             ****ORCA TERMINATED NORMALLY****
TOTAL RUN TIME: 0 days 0 hours 0 minutes 9 seconds 991 msec
