                         Program Version 5.0.0 -  RELEASE  -
|  1> !wB97X-D3 RIJCOSX def2-SVPD def2/J TightSCF xyzfile
|  2>
|  3> *xyzfile 0 1 D4.xyz
|  4>
|  5> %MaxCore 64000
|  6>
|  7> %pal nprocs 18
|  8> end
|  9>
| 10> %scf
| 11>   MaxIter 150
| 12> end
| 13>
| 14>
| 15>                          ****END OF INPUT****

CARTESIAN COORDINATES (ANGSTROEM)
---------------------------------
  C      4.602954   -2.440100    2.634780
  C     -0.914947    0.615112    2.505538
  C     -0.059146    1.503524    3.410578
  H      0.365364    2.344315    2.861161
  H     -0.692261    1.920207    4.198985
  C      1.083027    0.749640    4.085705
  C      3.860851   -1.591565    3.622893
  N      2.756502   -2.046159    4.166333
  C      4.254325   -0.362905    3.860455
  H      3.565256    0.310994    4.168983
  H      5.054292   -0.016059    3.337838
  H      2.439696   -2.973894    3.897395
  H      2.066869   -1.412532    4.549813
  O      2.228167    1.263475    4.019826
  F      0.810034   -0.345411    4.636269
  C      3.744685   -2.580557    1.361882
  C      0.772139    0.636882    0.562129
  C     -0.130740   -0.193985    1.470763
  H     -0.840563   -0.760165    0.856377
  H      0.466691   -0.938942    2.006959
  H     -1.647961    1.245963    1.991076
  H     -1.478180   -0.081046    3.130424
  C      3.203721   -1.256004    0.826211
  H      2.898939   -3.239289    1.583074
  H      4.334962   -3.095523    0.600188
  C      2.107815   -1.442385   -0.216865
  H      2.786775   -0.672760    1.650711
  H      4.021008   -0.652993    0.414046
  C      1.390662   -0.145912   -0.602422
  H      1.372179   -2.152184    0.176151
  H      2.523302   -1.906787   -1.117115
  H      1.561361    1.100094    1.161831
  H      0.195516    1.468325    0.142758
  H      0.602893   -0.398214   -1.319716
  H      2.087247    0.508272   -1.137335
  H      5.561557   -1.971347    2.407084
  H      4.810498   -3.422552    3.063099

 Total Charge           Charge          ....    0
 Multiplicity           Mult            ....    1
 Number of Electrons    NEL             ....  118
 Basis Dimension        Dim             ....  482

ORBITAL ENERGIES
----------------

  NO   OCC          E(Eh)            E(eV)
   0   2.0000     -24.903401      -677.6560
   1   2.0000     -19.269263      -524.3433
   2   2.0000     -14.416218      -392.2852
   3   2.0000     -10.492371      -285.5119
   4   2.0000     -10.329823      -281.0888
   5   2.0000     -10.313548      -280.6459
   6   2.0000     -10.299078      -280.2522
   7   2.0000     -10.289683      -279.9965
   8   2.0000     -10.286115      -279.8994
   9   2.0000     -10.285120      -279.8723
  10   2.0000     -10.280399      -279.7439
  11   2.0000     -10.279368      -279.7158
  12   2.0000     -10.275178      -279.6018
  13   2.0000     -10.271747      -279.5085
  14   2.0000     -10.183943      -277.1192
  15   2.0000      -1.455630       -39.6097
  16   2.0000      -1.161998       -31.6196
  17   2.0000      -1.025288       -27.8995
  18   2.0000      -0.949591       -25.8397
  19   2.0000      -0.918932       -25.0054
  20   2.0000      -0.892417       -24.2839
  21   2.0000      -0.854448       -23.2507
  22   2.0000      -0.828327       -22.5399
  23   2.0000      -0.803042       -21.8519
  24   2.0000      -0.790326       -21.5059
  25   2.0000      -0.755912       -20.5694
  26   2.0000      -0.723344       -19.6832
  27   2.0000      -0.696582       -18.9550
  28   2.0000      -0.689524       -18.7629
  29   2.0000      -0.681872       -18.5547
  30   2.0000      -0.659594       -17.9485
  31   2.0000      -0.648122       -17.6363
  32   2.0000      -0.624550       -16.9949
  33   2.0000      -0.605069       -16.4648
  34   2.0000      -0.591399       -16.0928
  35   2.0000      -0.587254       -15.9800
  36   2.0000      -0.563843       -15.3429
  37   2.0000      -0.549466       -14.9517
  38   2.0000      -0.543606       -14.7923
  39   2.0000      -0.537909       -14.6373
  40   2.0000      -0.522096       -14.2070
  41   2.0000      -0.515464       -14.0265
  42   2.0000      -0.509019       -13.8511
  43   2.0000      -0.489904       -13.3310
  44   2.0000      -0.481744       -13.1089
  45   2.0000      -0.473913       -12.8958
  46   2.0000      -0.470836       -12.8121
  47   2.0000      -0.458466       -12.4755
  48   2.0000      -0.452994       -12.3266
  49   2.0000      -0.444686       -12.1005
  50   2.0000      -0.440499       -11.9866
  51   2.0000      -0.425407       -11.5759
  52   2.0000      -0.418529       -11.3888
  53   2.0000      -0.416469       -11.3327
  54   2.0000      -0.405385       -11.0311
  55   2.0000      -0.402051       -10.9404
  56   2.0000      -0.395754       -10.7690
  57   2.0000      -0.366210        -9.9651
  58   2.0000      -0.257747        -7.0136
  59   0.0000       0.034533         0.9397
  60   0.0000       0.076920         2.0931
  61   0.0000       0.092335         2.5126
  62   0.0000       0.099535         2.7085
  63   0.0000       0.104107         2.8329

MULLIKEN ATOMIC CHARGES
-----------------------
   0 C :    0.581262
   1 C :    0.482302
   2 C :    0.101782
   3 H :    0.189075
   4 H :   -0.100411
   5 C :    0.707656
   6 C :   -0.461648
   7 N :    0.423024
   8 C :    0.928533
   9 H :   -0.710428
  10 H :   -0.140328
  11 H :    0.033288
  12 H :   -0.521082
  13 O :   -0.504029
  14 F :   -0.474939
  15 C :    0.147111
  16 C :   -0.220082
  17 C :   -0.158589
  18 H :   -0.164675
  19 H :   -0.070716
  20 H :   -0.056691
  21 H :    0.025275
  22 C :    0.228899
  23 H :    0.052357
  24 H :   -0.304170
  25 C :   -0.011176
  26 H :   -0.433775
  27 H :   -0.006205
  28 C :    0.774601
  29 H :    0.132776
  30 H :   -0.330900
  31 H :    0.162941
  32 H :   -0.465640
  33 H :    0.084600
  34 H :    0.001054
  35 H :    0.149915
  36 H :   -0.070970
Sum of atomic charges:   -0.0000000

LOEWDIN ATOMIC CHARGES
----------------------
   0 C :    0.015123
   1 C :   -0.024746
   2 C :    0.060238
   3 H :    0.036905
   4 H :    0.042986
   5 C :    0.058046
   6 C :   -0.262272
   7 N :    0.198876
   8 C :    0.189364
   9 H :   -0.168900
  10 H :   -0.069466
  11 H :    0.006499
  12 H :   -0.070717
  13 O :   -0.115264
  14 F :   -0.030207
  15 C :   -0.023345
  16 C :   -0.033344
  17 C :   -0.033042
  18 H :    0.032487
  19 H :    0.008683
  20 H :    0.030049
  21 H :    0.024968
  22 C :   -0.027210
  23 H :    0.010266
  24 H :    0.021997
  25 C :   -0.042202
  26 H :   -0.014134
  27 H :    0.039942
  28 C :   -0.029667
  29 H :    0.013960
  30 H :    0.024337
  31 H :    0.013352
  32 H :    0.025161
  33 H :    0.021476
  34 H :    0.025111
  35 H :    0.024897
  36 H :    0.019791

  Mayer bond orders larger than 0.100000
B(  0-C ,  6-C ) :   1.3031 B(  0-C ,  8-C ) :   0.1110 B(  0-C , 15-C ) :   1.0921
B(  0-C , 23-H ) :   0.1038 B(  0-C , 24-H ) :   0.1240 B(  0-C , 35-H ) :   0.7399
B(  0-C , 36-H ) :   0.5759 B(  1-C ,  2-C ) :   1.1725 B(  1-C ,  4-H ) :   0.1608
B(  1-C , 17-C ) :   1.2167 B(  1-C , 20-H ) :   0.7901 B(  1-C , 21-H ) :   0.6681
B(  2-C ,  3-H ) :   0.8643 B(  2-C ,  4-H ) :   0.7305 B(  2-C ,  5-C ) :   1.1545
B(  2-C , 20-H ) :   0.1377 B(  2-C , 21-H ) :   0.1056 B(  3-H ,  5-C ) :   0.1299
B(  4-H ,  5-C ) :   0.2276 B(  5-C , 13-O ) :   1.7597 B(  5-C , 14-F ) :   0.5379
B(  6-C ,  7-N ) :   0.9010 B(  6-C ,  8-C ) :   2.0762 B(  6-C ,  9-H ) :   0.3562
B(  6-C , 10-H ) :   0.2822 B(  6-C , 35-H ) :   0.1626 B(  6-C , 36-H ) :   0.2960
B(  7-N ,  8-C ) :   0.3517 B(  7-N , 11-H ) :   1.0014 B(  7-N , 12-H ) :   1.0567
B(  8-C ,  9-H ) :   0.1361 B(  8-C , 10-H ) :   0.7006 B(  9-H , 13-O ) :   0.1694
B( 11-H , 12-H ) :  -0.2261 B( 12-H , 14-F ) :   0.1264 B( 15-C , 22-C ) :   1.1088
B( 15-C , 23-H ) :   0.8303 B( 15-C , 24-H ) :   0.9442 B( 15-C , 26-H ) :   0.1257
B( 15-C , 27-H ) :   0.1003 B( 15-C , 35-H ) :   0.1443 B( 15-C , 36-H ) :   0.1786
B( 16-C , 17-C ) :   1.2607 B( 16-C , 18-H ) :   0.1760 B( 16-C , 19-H ) :   0.1254
B( 16-C , 25-C ) :   0.1199 B( 16-C , 28-C ) :   1.0781 B( 16-C , 31-H ) :   0.8205
B( 16-C , 32-H ) :   1.1454 B( 16-C , 33-H ) :   0.1470 B( 16-C , 34-H ) :   0.2676
B( 17-C , 18-H ) :   0.9023 B( 17-C , 19-H ) :   0.9284 B( 17-C , 20-H ) :   0.1940
B( 17-C , 21-H ) :   0.2385 B( 17-C , 32-H ) :   0.1256 B( 20-H , 21-H ) :  -0.1146
B( 22-C , 23-H ) :   0.1228 B( 22-C , 24-H ) :   0.1938 B( 22-C , 25-C ) :   1.1655
B( 22-C , 26-H ) :   0.9501 B( 22-C , 27-H ) :   0.7270 B( 22-C , 29-H ) :   0.1213
B( 22-C , 30-H ) :   0.2347 B( 25-C , 27-H ) :   0.1112 B( 25-C , 28-C ) :   1.1419
B( 25-C , 29-H ) :   0.8249 B( 25-C , 30-H ) :   0.9743 B( 25-C , 33-H ) :   0.2112
B( 25-C , 34-H ) :   0.1542 B( 26-H , 27-H ) :   0.2193 B( 26-H , 31-H ) :   0.1797
B( 28-C , 33-H ) :   0.6593 B( 28-C , 34-H ) :   0.6398 B( 33-H , 34-H ) :  -0.1027

Dispersion correction           -0.019740342
FINAL SINGLE POINT ENERGY      -699.648691411433

DIPOLE MOMENT
-------------
                                X             Y             Z
Electronic contribution:     -2.29660       3.58820      16.18436
Nuclear contribution   :      0.32481      -3.64700     -16.75441
                        -----------------------------------------
Total Dipole Moment    :     -1.97180      -0.05880      -0.57004
                        -----------------------------------------
Magnitude (a.u.)       :      2.05339
Magnitude (Debye)      :      5.21929

Rotational constants in cm-1:     0.021629     0.017327     0.011372
Rotational constants in MHz :   648.414821   519.443407   340.925013

                             ****ORCA TERMINATED NORMALLY****
TOTAL RUN TIME: 0 days 0 hours 1 minutes 39 seconds 259 msec
