                         Program Version 5.0.0 -  RELEASE  -
|  1> !B3LYP D3BJ RIJCOSX def2-TZVP def2/J TightSCF
|  2> *xyz -1 1
|  3> C          3.76678       -2.26611       -6.51175
|  4> C          2.49670       -1.84416       -5.73570
|  5> H          1.62642       -2.21743       -6.30895
|  6> H          2.48182       -2.45607       -4.79341
|  7> O          2.45973       -0.50920       -5.50576
|  8> H          3.82914       -1.70941       -7.42340
|  9> H          3.71764       -3.31144       -6.73483
| 10> H          4.63199       -2.06931       -5.91377
| 11> *
| 12>
| 13> %MaxCore 64000
| 14>
| 15> %pal nprocs 4
| 16> end
| 17>
| 18> %scf
| 19>   MaxIter 150
| 20> end
| 21>
| 22>
| 23>                          ****END OF INPUT****

CARTESIAN COORDINATES (ANGSTROEM)
---------------------------------
  C      3.766780   -2.266110   -6.511750
  C      2.496700   -1.844160   -5.735700
  H      1.626420   -2.217430   -6.308950
  H      2.481820   -2.456070   -4.793410
  O      2.459730   -0.509200   -5.505760
  H      3.829140   -1.709410   -7.423400
  H      3.717640   -3.311440   -6.734830
  H      4.631990   -2.069310   -5.913770

 Total Charge           Charge          ....   -1
 Multiplicity           Mult            ....    1
 Number of Electrons    NEL             ....   26
 Basis Dimension        Dim             ....  123

ORBITAL ENERGIES
----------------

  NO   OCC          E(Eh)            E(eV)
   0   2.0000     -18.772657      -510.8300
   1   2.0000      -9.973299      -271.3873
   2   2.0000      -9.950193      -270.7585
   3   2.0000      -0.671274       -18.2663
   4   2.0000      -0.515667       -14.0320
   5   2.0000      -0.362781        -9.8718
   6   2.0000      -0.240650        -6.5484
   7   2.0000      -0.218925        -5.9573
   8   2.0000      -0.163880        -4.4594
   9   2.0000      -0.148475        -4.0402
  10   2.0000      -0.103394        -2.8135
  11   2.0000       0.043077         1.1722
  12   2.0000       0.044663         1.2154
  13   0.0000       0.217081         5.9071
  14   0.0000       0.251526         6.8444
  15   0.0000       0.276705         7.5295
  16   0.0000       0.282500         7.6872
  17   0.0000       0.314501         8.5580

MULLIKEN ATOMIC CHARGES
-----------------------
   0 C :   -0.111765
   1 C :    0.082258
   2 H :   -0.081943
   3 H :   -0.095854
   4 O :   -0.760557
   5 H :    0.009238
   6 H :   -0.052584
   7 H :    0.011207
Sum of atomic charges:   -1.0000000

LOEWDIN ATOMIC CHARGES
----------------------
   0 C :   -0.359759
   1 C :   -0.556871
   2 H :    0.045825
   3 H :    0.044645
   4 O :   -0.404715
   5 H :    0.081970
   6 H :    0.066640
   7 H :    0.082265

  Mayer bond orders larger than 0.100000
B(  0-C ,  1-C ) :   0.8694 B(  0-C ,  4-O ) :  -0.2803 B(  0-C ,  5-H ) :   0.9622
B(  0-C ,  6-H ) :   0.9146 B(  0-C ,  7-H ) :   0.9674 B(  1-C ,  2-H ) :   0.9145
B(  1-C ,  3-H ) :   0.9012 B(  1-C ,  4-O ) :   1.6288 B(  4-O ,  6-H ) :   0.1101

Dispersion correction           -0.006238131
FINAL SINGLE POINT ENERGY      -154.397916006290

DIPOLE MOMENT
-------------
                                X             Y             Z
Electronic contribution:     -1.09296       2.75739       1.00290
Nuclear contribution   :      1.63615      -3.79938      -1.48621
                        -----------------------------------------
Total Dipole Moment    :      0.54320      -1.04199      -0.48331
                        -----------------------------------------
Magnitude (a.u.)       :      1.27059
Magnitude (Debye)      :      3.22959

Rotational constants in cm-1:     1.265582     0.329289     0.289024
Rotational constants in MHz : 37941.194363  9871.829581  8664.719106

                             ****ORCA TERMINATED NORMALLY****
TOTAL RUN TIME: 0 days 0 hours 0 minutes 11 seconds 801 msec
