                         Program Version 5.0.0 -  RELEASE  -
|  1> !B3LYP D3BJ RIJCOSX def2-TZVP def2/J TightSCF
|  2> *xyz 1 1
|  3> C          4.99986       -1.59613       -5.92488
|  4> N          5.28156       -1.97413       -4.53576
|  5> C          3.76678       -2.26611       -6.51175
|  6> C          4.79250       -1.36132       -3.45730
|  7> N          3.93990       -0.37492       -3.55736
|  8> N          5.25986       -1.75422       -2.23913
|  9> H          5.92282       -2.52145       -2.18672
| 10> H          4.65468       -1.64040       -1.44202
| 11> H          5.70914       -2.87560       -4.38702
| 12> H          3.33010       -0.31764       -4.36125
| 13> H          3.69849        0.11447       -2.70833
| 14> H          4.84333       -0.51793       -5.94302
| 15> H          5.90170       -1.82250       -6.49647
| 16> H          3.63046       -1.94025       -7.52177
| 17> H          2.90710       -2.00116       -5.93240
| 18> H          3.89538       -3.32820       -6.49392
| 19> *
| 20>
| 21> %MaxCore 64000
| 22>
| 23> %pal nprocs 4
| 24> end
| 25>
| 26> %scf
| 27>   MaxIter 150
| 28> end
| 29>
| 30>
| 31>                          ****END OF INPUT****

CARTESIAN COORDINATES (ANGSTROEM)
---------------------------------
  C      4.999860   -1.596130   -5.924880
  N      5.281560   -1.974130   -4.535760
  C      3.766780   -2.266110   -6.511750
  C      4.792500   -1.361320   -3.457300
  N      3.939900   -0.374920   -3.557360
  N      5.259860   -1.754220   -2.239130
  H      5.922820   -2.521450   -2.186720
  H      4.654680   -1.640400   -1.442020
  H      5.709140   -2.875600   -4.387020
  H      3.330100   -0.317640   -4.361250
  H      3.698490    0.114470   -2.708330
  H      4.843330   -0.517930   -5.943020
  H      5.901700   -1.822500   -6.496470
  H      3.630460   -1.940250   -7.521770
  H      2.907100   -2.001160   -5.932400
  H      3.895380   -3.328200   -6.493920

 Total Charge           Charge          ....    1
 Multiplicity           Mult            ....    1
 Number of Electrons    NEL             ....   48
 Basis Dimension        Dim             ....  246

ORBITAL ENERGIES
----------------

  NO   OCC          E(Eh)            E(eV)
   0   2.0000     -14.542092      -395.7104
   1   2.0000     -14.537907      -395.5965
   2   2.0000     -14.532666      -395.4539
   3   2.0000     -10.502682      -285.7925
   4   2.0000     -10.374208      -282.2965
   5   2.0000     -10.306970      -280.4669
   6   2.0000      -1.213940       -33.0330
   7   2.0000      -1.105873       -30.0923
   8   2.0000      -1.090554       -29.6755
   9   2.0000      -0.930820       -25.3289
  10   2.0000      -0.841995       -22.9119
  11   2.0000      -0.802720       -21.8431
  12   2.0000      -0.787586       -21.4313
  13   2.0000      -0.739269       -20.1165
  14   2.0000      -0.696203       -18.9446
  15   2.0000      -0.692743       -18.8505
  16   2.0000      -0.641598       -17.4588
  17   2.0000      -0.628366       -17.0987
  18   2.0000      -0.606971       -16.5165
  19   2.0000      -0.561172       -15.2703
  20   2.0000      -0.534888       -14.5550
  21   2.0000      -0.516163       -14.0455
  22   2.0000      -0.480262       -13.0686
  23   2.0000      -0.451985       -12.2991
  24   0.0000      -0.175828        -4.7845
  25   0.0000      -0.150487        -4.0950
  26   0.0000      -0.120889        -3.2896
  27   0.0000      -0.108687        -2.9575
  28   0.0000      -0.091341        -2.4855

MULLIKEN ATOMIC CHARGES
-----------------------
   0 C :   -0.187430
   1 N :   -0.251112
   2 C :   -0.268316
   3 C :    0.456989
   4 N :   -0.378399
   5 N :   -0.413395
   6 H :    0.271749
   7 H :    0.271327
   8 H :    0.245699
   9 H :    0.285478
  10 H :    0.273509
  11 H :    0.149081
  12 H :    0.163933
  13 H :    0.156470
  14 H :    0.093053
  15 H :    0.131364
Sum of atomic charges:    1.0000000

LOEWDIN ATOMIC CHARGES
----------------------
   0 C :   -0.275411
   1 N :    0.170759
   2 C :   -0.280434
   3 C :   -0.400038
   4 N :    0.090363
   5 N :    0.040657
   6 H :    0.193787
   7 H :    0.188729
   8 H :    0.204221
   9 H :    0.199786
  10 H :    0.201662
  11 H :    0.141811
  12 H :    0.148653
  13 H :    0.136541
  14 H :    0.113611
  15 H :    0.125302

  Mayer bond orders larger than 0.100000
B(  0-C ,  1-N ) :   0.8674 B(  0-C ,  2-C ) :   0.9617 B(  0-C , 11-H ) :   0.9709
B(  0-C , 12-H ) :   0.9573 B(  1-N ,  3-C ) :   1.3740 B(  1-N ,  8-H ) :   0.9057
B(  2-C , 13-H ) :   0.9691 B(  2-C , 14-H ) :   0.9572 B(  2-C , 15-H ) :   0.9705
B(  3-C ,  4-N ) :   1.3433 B(  3-C ,  5-N ) :   1.2765 B(  4-N ,  9-H ) :   0.8868
B(  4-N , 10-H ) :   0.9000 B(  5-N ,  6-H ) :   0.9046 B(  5-N ,  7-H ) :   0.8975

Dispersion correction           -0.020262152
FINAL SINGLE POINT ENERGY      -284.352445397091

DIPOLE MOMENT
-------------
                                X             Y             Z
Electronic contribution:      1.75301       1.08372       4.74234
Nuclear contribution   :     -1.95709      -1.20097      -3.70214
                        -----------------------------------------
Total Dipole Moment    :     -0.20408      -0.11725       1.04020
                        -----------------------------------------
Magnitude (a.u.)       :      1.06650
Magnitude (Debye)      :      2.71082

Rotational constants in cm-1:     0.241661     0.071598     0.061743
Rotational constants in MHz :  7244.800091  2146.442409  1851.001864

                             ****ORCA TERMINATED NORMALLY****
TOTAL RUN TIME: 0 days 0 hours 0 minutes 33 seconds 680 msec
