                         Program Version 5.0.0 -  RELEASE  -
|  1> !B3LYP D3BJ RIJCOSX def2-TZVP def2/J TightSCF xyzfile
|  2>
|  3> *xyzfile 0 1 B.xyz
|  4>
|  5> %MaxCore 64000
|  6>
|  7> %pal nprocs 18
|  8> end
|  9>
| 10> %scf
| 11>   MaxIter 150
| 12> end
| 13>
| 14>
| 15>                          ****END OF INPUT****

CARTESIAN COORDINATES (ANGSTROEM)
---------------------------------
  C      4.999862   -1.596133   -5.924876
  N      5.281560   -1.974132   -4.535764
  C      3.766779   -2.266110   -6.511752
  C      2.496702   -1.844161   -5.735704
  H      1.626416   -2.217434   -6.308950
  H      2.481824   -2.456069   -4.793414
  O      2.459729   -0.509204   -5.505757
  C      4.792500   -1.361316   -3.457295
  N      3.939898   -0.374925   -3.557359
  N      5.259860   -1.754224   -2.239133
  H      5.922824   -2.521451   -2.186720
  H      4.654678   -1.640404   -1.442016
  H      5.709139   -2.875599   -4.387021
  H      3.330101   -0.317639   -4.361247
  H      3.698494    0.114468   -2.708333
  H      4.843333   -0.517930   -5.943019
  H      5.901695   -1.822503   -6.496467
  H      3.886191   -3.357076   -6.533604
  H      3.685602   -1.922168   -7.547128

 Total Charge           Charge          ....    0
 Multiplicity           Mult            ....    1
 Number of Electrons    NEL             ....   64
 Basis Dimension        Dim             ....  314

ORBITAL ENERGIES
----------------

  NO   OCC          E(Eh)            E(eV)
   0   2.0000     -18.974384      -516.3192
   1   2.0000     -14.376356      -391.2005
   2   2.0000     -14.368407      -390.9842
   3   2.0000     -14.326300      -389.8384
   4   2.0000     -10.324110      -280.9333
   5   2.0000     -10.199958      -277.5550
   6   2.0000     -10.148691      -276.1599
   7   2.0000     -10.135101      -275.7901
   8   2.0000      -1.038524       -28.2597
   9   2.0000      -0.933514       -25.4022
  10   2.0000      -0.916973       -24.9521
  11   2.0000      -0.877564       -23.8797
  12   2.0000      -0.754272       -20.5248
  13   2.0000      -0.674784       -18.3618
  14   2.0000      -0.630852       -17.1664
  15   2.0000      -0.609490       -16.5851
  16   2.0000      -0.583577       -15.8799
  17   2.0000      -0.539932       -14.6923
  18   2.0000      -0.520564       -14.1653
  19   2.0000      -0.501541       -13.6476
  20   2.0000      -0.467798       -12.7294
  21   2.0000      -0.456070       -12.4103
  22   2.0000      -0.432498       -11.7689
  23   2.0000      -0.402373       -10.9491
  24   2.0000      -0.360672        -9.8144
  25   2.0000      -0.339524        -9.2389
  26   2.0000      -0.328473        -8.9382
  27   2.0000      -0.306622        -8.3436
  28   2.0000      -0.296099        -8.0573
  29   2.0000      -0.275975        -7.5096
  30   2.0000      -0.163514        -4.4495
  31   2.0000      -0.157927        -4.2974
  32   0.0000      -0.018500        -0.5034
  33   0.0000       0.005293         0.1440
  34   0.0000       0.022655         0.6165
  35   0.0000       0.041275         1.1231
  36   0.0000       0.073882         2.0104

MULLIKEN ATOMIC CHARGES
-----------------------
   0 C :   -0.103656
   1 N :   -0.291581
   2 C :   -0.082212
   3 C :    0.018635
   4 H :    0.039795
   5 H :   -0.013717
   6 O :   -0.670095
   7 C :    0.416521
   8 N :   -0.374797
   9 N :   -0.455738
  10 H :    0.234021
  11 H :    0.246408
  12 H :    0.205961
  13 H :    0.292674
  14 H :    0.206133
  15 H :    0.129896
  16 H :    0.102711
  17 H :    0.035179
  18 H :    0.063860
Sum of atomic charges:   -0.0000000

LOEWDIN ATOMIC CHARGES
----------------------
   0 C :   -0.271464
   1 N :    0.152547
   2 C :   -0.286443
   3 C :   -0.494173
   4 H :    0.100748
   5 H :    0.076938
   6 O :   -0.272342
   7 C :   -0.431065
   8 N :    0.095281
   9 N :   -0.007881
  10 H :    0.172629
  11 H :    0.173874
  12 H :    0.185842
  13 H :    0.110012
  14 H :    0.172446
  15 H :    0.146300
  16 H :    0.126930
  17 H :    0.115643
  18 H :    0.134178

  Mayer bond orders larger than 0.100000
B(  0-C ,  1-N ) :   0.8584 B(  0-C ,  2-C ) :   0.9816 B(  0-C , 15-H ) :   0.9505
B(  0-C , 16-H ) :   0.9681 B(  1-N ,  7-C ) :   1.3253 B(  1-N , 12-H ) :   0.9219
B(  2-C ,  3-C ) :   0.9169 B(  2-C ,  6-O ) :  -0.1284 B(  2-C , 17-H ) :   0.9424
B(  2-C , 18-H ) :   0.9432 B(  3-C ,  4-H ) :   0.9552 B(  3-C ,  5-H ) :   0.9464
B(  3-C ,  6-O ) :   1.3064 B(  6-O , 13-H ) :   0.3615 B(  7-C ,  8-N ) :   1.4982
B(  7-C ,  9-N ) :   1.1863 B(  8-N , 13-H ) :   0.6502 B(  8-N , 14-H ) :   0.9217
B(  9-N , 10-H ) :   0.9174 B(  9-N , 11-H ) :   0.9128

Dispersion correction           -0.028925691
FINAL SINGLE POINT ENERGY      -398.443736261034

DIPOLE MOMENT
-------------
                                X             Y             Z
Electronic contribution:      1.85764       2.01686       3.69298
Nuclear contribution   :      0.51577      -3.31768      -1.36804
                        -----------------------------------------
Total Dipole Moment    :      2.37341      -1.30082       2.32495
                        -----------------------------------------
Magnitude (a.u.)       :      3.56799
Magnitude (Debye)      :      9.06912

Rotational constants in cm-1:     0.111492     0.050787     0.040163
Rotational constants in MHz :  3342.457536  1522.560798  1204.057148

                             ****ORCA TERMINATED NORMALLY****
TOTAL RUN TIME: 0 days 0 hours 0 minutes 17 seconds 908 msec
