                         Program Version 5.0.0 -  RELEASE  -
|  1> !B3LYP D3BJ RIJCOSX def2-TZVP def2/J TightSCF
|  2> *xyz 0 1
|  3> C          3.76678       -2.26611       -6.51175
|  4> C          2.49670       -1.84416       -5.73570
|  5> H          1.62642       -2.21743       -6.30895
|  6> H          2.48182       -2.45607       -4.79341
|  7> F          2.45973       -0.50920       -5.50576
|  8> H          3.82914       -1.70941       -7.42340
|  9> H          3.71764       -3.31144       -6.73483
| 10> H          4.63199       -2.06931       -5.91377
| 11> *
| 12>
| 13> %MaxCore 64000
| 14>
| 15> %pal nprocs 4
| 16> end
| 17>
| 18> %scf
| 19>   MaxIter 150
| 20> end
| 21>
| 22>
| 23>                          ****END OF INPUT****

CARTESIAN COORDINATES (ANGSTROEM)
---------------------------------
  C      3.766780   -2.266110   -6.511750
  C      2.496700   -1.844160   -5.735700
  H      1.626420   -2.217430   -6.308950
  H      2.481820   -2.456070   -4.793410
  F      2.459730   -0.509200   -5.505760
  H      3.829140   -1.709410   -7.423400
  H      3.717640   -3.311440   -6.734830
  H      4.631990   -2.069310   -5.913770

 Total Charge           Charge          ....    0
 Multiplicity           Mult            ....    1
 Number of Electrons    NEL             ....   26
 Basis Dimension        Dim             ....  123

ORBITAL ENERGIES
----------------

  NO   OCC          E(Eh)            E(eV)
   0   2.0000     -24.668976      -671.2770
   1   2.0000     -10.247620      -278.8519
   2   2.0000     -10.161874      -276.5186
   3   2.0000      -1.204816       -32.7847
   4   2.0000      -0.760877       -20.7045
   5   2.0000      -0.631595       -17.1866
   6   2.0000      -0.511692       -13.9239
   7   2.0000      -0.495543       -13.4844
   8   2.0000      -0.460345       -12.5266
   9   2.0000      -0.405868       -11.0442
  10   2.0000      -0.401408       -10.9229
  11   2.0000      -0.333953        -9.0873
  12   2.0000      -0.330075        -8.9818
  13   0.0000       0.040954         1.1144
  14   0.0000       0.078814         2.1446
  15   0.0000       0.097034         2.6404
  16   0.0000       0.098549         2.6816
  17   0.0000       0.113988         3.1018

MULLIKEN ATOMIC CHARGES
-----------------------
   0 C :   -0.303796
   1 C :    0.063949
   2 H :    0.082269
   3 H :    0.078200
   4 F :   -0.238090
   5 H :    0.109578
   6 H :    0.098766
   7 H :    0.109124
Sum of atomic charges:   -0.0000000

LOEWDIN ATOMIC CHARGES
----------------------
   0 C :   -0.305494
   1 C :   -0.377747
   2 H :    0.112416
   3 H :    0.115354
   4 F :    0.110500
   5 H :    0.113930
   6 H :    0.117764
   7 H :    0.113277

  Mayer bond orders larger than 0.100000
B(  0-C ,  1-C ) :   0.9733 B(  0-C ,  5-H ) :   0.9710 B(  0-C ,  6-H ) :   0.9590
B(  0-C ,  7-H ) :   0.9725 B(  1-C ,  2-H ) :   0.9688 B(  1-C ,  3-H ) :   0.9674
B(  1-C ,  4-F ) :   0.9911

Dispersion correction           -0.005742869
FINAL SINGLE POINT ENERGY      -179.046676852104

DIPOLE MOMENT
-------------
                                X             Y             Z
Electronic contribution:     -2.08267       4.36045       1.81677
Nuclear contribution   :      2.16248      -5.01128      -1.96962
                        -----------------------------------------
Total Dipole Moment    :      0.07980      -0.65083      -0.15285
                        -----------------------------------------
Magnitude (a.u.)       :      0.67328
Magnitude (Debye)      :      1.71135

Rotational constants in cm-1:     1.244010     0.306580     0.270375
Rotational constants in MHz : 37294.476802  9191.037795  8105.639967

                             ****ORCA TERMINATED NORMALLY****
TOTAL RUN TIME: 0 days 0 hours 0 minutes 11 seconds 484 msec
