                         Program Version 5.0.0 -  RELEASE  -
|  1> !B3LYP D3BJ RIJCOSX def2-TZVP def2/J TightSCF
|  2> *xyz 0 1
|  3> C          4.99986       -1.59613       -5.92488
|  4> C          5.28156       -1.97413       -4.53576
|  5> C          3.76678       -2.26611       -6.51175
|  6> C          4.79250       -1.36132       -3.45730
|  7> N          3.93990       -0.37492       -3.55736
|  8> N          5.25986       -1.75422       -2.23913
|  9> H          5.92282       -2.52145       -2.18672
| 10> H          4.65468       -1.64040       -1.44202
| 11> H          5.70914       -2.87560       -4.38702
| 12> H          3.33010       -0.31764       -4.36125
| 13> H          3.69849        0.11447       -2.70833
| 14> H          4.84333       -0.51793       -5.94302
| 15> H          5.90170       -1.82250       -6.49647
| 16> H          3.63046       -1.94025       -7.52177
| 17> H          2.90710       -2.00116       -5.93240
| 18> H          3.89538       -3.32820       -6.49392
| 19> *
| 20>
| 21> %MaxCore 64000
| 22>
| 23> %pal nprocs 4
| 24> end
| 25>
| 26> %scf
| 27>   MaxIter 150
| 28> end
| 29>
| 30>
| 31>                          ****END OF INPUT****

CARTESIAN COORDINATES (ANGSTROEM)
---------------------------------
  C      4.999860   -1.596130   -5.924880
  C      5.281560   -1.974130   -4.535760
  C      3.766780   -2.266110   -6.511750
  C      4.792500   -1.361320   -3.457300
  N      3.939900   -0.374920   -3.557360
  N      5.259860   -1.754220   -2.239130
  H      5.922820   -2.521450   -2.186720
  H      4.654680   -1.640400   -1.442020
  H      5.709140   -2.875600   -4.387020
  H      3.330100   -0.317640   -4.361250
  H      3.698490    0.114470   -2.708330
  H      4.843330   -0.517930   -5.943020
  H      5.901700   -1.822500   -6.496470
  H      3.630460   -1.940250   -7.521770
  H      2.907100   -2.001160   -5.932400
  H      3.895380   -3.328200   -6.493920

 Total Charge           Charge          ....    0
 Multiplicity           Mult            ....    1
 Number of Electrons    NEL             ....   48
 Basis Dimension        Dim             ....  246

ORBITAL ENERGIES
----------------

  NO   OCC          E(Eh)            E(eV)
   0   2.0000     -14.316829      -389.5807
   1   2.0000     -14.308107      -389.3434
   2   2.0000     -10.208231      -277.7801
   3   2.0000     -10.138703      -275.8881
   4   2.0000     -10.133875      -275.7568
   5   2.0000     -10.089448      -274.5478
   6   2.0000      -0.960198       -26.1283
   7   2.0000      -0.869606       -23.6632
   8   2.0000      -0.770135       -20.9564
   9   2.0000      -0.692461       -18.8428
  10   2.0000      -0.613506       -16.6943
  11   2.0000      -0.575343       -15.6559
  12   2.0000      -0.543862       -14.7992
  13   2.0000      -0.502180       -13.6650
  14   2.0000      -0.476842       -12.9755
  15   2.0000      -0.441585       -12.0161
  16   2.0000      -0.413608       -11.2549
  17   2.0000      -0.392268       -10.6742
  18   2.0000      -0.381583       -10.3834
  19   2.0000      -0.349664        -9.5148
  20   2.0000      -0.325676        -8.8621
  21   2.0000      -0.318396        -8.6640
  22   2.0000      -0.263777        -7.1777
  23   2.0000      -0.160305        -4.3621
  24   0.0000       0.017873         0.4863
  25   0.0000       0.047776         1.3000
  26   0.0000       0.064076         1.7436
  27   0.0000       0.077828         2.1178
  28   0.0000       0.087498         2.3809

MULLIKEN ATOMIC CHARGES
-----------------------
   0 C :   -0.212103
   1 C :   -0.288779
   2 C :   -0.256768
   3 C :    0.352485
   4 N :   -0.461785
   5 N :   -0.478715
   6 H :    0.228926
   7 H :    0.194409
   8 H :    0.071736
   9 H :    0.240551
  10 H :    0.206299
  11 H :    0.073393
  12 H :    0.081376
  13 H :    0.090365
  14 H :    0.069087
  15 H :    0.089524
Sum of atomic charges:   -0.0000000

LOEWDIN ATOMIC CHARGES
----------------------
   0 C :   -0.304932
   1 C :   -0.270475
   2 C :   -0.302326
   3 C :   -0.456926
   4 N :    0.009021
   5 N :   -0.037933
   6 H :    0.172568
   7 H :    0.147373
   8 H :    0.113878
   9 H :    0.177463
  10 H :    0.164937
  11 H :    0.130301
  12 H :    0.134056
  13 H :    0.107145
  14 H :    0.104474
  15 H :    0.111375

  Mayer bond orders larger than 0.100000
B(  0-C ,  1-C ) :   1.0451 B(  0-C ,  2-C ) :   0.9421 B(  0-C , 11-H ) :   0.9790
B(  0-C , 12-H ) :   0.9792 B(  1-C ,  3-C ) :   1.6516 B(  1-C ,  8-H ) :   0.9813
B(  2-C , 13-H ) :   0.9749 B(  2-C , 14-H ) :   0.9765 B(  2-C , 15-H ) :   0.9810
B(  3-C ,  4-N ) :   1.1218 B(  3-C ,  5-N ) :   1.1138 B(  4-N ,  9-H ) :   0.9175
B(  4-N , 10-H ) :   0.9285 B(  5-N ,  6-H ) :   0.9258 B(  5-N ,  7-H ) :   0.9219

Dispersion correction           -0.021196901
FINAL SINGLE POINT ENERGY      -267.869052920460

DIPOLE MOMENT
-------------
                                X             Y             Z
Electronic contribution:      1.21209       1.41177       4.57389
Nuclear contribution   :     -1.82485      -1.28952      -3.74132
                        -----------------------------------------
Total Dipole Moment    :     -0.61276       0.12225       0.83258
                        -----------------------------------------
Magnitude (a.u.)       :      1.04096
Magnitude (Debye)      :      2.64592

Rotational constants in cm-1:     0.245790     0.071632     0.062004
Rotational constants in MHz :  7368.599517  2147.482078  1858.844841

                             ****ORCA TERMINATED NORMALLY****
TOTAL RUN TIME: 0 days 0 hours 0 minutes 31 seconds 583 msec
