                         Program Version 5.0.0 -  RELEASE  -
|  1> !B3LYP D3BJ RIJCOSX def2-TZVP def2/J TightSCF
|  2> *xyz 0 1
|  3> C          4.99986       -1.59613       -5.92488
|  4> N          5.28156       -1.97413       -4.53576
|  5> C          3.76678       -2.26611       -6.51175
|  6> C          4.79250       -1.36132       -3.45730
|  7> C          3.93990       -0.37492       -3.55736
|  8> N          5.25986       -1.75422       -2.23913
|  9> H          5.92282       -2.52145       -2.18672
| 10> H          4.65468       -1.64040       -1.44202
| 11> H          5.70914       -2.87560       -4.38702
| 12> H          3.33010       -0.31764       -4.36125
| 13> H          3.69849        0.11447       -2.70833
| 14> H          4.84333       -0.51793       -5.94302
| 15> H          5.90170       -1.82250       -6.49647
| 16> H          3.63046       -1.94025       -7.52177
| 17> H          2.90710       -2.00116       -5.93240
| 18> H          3.89538       -3.32820       -6.49392
| 19> *
| 20>
| 21> %MaxCore 64000
| 22>
| 23> %pal nprocs 4
| 24> end
| 25>
| 26> %scf
| 27>   MaxIter 150
| 28> end
| 29>
| 30>
| 31>                          ****END OF INPUT****

CARTESIAN COORDINATES (ANGSTROEM)
---------------------------------
  C      4.999860   -1.596130   -5.924880
  N      5.281560   -1.974130   -4.535760
  C      3.766780   -2.266110   -6.511750
  C      4.792500   -1.361320   -3.457300
  C      3.939900   -0.374920   -3.557360
  N      5.259860   -1.754220   -2.239130
  H      5.922820   -2.521450   -2.186720
  H      4.654680   -1.640400   -1.442020
  H      5.709140   -2.875600   -4.387020
  H      3.330100   -0.317640   -4.361250
  H      3.698490    0.114470   -2.708330
  H      4.843330   -0.517930   -5.943020
  H      5.901700   -1.822500   -6.496470
  H      3.630460   -1.940250   -7.521770
  H      2.907100   -2.001160   -5.932400
  H      3.895380   -3.328200   -6.493920

 Total Charge           Charge          ....    0
 Multiplicity           Mult            ....    1
 Number of Electrons    NEL             ....   48
 Basis Dimension        Dim             ....  246

ORBITAL ENERGIES
----------------

  NO   OCC          E(Eh)            E(eV)
   0   2.0000     -14.314122      -389.5071
   1   2.0000     -14.309530      -389.3821
   2   2.0000     -10.210015      -277.8286
   3   2.0000     -10.197938      -277.5000
   4   2.0000     -10.151222      -276.2288
   5   2.0000     -10.078965      -274.2626
   6   2.0000      -0.959618       -26.1125
   7   2.0000      -0.877246       -23.8711
   8   2.0000      -0.754523       -20.5316
   9   2.0000      -0.714685       -19.4476
  10   2.0000      -0.635816       -17.3014
  11   2.0000      -0.562692       -15.3116
  12   2.0000      -0.540860       -14.7175
  13   2.0000      -0.510238       -13.8843
  14   2.0000      -0.455583       -12.3970
  15   2.0000      -0.444842       -12.1048
  16   2.0000      -0.422660       -11.5012
  17   2.0000      -0.399038       -10.8584
  18   2.0000      -0.383117       -10.4252
  19   2.0000      -0.371446       -10.1076
  20   2.0000      -0.353077        -9.6077
  21   2.0000      -0.344882        -9.3847
  22   2.0000      -0.248768        -6.7693
  23   2.0000      -0.171335        -4.6623
  24   0.0000       0.020762         0.5650
  25   0.0000       0.050185         1.3656
  26   0.0000       0.061651         1.6776
  27   0.0000       0.078977         2.1491
  28   0.0000       0.089289         2.4297

MULLIKEN ATOMIC CHARGES
-----------------------
   0 C :   -0.092087
   1 N :   -0.322513
   2 C :   -0.279665
   3 C :    0.425923
   4 C :   -0.540419
   5 N :   -0.486580
   6 H :    0.201571
   7 H :    0.231079
   8 H :    0.175443
   9 H :    0.096203
  10 H :    0.070255
  11 H :    0.121239
  12 H :    0.098950
  13 H :    0.099031
  14 H :    0.117364
  15 H :    0.084207
Sum of atomic charges:   -0.0000000

LOEWDIN ATOMIC CHARGES
----------------------
   0 C :   -0.292551
   1 N :    0.114338
   2 C :   -0.302174
   3 C :   -0.453397
   4 C :   -0.329536
   5 N :   -0.032992
   6 H :    0.155799
   7 H :    0.167368
   8 H :    0.168987
   9 H :    0.099837
  10 H :    0.099218
  11 H :    0.138185
  12 H :    0.124864
  13 H :    0.115395
  14 H :    0.117353
  15 H :    0.109307

  Mayer bond orders larger than 0.100000
B(  0-C ,  1-N ) :   0.9254 B(  0-C ,  2-C ) :   0.9483 B(  0-C , 11-H ) :   0.9663
B(  0-C , 12-H ) :   0.9768 B(  1-N ,  3-C ) :   1.1495 B(  1-N ,  8-H ) :   0.9286
B(  2-C , 13-H ) :   0.9724 B(  2-C , 14-H ) :   0.9771 B(  2-C , 15-H ) :   0.9747
B(  3-C ,  4-C ) :   1.6260 B(  3-C ,  5-N ) :   1.0704 B(  4-C ,  9-H ) :   0.9912
B(  4-C , 10-H ) :   1.0108 B(  5-N ,  6-H ) :   0.9341 B(  5-N ,  7-H ) :   0.9240

Dispersion correction           -0.021089241
FINAL SINGLE POINT ENERGY      -267.863366435606

DIPOLE MOMENT
-------------
                                X             Y             Z
Electronic contribution:      2.44322      -0.13291       3.52989
Nuclear contribution   :     -2.10948      -0.95026      -3.53375
                        -----------------------------------------
Total Dipole Moment    :      0.33375      -1.08317      -0.00386
                        -----------------------------------------
Magnitude (a.u.)       :      1.13343
Magnitude (Debye)      :      2.88095

Rotational constants in cm-1:     0.255209     0.072067     0.062929
Rotational constants in MHz :  7650.964615  2160.525743  1886.569524

                             ****ORCA TERMINATED NORMALLY****
TOTAL RUN TIME: 0 days 0 hours 0 minutes 33 seconds 187 msec
