                         Program Version 5.0.0 -  RELEASE  -
|  1> !B3LYP D3BJ RIJCOSX def2-TZVP def2/J TightSCF
|  2> *xyz 0 1
|  3> C          4.99986       -1.59613       -5.92488
|  4> N          5.28156       -1.97413       -4.53576
|  5> C          3.76678       -2.26611       -6.51175
|  6> C          4.79250       -1.36132       -3.45730
|  7> N          3.93990       -0.37492       -3.55736
|  8> C          5.25986       -1.75422       -2.23913
|  9> H          5.92282       -2.52145       -2.18672
| 10> H          4.65468       -1.64040       -1.44202
| 11> H          5.70914       -2.87560       -4.38702
| 12> H          3.33010       -0.31764       -4.36125
| 13> H          3.69849        0.11447       -2.70833
| 14> H          4.84333       -0.51793       -5.94302
| 15> H          5.90170       -1.82250       -6.49647
| 16> H          3.63046       -1.94025       -7.52177
| 17> H          2.90710       -2.00116       -5.93240
| 18> H          3.89538       -3.32820       -6.49392
| 19> *
| 20>
| 21> %MaxCore 64000
| 22>
| 23> %pal nprocs 4
| 24> end
| 25>
| 26> %scf
| 27>   MaxIter 150
| 28> end
| 29>
| 30>
| 31>                          ****END OF INPUT****

CARTESIAN COORDINATES (ANGSTROEM)
---------------------------------
  C      4.999860   -1.596130   -5.924880
  N      5.281560   -1.974130   -4.535760
  C      3.766780   -2.266110   -6.511750
  C      4.792500   -1.361320   -3.457300
  N      3.939900   -0.374920   -3.557360
  C      5.259860   -1.754220   -2.239130
  H      5.922820   -2.521450   -2.186720
  H      4.654680   -1.640400   -1.442020
  H      5.709140   -2.875600   -4.387020
  H      3.330100   -0.317640   -4.361250
  H      3.698490    0.114470   -2.708330
  H      4.843330   -0.517930   -5.943020
  H      5.901700   -1.822500   -6.496470
  H      3.630460   -1.940250   -7.521770
  H      2.907100   -2.001160   -5.932400
  H      3.895380   -3.328200   -6.493920

 Total Charge           Charge          ....    0
 Multiplicity           Mult            ....    1
 Number of Electrons    NEL             ....   48
 Basis Dimension        Dim             ....  246

ORBITAL ENERGIES
----------------

  NO   OCC          E(Eh)            E(eV)
   0   2.0000     -14.317678      -389.6038
   1   2.0000     -14.314872      -389.5275
   2   2.0000     -10.214784      -277.9584
   3   2.0000     -10.207227      -277.7528
   4   2.0000     -10.162458      -276.5345
   5   2.0000     -10.075935      -274.1801
   6   2.0000      -0.970481       -26.4081
   7   2.0000      -0.888844       -24.1867
   8   2.0000      -0.771682       -20.9985
   9   2.0000      -0.695598       -18.9282
  10   2.0000      -0.627894       -17.0859
  11   2.0000      -0.602366       -16.3912
  12   2.0000      -0.544862       -14.8265
  13   2.0000      -0.498923       -13.5764
  14   2.0000      -0.481829       -13.1112
  15   2.0000      -0.445659       -12.1270
  16   2.0000      -0.429716       -11.6932
  17   2.0000      -0.404598       -11.0097
  18   2.0000      -0.386589       -10.5196
  19   2.0000      -0.367199        -9.9920
  20   2.0000      -0.364804        -9.9268
  21   2.0000      -0.346894        -9.4395
  22   2.0000      -0.255979        -6.9656
  23   2.0000      -0.158627        -4.3165
  24   0.0000       0.017445         0.4747
  25   0.0000       0.050161         1.3649
  26   0.0000       0.057786         1.5724
  27   0.0000       0.072324         1.9680
  28   0.0000       0.083131         2.2621

MULLIKEN ATOMIC CHARGES
-----------------------
   0 C :   -0.154808
   1 N :   -0.304781
   2 C :   -0.247434
   3 C :    0.396834
   4 N :   -0.456114
   5 C :   -0.524101
   6 H :    0.057896
   7 H :    0.075136
   8 H :    0.209237
   9 H :    0.212347
  10 H :    0.232635
  11 H :    0.112324
  12 H :    0.109073
  13 H :    0.099817
  14 H :    0.085924
  15 H :    0.096015
Sum of atomic charges:   -0.0000000

LOEWDIN ATOMIC CHARGES
----------------------
   0 C :   -0.308187
   1 N :    0.121310
   2 C :   -0.304367
   3 C :   -0.462092
   4 N :    0.012956
   5 C :   -0.364674
   6 H :    0.090738
   7 H :    0.088985
   8 H :    0.187967
   9 H :    0.161416
  10 H :    0.181106
  11 H :    0.130385
  12 H :    0.127848
  13 H :    0.115211
  14 H :    0.108438
  15 H :    0.112960

  Mayer bond orders larger than 0.100000
B(  0-C ,  1-N ) :   0.9426 B(  0-C ,  2-C ) :   0.9438 B(  0-C , 11-H ) :   0.9774
B(  0-C , 12-H ) :   0.9766 B(  1-N ,  3-C ) :   1.1685 B(  1-N ,  8-H ) :   0.9285
B(  2-C , 13-H ) :   0.9708 B(  2-C , 14-H ) :   0.9700 B(  2-C , 15-H ) :   0.9753
B(  3-C ,  4-N ) :   1.1502 B(  3-C ,  5-C ) :   1.5552 B(  4-N ,  9-H ) :   0.9160
B(  4-N , 10-H ) :   0.9223 B(  5-C ,  6-H ) :   1.0266 B(  5-C ,  7-H ) :   0.9812

Dispersion correction           -0.020936293
FINAL SINGLE POINT ENERGY      -267.857910894129

DIPOLE MOMENT
-------------
                                X             Y             Z
Electronic contribution:      1.14910       1.25765       2.13739
Nuclear contribution   :     -1.82946      -1.24287      -3.25410
                        -----------------------------------------
Total Dipole Moment    :     -0.68036       0.01479      -1.11671
                        -----------------------------------------
Magnitude (a.u.)       :      1.30773
Magnitude (Debye)      :      3.32398

Rotational constants in cm-1:     0.244672     0.074506     0.064043
Rotational constants in MHz :  7335.067153  2233.624025  1919.970379

                             ****ORCA TERMINATED NORMALLY****
TOTAL RUN TIME: 0 days 0 hours 0 minutes 33 seconds 277 msec
