                         Program Version 5.0.0 -  RELEASE  -
|  1> !B3LYP D3BJ RIJCOSX def2-TZVP def2/J TightSCF xyzfile
|  2>
|  3> *xyzfile 0 1 D1.xyz
|  4>
|  5> %MaxCore 64000
|  6>
|  7> %pal nprocs 18
|  8> end
|  9>
| 10> %scf
| 11>   MaxIter 150
| 12> end
| 13>
| 14>
| 15>                          ****END OF INPUT****

CARTESIAN COORDINATES (ANGSTROEM)
---------------------------------
  C      4.999862   -1.596133   -5.924876
  C      5.281560   -1.974132   -4.535764
  C      3.766779   -2.266110   -6.511752
  C      2.496702   -1.844161   -5.735704
  H      1.626416   -2.217434   -6.308950
  H      2.481824   -2.456069   -4.793414
  F      2.459729   -0.509204   -5.505757
  C      4.792500   -1.361316   -3.457295
  N      3.939898   -0.374925   -3.557359
  N      5.259860   -1.754224   -2.239133
  H      5.922824   -2.521451   -2.186720
  H      4.654678   -1.640404   -1.442016
  H      5.709139   -2.875599   -4.387021
  H      3.330101   -0.317639   -4.361247
  H      3.698494    0.114468   -2.708333
  H      4.843333   -0.517930   -5.943019
  H      5.901695   -1.822503   -6.496467
  H      3.886191   -3.357076   -6.533604
  H      3.685602   -1.922168   -7.547128

 Total Charge           Charge          ....    0
 Multiplicity           Mult            ....    1
 Number of Electrons    NEL             ....   64
 Basis Dimension        Dim             ....  314

ORBITAL ENERGIES
----------------

  NO   OCC          E(Eh)            E(eV)
   0   2.0000     -24.702011      -672.1759
   1   2.0000     -14.302630      -389.1944
   2   2.0000     -14.288615      -388.8130
   3   2.0000     -10.249929      -278.9147
   4   2.0000     -10.202221      -277.6165
   5   2.0000     -10.161740      -276.5150
   6   2.0000     -10.140989      -275.9503
   7   2.0000     -10.085292      -274.4347
   8   2.0000      -1.245572       -33.8937
   9   2.0000      -0.948686       -25.8151
  10   2.0000      -0.859471       -23.3874
  11   2.0000      -0.792152       -21.5556
  12   2.0000      -0.721803       -19.6413
  13   2.0000      -0.670123       -18.2350
  14   2.0000      -0.599149       -16.3037
  15   2.0000      -0.586014       -15.9462
  16   2.0000      -0.542004       -14.7487
  17   2.0000      -0.527254       -14.3473
  18   2.0000      -0.513922       -13.9845
  19   2.0000      -0.495153       -13.4738
  20   2.0000      -0.488289       -13.2870
  21   2.0000      -0.453005       -12.3269
  22   2.0000      -0.423030       -11.5112
  23   2.0000      -0.404293       -11.0014
  24   2.0000      -0.391847       -10.6627
  25   2.0000      -0.371127       -10.0989
  26   2.0000      -0.348805        -9.4915
  27   2.0000      -0.335759        -9.1365
  28   2.0000      -0.324413        -8.8277
  29   2.0000      -0.314666        -8.5625
  30   2.0000      -0.252193        -6.8625
  31   2.0000      -0.156447        -4.2571
  32   0.0000       0.028984         0.7887
  33   0.0000       0.050172         1.3652
  34   0.0000       0.066329         1.8049
  35   0.0000       0.072213         1.9650
  36   0.0000       0.079224         2.1558

MULLIKEN ATOMIC CHARGES
-----------------------
   0 C :   -0.209179
   1 C :   -0.343245
   2 C :   -0.100253
   3 C :   -0.015954
   4 H :    0.106438
   5 H :    0.119096
   6 F :   -0.226475
   7 C :    0.336410
   8 N :   -0.483897
   9 N :   -0.479906
  10 H :    0.224555
  11 H :    0.194108
  12 H :    0.069502
  13 H :    0.274576
  14 H :    0.192908
  15 H :    0.099799
  16 H :    0.087258
  17 H :    0.078421
  18 H :    0.075840
Sum of atomic charges:    0.0000000

LOEWDIN ATOMIC CHARGES
----------------------
   0 C :   -0.284707
   1 C :   -0.281918
   2 C :   -0.267236
   3 C :   -0.353551
   4 H :    0.121397
   5 H :    0.131422
   6 F :    0.160957
   7 C :   -0.463344
   8 N :    0.011157
   9 N :   -0.038133
  10 H :    0.170093
  11 H :    0.147261
  12 H :    0.112267
  13 H :    0.133000
  14 H :    0.159188
  15 H :    0.139863
  16 H :    0.137851
  17 H :    0.136335
  18 H :    0.128097

  Mayer bond orders larger than 0.100000
B(  0-C ,  1-C ) :   1.0384 B(  0-C ,  2-C ) :   0.9401 B(  0-C , 15-H ) :   0.9830
B(  0-C , 16-H ) :   0.9775 B(  1-C ,  7-C ) :   1.6212 B(  1-C , 12-H ) :   0.9791
B(  2-C ,  3-C ) :   0.9812 B(  2-C , 17-H ) :   0.9456 B(  2-C , 18-H ) :   0.9539
B(  3-C ,  4-H ) :   0.9693 B(  3-C ,  5-H ) :   0.9823 B(  3-C ,  6-F ) :   0.9089
B(  6-F , 13-H ) :   0.1141 B(  7-C ,  8-N ) :   1.1677 B(  7-C ,  9-N ) :   1.1209
B(  8-N , 13-H ) :   0.8471 B(  8-N , 14-H ) :   0.9334 B(  9-N , 10-H ) :   0.9254
B(  9-N , 11-H ) :   0.9226

Dispersion correction           -0.028985273
FINAL SINGLE POINT ENERGY      -406.406040643656

DIPOLE MOMENT
-------------
                                X             Y             Z
Electronic contribution:     -3.35211       4.02212       0.85403
Nuclear contribution   :      2.63975      -4.51113      -0.34926
                        -----------------------------------------
Total Dipole Moment    :     -0.71236      -0.48901       0.50477
                        -----------------------------------------
Magnitude (a.u.)       :      1.00069
Magnitude (Debye)      :      2.54356

Rotational constants in cm-1:     0.109429     0.049838     0.039337
Rotational constants in MHz :  3280.611039  1494.113088  1179.280063

                             ****ORCA TERMINATED NORMALLY****
TOTAL RUN TIME: 0 days 0 hours 0 minutes 22 seconds 983 msec
