                         Program Version 5.0.0 -  RELEASE  -
|  1> !B3LYP D3BJ RIJCOSX def2-TZVP def2/J TightSCF xyzfile
|  2>
|  3> *xyzfile 0 1 D3.xyz
|  4>
|  5> %MaxCore 64000
|  6>
|  7> %pal nprocs 18
|  8> end
|  9>
| 10> %scf
| 11>   MaxIter 150
| 12> end
| 13>
| 14>
| 15>                          ****END OF INPUT****

CARTESIAN COORDINATES (ANGSTROEM)
---------------------------------
  C      4.999862   -1.596133   -5.924876
  N      5.281560   -1.974132   -4.535764
  C      3.766779   -2.266110   -6.511752
  C      2.496702   -1.844161   -5.735704
  H      1.626416   -2.217434   -6.308950
  H      2.481824   -2.456069   -4.793414
  F      2.459729   -0.509204   -5.505757
  C      4.792500   -1.361316   -3.457295
  N      3.939898   -0.374925   -3.557359
  C      5.259860   -1.754224   -2.239133
  H      5.922824   -2.521451   -2.186720
  H      4.654678   -1.640404   -1.442016
  H      5.709139   -2.875599   -4.387021
  H      3.330101   -0.317639   -4.361247
  H      3.698494    0.114468   -2.708333
  H      4.843333   -0.517930   -5.943019
  H      5.901695   -1.822503   -6.496467
  H      3.886191   -3.357076   -6.533604
  H      3.685602   -1.922168   -7.547128

 Total Charge           Charge          ....    0
 Multiplicity           Mult            ....    1
 Number of Electrons    NEL             ....   64
 Basis Dimension        Dim             ....  314

ORBITAL ENERGIES
----------------

  NO   OCC          E(Eh)            E(eV)
   0   2.0000     -24.716910      -672.5813
   1   2.0000     -14.312646      -389.4669
   2   2.0000     -14.287489      -388.7823
   3   2.0000     -10.269719      -279.4533
   4   2.0000     -10.209467      -277.8137
   5   2.0000     -10.205018      -277.6927
   6   2.0000     -10.189934      -277.2822
   7   2.0000     -10.066427      -273.9214
   8   2.0000      -1.260785       -34.3077
   9   2.0000      -0.961716       -26.1696
  10   2.0000      -0.879975       -23.9453
  11   2.0000      -0.798706       -21.7339
  12   2.0000      -0.727559       -19.7979
  13   2.0000      -0.670319       -18.2403
  14   2.0000      -0.620255       -16.8780
  15   2.0000      -0.595422       -16.2023
  16   2.0000      -0.574183       -15.6243
  17   2.0000      -0.545080       -14.8324
  18   2.0000      -0.515344       -14.0232
  19   2.0000      -0.502877       -13.6840
  20   2.0000      -0.472948       -12.8696
  21   2.0000      -0.469958       -12.7882
  22   2.0000      -0.435545       -11.8518
  23   2.0000      -0.425605       -11.5813
  24   2.0000      -0.387576       -10.5465
  25   2.0000      -0.379636       -10.3304
  26   2.0000      -0.371286       -10.1032
  27   2.0000      -0.356396        -9.6980
  28   2.0000      -0.345625        -9.4049
  29   2.0000      -0.338888        -9.2216
  30   2.0000      -0.246697        -6.7130
  31   2.0000      -0.149808        -4.0765
  32   0.0000       0.022110         0.6016
  33   0.0000       0.049498         1.3469
  34   0.0000       0.056914         1.5487
  35   0.0000       0.061069         1.6618
  36   0.0000       0.077802         2.1171

MULLIKEN ATOMIC CHARGES
-----------------------
   0 C :   -0.160216
   1 N :   -0.316297
   2 C :   -0.139177
   3 C :   -0.003451
   4 H :    0.114604
   5 H :    0.127743
   6 F :   -0.217257
   7 C :    0.361091
   8 N :   -0.479855
   9 C :   -0.530435
  10 H :    0.050284
  11 H :    0.070381
  12 H :    0.206575
  13 H :    0.258851
  14 H :    0.219830
  15 H :    0.137854
  16 H :    0.117182
  17 H :    0.094714
  18 H :    0.087580
Sum of atomic charges:   -0.0000000

LOEWDIN ATOMIC CHARGES
----------------------
   0 C :   -0.286985
   1 N :    0.120376
   2 C :   -0.274114
   3 C :   -0.352055
   4 H :    0.125401
   5 H :    0.135718
   6 F :    0.163964
   7 C :   -0.474210
   8 N :    0.011586
   9 C :   -0.376947
  10 H :    0.087777
  11 H :    0.087872
  12 H :    0.186605
  13 H :    0.124050
  14 H :    0.175555
  15 H :    0.139483
  16 H :    0.131757
  17 H :    0.138387
  18 H :    0.135782

  Mayer bond orders larger than 0.100000
B(  0-C ,  1-N ) :   0.9369 B(  0-C ,  2-C ) :   0.9442 B(  0-C , 15-H ) :   0.9782
B(  0-C , 16-H ) :   0.9779 B(  1-N ,  7-C ) :   1.1481 B(  1-N , 12-H ) :   0.9289
B(  2-C ,  3-C ) :   0.9825 B(  2-C , 17-H ) :   0.9462 B(  2-C , 18-H ) :   0.9570
B(  3-C ,  4-H ) :   0.9675 B(  3-C ,  5-H ) :   0.9789 B(  3-C ,  6-F ) :   0.9196
B(  6-F , 13-H ) :   0.1051 B(  7-C ,  8-N ) :   1.1942 B(  7-C ,  9-C ) :   1.5722
B(  8-N , 13-H ) :   0.8574 B(  8-N , 14-H ) :   0.9297 B(  9-C , 10-H ) :   1.0203
B(  9-C , 11-H ) :   0.9874

Dispersion correction           -0.028640955
FINAL SINGLE POINT ENERGY      -406.390529488368

DIPOLE MOMENT
-------------
                                X             Y             Z
Electronic contribution:     -3.49774       3.88667      -1.51038
Nuclear contribution   :      2.63642      -4.47741       0.00296
                        -----------------------------------------
Total Dipole Moment    :     -0.86132      -0.59073      -1.50742
                        -----------------------------------------
Magnitude (a.u.)       :      1.83389
Magnitude (Debye)      :      4.66137

Rotational constants in cm-1:     0.108041     0.051979     0.040387
Rotational constants in MHz :  3238.993235  1558.297571  1210.782552

                             ****ORCA TERMINATED NORMALLY****
TOTAL RUN TIME: 0 days 0 hours 0 minutes 17 seconds 125 msec
