                         Program Version 5.0.0 -  RELEASE  -
|  1> !CAM-B3LYP RIJCOSX def2-TZVP def2/J TightSCF
|  2> *xyz -1 1
|  3> C         -0.72184       -0.99951       -3.43931
|  4> C          0.28725       -1.71177       -2.52740
|  5> H          1.13178       -2.06738       -3.15940
|  6> H         -0.20414       -2.63733       -2.17048
|  7> O          0.71050       -0.92751       -1.48177
|  8> H         -1.01315       -1.65739       -4.23129
|  9> H         -0.27123       -0.12142       -3.85259
| 10> H         -1.58442       -0.72333       -2.86958
| 11> *
| 12> %MaxCore 64000
| 13>
| 14> %pal nprocs 4
| 15> end
| 16>
| 17> %scf
| 18>   MaxIter 150
| 19> end
| 20>
| 21>
| 22>                          ****END OF INPUT****

CARTESIAN COORDINATES (ANGSTROEM)
---------------------------------
  C     -0.721840   -0.999510   -3.439310
  C      0.287250   -1.711770   -2.527400
  H      1.131780   -2.067380   -3.159400
  H     -0.204140   -2.637330   -2.170480
  O      0.710500   -0.927510   -1.481770
  H     -1.013150   -1.657390   -4.231290
  H     -0.271230   -0.121420   -3.852590
  H     -1.584420   -0.723330   -2.869580

 Total Charge           Charge          ....   -1
 Multiplicity           Mult            ....    1
 Number of Electrons    NEL             ....   26
 Basis Dimension        Dim             ....  123

ORBITAL ENERGIES
----------------

  NO   OCC          E(Eh)            E(eV)
   0   2.0000     -18.838634      -512.6253
   1   2.0000     -10.046789      -273.3870
   2   2.0000     -10.026666      -272.8395
   3   2.0000      -0.742390       -20.2015
   4   2.0000      -0.599673       -16.3179
   5   2.0000      -0.440355       -11.9827
   6   2.0000      -0.313946        -8.5429
   7   2.0000      -0.290458        -7.9038
   8   2.0000      -0.232106        -6.3159
   9   2.0000      -0.214583        -5.8391
  10   2.0000      -0.162080        -4.4104
  11   2.0000      -0.016783        -0.4567
  12   2.0000      -0.014492        -0.3943
  13   0.0000       0.252895         6.8816
  14   0.0000       0.290133         7.8949
  15   0.0000       0.316598         8.6151
  16   0.0000       0.318176         8.6580
  17   0.0000       0.353267         9.6129

MULLIKEN ATOMIC CHARGES
-----------------------
   0 C :   -0.162826
   1 C :    0.055422
   2 H :   -0.069469
   3 H :   -0.067866
   4 O :   -0.784106
   5 H :   -0.025690
   6 H :    0.026306
   7 H :    0.028229
Sum of atomic charges:   -1.0000000

LOEWDIN ATOMIC CHARGES
----------------------
   0 C :   -0.362615
   1 C :   -0.548649
   2 H :    0.052825
   3 H :    0.054099
   4 O :   -0.444460
   5 H :    0.074086
   6 H :    0.087014
   7 H :    0.087699

  Mayer bond orders larger than 0.100000
B(  0-C ,  1-C ) :   0.8787 B(  0-C ,  4-O ) :  -0.2298 B(  0-C ,  5-H ) :   0.9344
B(  0-C ,  6-H ) :   0.9713 B(  0-C ,  7-H ) :   0.9730 B(  1-C ,  2-H ) :   0.9296
B(  1-C ,  3-H ) :   0.9302 B(  1-C ,  4-O ) :   1.6142

FINAL SINGLE POINT ENERGY      -154.406582733223

DIPOLE MOMENT
-------------
                                X             Y             Z
Electronic contribution:      1.48113       0.78165       2.43332
Nuclear contribution   :     -2.24828      -1.06600      -3.62481
                        -----------------------------------------
Total Dipole Moment    :     -0.76715      -0.28434      -1.19149
                        -----------------------------------------
Magnitude (a.u.)       :      1.44534
Magnitude (Debye)      :      3.67377

Rotational constants in cm-1:     1.278116     0.325414     0.286672
Rotational constants in MHz : 38316.964654  9755.653004  8594.216906

                             ****ORCA TERMINATED NORMALLY****
TOTAL RUN TIME: 0 days 0 hours 0 minutes 11 seconds 631 msec
