                         Program Version 5.0.0 -  RELEASE  -
|  1> !CAM-B3LYP RIJCOSX def2-TZVP def2/J TightSCF
|  2> *xyz 1 1
|  3> C          3.48828        1.60092       -1.52204
|  4> C          4.34297        1.31342       -2.75683
|  5> N          2.81029        0.42878       -1.01420
|  6> H          2.71455        2.33145       -1.76030
|  7> H          4.09099        2.06315       -0.73338
|  8> C          3.29098       -0.41802       -0.12908
|  9> N          2.51754       -1.43202        0.23936
| 10> N          4.53549       -0.28441        0.39580
| 11> H          5.04363        0.57189        0.22290
| 12> H          4.72335       -0.73327        1.28180
| 13> H          1.93479        0.10230       -1.40379
| 14> H          1.67464       -1.50562       -0.31610
| 15> H          2.92850       -2.21850        0.72549
| 16> H          3.73575        0.86277       -3.51385
| 17> H          5.13754        0.64699       -2.49333
| 18> H          4.75374        2.22930       -3.12740
| 19> *
| 20> %MaxCore 64000
| 21>
| 22> %pal nprocs 4
| 23> end
| 24>
| 25> %scf
| 26>   MaxIter 150
| 27> end
| 28>
| 29>
| 30>                          ****END OF INPUT****

CARTESIAN COORDINATES (ANGSTROEM)
---------------------------------
  C      3.488280    1.600920   -1.522040
  C      4.342970    1.313420   -2.756830
  N      2.810290    0.428780   -1.014200
  H      2.714550    2.331450   -1.760300
  H      4.090990    2.063150   -0.733380
  C      3.290980   -0.418020   -0.129080
  N      2.517540   -1.432020    0.239360
  N      4.535490   -0.284410    0.395800
  H      5.043630    0.571890    0.222900
  H      4.723350   -0.733270    1.281800
  H      1.934790    0.102300   -1.403790
  H      1.674640   -1.505620   -0.316100
  H      2.928500   -2.218500    0.725490
  H      3.735750    0.862770   -3.513850
  H      5.137540    0.646990   -2.493330
  H      4.753740    2.229300   -3.127400

 Total Charge           Charge          ....    1
 Multiplicity           Mult            ....    1
 Number of Electrons    NEL             ....   48
 Basis Dimension        Dim             ....  246

ORBITAL ENERGIES
----------------

  NO   OCC          E(Eh)            E(eV)
   0   2.0000     -14.617993      -397.7758
   1   2.0000     -14.612966      -397.6390
   2   2.0000     -14.610778      -397.5795
   3   2.0000     -10.582402      -287.9618
   4   2.0000     -10.454108      -284.4707
   5   2.0000     -10.378204      -282.4053
   6   2.0000      -1.305482       -35.5240
   7   2.0000      -1.190927       -32.4068
   8   2.0000      -1.176912       -32.0254
   9   2.0000      -1.015985       -27.6464
  10   2.0000      -0.916374       -24.9358
  11   2.0000      -0.884945       -24.0806
  12   2.0000      -0.854511       -23.2524
  13   2.0000      -0.821340       -22.3498
  14   2.0000      -0.762781       -20.7563
  15   2.0000      -0.753076       -20.4922
  16   2.0000      -0.724357       -19.7108
  17   2.0000      -0.712473       -19.3874
  18   2.0000      -0.673238       -18.3197
  19   2.0000      -0.629971       -17.1424
  20   2.0000      -0.600464       -16.3395
  21   2.0000      -0.580046       -15.7839
  22   2.0000      -0.545220       -14.8362
  23   2.0000      -0.516203       -14.0466
  24   0.0000      -0.122794        -3.3414
  25   0.0000      -0.115058        -3.1309
  26   0.0000      -0.086585        -2.3561
  27   0.0000      -0.071259        -1.9391
  28   0.0000      -0.043266        -1.1773

MULLIKEN ATOMIC CHARGES
-----------------------
   0 C :   -0.203749
   1 C :   -0.303737
   2 N :   -0.216831
   3 H :    0.173355
   4 H :    0.138830
   5 C :    0.411381
   6 N :   -0.369696
   7 N :   -0.404199
   8 H :    0.276720
   9 H :    0.278680
  10 H :    0.241614
  11 H :    0.262577
  12 H :    0.288632
  13 H :    0.137381
  14 H :    0.126259
  15 H :    0.162783
Sum of atomic charges:    1.0000000

LOEWDIN ATOMIC CHARGES
----------------------
   0 C :   -0.284438
   1 C :   -0.282037
   2 N :    0.178013
   3 H :    0.152399
   4 H :    0.139926
   5 C :   -0.394109
   6 N :    0.062496
   7 N :    0.045860
   8 H :    0.191418
   9 H :    0.196452
  10 H :    0.210350
  11 H :    0.198483
  12 H :    0.201280
  13 H :    0.126434
  14 H :    0.121389
  15 H :    0.136084

  Mayer bond orders larger than 0.100000
B(  0-C ,  1-C ) :   0.9456 B(  0-C ,  2-N ) :   0.8570 B(  0-C ,  3-H ) :   0.9626
B(  0-C ,  4-H ) :   0.9755 B(  1-C , 13-H ) :   0.9686 B(  1-C , 14-H ) :   0.9625
B(  1-C , 15-H ) :   0.9723 B(  2-N ,  5-C ) :   1.4046 B(  2-N , 10-H ) :   0.9058
B(  5-C ,  6-N ) :   1.3327 B(  5-C ,  7-N ) :   1.3070 B(  6-N , 11-H ) :   0.9040
B(  6-N , 12-H ) :   0.8947 B(  7-N ,  8-H ) :   0.8978 B(  7-N ,  9-H ) :   0.8998

FINAL SINGLE POINT ENERGY      -284.359356738690

DIPOLE MOMENT
-------------
                                X             Y             Z
Electronic contribution:     -1.94252      -3.01581       3.74993
Nuclear contribution   :      1.59382       2.33278      -3.02574
                        -----------------------------------------
Total Dipole Moment    :     -0.34870      -0.68304       0.72419
                        -----------------------------------------
Magnitude (a.u.)       :      1.05479
Magnitude (Debye)      :      2.68106

Rotational constants in cm-1:     0.232230     0.073139     0.063030
Rotational constants in MHz :  6962.079716  2192.649203  1889.578947

                             ****ORCA TERMINATED NORMALLY****
TOTAL RUN TIME: 0 days 0 hours 0 minutes 50 seconds 25 msec
