                         Program Version 5.0.0 -  RELEASE  -
|  1> !CAM-B3LYP RIJCOSX def2-TZVP def2/J TightSCF xyzfile
|  2>
|  3> *xyzfile 0 1 B.xyz
|  4>
|  5> %MaxCore 64000
|  6>
|  7> %pal nprocs 18
|  8> end
|  9>
| 10> %scf
| 11>   MaxIter 150
| 12> end
| 13>
| 14>
| 15>                          ****END OF INPUT****

CARTESIAN COORDINATES (ANGSTROEM)
---------------------------------
  C      3.488276    1.600919   -1.522040
  C      4.342970    1.313419   -2.756826
  N      2.810285    0.428783   -1.014196
  H      5.132033    0.604994   -2.484466
  C      3.535896    0.749253   -3.924604
  H      4.841247    2.242136   -3.054083
  H      2.991617   -0.132199   -3.574137
  H      4.225505    0.392784   -4.695962
  C      2.564776    1.750890   -4.544523
  H      1.918749    2.171679   -3.769419
  C      1.686235    1.161657   -5.650111
  H      3.132494    2.594775   -4.951604
  C      0.839616   -0.037582   -5.220473
  H      2.323886    0.866395   -6.490796
  H      1.029518    1.951850   -6.029329
  C     -0.151019    0.254955   -4.094256
  H      1.499442   -0.857141   -4.922958
  H      0.290097   -0.410143   -6.091131
  H      0.328265    0.833022   -3.299125
  C     -0.721843   -0.999513   -3.439309
  H     -0.957367    0.884951   -4.485450
  H     -1.083403   -1.697555   -4.205656
  H     -1.581056   -0.723848   -2.820490
  C      0.287250   -1.711771   -2.527405
  H      1.131780   -2.067380   -3.159396
  H     -0.204137   -2.637326   -2.170480
  O      0.710505   -0.927506   -1.481767
  H      2.714548    2.331455   -1.760302
  H      4.090991    2.063151   -0.733382
  C      3.290978   -0.418021   -0.129083
  N      2.517536   -1.432017    0.239360
  N      4.535490   -0.284410    0.395800
  H      5.043627    0.571888    0.222899
  H      4.723346   -0.733273    1.281800
  H      1.934787    0.102305   -1.403788
  H      1.674638   -1.505616   -0.316095
  H      2.928503   -2.218502    0.725494

 Total Charge           Charge          ....    0
 Multiplicity           Mult            ....    1
 Number of Electrons    NEL             ....  112
 Basis Dimension        Dim             ....  572

ORBITAL ENERGIES
----------------

  NO   OCC          E(Eh)            E(eV)
   0   2.0000     -19.060911      -518.6737
   1   2.0000     -14.447782      -393.1441
   2   2.0000     -14.408738      -392.0817
   3   2.0000     -14.401276      -391.8786
   4   2.0000     -10.394755      -282.8557
   5   2.0000     -10.296745      -280.1887
   6   2.0000     -10.251545      -278.9587
   7   2.0000     -10.234048      -278.4826
   8   2.0000     -10.228476      -278.3310
   9   2.0000     -10.221770      -278.1485
  10   2.0000     -10.219009      -278.0734
  11   2.0000     -10.209594      -277.8172
  12   2.0000     -10.198750      -277.5221
  13   2.0000     -10.186717      -277.1947
  14   2.0000      -1.117639       -30.4125
  15   2.0000      -1.011241       -27.5173
  16   2.0000      -0.991479       -26.9795
  17   2.0000      -0.960553       -26.1380
  18   2.0000      -0.894906       -24.3516
  19   2.0000      -0.859857       -23.3979
  20   2.0000      -0.820643       -22.3308
  21   2.0000      -0.781934       -21.2775
  22   2.0000      -0.739823       -20.1316
  23   2.0000      -0.725612       -19.7449
  24   2.0000      -0.687693       -18.7131
  25   2.0000      -0.674863       -18.3640
  26   2.0000      -0.670050       -18.2330
  27   2.0000      -0.638358       -17.3706
  28   2.0000      -0.619181       -16.8488
  29   2.0000      -0.592545       -16.1240
  30   2.0000      -0.582827       -15.8595
  31   2.0000      -0.565146       -15.3784
  32   2.0000      -0.553957       -15.0739
  33   2.0000      -0.541437       -14.7332
  34   2.0000      -0.531412       -14.4605
  35   2.0000      -0.523686       -14.2502
  36   2.0000      -0.503687       -13.7060
  37   2.0000      -0.488659       -13.2971
  38   2.0000      -0.481513       -13.1026
  39   2.0000      -0.461338       -12.5536
  40   2.0000      -0.456389       -12.4190
  41   2.0000      -0.444894       -12.1062
  42   2.0000      -0.424644       -11.5552
  43   2.0000      -0.418267       -11.3816
  44   2.0000      -0.410196       -11.1620
  45   2.0000      -0.398085       -10.8324
  46   2.0000      -0.385434       -10.4882
  47   2.0000      -0.375758       -10.2249
  48   2.0000      -0.373849       -10.1730
  49   2.0000      -0.369493       -10.0544
  50   2.0000      -0.352190        -9.5836
  51   2.0000      -0.347975        -9.4689
  52   2.0000      -0.342312        -9.3148
  53   2.0000      -0.327460        -8.9106
  54   2.0000      -0.239776        -6.5246
  55   2.0000      -0.233307        -6.3486
  56   0.0000       0.030752         0.8368
  57   0.0000       0.056666         1.5420
  58   0.0000       0.066650         1.8136
  59   0.0000       0.086222         2.3462
  60   0.0000       0.089798         2.4435

MULLIKEN ATOMIC CHARGES
-----------------------
   0 C :   -0.265974
   1 C :   -0.122364
   2 N :   -0.203706
   3 H :    0.105029
   4 C :   -0.241266
   5 H :    0.102377
   6 H :    0.140735
   7 H :    0.105171
   8 C :   -0.240239
   9 H :    0.108362
  10 C :   -0.143750
  11 H :    0.096282
  12 C :   -0.261891
  13 H :    0.095309
  14 H :    0.096068
  15 C :   -0.179653
  16 H :    0.113026
  17 H :    0.096889
  18 H :    0.090282
  19 C :   -0.097232
  20 H :    0.085046
  21 H :    0.056840
  22 H :    0.071432
  23 C :    0.010404
  24 H :    0.017266
  25 H :    0.044323
  26 O :   -0.766690
  27 H :    0.163358
  28 H :    0.115104
  29 C :    0.367473
  30 N :   -0.399179
  31 N :   -0.446907
  32 H :    0.248126
  33 H :    0.244477
  34 H :    0.281015
  35 H :    0.291773
  36 H :    0.222685
Sum of atomic charges:    0.0000000

LOEWDIN ATOMIC CHARGES
----------------------
   0 C :   -0.282283
   1 C :   -0.269364
   2 N :    0.178728
   3 H :    0.133689
   4 C :   -0.264738
   5 H :    0.138507
   6 H :    0.143903
   7 H :    0.137081
   8 C :   -0.270414
   9 H :    0.131461
  10 C :   -0.268773
  11 H :    0.132810
  12 C :   -0.271166
  13 H :    0.132739
  14 H :    0.134705
  15 C :   -0.273952
  16 H :    0.131243
  17 H :    0.132649
  18 H :    0.131967
  19 C :   -0.281138
  20 H :    0.128154
  21 H :    0.125055
  22 H :    0.129659
  23 C :   -0.469558
  24 H :    0.086031
  25 H :    0.098772
  26 O :   -0.306691
  27 H :    0.142587
  28 H :    0.125421
  29 C :   -0.411428
  30 N :    0.039737
  31 N :   -0.003599
  32 H :    0.174766
  33 H :    0.177359
  34 H :    0.164557
  35 H :    0.152320
  36 H :    0.169205

  Mayer bond orders larger than 0.100000
B(  0-C ,  1-C ) :   0.9045 B(  0-C ,  2-N ) :   0.8844 B(  0-C , 27-H ) :   0.9883
B(  0-C , 28-H ) :   0.9918 B(  1-C ,  3-H ) :   0.9775 B(  1-C ,  4-C ) :   0.9512
B(  1-C ,  5-H ) :   0.9793 B(  2-N , 29-C ) :   1.4597 B(  2-N , 34-H ) :   0.7370
B(  4-C ,  6-H ) :   0.9794 B(  4-C ,  7-H ) :   0.9782 B(  4-C ,  8-C ) :   0.9279
B(  8-C ,  9-H ) :   0.9871 B(  8-C , 10-C ) :   0.9619 B(  8-C , 11-H ) :   0.9742
B( 10-C , 12-C ) :   0.9441 B( 10-C , 13-H ) :   0.9835 B( 10-C , 14-H ) :   0.9835
B( 12-C , 15-C ) :   0.9365 B( 12-C , 16-H ) :   0.9920 B( 12-C , 17-H ) :   0.9767
B( 15-C , 18-H ) :   0.9767 B( 15-C , 19-C ) :   0.9711 B( 15-C , 20-H ) :   0.9726
B( 19-C , 21-H ) :   0.9663 B( 19-C , 22-H ) :   0.9682 B( 19-C , 23-C ) :   0.9525
B( 23-C , 24-H ) :   0.9703 B( 23-C , 25-H ) :   0.9589 B( 23-C , 26-O ) :   1.1289
B( 26-O , 34-H ) :   0.2526 B( 26-O , 35-H ) :   0.2435 B( 29-C , 30-N ) :   1.4050
B( 29-C , 31-N ) :   1.2064 B( 30-N , 35-H ) :   0.7379 B( 30-N , 36-H ) :   0.9208
B( 31-N , 32-H ) :   0.9124 B( 31-N , 33-H ) :   0.9172

FINAL SINGLE POINT ENERGY      -634.297031456061

DIPOLE MOMENT
-------------
                                X             Y             Z
Electronic contribution:      3.64341      -2.05766      11.40653
Nuclear contribution   :     -0.74583       2.62534      -9.91488
                        -----------------------------------------
Total Dipole Moment    :      2.89759       0.56768       1.49165
                        -----------------------------------------
Magnitude (a.u.)       :      3.30806
Magnitude (Debye)      :      8.40843

Rotational constants in cm-1:     0.027028     0.016098     0.010898
Rotational constants in MHz :   810.278072   482.590922   326.703462

                             ****ORCA TERMINATED NORMALLY****
TOTAL RUN TIME: 0 days 0 hours 2 minutes 6 seconds 877 msec
