                         Program Version 5.0.0 -  RELEASE  -
|  1> !CAM-B3LYP RIJCOSX def2-TZVP def2/J TightSCF
|  2> *xyz 0 1
|  3> C         -0.72184       -0.99951       -3.43931
|  4> C          0.28725       -1.71177       -2.52740
|  5> H          1.13178       -2.06738       -3.15940
|  6> H         -0.20414       -2.63733       -2.17048
|  7> F          0.71050       -0.92751       -1.48177
|  8> H         -1.01315       -1.65739       -4.23129
|  9> H         -0.27123       -0.12142       -3.85259
| 10> H         -1.58442       -0.72333       -2.86958
| 11> *
| 12> %MaxCore 64000
| 13>
| 14> %pal nprocs 4
| 15> end
| 16>
| 17> %scf
| 18>   MaxIter 150
| 19> end
| 20>
| 21>
| 22>                          ****END OF INPUT****

CARTESIAN COORDINATES (ANGSTROEM)
---------------------------------
  C     -0.721840   -0.999510   -3.439310
  C      0.287250   -1.711770   -2.527400
  H      1.131780   -2.067380   -3.159400
  H     -0.204140   -2.637330   -2.170480
  F      0.710500   -0.927510   -1.481770
  H     -1.013150   -1.657390   -4.231290
  H     -0.271230   -0.121420   -3.852590
  H     -1.584420   -0.723330   -2.869580

 Total Charge           Charge          ....    0
 Multiplicity           Mult            ....    1
 Number of Electrons    NEL             ....   26
 Basis Dimension        Dim             ....  123

ORBITAL ENERGIES
----------------

  NO   OCC          E(Eh)            E(eV)
   0   2.0000     -24.740211      -673.2154
   1   2.0000     -10.323058      -280.9047
   2   2.0000     -10.238224      -278.5963
   3   2.0000      -1.277390       -34.7596
   4   2.0000      -0.848083       -23.0775
   5   2.0000      -0.709983       -19.3196
   6   2.0000      -0.579267       -15.7626
   7   2.0000      -0.568838       -15.4789
   8   2.0000      -0.529431       -14.4065
   9   2.0000      -0.475283       -12.9331
  10   2.0000      -0.469554       -12.7772
  11   2.0000      -0.404235       -10.9998
  12   2.0000      -0.397753       -10.8234
  13   0.0000       0.078035         2.1234
  14   0.0000       0.116920         3.1816
  15   0.0000       0.137180         3.7328
  16   0.0000       0.140132         3.8132
  17   0.0000       0.152280         4.1438

MULLIKEN ATOMIC CHARGES
-----------------------
   0 C :   -0.327779
   1 C :    0.042830
   2 H :    0.091719
   3 H :    0.090825
   4 F :   -0.244684
   5 H :    0.109712
   6 H :    0.118457
   7 H :    0.118920
Sum of atomic charges:    0.0000000

LOEWDIN ATOMIC CHARGES
----------------------
   0 C :   -0.309916
   1 C :   -0.364608
   2 H :    0.117159
   3 H :    0.116629
   4 F :    0.085850
   5 H :    0.121232
   6 H :    0.116690
   7 H :    0.116964

  Mayer bond orders larger than 0.100000
B(  0-C ,  1-C ) :   0.9683 B(  0-C ,  5-H ) :   0.9605 B(  0-C ,  6-H ) :   0.9727
B(  0-C ,  7-H ) :   0.9727 B(  1-C ,  2-H ) :   0.9732 B(  1-C ,  3-H ) :   0.9738
B(  1-C ,  4-F ) :   0.9896

FINAL SINGLE POINT ENERGY      -179.062326787555

DIPOLE MOMENT
-------------
                                X             Y             Z
Electronic contribution:      2.69986       1.04168       4.21664
Nuclear contribution   :     -2.97459      -1.40206      -4.79987
                        -----------------------------------------
Total Dipole Moment    :     -0.27473      -0.36038      -0.58323
                        -----------------------------------------
Magnitude (a.u.)       :      0.73859
Magnitude (Debye)      :      1.87734

Rotational constants in cm-1:     1.257024     0.302702     0.267953
Rotational constants in MHz : 37684.643733  9074.792567  8033.038070

                             ****ORCA TERMINATED NORMALLY****
TOTAL RUN TIME: 0 days 0 hours 0 minutes 12 seconds 20 msec
