                         Program Version 5.0.0 -  RELEASE  -
|  1> !CAM-B3LYP RIJCOSX def2-TZVP def2/J TightSCF
|  2> *xyz 0 1
|  3> C          3.48828        1.60092       -1.52204
|  4> C          4.34297        1.31342       -2.75683
|  5> C          2.81029        0.42878       -1.01420
|  6> H          2.71455        2.33145       -1.76030
|  7> H          4.09099        2.06315       -0.73338
|  8> C          3.29098       -0.41802       -0.12908
|  9> N          2.51754       -1.43202        0.23936
| 10> N          4.53549       -0.28441        0.39580
| 11> H          5.04363        0.57189        0.22290
| 12> H          4.72335       -0.73327        1.28180
| 13> H          1.93479        0.10230       -1.40379
| 14> H          1.67464       -1.50562       -0.31610
| 15> H          2.92850       -2.21850        0.72549
| 16> H          3.73575        0.86277       -3.51385
| 17> H          5.13754        0.64699       -2.49333
| 18> H          4.75374        2.22930       -3.12740
| 19> *
| 20> %MaxCore 64000
| 21>
| 22> %pal nprocs 4
| 23> end
| 24>
| 25> %scf
| 26>   MaxIter 150
| 27> end
| 28>
| 29>
| 30>                          ****END OF INPUT****

CARTESIAN COORDINATES (ANGSTROEM)
---------------------------------
  C      3.488280    1.600920   -1.522040
  C      4.342970    1.313420   -2.756830
  C      2.810290    0.428780   -1.014200
  H      2.714550    2.331450   -1.760300
  H      4.090990    2.063150   -0.733380
  C      3.290980   -0.418020   -0.129080
  N      2.517540   -1.432020    0.239360
  N      4.535490   -0.284410    0.395800
  H      5.043630    0.571890    0.222900
  H      4.723350   -0.733270    1.281800
  H      1.934790    0.102300   -1.403790
  H      1.674640   -1.505620   -0.316100
  H      2.928500   -2.218500    0.725490
  H      3.735750    0.862770   -3.513850
  H      5.137540    0.646990   -2.493330
  H      4.753740    2.229300   -3.127400

 Total Charge           Charge          ....    0
 Multiplicity           Mult            ....    1
 Number of Electrons    NEL             ....   48
 Basis Dimension        Dim             ....  246

ORBITAL ENERGIES
----------------

  NO   OCC          E(Eh)            E(eV)
   0   2.0000     -14.387048      -391.4915
   1   2.0000     -14.382164      -391.3586
   2   2.0000     -10.283769      -279.8356
   3   2.0000     -10.218210      -278.0516
   4   2.0000     -10.205920      -277.7172
   5   2.0000     -10.163688      -276.5680
   6   2.0000      -1.041616       -28.3438
   7   2.0000      -0.951306       -25.8864
   8   2.0000      -0.857193       -23.3254
   9   2.0000      -0.775008       -21.0891
  10   2.0000      -0.690941       -18.8015
  11   2.0000      -0.652816       -17.7640
  12   2.0000      -0.608062       -16.5462
  13   2.0000      -0.581445       -15.8219
  14   2.0000      -0.533390       -14.5143
  15   2.0000      -0.507952       -13.8221
  16   2.0000      -0.486813       -13.2468
  17   2.0000      -0.466363       -12.6904
  18   2.0000      -0.448866       -12.2143
  19   2.0000      -0.418112       -11.3774
  20   2.0000      -0.397172       -10.8076
  21   2.0000      -0.384826       -10.4716
  22   2.0000      -0.330458        -8.9922
  23   2.0000      -0.219055        -5.9608
  24   0.0000       0.058709         1.5975
  25   0.0000       0.088496         2.4081
  26   0.0000       0.097936         2.6650
  27   0.0000       0.117156         3.1880
  28   0.0000       0.127087         3.4582

MULLIKEN ATOMIC CHARGES
-----------------------
   0 C :   -0.246556
   1 C :   -0.292492
   2 C :   -0.273458
   3 H :    0.095395
   4 H :    0.067758
   5 C :    0.318756
   6 N :   -0.450463
   7 N :   -0.477780
   8 H :    0.232159
   9 H :    0.211875
  10 H :    0.069691
  11 H :    0.229010
  12 H :    0.215751
  13 H :    0.101442
  14 H :    0.100582
  15 H :    0.098331
Sum of atomic charges:   -0.0000000

LOEWDIN ATOMIC CHARGES
----------------------
   0 C :   -0.306460
   1 C :   -0.301990
   2 C :   -0.279392
   3 H :    0.138496
   4 H :    0.126666
   5 C :   -0.448716
   6 N :   -0.022025
   7 N :   -0.032863
   8 H :    0.169845
   9 H :    0.159445
  10 H :    0.119979
  11 H :    0.181138
  12 H :    0.162062
  13 H :    0.113935
  14 H :    0.112176
  15 H :    0.107704

  Mayer bond orders larger than 0.100000
B(  0-C ,  1-C ) :   0.9343 B(  0-C ,  2-C ) :   1.0000 B(  0-C ,  3-H ) :   0.9911
B(  0-C ,  4-H ) :   0.9902 B(  1-C , 13-H ) :   0.9835 B(  1-C , 14-H ) :   0.9783
B(  1-C , 15-H ) :   0.9832 B(  2-C ,  5-C ) :   1.6681 B(  2-C , 10-H ) :   0.9818
B(  5-C ,  6-N ) :   1.1541 B(  5-C ,  7-N ) :   1.1344 B(  6-N , 11-H ) :   0.9240
B(  6-N , 12-H ) :   0.9278 B(  7-N ,  8-H ) :   0.9268 B(  7-N ,  9-H ) :   0.9288

FINAL SINGLE POINT ENERGY      -267.876062387637

DIPOLE MOMENT
-------------
                                X             Y             Z
Electronic contribution:     -1.26065      -2.96311       3.69320
Nuclear contribution   :      1.44676       2.38443      -3.07370
                        -----------------------------------------
Total Dipole Moment    :      0.18611      -0.57868       0.61950
                        -----------------------------------------
Magnitude (a.u.)       :      0.86792
Magnitude (Debye)      :      2.20609

Rotational constants in cm-1:     0.235977     0.073199     0.063283
Rotational constants in MHz :  7074.404583  2194.453291  1897.179599

                             ****ORCA TERMINATED NORMALLY****
TOTAL RUN TIME: 0 days 0 hours 0 minutes 54 seconds 294 msec
