                         Program Version 5.0.0 -  RELEASE  -
|  1> !CAM-B3LYP RIJCOSX def2-TZVP def2/J TightSCF
|  2> *xyz 0 1
|  3> C          3.48828        1.60092       -1.52204
|  4> C          4.34297        1.31342       -2.75683
|  5> N          2.81029        0.42878       -1.01420
|  6> H          2.71455        2.33145       -1.76030
|  7> H          4.09099        2.06315       -0.73338
|  8> C          3.29098       -0.41802       -0.12908
|  9> C          2.51754       -1.43202        0.23936
| 10> N          4.53549       -0.28441        0.39580
| 11> H          5.04363        0.57189        0.22290
| 12> H          4.72335       -0.73327        1.28180
| 13> H          1.93479        0.10230       -1.40379
| 14> H          1.67464       -1.50562       -0.31610
| 15> H          2.92850       -2.21850        0.72549
| 16> H          3.73575        0.86277       -3.51385
| 17> H          5.13754        0.64699       -2.49333
| 18> H          4.75374        2.22930       -3.12740
| 19> *
| 20> %MaxCore 64000
| 21>
| 22> %pal nprocs 4
| 23> end
| 24>
| 25> %scf
| 26>   MaxIter 150
| 27> end
| 28>
| 29>
| 30>                          ****END OF INPUT****

CARTESIAN COORDINATES (ANGSTROEM)
---------------------------------
  C      3.488280    1.600920   -1.522040
  C      4.342970    1.313420   -2.756830
  N      2.810290    0.428780   -1.014200
  H      2.714550    2.331450   -1.760300
  H      4.090990    2.063150   -0.733380
  C      3.290980   -0.418020   -0.129080
  C      2.517540   -1.432020    0.239360
  N      4.535490   -0.284410    0.395800
  H      5.043630    0.571890    0.222900
  H      4.723350   -0.733270    1.281800
  H      1.934790    0.102300   -1.403790
  H      1.674640   -1.505620   -0.316100
  H      2.928500   -2.218500    0.725490
  H      3.735750    0.862770   -3.513850
  H      5.137540    0.646990   -2.493330
  H      4.753740    2.229300   -3.127400

 Total Charge           Charge          ....    0
 Multiplicity           Mult            ....    1
 Number of Electrons    NEL             ....   48
 Basis Dimension        Dim             ....  246

ORBITAL ENERGIES
----------------

  NO   OCC          E(Eh)            E(eV)
   0   2.0000     -14.388557      -391.5325
   1   2.0000     -14.387438      -391.5021
   2   2.0000     -10.288973      -279.9772
   3   2.0000     -10.286609      -279.9129
   4   2.0000     -10.233041      -278.4552
   5   2.0000     -10.149400      -276.1792
   6   2.0000      -1.053541       -28.6683
   7   2.0000      -0.965537       -26.2736
   8   2.0000      -0.858298       -23.3555
   9   2.0000      -0.782647       -21.2969
  10   2.0000      -0.707935       -19.2639
  11   2.0000      -0.672238       -18.2925
  12   2.0000      -0.608015       -16.5449
  13   2.0000      -0.571072       -15.5397
  14   2.0000      -0.547660       -14.9026
  15   2.0000      -0.509908       -13.8753
  16   2.0000      -0.500760       -13.6264
  17   2.0000      -0.473260       -12.8781
  18   2.0000      -0.445650       -12.1268
  19   2.0000      -0.438921       -11.9436
  20   2.0000      -0.430722       -11.7205
  21   2.0000      -0.423295       -11.5184
  22   2.0000      -0.322563        -8.7774
  23   2.0000      -0.219216        -5.9652
  24   0.0000       0.057943         1.5767
  25   0.0000       0.084895         2.3101
  26   0.0000       0.094996         2.5850
  27   0.0000       0.114230         3.1084
  28   0.0000       0.126441         3.4406

MULLIKEN ATOMIC CHARGES
-----------------------
   0 C :   -0.172957
   1 C :   -0.277544
   2 N :   -0.276409
   3 H :    0.118967
   4 H :    0.101441
   5 C :    0.357614
   6 C :   -0.502153
   7 N :   -0.475510
   8 H :    0.213927
   9 H :    0.239631
  10 H :    0.212470
  11 H :    0.046586
  12 H :    0.088114
  13 H :    0.106249
  14 H :    0.112812
  15 H :    0.106760
Sum of atomic charges:   -0.0000000

LOEWDIN ATOMIC CHARGES
----------------------
   0 C :   -0.315393
   1 C :   -0.305089
   2 N :    0.124787
   3 H :    0.131674
   4 H :    0.126344
   5 C :   -0.451158
   6 C :   -0.352269
   7 N :   -0.028078
   8 H :    0.156853
   9 H :    0.175836
  10 H :    0.197225
  11 H :    0.096502
  12 H :    0.096106
  13 H :    0.115568
  14 H :    0.116077
  15 H :    0.115015

  Mayer bond orders larger than 0.100000
B(  0-C ,  1-C ) :   0.9295 B(  0-C ,  2-N ) :   0.9365 B(  0-C ,  3-H ) :   0.9826
B(  0-C ,  4-H ) :   0.9848 B(  1-C , 13-H ) :   0.9758 B(  1-C , 14-H ) :   0.9725
B(  1-C , 15-H ) :   0.9750 B(  2-N ,  5-C ) :   1.1914 B(  2-N , 10-H ) :   0.9264
B(  5-C ,  6-C ) :   1.6396 B(  5-C ,  7-N ) :   1.1230 B(  6-C , 11-H ) :   1.0118
B(  6-C , 12-H ) :   1.0101 B(  7-N ,  8-H ) :   0.9306 B(  7-N ,  9-H ) :   0.9263

FINAL SINGLE POINT ENERGY      -267.864655645256

DIPOLE MOMENT
-------------
                                X             Y             Z
Electronic contribution:     -0.85367      -1.02892       2.42472
Nuclear contribution   :      1.38466       1.98967      -2.80776
                        -----------------------------------------
Total Dipole Moment    :      0.53099       0.96075      -0.38304
                        -----------------------------------------
Magnitude (a.u.)       :      1.16263
Magnitude (Debye)      :      2.95517

Rotational constants in cm-1:     0.235618     0.075969     0.065309
Rotational constants in MHz :  7063.646698  2277.495424  1957.925383

                             ****ORCA TERMINATED NORMALLY****
TOTAL RUN TIME: 0 days 0 hours 0 minutes 52 seconds 707 msec
