                         Program Version 5.0.0 -  RELEASE  -
|  1> !CAM-B3LYP RIJCOSX def2-TZVP def2/J TightSCF
|  2> *xyz 0 1
|  3> C          3.48828        1.60092       -1.52204
|  4> C          4.34297        1.31342       -2.75683
|  5> N          2.81029        0.42878       -1.01420
|  6> H          2.71455        2.33145       -1.76030
|  7> H          4.09099        2.06315       -0.73338
|  8> C          3.29098       -0.41802       -0.12908
|  9> N          2.51754       -1.43202        0.23936
| 10> C          4.53549       -0.28441        0.39580
| 11> H          5.04363        0.57189        0.22290
| 12> H          4.72335       -0.73327        1.28180
| 13> H          1.93479        0.10230       -1.40379
| 14> H          1.67464       -1.50562       -0.31610
| 15> H          2.92850       -2.21850        0.72549
| 16> H          3.73575        0.86277       -3.51385
| 17> H          5.13754        0.64699       -2.49333
| 18> H          4.75374        2.22930       -3.12740
| 19> *
| 20> %MaxCore 64000
| 21>
| 22> %pal nprocs 4
| 23> end
| 24>
| 25> %scf
| 26>   MaxIter 150
| 27> end
| 28>
| 29>
| 30>                          ****END OF INPUT****

CARTESIAN COORDINATES (ANGSTROEM)
---------------------------------
  C      3.488280    1.600920   -1.522040
  C      4.342970    1.313420   -2.756830
  N      2.810290    0.428780   -1.014200
  H      2.714550    2.331450   -1.760300
  H      4.090990    2.063150   -0.733380
  C      3.290980   -0.418020   -0.129080
  N      2.517540   -1.432020    0.239360
  C      4.535490   -0.284410    0.395800
  H      5.043630    0.571890    0.222900
  H      4.723350   -0.733270    1.281800
  H      1.934790    0.102300   -1.403790
  H      1.674640   -1.505620   -0.316100
  H      2.928500   -2.218500    0.725490
  H      3.735750    0.862770   -3.513850
  H      5.137540    0.646990   -2.493330
  H      4.753740    2.229300   -3.127400

 Total Charge           Charge          ....    0
 Multiplicity           Mult            ....    1
 Number of Electrons    NEL             ....   48
 Basis Dimension        Dim             ....  246

ORBITAL ENERGIES
----------------

  NO   OCC          E(Eh)            E(eV)
   0   2.0000     -14.394414      -391.6919
   1   2.0000     -14.389425      -391.5562
   2   2.0000     -10.291787      -280.0538
   3   2.0000     -10.278519      -279.6927
   4   2.0000     -10.224817      -278.2314
   5   2.0000     -10.149966      -276.1946
   6   2.0000      -1.062578       -28.9142
   7   2.0000      -0.971025       -26.4229
   8   2.0000      -0.838005       -22.8033
   9   2.0000      -0.786111       -21.3912
  10   2.0000      -0.722193       -19.6519
  11   2.0000      -0.637047       -17.3349
  12   2.0000      -0.614751       -16.7282
  13   2.0000      -0.600918       -16.3518
  14   2.0000      -0.536980       -14.6120
  15   2.0000      -0.510386       -13.8883
  16   2.0000      -0.496835       -13.5196
  17   2.0000      -0.462345       -12.5810
  18   2.0000      -0.446134       -12.1399
  19   2.0000      -0.435594       -11.8531
  20   2.0000      -0.426630       -11.6092
  21   2.0000      -0.413019       -11.2388
  22   2.0000      -0.316390        -8.6094
  23   2.0000      -0.221824        -6.0361
  24   0.0000       0.053064         1.4439
  25   0.0000       0.086863         2.3637
  26   0.0000       0.099526         2.7082
  27   0.0000       0.116385         3.1670
  28   0.0000       0.131754         3.5852

MULLIKEN ATOMIC CHARGES
-----------------------
   0 C :   -0.131447
   1 C :   -0.303191
   2 N :   -0.286721
   3 H :    0.111724
   4 H :    0.124017
   5 C :    0.335355
   6 N :   -0.439522
   7 C :   -0.527641
   8 H :    0.070574
   9 H :    0.083488
  10 H :    0.177063
  11 H :    0.197155
  12 H :    0.248150
  13 H :    0.093357
  14 H :    0.139116
  15 H :    0.108522
Sum of atomic charges:   -0.0000000

LOEWDIN ATOMIC CHARGES
----------------------
   0 C :   -0.298396
   1 C :   -0.302977
   2 N :    0.122673
   3 H :    0.129029
   4 H :    0.137639
   5 C :   -0.462130
   6 N :   -0.012373
   7 C :   -0.371279
   8 H :    0.092838
   9 H :    0.094006
  10 H :    0.177541
  11 H :    0.162448
  12 H :    0.180701
  13 H :    0.111762
  14 H :    0.122635
  15 H :    0.115882

  Mayer bond orders larger than 0.100000
B(  0-C ,  1-C ) :   0.9388 B(  0-C ,  2-N ) :   0.9141 B(  0-C ,  3-H ) :   0.9828
B(  0-C ,  4-H ) :   0.9742 B(  1-C , 13-H ) :   0.9760 B(  1-C , 14-H ) :   0.9747
B(  1-C , 15-H ) :   0.9776 B(  2-N ,  5-C ) :   1.1869 B(  2-N , 10-H ) :   0.9334
B(  5-C ,  6-N ) :   1.1477 B(  5-C ,  7-C ) :   1.6280 B(  6-N , 11-H ) :   0.9330
B(  6-N , 12-H ) :   0.9212 B(  7-C ,  8-H ) :   1.0171 B(  7-C ,  9-H ) :   1.0000

FINAL SINGLE POINT ENERGY      -267.864354554144

DIPOLE MOMENT
-------------
                                X             Y             Z
Electronic contribution:     -2.87977      -2.31394       2.17194
Nuclear contribution   :      1.81275       2.23313      -2.77458
                        -----------------------------------------
Total Dipole Moment    :     -1.06702      -0.08081      -0.60264
                        -----------------------------------------
Magnitude (a.u.)       :      1.22810
Magnitude (Debye)      :      3.12159

Rotational constants in cm-1:     0.245202     0.073668     0.064348
Rotational constants in MHz :  7350.977980  2208.513334  1929.108541

                             ****ORCA TERMINATED NORMALLY****
TOTAL RUN TIME: 0 days 0 hours 0 minutes 51 seconds 213 msec
