                         Program Version 5.0.0 -  RELEASE  -
|  1> !CAM-B3LYP RIJCOSX def2-TZVP def2/J TightSCF xyzfile
|  2>
|  3> *xyzfile 0 1 D1.xyz
|  4>
|  5> %MaxCore 64000
|  6>
|  7> %pal nprocs 18
|  8> end
|  9>
| 10> %scf
| 11>   MaxIter 150
| 12> end
| 13>
| 14>
| 15>                          ****END OF INPUT****

CARTESIAN COORDINATES (ANGSTROEM)
---------------------------------
  C      3.488276    1.600919   -1.522040
  C      4.342970    1.313419   -2.756826
  C      2.810285    0.428783   -1.014196
  H      5.132033    0.604994   -2.484466
  C      3.535896    0.749253   -3.924604
  H      4.841247    2.242136   -3.054083
  H      2.991617   -0.132199   -3.574137
  H      4.225505    0.392784   -4.695962
  C      2.564776    1.750890   -4.544523
  H      1.918749    2.171679   -3.769419
  C      1.686235    1.161657   -5.650111
  H      3.132494    2.594775   -4.951604
  C      0.839616   -0.037582   -5.220473
  H      2.323886    0.866395   -6.490796
  H      1.029518    1.951850   -6.029329
  C     -0.151019    0.254955   -4.094256
  H      1.499442   -0.857141   -4.922958
  H      0.290097   -0.410143   -6.091131
  H      0.328265    0.833022   -3.299125
  C     -0.721843   -0.999513   -3.439309
  H     -0.957367    0.884951   -4.485450
  H     -1.083403   -1.697555   -4.205656
  H     -1.581056   -0.723848   -2.820490
  C      0.287250   -1.711771   -2.527405
  H      1.131780   -2.067380   -3.159396
  H     -0.204137   -2.637326   -2.170480
  F      0.710505   -0.927506   -1.481767
  H      2.714548    2.331455   -1.760302
  H      4.090991    2.063151   -0.733382
  C      3.290978   -0.418021   -0.129083
  N      2.517536   -1.432017    0.239360
  N      4.535490   -0.284410    0.395800
  H      5.043627    0.571888    0.222899
  H      4.723346   -0.733273    1.281800
  H      1.934787    0.102305   -1.403788
  H      1.674638   -1.505616   -0.316095
  H      2.928503   -2.218502    0.725494

 Total Charge           Charge          ....    0
 Multiplicity           Mult            ....    1
 Number of Electrons    NEL             ....  112
 Basis Dimension        Dim             ....  572

ORBITAL ENERGIES
----------------

  NO   OCC          E(Eh)            E(eV)
   0   2.0000     -24.771247      -674.0599
   1   2.0000     -14.372068      -391.0838
   2   2.0000     -14.355422      -390.6309
   3   2.0000     -10.333892      -281.1995
   4   2.0000     -10.265634      -279.3421
   5   2.0000     -10.254605      -279.0420
   6   2.0000     -10.238930      -278.6154
   7   2.0000     -10.234850      -278.5044
   8   2.0000     -10.230208      -278.3781
   9   2.0000     -10.222154      -278.1590
  10   2.0000     -10.216430      -278.0032
  11   2.0000     -10.211181      -277.8604
  12   2.0000     -10.204326      -277.6738
  13   2.0000     -10.135902      -275.8119
  14   2.0000      -1.317732       -35.8573
  15   2.0000      -1.023270       -27.8446
  16   2.0000      -0.934055       -25.4169
  17   2.0000      -0.903084       -24.5742
  18   2.0000      -0.877529       -23.8788
  19   2.0000      -0.847339       -23.0573
  20   2.0000      -0.812363       -22.1055
  21   2.0000      -0.772759       -21.0279
  22   2.0000      -0.746161       -20.3041
  23   2.0000      -0.711396       -19.3581
  24   2.0000      -0.680302       -18.5120
  25   2.0000      -0.664460       -18.0809
  26   2.0000      -0.640065       -17.4171
  27   2.0000      -0.622627       -16.9425
  28   2.0000      -0.608551       -16.5595
  29   2.0000      -0.593980       -16.1630
  30   2.0000      -0.583756       -15.8848
  31   2.0000      -0.568594       -15.4722
  32   2.0000      -0.557666       -15.1749
  33   2.0000      -0.534916       -14.5558
  34   2.0000      -0.526019       -14.3137
  35   2.0000      -0.512110       -13.9352
  36   2.0000      -0.505641       -13.7592
  37   2.0000      -0.492050       -13.3894
  38   2.0000      -0.481767       -13.1095
  39   2.0000      -0.470768       -12.8102
  40   2.0000      -0.462689       -12.5904
  41   2.0000      -0.445130       -12.1126
  42   2.0000      -0.438299       -11.9267
  43   2.0000      -0.431804       -11.7500
  44   2.0000      -0.426767       -11.6129
  45   2.0000      -0.423737       -11.5305
  46   2.0000      -0.402715       -10.9584
  47   2.0000      -0.394638       -10.7387
  48   2.0000      -0.384588       -10.4652
  49   2.0000      -0.382055       -10.3962
  50   2.0000      -0.378064       -10.2877
  51   2.0000      -0.363057        -9.8793
  52   2.0000      -0.356796        -9.7089
  53   2.0000      -0.351070        -9.5531
  54   2.0000      -0.312759        -8.5106
  55   2.0000      -0.201241        -5.4761
  56   0.0000       0.066451         1.8082
  57   0.0000       0.074833         2.0363
  58   0.0000       0.082971         2.2578
  59   0.0000       0.089173         2.4265
  60   0.0000       0.100268         2.7284

MULLIKEN ATOMIC CHARGES
-----------------------
   0 C :   -0.334049
   1 C :   -0.094413
   2 C :   -0.362572
   3 H :    0.091641
   4 C :   -0.204847
   5 H :    0.076501
   6 H :    0.104957
   7 H :    0.093677
   8 C :   -0.252893
   9 H :    0.113094
  10 C :   -0.147659
  11 H :    0.099689
  12 C :   -0.259523
  13 H :    0.100591
  14 H :    0.098754
  15 C :   -0.209584
  16 H :    0.109396
  17 H :    0.106109
  18 H :    0.126081
  19 C :   -0.174380
  20 H :    0.108410
  21 H :    0.108637
  22 H :    0.116117
  23 C :   -0.032821
  24 H :    0.115704
  25 H :    0.124767
  26 F :   -0.240793
  27 H :    0.107912
  28 H :    0.084648
  29 C :    0.300106
  30 N :   -0.470460
  31 N :   -0.478297
  32 H :    0.227853
  33 H :    0.206647
  34 H :    0.191899
  35 H :    0.246412
  36 H :    0.202690
Sum of atomic charges:   -0.0000000

LOEWDIN ATOMIC CHARGES
----------------------
   0 C :   -0.287658
   1 C :   -0.262438
   2 C :   -0.285069
   3 H :    0.133045
   4 C :   -0.265984
   5 H :    0.127234
   6 H :    0.134141
   7 H :    0.132095
   8 C :   -0.268198
   9 H :    0.132149
  10 C :   -0.267635
  11 H :    0.135028
  12 C :   -0.270534
  13 H :    0.135303
  14 H :    0.134707
  15 C :   -0.266648
  16 H :    0.131114
  17 H :    0.134058
  18 H :    0.142374
  19 C :   -0.271624
  20 H :    0.136912
  21 H :    0.143934
  22 H :    0.139833
  23 C :   -0.340885
  24 H :    0.126057
  25 H :    0.126284
  26 F :    0.143924
  27 H :    0.137163
  28 H :    0.127784
  29 C :   -0.451780
  30 N :   -0.031163
  31 N :   -0.038272
  32 H :    0.167495
  33 H :    0.156308
  34 H :    0.116171
  35 H :    0.159584
  36 H :    0.155191

  Mayer bond orders larger than 0.100000
B(  0-C ,  1-C ) :   0.9130 B(  0-C ,  2-C ) :   0.9309 B(  0-C , 27-H ) :   1.0241
B(  0-C , 28-H ) :   1.0042 B(  1-C ,  3-H ) :   0.9735 B(  1-C ,  4-C ) :   0.9742
B(  1-C ,  5-H ) :   0.9829 B(  2-C , 29-C ) :   1.6466 B(  2-C , 34-H ) :   0.9676
B(  4-C ,  6-H ) :   0.9779 B(  4-C ,  7-H ) :   0.9792 B(  4-C ,  8-C ) :   0.9279
B(  8-C ,  9-H ) :   0.9945 B(  8-C , 10-C ) :   0.9506 B(  8-C , 11-H ) :   0.9763
B( 10-C , 12-C ) :   0.9523 B( 10-C , 13-H ) :   0.9806 B( 10-C , 14-H ) :   0.9857
B( 12-C , 15-C ) :   0.9230 B( 12-C , 16-H ) :   0.9922 B( 12-C , 17-H ) :   0.9745
B( 15-C , 18-H ) :   0.9866 B( 15-C , 19-C ) :   0.9498 B( 15-C , 20-H ) :   0.9727
B( 19-C , 21-H ) :   0.9643 B( 19-C , 22-H ) :   0.9758 B( 19-C , 23-C ) :   0.9780
B( 23-C , 24-H ) :   0.9793 B( 23-C , 25-H ) :   0.9689 B( 23-C , 26-F ) :   0.8909
B( 29-C , 30-N ) :   1.1930 B( 29-C , 31-N ) :   1.1304 B( 30-N , 35-H ) :   0.8920
B( 30-N , 36-H ) :   0.9319 B( 31-N , 32-H ) :   0.9269 B( 31-N , 33-H ) :   0.9299

FINAL SINGLE POINT ENERGY      -642.226554767056

DIPOLE MOMENT
-------------
                                X             Y             Z
Electronic contribution:     -1.57283      -4.90299      10.74697
Nuclear contribution   :      1.15699       3.94991     -10.89335
                        -----------------------------------------
Total Dipole Moment    :     -0.41584      -0.95308      -0.14638
                        -----------------------------------------
Magnitude (a.u.)       :      1.05010
Magnitude (Debye)      :      2.66915

Rotational constants in cm-1:     0.026548     0.016177     0.010851
Rotational constants in MHz :   795.884848   484.988695   325.313537

                             ****ORCA TERMINATED NORMALLY****
TOTAL RUN TIME: 0 days 0 hours 1 minutes 54 seconds 931 msec
