                         Program Version 5.0.0 -  RELEASE  -
|  1> !CAM-B3LYP RIJCOSX def2-TZVP def2/J TightSCF xyzfile
|  2>
|  3> *xyzfile 0 1 D3.xyz
|  4>
|  5> %MaxCore 64000
|  6>
|  7> %pal nprocs 18
|  8> end
|  9>
| 10> %scf
| 11>   MaxIter 150
| 12> end
| 13>
| 14>
| 15>                          ****END OF INPUT****

CARTESIAN COORDINATES (ANGSTROEM)
---------------------------------
  C      3.488276    1.600919   -1.522040
  C      4.342970    1.313419   -2.756826
  N      2.810285    0.428783   -1.014196
  H      5.132033    0.604994   -2.484466
  C      3.535896    0.749253   -3.924604
  H      4.841247    2.242136   -3.054083
  H      2.991617   -0.132199   -3.574137
  H      4.225505    0.392784   -4.695962
  C      2.564776    1.750890   -4.544523
  H      1.918749    2.171679   -3.769419
  C      1.686235    1.161657   -5.650111
  H      3.132494    2.594775   -4.951604
  C      0.839616   -0.037582   -5.220473
  H      2.323886    0.866395   -6.490796
  H      1.029518    1.951850   -6.029329
  C     -0.151019    0.254955   -4.094256
  H      1.499442   -0.857141   -4.922958
  H      0.290097   -0.410143   -6.091131
  H      0.328265    0.833022   -3.299125
  C     -0.721843   -0.999513   -3.439309
  H     -0.957367    0.884951   -4.485450
  H     -1.083403   -1.697555   -4.205656
  H     -1.581056   -0.723848   -2.820490
  C      0.287250   -1.711771   -2.527405
  H      1.131780   -2.067380   -3.159396
  H     -0.204137   -2.637326   -2.170480
  F      0.710505   -0.927506   -1.481767
  H      2.714548    2.331455   -1.760302
  H      4.090991    2.063151   -0.733382
  C      3.290978   -0.418021   -0.129083
  N      2.517536   -1.432017    0.239360
  C      4.535490   -0.284410    0.395800
  H      5.043627    0.571888    0.222899
  H      4.723346   -0.733273    1.281800
  H      1.934787    0.102305   -1.403788
  H      1.674638   -1.505616   -0.316095
  H      2.928503   -2.218502    0.725494

 Total Charge           Charge          ....    0
 Multiplicity           Mult            ....    1
 Number of Electrons    NEL             ....  112
 Basis Dimension        Dim             ....  572

ORBITAL ENERGIES
----------------

  NO   OCC          E(Eh)            E(eV)
   0   2.0000     -24.799803      -674.8370
   1   2.0000     -14.365325      -390.9004
   2   2.0000     -14.359320      -390.7370
   3   2.0000     -10.351676      -281.6834
   4   2.0000     -10.271985      -279.5149
   5   2.0000     -10.269135      -279.4374
   6   2.0000     -10.261645      -279.2335
   7   2.0000     -10.253988      -279.0252
   8   2.0000     -10.247833      -278.8577
   9   2.0000     -10.242663      -278.7170
  10   2.0000     -10.236833      -278.5584
  11   2.0000     -10.232866      -278.4504
  12   2.0000     -10.227046      -278.2921
  13   2.0000     -10.132131      -275.7093
  14   2.0000      -1.344958       -36.5982
  15   2.0000      -1.040251       -28.3067
  16   2.0000      -0.950273       -25.8582
  17   2.0000      -0.917625       -24.9698
  18   2.0000      -0.886746       -24.1296
  19   2.0000      -0.851866       -23.1804
  20   2.0000      -0.808884       -22.0109
  21   2.0000      -0.775222       -21.0949
  22   2.0000      -0.767830       -20.8937
  23   2.0000      -0.733594       -19.9621
  24   2.0000      -0.699064       -19.0225
  25   2.0000      -0.671665       -18.2769
  26   2.0000      -0.649806       -17.6821
  27   2.0000      -0.636836       -17.3292
  28   2.0000      -0.631568       -17.1858
  29   2.0000      -0.601257       -16.3610
  30   2.0000      -0.593895       -16.1607
  31   2.0000      -0.581546       -15.8247
  32   2.0000      -0.564671       -15.3655
  33   2.0000      -0.549325       -14.9479
  34   2.0000      -0.534842       -14.5538
  35   2.0000      -0.524586       -14.2747
  36   2.0000      -0.510068       -13.8796
  37   2.0000      -0.506678       -13.7874
  38   2.0000      -0.498399       -13.5621
  39   2.0000      -0.478339       -13.0163
  40   2.0000      -0.470298       -12.7975
  41   2.0000      -0.452920       -12.3246
  42   2.0000      -0.447021       -12.1640
  43   2.0000      -0.439413       -11.9570
  44   2.0000      -0.437660       -11.9093
  45   2.0000      -0.426692       -11.6109
  46   2.0000      -0.417384       -11.3576
  47   2.0000      -0.414601       -11.2819
  48   2.0000      -0.405284       -11.0283
  49   2.0000      -0.401276       -10.9193
  50   2.0000      -0.394774       -10.7424
  51   2.0000      -0.380365       -10.3503
  52   2.0000      -0.378980       -10.3126
  53   2.0000      -0.371605       -10.1119
  54   2.0000      -0.293650        -7.9906
  55   2.0000      -0.203668        -5.5421
  56   0.0000       0.056519         1.5380
  57   0.0000       0.070348         1.9143
  58   0.0000       0.078450         2.1347
  59   0.0000       0.084117         2.2889
  60   0.0000       0.096352         2.6219

MULLIKEN ATOMIC CHARGES
-----------------------
   0 C :   -0.217708
   1 C :   -0.098715
   2 N :   -0.294476
   3 H :    0.129254
   4 C :   -0.252276
   5 H :    0.090501
   6 H :    0.098567
   7 H :    0.105891
   8 C :   -0.248494
   9 H :    0.108555
  10 C :   -0.152046
  11 H :    0.107039
  12 C :   -0.262859
  13 H :    0.106791
  14 H :    0.103817
  15 C :   -0.217097
  16 H :    0.112179
  17 H :    0.112996
  18 H :    0.115883
  19 C :   -0.179600
  20 H :    0.116458
  21 H :    0.116093
  22 H :    0.122857
  23 C :   -0.031537
  24 H :    0.125249
  25 H :    0.136740
  26 F :   -0.262342
  27 H :    0.129722
  28 H :    0.135557
  29 C :    0.326480
  30 N :   -0.471401
  31 C :   -0.553977
  32 H :    0.067069
  33 H :    0.077841
  34 H :    0.230023
  35 H :    0.233576
  36 H :    0.233388
Sum of atomic charges:    0.0000000

LOEWDIN ATOMIC CHARGES
----------------------
   0 C :   -0.280428
   1 C :   -0.265205
   2 N :    0.121652
   3 H :    0.143770
   4 C :   -0.269858
   5 H :    0.134984
   6 H :    0.130080
   7 H :    0.136387
   8 C :   -0.269978
   9 H :    0.129897
  10 C :   -0.266286
  11 H :    0.137164
  12 C :   -0.270195
  13 H :    0.137260
  14 H :    0.136221
  15 C :   -0.267321
  16 H :    0.131200
  17 H :    0.136197
  18 H :    0.137641
  19 C :   -0.270548
  20 H :    0.139268
  21 H :    0.146701
  22 H :    0.141527
  23 C :   -0.337805
  24 H :    0.128175
  25 H :    0.130911
  26 F :    0.136017
  27 H :    0.128019
  28 H :    0.138707
  29 C :   -0.459278
  30 N :   -0.022408
  31 C :   -0.386201
  32 H :    0.090501
  33 H :    0.091344
  34 H :    0.162085
  35 H :    0.146961
  36 H :    0.172842

  Mayer bond orders larger than 0.100000
B(  0-C ,  1-C ) :   0.9127 B(  0-C ,  2-N ) :   0.9120 B(  0-C , 27-H ) :   1.0006
B(  0-C , 28-H ) :   0.9805 B(  1-C ,  3-H ) :   0.9696 B(  1-C ,  4-C ) :   0.9554
B(  1-C ,  5-H ) :   0.9815 B(  2-N , 29-C ) :   1.2092 B(  2-N , 34-H ) :   0.8918
B(  4-C ,  6-H ) :   0.9841 B(  4-C ,  7-H ) :   0.9769 B(  4-C ,  8-C ) :   0.9199
B(  8-C ,  9-H ) :   0.9939 B(  8-C , 10-C ) :   0.9504 B(  8-C , 11-H ) :   0.9764
B( 10-C , 12-C ) :   0.9487 B( 10-C , 13-H ) :   0.9809 B( 10-C , 14-H ) :   0.9858
B( 12-C , 15-C ) :   0.9162 B( 12-C , 16-H ) :   0.9942 B( 12-C , 17-H ) :   0.9739
B( 15-C , 18-H ) :   0.9924 B( 15-C , 19-C ) :   0.9457 B( 15-C , 20-H ) :   0.9723
B( 19-C , 21-H ) :   0.9623 B( 19-C , 22-H ) :   0.9769 B( 19-C , 23-C ) :   0.9758
B( 23-C , 24-H ) :   0.9782 B( 23-C , 25-H ) :   0.9713 B( 23-C , 26-F ) :   0.8560
B( 29-C , 30-N ) :   1.1547 B( 29-C , 31-C ) :   1.5927 B( 30-N , 35-H ) :   0.9013
B( 30-N , 36-H ) :   0.9273 B( 31-C , 32-H ) :   1.0150 B( 31-C , 33-H ) :   0.9995

FINAL SINGLE POINT ENERGY      -642.227700842016

DIPOLE MOMENT
-------------
                                X             Y             Z
Electronic contribution:     -3.27670      -4.33461       9.06516
Nuclear contribution   :      1.49917       3.80845     -10.61369
                        -----------------------------------------
Total Dipole Moment    :     -1.77753      -0.52616      -1.54853
                        -----------------------------------------
Magnitude (a.u.)       :      2.41545
Magnitude (Debye)      :      6.13958

Rotational constants in cm-1:     0.026547     0.016542     0.011018
Rotational constants in MHz :   795.873737   495.912559   330.323979

                             ****ORCA TERMINATED NORMALLY****
TOTAL RUN TIME: 0 days 0 hours 1 minutes 58 seconds 296 msec
