                         Program Version 5.0.0 -  RELEASE  -
|  1> !TPSS D3BJ RIJCOSX def2-SVPD def2/J TightSCF
|  2> *xyz -1 1
|  3> C         -0.01741        0.08059       -2.77841
|  4> C         -0.90349       -0.87394       -1.98739
|  5> H         -0.50255       -1.89210       -2.08120
|  6> H         -1.91704       -0.89543       -2.40628
|  7> C         -0.96015       -0.52236       -0.48987
|  8> H         -1.69039       -1.20813       -0.02168
|  9> H         -1.41449        0.48633       -0.40668
| 10> O          0.26170       -0.58031        0.13861
| 11> H         -0.01329       -0.20776       -3.80881
| 12> H          0.98025        0.04284       -2.39348
| 13> H         -0.39697        1.07694       -2.68836
| 14> *
| 15>
| 16> %MaxCore 64000
| 17>
| 18> %pal nprocs 4
| 19> end
| 20>
| 21> %scf
| 22>   MaxIter 150
| 23> end
| 24>
| 25>
| 26>                          ****END OF INPUT****

CARTESIAN COORDINATES (ANGSTROEM)
---------------------------------
  C     -0.017410    0.080590   -2.778410
  C     -0.903490   -0.873940   -1.987390
  H     -0.502550   -1.892100   -2.081200
  H     -1.917040   -0.895430   -2.406280
  C     -0.960150   -0.522360   -0.489870
  H     -1.690390   -1.208130   -0.021680
  H     -1.414490    0.486330   -0.406680
  O      0.261700   -0.580310    0.138610
  H     -0.013290   -0.207760   -3.808810
  H      0.980250    0.042840   -2.393480
  H     -0.396970    1.076940   -2.688360

 Total Charge           Charge          ....   -1
 Multiplicity           Mult            ....    1
 Number of Electrons    NEL             ....   34
 Basis Dimension        Dim             ....  139

ORBITAL ENERGIES
----------------

  NO   OCC          E(Eh)            E(eV)
   0   2.0000     -18.576745      -505.4989
   1   2.0000      -9.820114      -267.2189
   2   2.0000      -9.817700      -267.1532
   3   2.0000      -9.809998      -266.9436
   4   2.0000      -0.609904       -16.5963
   5   2.0000      -0.521793       -14.1987
   6   2.0000      -0.411018       -11.1844
   7   2.0000      -0.315903        -8.5962
   8   2.0000      -0.233434        -6.3521
   9   2.0000      -0.226000        -6.1498
  10   2.0000      -0.180616        -4.9148
  11   2.0000      -0.150599        -4.0980
  12   2.0000      -0.123748        -3.3674
  13   2.0000      -0.118138        -3.2147
  14   2.0000      -0.072411        -1.9704
  15   2.0000       0.063121         1.7176
  16   2.0000       0.067417         1.8345
  17   0.0000       0.156432         4.2567
  18   0.0000       0.181935         4.9507
  19   0.0000       0.196921         5.3585
  20   0.0000       0.223856         6.0914
  21   0.0000       0.239599         6.5198

MULLIKEN ATOMIC CHARGES
-----------------------
   0 C :    0.520678
   1 C :   -0.595046
   2 H :   -0.019753
   3 H :   -0.036266
   4 C :    0.448314
   5 H :   -0.173880
   6 H :   -0.111890
   7 O :   -0.904535
   8 H :   -0.072911
   9 H :   -0.002552
  10 H :   -0.052157
Sum of atomic charges:   -1.0000000

LOEWDIN ATOMIC CHARGES
----------------------
   0 C :    0.090854
   1 C :   -0.110304
   2 H :   -0.001303
   3 H :   -0.019666
   4 C :   -0.207940
   5 H :   -0.042780
   6 H :   -0.036629
   7 O :   -0.544582
   8 H :   -0.053243
   9 H :   -0.035277
  10 H :   -0.039130

  Mayer bond orders larger than 0.100000
B(  0-C ,  1-C ) :   1.2561 B(  0-C ,  8-H ) :   0.8174 B(  0-C ,  9-H ) :   0.8443
B(  0-C , 10-H ) :   0.8536 B(  1-C ,  2-H ) :   1.0000 B(  1-C ,  3-H ) :   1.0305
B(  1-C ,  4-C ) :   1.0245 B(  1-C ,  5-H ) :   0.1486 B(  1-C ,  6-H ) :   0.1345
B(  1-C ,  7-O ) :   0.2063 B(  1-C ,  8-H ) :   0.1920 B(  1-C ,  9-H ) :   0.2036
B(  1-C , 10-H ) :   0.1898 B(  2-H ,  4-C ) :   0.1276 B(  3-H ,  4-C ) :   0.1010
B(  4-C ,  5-H ) :   0.9750 B(  4-C ,  6-H ) :   0.9610 B(  4-C ,  7-O ) :   1.0886

Dispersion correction           -0.008097392
FINAL SINGLE POINT ENERGY      -193.648161855273

DIPOLE MOMENT
-------------
                                X             Y             Z
Electronic contribution:      1.29736      -0.48690       2.75984
Nuclear contribution   :     -2.03764       0.64089      -4.61583
                        -----------------------------------------
Total Dipole Moment    :     -0.74029       0.15399      -1.85599
                        -----------------------------------------
Magnitude (a.u.)       :      2.00410
Magnitude (Debye)      :      5.09402

Rotational constants in cm-1:     0.508897     0.174909     0.148249
Rotational constants in MHz : 15256.351998  5243.652192  4444.387232

                             ****ORCA TERMINATED NORMALLY****
TOTAL RUN TIME: 0 days 0 hours 0 minutes 6 seconds 863 msec
