                         Program Version 5.0.0 -  RELEASE  -
|  1> !TPSS D3BJ RIJCOSX def2-SVPD def2/J TightSCF
|  2> *xyz 1 1
|  3> C          4.36645       -0.13321       -1.41606
|  4> C          4.50829       -0.93187       -2.72425
|  5> H          4.75372       -1.97205       -2.48841
|  6> C          3.29416       -0.91821       -3.65657
|  7> H          5.38564       -0.53624       -3.24264
|  8> C          3.05650       -0.32080       -0.70738
|  9> N          2.38983        0.71129       -0.24391
| 10> N          2.51600       -1.50772       -0.55023
| 11> H          2.96768       -2.32291       -0.95631
| 12> H          1.54987       -1.49063       -0.24988
| 13> H          2.74307        1.64947       -0.41280
| 14> H          1.44036        0.50278        0.03703
| 15> H          4.48784        0.93300       -1.61157
| 16> H          5.16967       -0.41443       -0.72982
| 17> H          3.50670       -1.50229       -4.52754
| 18> H          3.07837        0.08892       -3.94644
| 19> H          2.44880       -1.33173       -3.14739
| 20> *
| 21>
| 22> %MaxCore 64000
| 23>
| 24> %pal nprocs 4
| 25> end
| 26>
| 27> %scf
| 28>   MaxIter 150
| 29> end
| 30>
| 31>
| 32>                          ****END OF INPUT****

CARTESIAN COORDINATES (ANGSTROEM)
---------------------------------
  C      4.366450   -0.133210   -1.416060
  C      4.508290   -0.931870   -2.724250
  H      4.753720   -1.972050   -2.488410
  C      3.294160   -0.918210   -3.656570
  H      5.385640   -0.536240   -3.242640
  C      3.056500   -0.320800   -0.707380
  N      2.389830    0.711290   -0.243910
  N      2.516000   -1.507720   -0.550230
  H      2.967680   -2.322910   -0.956310
  H      1.549870   -1.490630   -0.249880
  H      2.743070    1.649470   -0.412800
  H      1.440360    0.502780    0.037030
  H      4.487840    0.933000   -1.611570
  H      5.169670   -0.414430   -0.729820
  H      3.506700   -1.502290   -4.527540
  H      3.078370    0.088920   -3.946440
  H      2.448800   -1.331730   -3.147390

 Total Charge           Charge          ....    1
 Multiplicity           Mult            ....    1
 Number of Electrons    NEL             ....   48
 Basis Dimension        Dim             ....  208

ORBITAL ENERGIES
----------------

  NO   OCC          E(Eh)            E(eV)
   0   2.0000     -14.362718      -390.8294
   1   2.0000     -14.361283      -390.7904
   2   2.0000     -10.308678      -280.5134
   3   2.0000     -10.197807      -277.4964
   4   2.0000     -10.165054      -276.6052
   5   2.0000     -10.133264      -275.7401
   6   2.0000      -1.135859       -30.9083
   7   2.0000      -1.036562       -28.2063
   8   2.0000      -0.910726       -24.7821
   9   2.0000      -0.830062       -22.5871
  10   2.0000      -0.778848       -21.1935
  11   2.0000      -0.742064       -20.1926
  12   2.0000      -0.718968       -19.5641
  13   2.0000      -0.686052       -18.6684
  14   2.0000      -0.660169       -17.9641
  15   2.0000      -0.614148       -16.7118
  16   2.0000      -0.590537       -16.0693
  17   2.0000      -0.553719       -15.0675
  18   2.0000      -0.540011       -14.6944
  19   2.0000      -0.523909       -14.2563
  20   2.0000      -0.472987       -12.8706
  21   2.0000      -0.468112       -12.7380
  22   2.0000      -0.460355       -12.5269
  23   2.0000      -0.451453       -12.2847
  24   0.0000      -0.240198        -6.5361
  25   0.0000      -0.175614        -4.7787
  26   0.0000      -0.134009        -3.6466
  27   0.0000      -0.129717        -3.5298
  28   0.0000      -0.097117        -2.6427

MULLIKEN ATOMIC CHARGES
-----------------------
   0 C :    0.219575
   1 C :   -0.441480
   2 H :    0.008879
   3 C :    0.682011
   4 H :   -0.149363
   5 C :    0.554716
   6 N :    0.049004
   7 N :    0.039245
   8 H :    0.055149
   9 H :   -0.072306
  10 H :    0.016114
  11 H :   -0.070316
  12 H :    0.184848
  13 H :    0.010184
  14 H :   -0.028738
  15 H :    0.006398
  16 H :   -0.063919
Sum of atomic charges:    1.0000000

LOEWDIN ATOMIC CHARGES
----------------------
   0 C :    0.062747
   1 C :   -0.038277
   2 H :    0.021168
   3 C :    0.153561
   4 H :    0.036124
   5 C :   -0.051557
   6 N :    0.286827
   7 N :    0.291825
   8 H :    0.055210
   9 H :    0.044776
  10 H :    0.058126
  11 H :    0.042661
  12 H :    0.033691
  13 H :    0.052237
  14 H :   -0.001234
  15 H :   -0.008331
  16 H :   -0.039554

  Mayer bond orders larger than 0.100000
B(  0-C ,  1-C ) :   1.2409 B(  0-C ,  2-H ) :   0.1101 B(  0-C ,  4-H ) :   0.1174
B(  0-C ,  5-C ) :   1.1549 B(  0-C , 12-H ) :   0.7850 B(  0-C , 13-H ) :   0.7699
B(  1-C ,  2-H ) :   0.9101 B(  1-C ,  3-C ) :   1.3632 B(  1-C ,  4-H ) :   0.9906
B(  1-C , 12-H ) :   0.1349 B(  1-C , 13-H ) :   0.1139 B(  1-C , 14-H ) :   0.2126
B(  1-C , 15-H ) :   0.2043 B(  1-C , 16-H ) :   0.2063 B(  3-C , 14-H ) :   0.7659
B(  3-C , 15-H ) :   0.7977 B(  3-C , 16-H ) :   0.8347 B(  5-C ,  6-N ) :   1.0458
B(  5-C ,  7-N ) :   1.1115 B(  5-C ,  9-H ) :  -0.1462 B(  5-C , 11-H ) :  -0.1137
B(  5-C , 12-H ) :   0.1234 B(  5-C , 13-H ) :   0.1659 B(  6-N ,  7-N ) :   0.2433
B(  6-N , 10-H ) :   1.1286 B(  6-N , 11-H ) :   1.2047 B(  7-N ,  8-H ) :   1.0229
B(  7-N ,  9-H ) :   1.2718 B(  8-H ,  9-H ) :  -0.1677 B( 10-H , 11-H ) :  -0.1441

Dispersion correction           -0.017059985
FINAL SINGLE POINT ENERGY      -268.219409749413

DIPOLE MOMENT
-------------
                                X             Y             Z
Electronic contribution:     -1.80148       0.88906       5.04103
Nuclear contribution   :      0.92830      -0.63755      -3.99475
                        -----------------------------------------
Total Dipole Moment    :     -0.87318       0.25152       1.04628
                        -----------------------------------------
Magnitude (a.u.)       :      1.38579
Magnitude (Debye)      :      3.52239

Rotational constants in cm-1:     0.183706     0.077449     0.071296
Rotational constants in MHz :  5507.368439  2321.870034  2137.394204

                             ****ORCA TERMINATED NORMALLY****
TOTAL RUN TIME: 0 days 0 hours 0 minutes 11 seconds 837 msec
