                         Program Version 5.0.0 -  RELEASE  -
|  1> !TPSS D3BJ RIJCOSX def2-SVPD def2/J TightSCF xyzfile
|  2>
|  3> *xyzfile 0 1 B.xyz
|  4>
|  5> %MaxCore 64000
|  6>
|  7> %pal nprocs 4
|  8> end
|  9>
| 10> %scf
| 11>   MaxIter 150
| 12> end
| 13>
| 14>
| 15>                          ****END OF INPUT****

CARTESIAN COORDINATES (ANGSTROEM)
---------------------------------
  C      4.366454   -0.133215   -1.416062
  C      4.508292   -0.931872   -2.724249
  H      4.753716   -1.972051   -2.488408
  C      3.294164   -0.918214   -3.656570
  H      5.385637   -0.536236   -3.242640
  H      2.483463   -1.477378   -3.185764
  H      3.553092   -1.478495   -4.560331
  C      2.772335    0.460100   -4.051448
  H      2.608762    1.065107   -3.155194
  C      1.465354    0.410537   -4.853644
  H      3.532940    0.988848   -4.635671
  C      0.326171   -0.375613   -4.192580
  H      1.666704   -0.022269   -5.839323
  H      1.138198    1.439246   -5.035449
  C     -0.017405    0.080588   -2.778406
  H      0.585573   -1.439385   -4.168057
  H     -0.560005   -0.311425   -4.831461
  H      0.902090    0.201296   -2.206729
  C     -0.903495   -0.873945   -1.987388
  H     -0.479549    1.074657   -2.811915
  H     -0.502554   -1.892096   -2.081204
  H     -1.917039   -0.895427   -2.406277
  C     -0.960148   -0.522365   -0.489867
  H     -1.690392   -1.208130   -0.021677
  H     -1.414490    0.486329   -0.406677
  O      0.261703   -0.580307    0.138611
  C      3.056503   -0.320797   -0.707384
  N      2.389825    0.711285   -0.243909
  N      2.515999   -1.507721   -0.550229
  H      2.967683   -2.322915   -0.956305
  H      1.549872   -1.490634   -0.249876
  H      2.743071    1.649471   -0.412802
  H      1.440364    0.502778    0.037031
  H      4.487835    0.932997   -1.611569
  H      5.169672   -0.414432   -0.729817

 Total Charge           Charge          ....    0
 Multiplicity           Mult            ....    1
 Number of Electrons    NEL             ....  104
 Basis Dimension        Dim             ....  439

ORBITAL ENERGIES
----------------

  NO   OCC          E(Eh)            E(eV)
   0   2.0000     -18.781079      -511.0591
   1   2.0000     -14.145842      -384.9279
   2   2.0000     -14.145509      -384.9189
   3   2.0000     -10.112153      -275.1657
   4   2.0000     -10.044148      -273.3152
   5   2.0000     -10.029734      -272.9229
   6   2.0000     -10.009720      -272.3783
   7   2.0000     -10.003678      -272.2139
   8   2.0000      -9.995096      -271.9804
   9   2.0000      -9.985773      -271.7267
  10   2.0000      -9.985076      -271.7077
  11   2.0000      -9.972393      -271.3626
  12   2.0000      -9.959839      -271.0210
  13   2.0000      -0.931935       -25.3592
  14   2.0000      -0.831627       -22.6297
  15   2.0000      -0.815719       -22.1969
  16   2.0000      -0.768288       -20.9062
  17   2.0000      -0.733936       -19.9714
  18   2.0000      -0.696559       -18.9543
  19   2.0000      -0.659219       -17.9383
  20   2.0000      -0.623451       -16.9650
  21   2.0000      -0.586112       -15.9489
  22   2.0000      -0.569418       -15.4947
  23   2.0000      -0.558497       -15.1975
  24   2.0000      -0.519945       -14.1484
  25   2.0000      -0.503976       -13.7139
  26   2.0000      -0.501722       -13.6526
  27   2.0000      -0.477591       -12.9959
  28   2.0000      -0.460367       -12.5272
  29   2.0000      -0.458082       -12.4650
  30   2.0000      -0.441594       -12.0164
  31   2.0000      -0.421780       -11.4772
  32   2.0000      -0.406789       -11.0693
  33   2.0000      -0.389436       -10.5971
  34   2.0000      -0.379470       -10.3259
  35   2.0000      -0.373750       -10.1703
  36   2.0000      -0.367960       -10.0127
  37   2.0000      -0.362019        -9.8510
  38   2.0000      -0.343862        -9.3570
  39   2.0000      -0.334034        -9.0895
  40   2.0000      -0.326084        -8.8732
  41   2.0000      -0.316861        -8.6222
  42   2.0000      -0.307763        -8.3747
  43   2.0000      -0.303077        -8.2471
  44   2.0000      -0.285334        -7.7643
  45   2.0000      -0.279149        -7.5960
  46   2.0000      -0.269903        -7.3444
  47   2.0000      -0.264794        -7.2054
  48   2.0000      -0.262330        -7.1384
  49   2.0000      -0.250254        -6.8098
  50   2.0000      -0.146676        -3.9913
  51   2.0000      -0.141051        -3.8382
  52   0.0000      -0.050545        -1.3754
  53   0.0000      -0.013919        -0.3788
  54   0.0000       0.002120         0.0577
  55   0.0000       0.018235         0.4962
  56   0.0000       0.024467         0.6658

MULLIKEN ATOMIC CHARGES
-----------------------
   0 C :    0.293912
   1 C :    0.350545
   2 H :    0.022745
   3 C :   -0.114324
   4 H :   -0.119017
   5 H :    0.018050
   6 H :   -0.115659
   7 C :   -0.088805
   8 H :    0.097957
   9 C :    0.656748
  10 H :   -0.345544
  11 C :    0.029502
  12 H :   -0.006751
  13 H :    0.027336
  14 C :    0.466368
  15 H :    0.166678
  16 H :   -0.400923
  17 H :   -0.774221
  18 C :    0.038036
  19 H :    0.031192
  20 H :    0.008865
  21 H :   -0.169019
  22 C :    0.849801
  23 H :   -0.139908
  24 H :   -0.065577
  25 O :   -1.103696
  26 C :    0.202408
  27 N :    0.340297
  28 N :    0.376185
  29 H :   -0.064870
  30 H :   -0.246379
  31 H :   -0.069345
  32 H :   -0.171992
  33 H :    0.261449
  34 H :   -0.242043
Sum of atomic charges:    0.0000000

LOEWDIN ATOMIC CHARGES
----------------------
   0 C :    0.047539
   1 C :   -0.009625
   2 H :    0.013591
   3 C :   -0.020248
   4 H :    0.021484
   5 H :   -0.010238
   6 H :    0.027609
   7 C :   -0.024324
   8 H :   -0.005281
   9 C :   -0.018519
  10 H :    0.019507
  11 C :   -0.029562
  12 H :    0.015972
  13 H :    0.017966
  14 C :   -0.027059
  15 H :    0.005433
  16 H :    0.017573
  17 H :   -0.034624
  18 C :   -0.026169
  19 H :    0.029624
  20 H :    0.013539
  21 H :    0.014036
  22 C :   -0.047307
  23 H :    0.002134
  24 H :    0.006540
  25 O :   -0.416874
  26 C :   -0.075611
  27 N :    0.285982
  28 N :    0.296802
  29 H :    0.028432
  30 H :   -0.094921
  31 H :    0.031038
  32 H :   -0.100944
  33 H :    0.016035
  34 H :    0.030469

  Mayer bond orders larger than 0.100000
B(  0-C ,  1-C ) :   1.2100 B(  0-C ,  4-H ) :   0.1533 B(  0-C , 26-C ) :   1.1315
B(  0-C , 33-H ) :   0.7194 B(  0-C , 34-H ) :   0.7176 B(  1-C ,  2-H ) :   0.6978
B(  1-C ,  3-C ) :   1.2818 B(  1-C ,  4-H ) :   0.8167 B(  1-C ,  5-H ) :   0.1223
B(  1-C ,  6-H ) :   0.1080 B(  1-C , 33-H ) :   0.1374 B(  1-C , 34-H ) :   0.1198
B(  2-H ,  3-C ) :   0.2302 B(  2-H ,  4-H ) :  -0.1277 B(  3-C ,  4-H ) :   0.1699
B(  3-C ,  5-H ) :   0.8343 B(  3-C ,  6-H ) :   0.8467 B(  3-C ,  7-C ) :   1.2688
B(  3-C ,  8-H ) :   0.1182 B(  3-C , 10-H ) :   0.1629 B(  5-H ,  7-C ) :   0.1399
B(  5-H , 15-H ) :   0.1717 B(  6-H ,  7-C ) :   0.1428 B(  7-C ,  8-H ) :   0.8292
B(  7-C ,  9-C ) :   1.1294 B(  7-C , 10-H ) :   1.0115 B(  7-C , 11-C ) :   0.1628
B(  7-C , 12-H ) :   0.1208 B(  7-C , 13-H ) :   0.2315 B(  8-H , 17-H ) :   0.2046
B(  9-C , 11-C ) :   1.1327 B(  9-C , 12-H ) :   0.7224 B(  9-C , 13-H ) :   0.6860
B( 11-C , 12-H ) :   0.1771 B( 11-C , 13-H ) :   0.1470 B( 11-C , 14-C ) :   1.1265
B( 11-C , 15-H ) :   0.8181 B( 11-C , 16-H ) :   1.0172 B( 11-C , 17-H ) :   0.2029
B( 11-C , 19-H ) :   0.1091 B( 12-H , 13-H ) :  -0.1013 B( 14-C , 15-H ) :   0.1278
B( 14-C , 16-H ) :   0.2289 B( 14-C , 17-H ) :   0.4532 B( 14-C , 18-C ) :   1.1734
B( 14-C , 19-H ) :   0.6715 B( 14-C , 20-H ) :   0.1286 B( 14-C , 21-H ) :   0.2438
B( 14-C , 22-C ) :   0.1113 B( 17-H , 18-C ) :   0.2209 B( 17-H , 19-H ) :   0.2182
B( 17-H , 26-C ) :   0.1089 B( 18-C , 19-H ) :   0.1020 B( 18-C , 20-H ) :   0.9167
B( 18-C , 21-H ) :   0.8795 B( 18-C , 22-C ) :   1.0270 B( 18-C , 23-H ) :   0.1960
B( 18-C , 24-H ) :   0.1074 B( 18-C , 25-O ) :   0.1324 B( 22-C , 23-H ) :   0.7558
B( 22-C , 24-H ) :   0.8244 B( 22-C , 25-O ) :   1.0395 B( 23-H , 25-O ) :   0.1028
B( 24-H , 25-O ) :   0.1704 B( 25-O , 26-C ) :   0.1102 B( 25-O , 30-H ) :   0.3197
B( 25-O , 32-H ) :   0.2936 B( 26-C , 27-N ) :   1.0393 B( 26-C , 28-N ) :   1.0497
B( 26-C , 31-H ) :  -0.1033 B( 26-C , 33-H ) :   0.1731 B( 26-C , 34-H ) :   0.2868
B( 27-N , 28-N ) :   0.2398 B( 27-N , 31-H ) :   1.1387 B( 27-N , 32-H ) :   1.0390
B( 28-N , 29-H ) :   1.0962 B( 28-N , 30-H ) :   1.1077 B( 29-H , 30-H ) :  -0.2280
B( 31-H , 32-H ) :  -0.1710

Dispersion correction           -0.049345625
FINAL SINGLE POINT ENERGY      -578.787513010320

DIPOLE MOMENT
-------------
                                X             Y             Z
Electronic contribution:      2.66822      -0.27935       7.59927
Nuclear contribution   :     -0.17996       0.53390      -8.68067
                        -----------------------------------------
Total Dipole Moment    :      2.48826       0.25456      -1.08140
                        -----------------------------------------
Magnitude (a.u.)       :      2.72500
Magnitude (Debye)      :      6.92641

Rotational constants in cm-1:     0.028240     0.022734     0.014600
Rotational constants in MHz :   846.611263   681.554306   437.693928

                             ****ORCA TERMINATED NORMALLY****
TOTAL RUN TIME: 0 days 0 hours 1 minutes 12 seconds 320 msec
