                         Program Version 5.0.0 -  RELEASE  -
|  1> !TPSS D3BJ RIJCOSX def2-SVPD def2/J TightSCF
|  2> *xyz 0 1
|  3> C         -0.01741        0.08059       -2.77841
|  4> C         -0.90349       -0.87394       -1.98739
|  5> H         -0.50255       -1.89210       -2.08120
|  6> H         -1.91704       -0.89543       -2.40628
|  7> C         -0.96015       -0.52236       -0.48987
|  8> H         -1.69039       -1.20813       -0.02168
|  9> H         -1.41449        0.48633       -0.40668
| 10> F          0.26170       -0.58031        0.13861
| 11> H         -0.01329       -0.20776       -3.80881
| 12> H          0.98025        0.04284       -2.39348
| 13> H         -0.39697        1.07694       -2.68836
| 14> *
| 15>
| 16> %MaxCore 64000
| 17>
| 18> %pal nprocs 4
| 19> end
| 20>
| 21> %scf
| 22>   MaxIter 150
| 23> end
| 24>
| 25>
| 26>                          ****END OF INPUT****

CARTESIAN COORDINATES (ANGSTROEM)
---------------------------------
  C     -0.017410    0.080590   -2.778410
  C     -0.903490   -0.873940   -1.987390
  H     -0.502550   -1.892100   -2.081200
  H     -1.917040   -0.895430   -2.406280
  C     -0.960150   -0.522360   -0.489870
  H     -1.690390   -1.208130   -0.021680
  H     -1.414490    0.486330   -0.406680
  F      0.261700   -0.580310    0.138610
  H     -0.013290   -0.207760   -3.808810
  H      0.980250    0.042840   -2.393480
  H     -0.396970    1.076940   -2.688360

 Total Charge           Charge          ....    0
 Multiplicity           Mult            ....    1
 Number of Electrons    NEL             ....   34
 Basis Dimension        Dim             ....  139

ORBITAL ENERGIES
----------------

  NO   OCC          E(Eh)            E(eV)
   0   2.0000     -24.416079      -664.3953
   1   2.0000     -10.077626      -274.2261
   2   2.0000     -10.008259      -272.3386
   3   2.0000      -9.989782      -271.8358
   4   2.0000      -1.104940       -30.0670
   5   2.0000      -0.726917       -19.7804
   6   2.0000      -0.631797       -17.1921
   7   2.0000      -0.545016       -14.8306
   8   2.0000      -0.461718       -12.5640
   9   2.0000      -0.444496       -12.0953
  10   2.0000      -0.422754       -11.5037
  11   2.0000      -0.394592       -10.7374
  12   2.0000      -0.356664        -9.7053
  13   2.0000      -0.335375        -9.1260
  14   2.0000      -0.318419        -8.6646
  15   2.0000      -0.288242        -7.8435
  16   2.0000      -0.285291        -7.7632
  17   0.0000       0.011153         0.3035
  18   0.0000       0.037890         1.0310
  19   0.0000       0.045549         1.2394
  20   0.0000       0.054003         1.4695
  21   0.0000       0.075642         2.0583

MULLIKEN ATOMIC CHARGES
-----------------------
   0 C :    0.551091
   1 C :   -0.548978
   2 H :   -0.033340
   3 H :   -0.037917
   4 C :    0.720994
   5 H :   -0.069135
   6 H :   -0.021521
   7 F :   -0.457918
   8 H :   -0.050857
   9 H :   -0.010949
  10 H :   -0.041471
Sum of atomic charges:    0.0000000

LOEWDIN ATOMIC CHARGES
----------------------
   0 C :    0.128245
   1 C :   -0.060427
   2 H :    0.020968
   3 H :    0.023029
   4 C :    0.103785
   5 H :    0.023413
   6 H :    0.028140
   7 F :   -0.205196
   8 H :   -0.022486
   9 H :   -0.018586
  10 H :   -0.020886

  Mayer bond orders larger than 0.100000
B(  0-C ,  1-C ) :   1.3061 B(  0-C ,  8-H ) :   0.8317 B(  0-C ,  9-H ) :   0.8381
B(  0-C , 10-H ) :   0.8422 B(  1-C ,  2-H ) :   0.9753 B(  1-C ,  3-H ) :   0.9756
B(  1-C ,  4-C ) :   1.1723 B(  1-C ,  5-H ) :   0.1135 B(  1-C ,  8-H ) :   0.1791
B(  1-C ,  9-H ) :   0.1811 B(  1-C , 10-H ) :   0.1679 B(  4-C ,  5-H ) :   0.9182
B(  4-C ,  6-H ) :   0.9162 B(  4-C ,  7-F ) :   0.6958

Dispersion correction           -0.007641081
FINAL SINGLE POINT ENERGY      -218.259196829945

DIPOLE MOMENT
-------------
                                X             Y             Z
Electronic contribution:      2.27243      -0.77647       5.90001
Nuclear contribution   :     -2.83598       0.77614      -6.32113
                        -----------------------------------------
Total Dipole Moment    :     -0.56356      -0.00033      -0.42112
                        -----------------------------------------
Magnitude (a.u.)       :      0.70352
Magnitude (Debye)      :      1.78821

Rotational constants in cm-1:     0.494803     0.164634     0.139827
Rotational constants in MHz : 14833.819345  4935.593559  4191.919783

                             ****ORCA TERMINATED NORMALLY****
TOTAL RUN TIME: 0 days 0 hours 0 minutes 5 seconds 704 msec
