                         Program Version 5.0.0 -  RELEASE  -
|  1> !TPSS D3BJ RIJCOSX def2-SVPD def2/J TightSCF
|  2> *xyz 0 1
|  3> C          4.36645       -0.13321       -1.41606
|  4> C          4.50829       -0.93187       -2.72425
|  5> H          4.75372       -1.97205       -2.48841
|  6> C          3.29416       -0.91821       -3.65657
|  7> H          5.38564       -0.53624       -3.24264
|  8> C          3.05650       -0.32080       -0.70738
|  9> C          2.38983        0.71129       -0.24391
| 10> N          2.51600       -1.50772       -0.55023
| 11> H          2.96768       -2.32291       -0.95631
| 12> H          1.54987       -1.49063       -0.24988
| 13> H          2.74307        1.64947       -0.41280
| 14> H          1.44036        0.50278        0.03703
| 15> H          4.48784        0.93300       -1.61157
| 16> H          5.16967       -0.41443       -0.72982
| 17> H          3.50670       -1.50229       -4.52754
| 18> H          3.07837        0.08892       -3.94644
| 19> H          2.44880       -1.33173       -3.14739
| 20> *
| 21>
| 22> %MaxCore 64000
| 23>
| 24> %pal nprocs 4
| 25> end
| 26>
| 27> %scf
| 28>   MaxIter 150
| 29> end
| 30>
| 31>
| 32>                          ****END OF INPUT****

CARTESIAN COORDINATES (ANGSTROEM)
---------------------------------
  C      4.366450   -0.133210   -1.416060
  C      4.508290   -0.931870   -2.724250
  H      4.753720   -1.972050   -2.488410
  C      3.294160   -0.918210   -3.656570
  H      5.385640   -0.536240   -3.242640
  C      3.056500   -0.320800   -0.707380
  C      2.389830    0.711290   -0.243910
  N      2.516000   -1.507720   -0.550230
  H      2.967680   -2.322910   -0.956310
  H      1.549870   -1.490630   -0.249880
  H      2.743070    1.649470   -0.412800
  H      1.440360    0.502780    0.037030
  H      4.487840    0.933000   -1.611570
  H      5.169670   -0.414430   -0.729820
  H      3.506700   -1.502290   -4.527540
  H      3.078370    0.088920   -3.946440
  H      2.448800   -1.331730   -3.147390

 Total Charge           Charge          ....    0
 Multiplicity           Mult            ....    1
 Number of Electrons    NEL             ....   48
 Basis Dimension        Dim             ....  208

ORBITAL ENERGIES
----------------

  NO   OCC          E(Eh)            E(eV)
   0   2.0000     -14.118954      -384.1963
   1   2.0000     -10.010652      -272.4037
   2   2.0000     -10.002568      -272.1837
   3   2.0000     -10.000413      -272.1251
   4   2.0000      -9.985241      -271.7122
   5   2.0000      -9.932449      -270.2757
   6   2.0000      -0.861831       -23.4516
   7   2.0000      -0.728064       -19.8116
   8   2.0000      -0.674407       -18.3516
   9   2.0000      -0.626821       -17.0567
  10   2.0000      -0.550437       -14.9782
  11   2.0000      -0.510325       -13.8867
  12   2.0000      -0.488549       -13.2941
  13   2.0000      -0.417943       -11.3728
  14   2.0000      -0.414297       -11.2736
  15   2.0000      -0.409611       -11.1461
  16   2.0000      -0.357370        -9.7245
  17   2.0000      -0.353803        -9.6275
  18   2.0000      -0.342622        -9.3232
  19   2.0000      -0.323656        -8.8071
  20   2.0000      -0.299658        -8.1541
  21   2.0000      -0.296030        -8.0554
  22   2.0000      -0.283683        -7.7194
  23   2.0000      -0.158815        -4.3216
  24   0.0000       0.002065         0.0562
  25   0.0000       0.014515         0.3950
  26   0.0000       0.037546         1.0217
  27   0.0000       0.040934         1.1139
  28   0.0000       0.048441         1.3181

MULLIKEN ATOMIC CHARGES
-----------------------
   0 C :    0.362014
   1 C :   -0.440598
   2 H :   -0.022310
   3 C :    0.686262
   4 H :   -0.159870
   5 C :   -0.321923
   6 C :    0.279497
   7 N :    0.208617
   8 H :   -0.064507
   9 H :   -0.121382
  10 H :   -0.106018
  11 H :   -0.325390
  12 H :    0.230790
  13 H :   -0.071167
  14 H :   -0.024271
  15 H :   -0.024065
  16 H :   -0.085678
Sum of atomic charges:    0.0000000

LOEWDIN ATOMIC CHARGES
----------------------
   0 C :    0.022491
   1 C :   -0.063918
   2 H :    0.005373
   3 C :    0.135023
   4 H :    0.012246
   5 C :   -0.265558
   6 C :    0.176146
   7 N :    0.174774
   8 H :    0.003904
   9 H :    0.006336
  10 H :   -0.079392
  11 H :   -0.086323
  12 H :    0.018784
  13 H :    0.021168
  14 H :   -0.023078
  15 H :   -0.017624
  16 H :   -0.040352

  Mayer bond orders larger than 0.100000
B(  0-C ,  1-C ) :   1.2127 B(  0-C ,  2-H ) :   0.1451 B(  0-C ,  4-H ) :   0.1556
B(  0-C ,  5-C ) :   1.1952 B(  0-C , 12-H ) :   0.7769 B(  0-C , 13-H ) :   0.7177
B(  1-C ,  2-H ) :   0.8895 B(  1-C ,  3-C ) :   1.3372 B(  1-C ,  4-H ) :   0.9599
B(  1-C ,  5-C ) :   0.1054 B(  1-C , 12-H ) :   0.1432 B(  1-C , 13-H ) :   0.1043
B(  1-C , 14-H ) :   0.2198 B(  1-C , 15-H ) :   0.2112 B(  1-C , 16-H ) :   0.2125
B(  3-C , 14-H ) :   0.7396 B(  3-C , 15-H ) :   0.7958 B(  3-C , 16-H ) :   0.8455
B(  5-C ,  6-C ) :   1.7851 B(  5-C ,  7-N ) :   1.1920 B(  5-C , 10-H ) :   0.1054
B(  5-C , 11-H ) :   0.3311 B(  5-C , 13-H ) :   0.2479 B(  6-C ,  7-N ) :   0.3523
B(  6-C , 10-H ) :   0.9857 B(  6-C , 11-H ) :   0.6636 B(  7-N ,  8-H ) :   1.0182
B(  7-N ,  9-H ) :   1.1540 B(  8-H ,  9-H ) :  -0.1398

Dispersion correction           -0.017597319
FINAL SINGLE POINT ENERGY      -251.756841999590

DIPOLE MOMENT
-------------
                                X             Y             Z
Electronic contribution:     -0.65694      -0.29314       3.31631
Nuclear contribution   :      0.70803      -0.34641      -3.68680
                        -----------------------------------------
Total Dipole Moment    :      0.05108      -0.63955      -0.37049
                        -----------------------------------------
Magnitude (a.u.)       :      0.74088
Magnitude (Debye)      :      1.88317

Rotational constants in cm-1:     0.186653     0.080341     0.073591
Rotational constants in MHz :  5595.710092  2408.571280  2206.200061

                             ****ORCA TERMINATED NORMALLY****
TOTAL RUN TIME: 0 days 0 hours 0 minutes 14 seconds 339 msec
