                         Program Version 5.0.0 -  RELEASE  -
|  1> !TPSS D3BJ RIJCOSX def2-SVPD def2/J TightSCF
|  2> *xyz 0 1
|  3> C          4.36645       -0.13321       -1.41606
|  4> C          4.50829       -0.93187       -2.72425
|  5> H          4.75372       -1.97205       -2.48841
|  6> C          3.29416       -0.91821       -3.65657
|  7> H          5.38564       -0.53624       -3.24264
|  8> C          3.05650       -0.32080       -0.70738
|  9> N          2.38983        0.71129       -0.24391
| 10> C          2.51600       -1.50772       -0.55023
| 11> H          2.96768       -2.32291       -0.95631
| 12> H          1.54987       -1.49063       -0.24988
| 13> H          2.74307        1.64947       -0.41280
| 14> H          1.44036        0.50278        0.03703
| 15> H          4.48784        0.93300       -1.61157
| 16> H          5.16967       -0.41443       -0.72982
| 17> H          3.50670       -1.50229       -4.52754
| 18> H          3.07837        0.08892       -3.94644
| 19> H          2.44880       -1.33173       -3.14739
| 20> *
| 21>
| 22> %MaxCore 64000
| 23>
| 24> %pal nprocs 4
| 25> end
| 26>
| 27> %scf
| 28>   MaxIter 150
| 29> end
| 30>
| 31>
| 32>                          ****END OF INPUT****

CARTESIAN COORDINATES (ANGSTROEM)
---------------------------------
  C      4.366450   -0.133210   -1.416060
  C      4.508290   -0.931870   -2.724250
  H      4.753720   -1.972050   -2.488410
  C      3.294160   -0.918210   -3.656570
  H      5.385640   -0.536240   -3.242640
  C      3.056500   -0.320800   -0.707380
  N      2.389830    0.711290   -0.243910
  C      2.516000   -1.507720   -0.550230
  H      2.967680   -2.322910   -0.956310
  H      1.549870   -1.490630   -0.249880
  H      2.743070    1.649470   -0.412800
  H      1.440360    0.502780    0.037030
  H      4.487840    0.933000   -1.611570
  H      5.169670   -0.414430   -0.729820
  H      3.506700   -1.502290   -4.527540
  H      3.078370    0.088920   -3.946440
  H      2.448800   -1.331730   -3.147390

 Total Charge           Charge          ....    0
 Multiplicity           Mult            ....    1
 Number of Electrons    NEL             ....   48
 Basis Dimension        Dim             ....  208

ORBITAL ENERGIES
----------------

  NO   OCC          E(Eh)            E(eV)
   0   2.0000     -14.119341      -384.2068
   1   2.0000     -10.010688      -272.4047
   2   2.0000     -10.002125      -272.1717
   3   2.0000      -9.997508      -272.0460
   4   2.0000      -9.978065      -271.5169
   5   2.0000      -9.930765      -270.2299
   6   2.0000      -0.861792       -23.4505
   7   2.0000      -0.728369       -19.8199
   8   2.0000      -0.663346       -18.0506
   9   2.0000      -0.630776       -17.1643
  10   2.0000      -0.553849       -15.0710
  11   2.0000      -0.500920       -13.6307
  12   2.0000      -0.483582       -13.1589
  13   2.0000      -0.437986       -11.9182
  14   2.0000      -0.411020       -11.1844
  15   2.0000      -0.388313       -10.5665
  16   2.0000      -0.364373        -9.9151
  17   2.0000      -0.351881        -9.5752
  18   2.0000      -0.331167        -9.0115
  19   2.0000      -0.320958        -8.7337
  20   2.0000      -0.300375        -8.1736
  21   2.0000      -0.290680        -7.9098
  22   2.0000      -0.285417        -7.7666
  23   2.0000      -0.156592        -4.2611
  24   0.0000       0.007350         0.2000
  25   0.0000       0.012375         0.3367
  26   0.0000       0.031676         0.8619
  27   0.0000       0.042150         1.1470
  28   0.0000       0.053925         1.4674

MULLIKEN ATOMIC CHARGES
-----------------------
   0 C :    0.516640
   1 C :   -0.476167
   2 H :    0.029294
   3 C :    0.676851
   4 H :   -0.177252
   5 C :   -0.218791
   6 N :    0.150405
   7 C :    0.388114
   8 H :   -0.063450
   9 H :   -0.473809
  10 H :   -0.134479
  11 H :   -0.085762
  12 H :    0.062489
  13 H :   -0.079042
  14 H :   -0.053402
  15 H :   -0.023528
  16 H :   -0.038112
Sum of atomic charges:   -0.0000000

LOEWDIN ATOMIC CHARGES
----------------------
   0 C :    0.021850
   1 C :   -0.058166
   2 H :    0.012488
   3 C :    0.136231
   4 H :    0.011023
   5 C :   -0.255646
   6 N :    0.169650
   7 C :    0.170403
   8 H :   -0.075353
   9 H :   -0.085216
  10 H :    0.001453
  11 H :    0.004125
  12 H :    0.006820
  13 H :    0.023974
  14 H :   -0.023376
  15 H :   -0.021403
  16 H :   -0.038859

  Mayer bond orders larger than 0.100000
B(  0-C ,  1-C ) :   1.2299 B(  0-C ,  2-H ) :   0.1098 B(  0-C ,  4-H ) :   0.1580
B(  0-C ,  5-C ) :   1.0375 B(  0-C , 12-H ) :   0.6650 B(  0-C , 13-H ) :   0.7866
B(  1-C ,  2-H ) :   0.8852 B(  1-C ,  3-C ) :   1.3526 B(  1-C ,  4-H ) :   0.9627
B(  1-C , 12-H ) :   0.1323 B(  1-C , 13-H ) :   0.1384 B(  1-C , 14-H ) :   0.2280
B(  1-C , 15-H ) :   0.2158 B(  1-C , 16-H ) :   0.2304 B(  3-C , 14-H ) :   0.7443
B(  3-C , 15-H ) :   0.8009 B(  3-C , 16-H ) :   0.8327 B(  5-C ,  6-N ) :   1.1359
B(  5-C ,  7-C ) :   1.8776 B(  5-C ,  8-H ) :   0.1685 B(  5-C ,  9-H ) :   0.2735
B(  5-C , 12-H ) :   0.1938 B(  5-C , 13-H ) :   0.1566 B(  6-N ,  7-C ) :   0.2995
B(  6-N , 10-H ) :   1.1588 B(  6-N , 11-H ) :   1.1214 B(  7-C ,  8-H ) :   0.7425
B(  7-C ,  9-H ) :   0.7777 B(  8-H ,  9-H ) :  -0.1002 B( 10-H , 11-H ) :  -0.1151

Dispersion correction           -0.017667133
FINAL SINGLE POINT ENERGY      -251.755397880721

DIPOLE MOMENT
-------------
                                X             Y             Z
Electronic contribution:     -0.76732       1.57250       3.60346
Nuclear contribution   :      0.73787      -0.87128      -3.75926
                        -----------------------------------------
Total Dipole Moment    :     -0.02945       0.70122      -0.15579
                        -----------------------------------------
Magnitude (a.u.)       :      0.71892
Magnitude (Debye)      :      1.82736

Rotational constants in cm-1:     0.191039     0.078358     0.072723
Rotational constants in MHz :  5727.202281  2349.118247  2180.181745

                             ****ORCA TERMINATED NORMALLY****
TOTAL RUN TIME: 0 days 0 hours 0 minutes 14 seconds 527 msec
