                         Program Version 5.0.0 -  RELEASE  -
|  1> !TPSS D3BJ RIJCOSX def2-SVPD def2/J TightSCF xyzfile
|  2>
|  3> *xyzfile 0 1 D1.xyz
|  4>
|  5> %MaxCore 64000
|  6>
|  7> %pal nprocs 4
|  8> end
|  9>
| 10> %scf
| 11>   MaxIter 150
| 12> end
| 13>
| 14>
| 15>                          ****END OF INPUT****

CARTESIAN COORDINATES (ANGSTROEM)
---------------------------------
  C      4.366454   -0.133215   -1.416062
  C      4.508292   -0.931872   -2.724249
  H      4.753716   -1.972051   -2.488408
  C      3.294164   -0.918214   -3.656570
  H      5.385637   -0.536236   -3.242640
  H      2.483463   -1.477378   -3.185764
  H      3.553092   -1.478495   -4.560331
  C      2.772335    0.460100   -4.051448
  H      2.608762    1.065107   -3.155194
  C      1.465354    0.410537   -4.853644
  H      3.532940    0.988848   -4.635671
  C      0.326171   -0.375613   -4.192580
  H      1.666704   -0.022269   -5.839323
  H      1.138198    1.439246   -5.035449
  C     -0.017405    0.080588   -2.778406
  H      0.585573   -1.439385   -4.168057
  H     -0.560005   -0.311425   -4.831461
  H      0.902090    0.201296   -2.206729
  C     -0.903495   -0.873945   -1.987388
  H     -0.479549    1.074657   -2.811915
  H     -0.502554   -1.892096   -2.081204
  H     -1.917039   -0.895427   -2.406277
  C     -0.960148   -0.522365   -0.489867
  H     -1.690392   -1.208130   -0.021677
  H     -1.414490    0.486329   -0.406677
  F      0.261703   -0.580307    0.138611
  C      3.056503   -0.320797   -0.707384
  C      2.389825    0.711285   -0.243909
  N      2.515999   -1.507721   -0.550229
  H      2.967683   -2.322915   -0.956305
  H      1.549872   -1.490634   -0.249876
  H      2.743071    1.649471   -0.412802
  H      1.440364    0.502778    0.037031
  H      4.487835    0.932997   -1.611569
  H      5.169672   -0.414432   -0.729817

 Total Charge           Charge          ....    0
 Multiplicity           Mult            ....    1
 Number of Electrons    NEL             ....  104
 Basis Dimension        Dim             ....  439

ORBITAL ENERGIES
----------------

  NO   OCC          E(Eh)            E(eV)
   0   2.0000     -24.447280      -665.2443
   1   2.0000     -14.095237      -383.5509
   2   2.0000     -10.092102      -274.6201
   3   2.0000     -10.013550      -272.4826
   4   2.0000      -9.995049      -271.9791
   5   2.0000      -9.994045      -271.9518
   6   2.0000      -9.993899      -271.9478
   7   2.0000      -9.992064      -271.8979
   8   2.0000      -9.991483      -271.8821
   9   2.0000      -9.988857      -271.8106
  10   2.0000      -9.987467      -271.7728
  11   2.0000      -9.985471      -271.7185
  12   2.0000      -9.908363      -269.6203
  13   2.0000      -1.144126       -31.1332
  14   2.0000      -0.844394       -22.9771
  15   2.0000      -0.753151       -20.4943
  16   2.0000      -0.732044       -19.9199
  17   2.0000      -0.707039       -19.2395
  18   2.0000      -0.670905       -18.2562
  19   2.0000      -0.644906       -17.5488
  20   2.0000      -0.626406       -17.0454
  21   2.0000      -0.581968       -15.8362
  22   2.0000      -0.562367       -15.3028
  23   2.0000      -0.534149       -14.5349
  24   2.0000      -0.508098       -13.8260
  25   2.0000      -0.493642       -13.4327
  26   2.0000      -0.485898       -13.2219
  27   2.0000      -0.479026       -13.0350
  28   2.0000      -0.464020       -12.6266
  29   2.0000      -0.442247       -12.0342
  30   2.0000      -0.426178       -11.5969
  31   2.0000      -0.416860       -11.3433
  32   2.0000      -0.401907       -10.9364
  33   2.0000      -0.396901       -10.8002
  34   2.0000      -0.387068       -10.5327
  35   2.0000      -0.381723       -10.3872
  36   2.0000      -0.355683        -9.6786
  37   2.0000      -0.349188        -9.5019
  38   2.0000      -0.341725        -9.2988
  39   2.0000      -0.334016        -9.0890
  40   2.0000      -0.327980        -8.9248
  41   2.0000      -0.317658        -8.6439
  42   2.0000      -0.310848        -8.4586
  43   2.0000      -0.306498        -8.3402
  44   2.0000      -0.302459        -8.2303
  45   2.0000      -0.296070        -8.0565
  46   2.0000      -0.278582        -7.5806
  47   2.0000      -0.274921        -7.4810
  48   2.0000      -0.271816        -7.3965
  49   2.0000      -0.268700        -7.3117
  50   2.0000      -0.262481        -7.1425
  51   2.0000      -0.142678        -3.8825
  52   0.0000       0.004941         0.1344
  53   0.0000       0.013380         0.3641
  54   0.0000       0.021986         0.5983
  55   0.0000       0.023658         0.6438
  56   0.0000       0.030795         0.8380

MULLIKEN ATOMIC CHARGES
-----------------------
   0 C :    0.431648
   1 C :    0.458823
   2 H :    0.015814
   3 C :   -0.153170
   4 H :   -0.113132
   5 H :    0.029947
   6 H :   -0.171106
   7 C :   -0.124298
   8 H :    0.166029
   9 C :    0.630042
  10 H :   -0.342253
  11 C :   -0.005405
  12 H :    0.003052
  13 H :    0.022640
  14 C :    0.316905
  15 H :    0.186175
  16 H :   -0.396358
  17 H :   -0.675970
  18 C :   -0.044788
  19 H :    0.017562
  20 H :    0.025456
  21 H :   -0.135659
  22 C :    1.043498
  23 H :   -0.101428
  24 H :    0.006851
  25 F :   -0.809168
  26 C :   -0.597306
  27 C :    0.526427
  28 N :    0.468345
  29 H :   -0.108967
  30 H :   -0.292835
  31 H :   -0.232877
  32 H :   -0.145841
  33 H :    0.400173
  34 H :   -0.298826
Sum of atomic charges:   -0.0000000

LOEWDIN ATOMIC CHARGES
----------------------
   0 C :    0.027823
   1 C :   -0.016660
   2 H :    0.008019
   3 C :   -0.022988
   4 H :    0.014297
   5 H :   -0.014969
   6 H :    0.021139
   7 C :   -0.018990
   8 H :    0.001136
   9 C :   -0.017792
  10 H :    0.019546
  11 C :   -0.026772
  12 H :    0.016186
  13 H :    0.017104
  14 C :   -0.017907
  15 H :    0.007196
  16 H :    0.015689
  17 H :   -0.028920
  18 C :   -0.006335
  19 H :    0.033256
  20 H :    0.022751
  21 H :    0.029147
  22 C :    0.170783
  23 H :    0.029556
  24 H :    0.039614
  25 F :   -0.213999
  26 C :   -0.242737
  27 C :    0.187535
  28 N :    0.203351
  29 H :    0.002382
  30 H :   -0.062563
  31 H :   -0.074481
  32 H :   -0.135386
  33 H :    0.015492
  34 H :    0.018496

  Mayer bond orders larger than 0.100000
B(  0-C ,  1-C ) :   1.1998 B(  0-C ,  2-H ) :   0.1516 B(  0-C ,  4-H ) :   0.2149
B(  0-C , 26-C ) :   1.1614 B(  0-C , 27-C ) :   0.1247 B(  0-C , 31-H ) :  -0.1153
B(  0-C , 33-H ) :   0.7419 B(  0-C , 34-H ) :   0.6473 B(  1-C ,  2-H ) :   0.6331
B(  1-C ,  3-C ) :   1.2674 B(  1-C ,  4-H ) :   0.7593 B(  1-C , 26-C ) :   0.2113
B(  1-C , 33-H ) :   0.1371 B(  2-H ,  3-C ) :   0.2717 B(  2-H ,  4-H ) :  -0.1407
B(  3-C ,  4-H ) :   0.1841 B(  3-C ,  5-H ) :   0.8389 B(  3-C ,  6-H ) :   0.8807
B(  3-C ,  7-C ) :   1.2730 B(  3-C ,  8-H ) :   0.1178 B(  3-C , 10-H ) :   0.1728
B(  5-H ,  7-C ) :   0.1292 B(  5-H , 15-H ) :   0.1535 B(  6-H ,  7-C ) :   0.1357
B(  7-C ,  8-H ) :   0.8420 B(  7-C ,  9-C ) :   1.1328 B(  7-C , 10-H ) :   0.9984
B(  7-C , 11-C ) :   0.1551 B(  7-C , 12-H ) :   0.1208 B(  7-C , 13-H ) :   0.2350
B(  8-H , 17-H ) :   0.1598 B(  9-C , 11-C ) :   1.1381 B(  9-C , 12-H ) :   0.7324
B(  9-C , 13-H ) :   0.6754 B( 11-C , 12-H ) :   0.1745 B( 11-C , 13-H ) :   0.1478
B( 11-C , 14-C ) :   1.1939 B( 11-C , 15-H ) :   0.8052 B( 11-C , 16-H ) :   1.0279
B( 11-C , 17-H ) :   0.1680 B( 11-C , 19-H ) :   0.1153 B( 14-C , 15-H ) :   0.1342
B( 14-C , 16-H ) :   0.2356 B( 14-C , 17-H ) :   0.6597 B( 14-C , 18-C ) :   1.1850
B( 14-C , 19-H ) :   0.6742 B( 14-C , 20-H ) :   0.1211 B( 14-C , 21-H ) :   0.2357
B( 14-C , 27-C ) :   0.2149 B( 17-H , 18-C ) :   0.1631 B( 17-H , 19-H ) :   0.2553
B( 17-H , 26-C ) :   0.1188 B( 17-H , 27-C ) :  -0.1583 B( 17-H , 32-H ) :   0.1677
B( 18-C , 19-H ) :   0.1047 B( 18-C , 20-H ) :   0.9253 B( 18-C , 21-H ) :   0.8574
B( 18-C , 22-C ) :   1.1354 B( 18-C , 23-H ) :   0.1992 B( 18-C , 24-H ) :   0.1208
B( 18-C , 25-F ) :   0.1563 B( 22-C , 23-H ) :   0.7395 B( 22-C , 24-H ) :   0.8027
B( 22-C , 25-F ) :   0.6466 B( 24-H , 25-F ) :   0.1438 B( 25-F , 26-C ) :   0.1058
B( 25-F , 30-H ) :   0.1411 B( 25-F , 32-H ) :   0.1198 B( 26-C , 27-C ) :   2.0648
B( 26-C , 28-N ) :   1.0088 B( 26-C , 31-H ) :   0.2169 B( 26-C , 32-H ) :   0.5603
B( 26-C , 34-H ) :   0.3899 B( 27-C , 28-N ) :   0.4021 B( 27-C , 31-H ) :   1.0421
B( 27-C , 32-H ) :   0.1206 B( 28-N , 29-H ) :   1.0921 B( 28-N , 30-H ) :   1.0617
B( 28-N , 31-H ) :   0.1156 B( 29-H , 30-H ) :  -0.2159 B( 31-H , 32-H ) :  -0.1984
B( 33-H , 34-H ) :  -0.1020

Dispersion correction           -0.049299355
FINAL SINGLE POINT ENERGY      -586.695883835625

DIPOLE MOMENT
-------------
                                X             Y             Z
Electronic contribution:     -2.69200      -1.60202      10.49124
Nuclear contribution   :      1.82572       1.04089     -11.09065
                        -----------------------------------------
Total Dipole Moment    :     -0.86628      -0.56113      -0.59940
                        -----------------------------------------
Magnitude (a.u.)       :      1.19356
Magnitude (Debye)      :      3.03379

Rotational constants in cm-1:     0.028436     0.022359     0.014416
Rotational constants in MHz :   852.496561   670.291843   432.183951

                             ****ORCA TERMINATED NORMALLY****
TOTAL RUN TIME: 0 days 0 hours 1 minutes 16 seconds 583 msec
