                         Program Version 5.0.0 -  RELEASE  -
|  1> !CAM-B3LYP RIJCOSX def2-SVP def2/J TightSCF
|  2> *xyz -1 1
|  3> C          0.13297        2.38587       -4.02462
|  4> C         -1.36646        2.47911       -4.31393
|  5> C         -2.35773        2.30686       -3.13675
|  6> H         -1.63680        1.72709       -5.06399
|  7> H         -1.58235        3.44561       -4.76869
|  8> O         -3.44376        2.84652       -3.25274
|  9> O         -1.97092        1.58304       -2.15123
| 10> H          0.68084        2.52514       -4.93310
| 11> H          0.35823        1.42282       -3.61633
| 12> H          0.40851        3.14443       -3.32208
| 13> *
| 14> %MaxCore 64000
| 15>
| 16> %pal nprocs 4
| 17> end
| 18>
| 19> %scf
| 20>   MaxIter 150
| 21> end
| 22>
| 23>
| 24>                          ****END OF INPUT****

CARTESIAN COORDINATES (ANGSTROEM)
---------------------------------
  C      0.132970    2.385870   -4.024620
  C     -1.366460    2.479110   -4.313930
  C     -2.357730    2.306860   -3.136750
  H     -1.636800    1.727090   -5.063990
  H     -1.582350    3.445610   -4.768690
  O     -3.443760    2.846520   -3.252740
  O     -1.970920    1.583040   -2.151230
  H      0.680840    2.525140   -4.933100
  H      0.358230    1.422820   -3.616330
  H      0.408510    3.144430   -3.322080

 Total Charge           Charge          ....   -1
 Multiplicity           Mult            ....    1
 Number of Electrons    NEL             ....   40
 Basis Dimension        Dim             ....   95

ORBITAL ENERGIES
----------------

  NO   OCC          E(Eh)            E(eV)
   0   2.0000     -18.911619      -514.6113
   1   2.0000     -18.900705      -514.3143
   2   2.0000     -10.113759      -275.2094
   3   2.0000     -10.085287      -274.4346
   4   2.0000     -10.066591      -273.9259
   5   2.0000      -0.863097       -23.4861
   6   2.0000      -0.759426       -20.6650
   7   2.0000      -0.664886       -18.0925
   8   2.0000      -0.530576       -14.4377
   9   2.0000      -0.365996        -9.9593
  10   2.0000      -0.350955        -9.5500
  11   2.0000      -0.307277        -8.3614
  12   2.0000      -0.274961        -7.4821
  13   2.0000      -0.264974        -7.2103
  14   2.0000      -0.252175        -6.8620
  15   2.0000      -0.219416        -5.9706
  16   2.0000      -0.204237        -5.5576
  17   2.0000      -0.074969        -2.0400
  18   2.0000      -0.073704        -2.0056
  19   2.0000      -0.059465        -1.6181
  20   0.0000       0.256440         6.9781
  21   0.0000       0.308909         8.4058
  22   0.0000       0.317992         8.6530
  23   0.0000       0.325398         8.8545
  24   0.0000       0.337007         9.1704

MULLIKEN ATOMIC CHARGES
-----------------------
   0 C :    0.060951
   1 C :   -0.018515
   2 C :    0.007335
   3 H :   -0.042776
   4 H :   -0.057943
   5 O :   -0.378674
   6 O :   -0.463410
   7 H :   -0.064615
   8 H :   -0.017398
   9 H :   -0.024955
Sum of atomic charges:   -1.0000000

LOEWDIN ATOMIC CHARGES
----------------------
   0 C :   -0.064251
   1 C :   -0.096596
   2 C :   -0.057653
   3 H :    0.005707
   4 H :   -0.004126
   5 O :   -0.354750
   6 O :   -0.435716
   7 H :   -0.009344
   8 H :    0.008764
   9 H :    0.007965

  Mayer bond orders larger than 0.100000
B(  0-C ,  1-C ) :   1.0717 B(  0-C ,  7-H ) :   0.9557 B(  0-C ,  8-H ) :   0.9614
B(  0-C ,  9-H ) :   0.9737 B(  1-C ,  2-C ) :   0.9031 B(  1-C ,  3-H ) :   0.9403
B(  1-C ,  4-H ) :   0.9408 B(  2-C ,  5-O ) :   1.9229 B(  2-C ,  6-O ) :   1.8418
B(  5-O ,  6-O ) :   0.1116

FINAL SINGLE POINT ENERGY      -267.496974452149

DIPOLE MOMENT
-------------
                                X             Y             Z
Electronic contribution:     -5.39574      -0.41845       3.33762
Nuclear contribution   :      6.75610       0.63068      -4.53972
                        -----------------------------------------
Total Dipole Moment    :      1.36035       0.21223      -1.20210
                        -----------------------------------------
Magnitude (a.u.)       :      1.82775
Magnitude (Debye)      :      4.64576

Rotational constants in cm-1:     0.335096     0.130241     0.099025
Rotational constants in MHz : 10045.924902  3904.536250  2968.708333

                             ****ORCA TERMINATED NORMALLY****
TOTAL RUN TIME: 0 days 0 hours 0 minutes 14 seconds 39 msec
