                         Program Version 5.0.0 -  RELEASE  -
|  1> !CAM-B3LYP RIJCOSX def2-SVP def2/J TightSCF
|  2> *xyz 1 1
|  3> C          0.64866        1.00359       -3.64560
|  4> N          0.28128        0.67645       -2.24018
|  5> C          0.13297        2.38587       -4.02462
|  6> H          0.39079       -0.31925       -2.02649
|  7> H         -0.69269        0.99010       -2.13812
|  8> H          0.85421        1.21221       -1.57528
|  9> H          0.19099        0.23965       -4.27575
| 10> H          1.73157        0.93173       -3.75075
| 11> H          0.40589        2.60338       -5.03610
| 12> H          0.56342        3.11797       -3.37374
| 13> H         -0.93265        2.40724       -3.93025
| 14> *
| 15> %MaxCore 64000
| 16>
| 17> %pal nprocs 4
| 18> end
| 19>
| 20> %scf
| 21>   MaxIter 150
| 22> end
| 23>
| 24>
| 25>                          ****END OF INPUT****

CARTESIAN COORDINATES (ANGSTROEM)
---------------------------------
  C      0.648660    1.003590   -3.645600
  N      0.281280    0.676450   -2.240180
  C      0.132970    2.385870   -4.024620
  H      0.390790   -0.319250   -2.026490
  H     -0.692690    0.990100   -2.138120
  H      0.854210    1.212210   -1.575280
  H      0.190990    0.239650   -4.275750
  H      1.731570    0.931730   -3.750750
  H      0.405890    2.603380   -5.036100
  H      0.563420    3.117970   -3.373740
  H     -0.932650    2.407240   -3.930250

 Total Charge           Charge          ....    1
 Multiplicity           Mult            ....    1
 Number of Electrons    NEL             ....   26
 Basis Dimension        Dim             ....   82

ORBITAL ENERGIES
----------------

  NO   OCC          E(Eh)            E(eV)
   0   2.0000     -14.743264      -401.1846
   1   2.0000     -10.513321      -286.0820
   2   2.0000     -10.437085      -284.0075
   3   2.0000      -1.293654       -35.2021
   4   2.0000      -1.041764       -28.3478
   5   2.0000      -0.919189       -25.0124
   6   2.0000      -0.875256       -23.8169
   7   2.0000      -0.867366       -23.6022
   8   2.0000      -0.765490       -20.8301
   9   2.0000      -0.712183       -19.3795
  10   2.0000      -0.651695       -17.7335
  11   2.0000      -0.637430       -17.3454
  12   2.0000      -0.618986       -16.8435
  13   0.0000      -0.141836        -3.8596
  14   0.0000      -0.080095        -2.1795
  15   0.0000      -0.076647        -2.0857
  16   0.0000      -0.047713        -1.2983
  17   0.0000      -0.005866        -0.1596

MULLIKEN ATOMIC CHARGES
-----------------------
   0 C :   -0.037851
   1 N :    0.008456
   2 C :   -0.027445
   3 H :    0.221718
   4 H :    0.211599
   5 H :    0.215473
   6 H :    0.098416
   7 H :    0.102482
   8 H :    0.094581
   9 H :    0.056370
  10 H :    0.056201
Sum of atomic charges:    1.0000000

LOEWDIN ATOMIC CHARGES
----------------------
   0 C :    0.051853
   1 N :    0.294696
   2 C :   -0.040905
   3 H :    0.148465
   4 H :    0.144959
   5 H :    0.147248
   6 H :    0.054864
   7 H :    0.055226
   8 H :    0.065141
   9 H :    0.039619
  10 H :    0.038831

  Mayer bond orders larger than 0.100000
B(  0-C ,  1-N ) :   0.9274 B(  0-C ,  2-C ) :   1.0968 B(  0-C ,  6-H ) :   0.9545
B(  0-C ,  7-H ) :   0.9547 B(  1-N ,  3-H ) :   0.9309 B(  1-N ,  4-H ) :   0.9357
B(  1-N ,  5-H ) :   0.9356 B(  2-C ,  8-H ) :   0.9577 B(  2-C ,  9-H ) :   0.9727
B(  2-C , 10-H ) :   0.9661

FINAL SINGLE POINT ENERGY      -135.351438366090

DIPOLE MOMENT
-------------
                                X             Y             Z
Electronic contribution:      0.16342      -1.33644       1.38013
Nuclear contribution   :     -0.22655       0.48066      -0.09136
                        -----------------------------------------
Total Dipole Moment    :     -0.06313      -0.85578       1.28877
                        -----------------------------------------
Magnitude (a.u.)       :      1.54831
Magnitude (Debye)      :      3.93550

Rotational constants in cm-1:     0.998155     0.284845     0.251232
Rotational constants in MHz : 29923.943568  8539.431565  7531.732866

                             ****ORCA TERMINATED NORMALLY****
TOTAL RUN TIME: 0 days 0 hours 0 minutes 11 seconds 101 msec
