                         Program Version 5.0.0 -  RELEASE  -
|  1> !CAM-B3LYP RIJCOSX def2-SVP def2/J TightSCF
|  2> *xyz 0 1
|  3> C          0.13297        2.38587       -4.02462
|  4> C         -1.36646        2.47911       -4.31393
|  5> C         -2.35773        2.30686       -3.13675
|  6> H         -1.63680        1.72709       -5.06399
|  7> H         -1.58235        3.44561       -4.76869
|  8> F         -3.44376        2.84652       -3.25274
|  9> O         -1.97092        1.58304       -2.15123
| 10> H          0.68084        2.52514       -4.93310
| 11> H          0.35823        1.42282       -3.61633
| 12> H          0.40851        3.14443       -3.32208
| 13> *
| 14> %MaxCore 64000
| 15>
| 16> %pal nprocs 4
| 17> end
| 18>
| 19> %scf
| 20>   MaxIter 150
| 21> end
| 22>
| 23>
| 24>                          ****END OF INPUT****

CARTESIAN COORDINATES (ANGSTROEM)
---------------------------------
  C      0.132970    2.385870   -4.024620
  C     -1.366460    2.479110   -4.313930
  C     -2.357730    2.306860   -3.136750
  H     -1.636800    1.727090   -5.063990
  H     -1.582350    3.445610   -4.768690
  F     -3.443760    2.846520   -3.252740
  O     -1.970920    1.583040   -2.151230
  H      0.680840    2.525140   -4.933100
  H      0.358230    1.422820   -3.616330
  H      0.408510    3.144430   -3.322080

 Total Charge           Charge          ....    0
 Multiplicity           Mult            ....    1
 Number of Electrons    NEL             ....   40
 Basis Dimension        Dim             ....   95

ORBITAL ENERGIES
----------------

  NO   OCC          E(Eh)            E(eV)
   0   2.0000     -24.842749      -676.0056
   1   2.0000     -19.203992      -522.5672
   2   2.0000     -10.436530      -283.9924
   3   2.0000     -10.287587      -279.9395
   4   2.0000     -10.258624      -279.1513
   5   2.0000      -1.407040       -38.2875
   6   2.0000      -1.079099       -29.3638
   7   2.0000      -0.869188       -23.6518
   8   2.0000      -0.766392       -20.8546
   9   2.0000      -0.714624       -19.4459
  10   2.0000      -0.634346       -17.2614
  11   2.0000      -0.615825       -16.7575
  12   2.0000      -0.569579       -15.4990
  13   2.0000      -0.533582       -14.5195
  14   2.0000      -0.493607       -13.4317
  15   2.0000      -0.456082       -12.4106
  16   2.0000      -0.436704       -11.8833
  17   2.0000      -0.433749       -11.8029
  18   2.0000      -0.399744       -10.8776
  19   2.0000      -0.346191        -9.4203
  20   0.0000       0.032784         0.8921
  21   0.0000       0.099253         2.7008
  22   0.0000       0.147055         4.0016
  23   0.0000       0.157461         4.2847
  24   0.0000       0.172843         4.7033

MULLIKEN ATOMIC CHARGES
-----------------------
   0 C :    0.041417
   1 C :   -0.093549
   2 C :    0.208544
   3 H :    0.049998
   4 H :    0.022076
   5 F :   -0.020462
   6 O :   -0.275255
   7 H :    0.012560
   8 H :    0.033881
   9 H :    0.020792
Sum of atomic charges:   -0.0000000

LOEWDIN ATOMIC CHARGES
----------------------
   0 C :   -0.039022
   1 C :   -0.075936
   2 C :    0.090015
   3 H :    0.047685
   4 H :    0.029038
   5 F :    0.090657
   6 O :   -0.226974
   7 H :    0.026803
   8 H :    0.030641
   9 H :    0.027095

  Mayer bond orders larger than 0.100000
B(  0-C ,  1-C ) :   1.0959 B(  0-C ,  7-H ) :   0.9639 B(  0-C ,  8-H ) :   0.9691
B(  0-C ,  9-H ) :   0.9793 B(  1-C ,  2-C ) :   0.9903 B(  1-C ,  3-H ) :   0.9283
B(  1-C ,  4-H ) :   0.9410 B(  2-C ,  5-F ) :   1.2571 B(  2-C ,  6-O ) :   2.0719

FINAL SINGLE POINT ENERGY      -292.043236522906

DIPOLE MOMENT
-------------
                                X             Y             Z
Electronic contribution:     -8.43081       0.44199       3.63813
Nuclear contribution   :      8.54799       0.05434      -4.66633
                        -----------------------------------------
Total Dipole Moment    :      0.11718       0.49633      -1.02819
                        -----------------------------------------
Magnitude (a.u.)       :      1.14772
Magnitude (Debye)      :      2.91727

Rotational constants in cm-1:     0.325803     0.123345     0.094275
Rotational constants in MHz :  9767.324172  3697.779805  2826.305733

                             ****ORCA TERMINATED NORMALLY****
TOTAL RUN TIME: 0 days 0 hours 0 minutes 13 seconds 822 msec
