                         Program Version 5.0.0 -  RELEASE  -
|  1> !CAM-B3LYP RIJCOSX def2-SVP def2/J TightSCF
|  2> *xyz 0 1
|  3> C          0.64866        1.00359       -3.64560
|  4> C          0.28128        0.67645       -2.24018
|  5> C          0.13297        2.38587       -4.02462
|  6> H          0.39079       -0.31925       -2.02649
|  7> H         -0.69269        0.99010       -2.13812
|  8> H          0.85421        1.21221       -1.57528
|  9> H          0.19099        0.23965       -4.27575
| 10> H          1.73157        0.93173       -3.75075
| 11> H          0.40589        2.60338       -5.03610
| 12> H          0.56342        3.11797       -3.37374
| 13> H         -0.93265        2.40724       -3.93025
| 14> *
| 15> %MaxCore 64000
| 16>
| 17> %pal nprocs 4
| 18> end
| 19>
| 20> %scf
| 21>   MaxIter 150
| 22> end
| 23>
| 24>
| 25>                          ****END OF INPUT****

CARTESIAN COORDINATES (ANGSTROEM)
---------------------------------
  C      0.648660    1.003590   -3.645600
  C      0.281280    0.676450   -2.240180
  C      0.132970    2.385870   -4.024620
  H      0.390790   -0.319250   -2.026490
  H     -0.692690    0.990100   -2.138120
  H      0.854210    1.212210   -1.575280
  H      0.190990    0.239650   -4.275750
  H      1.731570    0.931730   -3.750750
  H      0.405890    2.603380   -5.036100
  H      0.563420    3.117970   -3.373740
  H     -0.932650    2.407240   -3.930250

 Total Charge           Charge          ....    0
 Multiplicity           Mult            ....    1
 Number of Electrons    NEL             ....   26
 Basis Dimension        Dim             ....   82

ORBITAL ENERGIES
----------------

  NO   OCC          E(Eh)            E(eV)
   0   2.0000     -10.242998      -278.7261
   1   2.0000     -10.237320      -278.5716
   2   2.0000     -10.220045      -278.1016
   3   2.0000      -0.867820       -23.6146
   4   2.0000      -0.760590       -20.6967
   5   2.0000      -0.654946       -17.8220
   6   2.0000      -0.537605       -14.6290
   7   2.0000      -0.518097       -14.0981
   8   2.0000      -0.468868       -12.7585
   9   2.0000      -0.452016       -12.3000
  10   2.0000      -0.401931       -10.9371
  11   2.0000      -0.397794       -10.8245
  12   2.0000      -0.389966       -10.6115
  13   0.0000       0.105620         2.8741
  14   0.0000       0.154273         4.1980
  15   0.0000       0.157256         4.2792
  16   0.0000       0.160534         4.3684
  17   0.0000       0.189816         5.1651

MULLIKEN ATOMIC CHARGES
-----------------------
   0 C :   -0.062094
   1 C :    0.084523
   2 C :    0.013998
   3 H :   -0.012218
   4 H :   -0.021666
   5 H :   -0.016677
   6 H :   -0.000946
   7 H :    0.000595
   8 H :    0.005544
   9 H :    0.003661
  10 H :    0.005281
Sum of atomic charges:    0.0000000

LOEWDIN ATOMIC CHARGES
----------------------
   0 C :   -0.037203
   1 C :   -0.042360
   2 C :   -0.051278
   3 H :    0.012999
   4 H :    0.012964
   5 H :    0.012862
   6 H :    0.017666
   7 H :    0.016540
   8 H :    0.020036
   9 H :    0.018971
  10 H :    0.018802

  Mayer bond orders larger than 0.100000
B(  0-C ,  1-C ) :   1.1033 B(  0-C ,  2-C ) :   1.1024 B(  0-C ,  6-H ) :   0.9567
B(  0-C ,  7-H ) :   0.9570 B(  1-C ,  3-H ) :   0.9637 B(  1-C ,  4-H ) :   0.9691
B(  1-C ,  5-H ) :   0.9672 B(  2-C ,  8-H ) :   0.9699 B(  2-C ,  9-H ) :   0.9764
B(  2-C , 10-H ) :   0.9724

FINAL SINGLE POINT ENERGY      -118.954896398561

DIPOLE MOMENT
-------------
                                X             Y             Z
Electronic contribution:      0.25202      -0.27028      -0.24031
Nuclear contribution   :     -0.24754       0.26111       0.24628
                        -----------------------------------------
Total Dipole Moment    :      0.00448      -0.00917       0.00596
                        -----------------------------------------
Magnitude (a.u.)       :      0.01182
Magnitude (Debye)      :      0.03005

Rotational constants in cm-1:     1.006509     0.299509     0.263145
Rotational constants in MHz : 30174.379724  8979.049324  7888.875355

                             ****ORCA TERMINATED NORMALLY****
TOTAL RUN TIME: 0 days 0 hours 0 minutes 11 seconds 245 msec
