                         Program Version 5.0.0 -  RELEASE  -
|  1> !CAM-B3LYP RIJCOSX def2-SVP def2/J TightSCF
|  2> *xyz 0 1
|  3> C          0.13297        2.38587       -4.02462
|  4> C         -1.36646        2.47911       -4.31393
|  5> C         -2.35773        2.30686       -3.13675
|  6> H         -1.63680        1.72709       -5.06399
|  7> H         -1.58235        3.44561       -4.76869
|  8> O         -3.44376        2.84652       -3.25274
|  9> F         -1.97092        1.58304       -2.15123
| 10> H          0.68084        2.52514       -4.93310
| 11> H          0.35823        1.42282       -3.61633
| 12> H          0.40851        3.14443       -3.32208
| 13> *
| 14> %MaxCore 64000
| 15>
| 16> %pal nprocs 4
| 17> end
| 18>
| 19> %scf
| 20>   MaxIter 150
| 21> end
| 22>
| 23>
| 24>                          ****END OF INPUT****

CARTESIAN COORDINATES (ANGSTROEM)
---------------------------------
  C      0.132970    2.385870   -4.024620
  C     -1.366460    2.479110   -4.313930
  C     -2.357730    2.306860   -3.136750
  H     -1.636800    1.727090   -5.063990
  H     -1.582350    3.445610   -4.768690
  O     -3.443760    2.846520   -3.252740
  F     -1.970920    1.583040   -2.151230
  H      0.680840    2.525140   -4.933100
  H      0.358230    1.422820   -3.616330
  H      0.408510    3.144430   -3.322080

 Total Charge           Charge          ....    0
 Multiplicity           Mult            ....    1
 Number of Electrons    NEL             ....   40
 Basis Dimension        Dim             ....   95

ORBITAL ENERGIES
----------------

  NO   OCC          E(Eh)            E(eV)
   0   2.0000     -24.818740      -675.3522
   1   2.0000     -19.213941      -522.8379
   2   2.0000     -10.431576      -283.8576
   3   2.0000     -10.286025      -279.8970
   4   2.0000     -10.263817      -279.2926
   5   2.0000      -1.357728       -36.9457
   6   2.0000      -1.119876       -30.4734
   7   2.0000      -0.872030       -23.7292
   8   2.0000      -0.748838       -20.3769
   9   2.0000      -0.703819       -19.1519
  10   2.0000      -0.609104       -16.5746
  11   2.0000      -0.603337       -16.4176
  12   2.0000      -0.558419       -15.1954
  13   2.0000      -0.533045       -14.5049
  14   2.0000      -0.498478       -13.5643
  15   2.0000      -0.469712       -12.7815
  16   2.0000      -0.452858       -12.3229
  17   2.0000      -0.438096       -11.9212
  18   2.0000      -0.414454       -11.2779
  19   2.0000      -0.357165        -9.7190
  20   0.0000       0.038000         1.0340
  21   0.0000       0.094279         2.5654
  22   0.0000       0.146237         3.9793
  23   0.0000       0.158220         4.3054
  24   0.0000       0.170362         4.6358

MULLIKEN ATOMIC CHARGES
-----------------------
   0 C :    0.017098
   1 C :   -0.093589
   2 C :    0.217717
   3 H :    0.052568
   4 H :    0.047464
   5 O :   -0.201376
   6 F :   -0.102825
   7 H :    0.019589
   8 H :    0.021507
   9 H :    0.021847
Sum of atomic charges:    0.0000000

LOEWDIN ATOMIC CHARGES
----------------------
   0 C :   -0.052206
   1 C :   -0.073020
   2 C :    0.100487
   3 H :    0.048075
   4 H :    0.044404
   5 O :   -0.155683
   6 F :    0.009186
   7 H :    0.029653
   8 H :    0.023932
   9 H :    0.025171

  Mayer bond orders larger than 0.100000
B(  0-C ,  1-C ) :   1.0676 B(  0-C ,  7-H ) :   0.9642 B(  0-C ,  8-H ) :   0.9731
B(  0-C ,  9-H ) :   0.9799 B(  1-C ,  2-C ) :   0.9900 B(  1-C ,  3-H ) :   0.9361
B(  1-C ,  4-H ) :   0.9517 B(  2-C ,  5-O ) :   2.1479 B(  2-C ,  6-F ) :   1.1755

FINAL SINGLE POINT ENERGY      -292.061106620703

DIPOLE MOMENT
-------------
                                X             Y             Z
Electronic contribution:     -5.97498      -1.63221       5.43322
Nuclear contribution   :      6.94213       1.43193      -5.86732
                        -----------------------------------------
Total Dipole Moment    :      0.96715      -0.20028      -0.43410
                        -----------------------------------------
Magnitude (a.u.)       :      1.07886
Magnitude (Debye)      :      2.74223

Rotational constants in cm-1:     0.306336     0.129048     0.095707
Rotational constants in MHz :  9183.725605  3868.769583  2869.236577

                             ****ORCA TERMINATED NORMALLY****
TOTAL RUN TIME: 0 days 0 hours 0 minutes 16 seconds 407 msec
