                         Program Version 5.0.0 -  RELEASE  -
|  1> !CAM-B3LYP RIJCOSX def2-TZVP def2/J TightSCF xyzfile
|  2>
|  3> *xyzfile 0 1 D1.xyz
|  4>
|  5> %MaxCore 64000
|  6>
|  7> %pal nprocs 18
|  8> end
|  9>
| 10> %scf
| 11>   MaxIter 150
| 12> end
| 13>
| 14>
| 15>                          ****END OF INPUT****

CARTESIAN COORDINATES (ANGSTROEM)
---------------------------------
  C      0.648656    1.003595   -3.645601
  C      0.281280    0.676454   -2.240179
  C      0.132968    2.385869   -4.024618
  C     -1.366462    2.479106   -4.313932
  C     -2.357732    2.306858   -3.136753
  H     -1.636802    1.727095   -5.063993
  H     -1.582347    3.445605   -4.768687
  H      0.390790   -0.319253   -2.026495
  H     -0.692686    0.990104   -2.138123
  H      0.854206    1.212214   -1.575279
  F     -3.443763    2.846518   -3.252744
  O     -1.970922    1.583042   -2.151229
  H      0.190993    0.239655   -4.275752
  H      1.731572    0.931729   -3.750751
  H      0.414839    3.102847   -3.245165
  H      0.683167    2.687560   -4.919721

 Total Charge           Charge          ....    0
 Multiplicity           Mult            ....    1
 Number of Electrons    NEL             ....   56
 Basis Dimension        Dim             ....  271

ORBITAL ENERGIES
----------------

  NO   OCC          E(Eh)            E(eV)
   0   2.0000     -24.852774      -676.2784
   1   2.0000     -19.209249      -522.7102
   2   2.0000     -10.445913      -284.2477
   3   2.0000     -10.282852      -279.8106
   4   2.0000     -10.251250      -278.9507
   5   2.0000     -10.222152      -278.1589
   6   2.0000     -10.149961      -276.1945
   7   2.0000      -1.442766       -39.2596
   8   2.0000      -1.122975       -30.5577
   9   2.0000      -0.900467       -24.5030
  10   2.0000      -0.840256       -22.8645
  11   2.0000      -0.770123       -20.9561
  12   2.0000      -0.737896       -20.0792
  13   2.0000      -0.660571       -17.9751
  14   2.0000      -0.649627       -17.6773
  15   2.0000      -0.635273       -17.2867
  16   2.0000      -0.600102       -16.3296
  17   2.0000      -0.554488       -15.0884
  18   2.0000      -0.522462       -14.2169
  19   2.0000      -0.505320       -13.7505
  20   2.0000      -0.479432       -13.0460
  21   2.0000      -0.450622       -12.2621
  22   2.0000      -0.444823       -12.1042
  23   2.0000      -0.421899       -11.4805
  24   2.0000      -0.408457       -11.1147
  25   2.0000      -0.385157       -10.4806
  26   2.0000      -0.375787       -10.2257
  27   2.0000      -0.311265        -8.4700
  28   0.0000       0.007758         0.2111
  29   0.0000       0.066615         1.8127
  30   0.0000       0.098828         2.6892
  31   0.0000       0.107826         2.9341
  32   0.0000       0.120062         3.2670

MULLIKEN ATOMIC CHARGES
-----------------------
   0 C :   -0.166242
   1 C :   -0.411750
   2 C :   -0.189987
   3 C :   -0.289247
   4 C :    0.370838
   5 H :    0.141276
   6 H :    0.137093
   7 H :    0.090893
   8 H :    0.193505
   9 H :    0.088776
  10 F :   -0.053590
  11 O :   -0.305386
  12 H :    0.077411
  13 H :    0.091283
  14 H :    0.113229
  15 H :    0.111898
Sum of atomic charges:   -0.0000000

LOEWDIN ATOMIC CHARGES
----------------------
   0 C :   -0.300636
   1 C :   -0.320809
   2 C :   -0.257702
   3 C :   -0.233804
   4 C :   -0.480687
   5 H :    0.158969
   6 H :    0.147553
   7 H :    0.098305
   8 H :    0.070649
   9 H :    0.100694
  10 F :    0.391112
  11 O :    0.081075
  12 H :    0.132166
  13 H :    0.129834
  14 H :    0.142774
  15 H :    0.140506

  Mayer bond orders larger than 0.100000
B(  0-C ,  1-C ) :   0.9315 B(  0-C ,  2-C ) :   0.9461 B(  0-C , 12-H ) :   0.9793
B(  0-C , 13-H ) :   0.9792 B(  1-C ,  7-H ) :   0.9894 B(  1-C ,  8-H ) :   0.9311
B(  1-C ,  9-H ) :   0.9856 B(  2-C ,  3-C ) :   0.9463 B(  2-C , 14-H ) :   0.9772
B(  2-C , 15-H ) :   0.9740 B(  3-C ,  4-C ) :   0.9962 B(  3-C ,  5-H ) :   0.9353
B(  3-C ,  6-H ) :   0.9660 B(  4-C , 10-F ) :   1.2250 B(  4-C , 11-O ) :   1.9484

FINAL SINGLE POINT ENERGY      -370.939088925868

DIPOLE MOMENT
-------------
                                X             Y             Z
Electronic contribution:    -13.01142       4.59661       1.40375
Nuclear contribution   :     12.79331      -3.91961      -2.45895
                        -----------------------------------------
Total Dipole Moment    :     -0.21811       0.67700      -1.05519
                        -----------------------------------------
Magnitude (a.u.)       :      1.27253
Magnitude (Debye)      :      3.23450

Rotational constants in cm-1:     0.162888     0.059977     0.046450
Rotational constants in MHz :  4883.250030  1798.063289  1392.548669

                             ****ORCA TERMINATED NORMALLY****
TOTAL RUN TIME: 0 days 0 hours 0 minutes 21 seconds 807 msec
