                         Program Version 5.0.0 -  RELEASE  -
|  1> !B3LYP D3BJ RIJCOSX def2-TZVPD def2/J TightSCF
|  2> *xyz -1 1
|  3> C          3.80351        1.37472       -3.26081
|  4> C          3.93993        0.32036       -4.36773
|  5> H          4.10504       -0.65508       -3.90773
|  6> H          3.02280        0.28052       -4.95712
|  7> C          5.10585        0.66802       -5.30546
|  8> O          4.80913        1.15019       -6.41436
|  9> O          6.26737        0.56500       -4.81948
| 10> H          3.64113        2.33595       -3.70189
| 11> H          4.69995        1.39701       -2.67703
| 12> H          2.97435        1.12625       -2.63180
| 13> *
| 14>
| 15> %MaxCore 64000
| 16>
| 17> %pal nprocs 4
| 18> end
| 19>
| 20> %scf
| 21>   MaxIter 150
| 22> end
| 23>
| 24>
| 25>                          ****END OF INPUT****

CARTESIAN COORDINATES (ANGSTROEM)
---------------------------------
  C      3.803510    1.374720   -3.260810
  C      3.939930    0.320360   -4.367730
  H      4.105040   -0.655080   -3.907730
  H      3.022800    0.280520   -4.957120
  C      5.105850    0.668020   -5.305460
  O      4.809130    1.150190   -6.414360
  O      6.267370    0.565000   -4.819480
  H      3.641130    2.335950   -3.701890
  H      4.699950    1.397010   -2.677030
  H      2.974350    1.126250   -2.631800

 Total Charge           Charge          ....   -1
 Multiplicity           Mult            ....    1
 Number of Electrons    NEL             ....   40
 Basis Dimension        Dim             ....  236

ORBITAL ENERGIES
----------------

  NO   OCC          E(Eh)            E(eV)
   0   2.0000     -18.863427      -513.2999
   1   2.0000     -18.859872      -513.2032
   2   2.0000     -10.050763      -273.4952
   3   2.0000     -10.004319      -272.2314
   4   2.0000      -9.992393      -271.9068
   5   2.0000      -0.821304       -22.3488
   6   2.0000      -0.730519       -19.8784
   7   2.0000      -0.603296       -16.4165
   8   2.0000      -0.470935       -12.8148
   9   2.0000      -0.319954        -8.7064
  10   2.0000      -0.290438        -7.9032
  11   2.0000      -0.259941        -7.0733
  12   2.0000      -0.228419        -6.2156
  13   2.0000      -0.213340        -5.8053
  14   2.0000      -0.209095        -5.6898
  15   2.0000      -0.178270        -4.8510
  16   2.0000      -0.163834        -4.4582
  17   2.0000      -0.050546        -1.3754
  18   2.0000      -0.040491        -1.1018
  19   2.0000      -0.030164        -0.8208
  20   0.0000       0.134268         3.6536
  21   0.0000       0.159367         4.3366
  22   0.0000       0.173724         4.7273
  23   0.0000       0.183214         4.9855
  24   0.0000       0.210311         5.7229

MULLIKEN ATOMIC CHARGES
-----------------------
   0 C :   -1.108969
   1 C :   -0.004641
   2 H :    0.188754
   3 H :    0.178728
   4 C :    0.406620
   5 O :   -0.715923
   6 O :   -0.752355
   7 H :    0.299165
   8 H :    0.262141
   9 H :    0.246481
Sum of atomic charges:   -1.0000000

LOEWDIN ATOMIC CHARGES
----------------------
   0 C :   -0.125370
   1 C :   -0.208379
   2 H :    0.086108
   3 H :    0.082957
   4 C :   -0.777822
   5 O :   -0.096241
   6 O :   -0.114698
   7 H :    0.059685
   8 H :    0.054529
   9 H :    0.039231

  Mayer bond orders larger than 0.100000
B(  0-C ,  1-C ) :   0.5534 B(  0-C ,  4-C ) :   0.1446 B(  0-C ,  7-H ) :   0.9627
B(  0-C ,  8-H ) :   1.0227 B(  0-C ,  9-H ) :   0.9533 B(  1-C ,  2-H ) :   0.9701
B(  1-C ,  3-H ) :   1.0125 B(  1-C ,  4-C ) :   0.8799 B(  4-C ,  5-O ) :   1.4477
B(  4-C ,  6-O ) :   1.4224

Dispersion correction           -0.011022954
FINAL SINGLE POINT ENERGY      -267.816969097760

DIPOLE MOMENT
-------------
                                X             Y             Z
Electronic contribution:      3.73215      -0.48893      -4.50387
Nuclear contribution   :     -5.15232       0.33441       5.87398
                        -----------------------------------------
Total Dipole Moment    :     -1.42018      -0.15452       1.37011
                        -----------------------------------------
Magnitude (a.u.)       :      1.97939
Magnitude (Debye)      :      5.03120

Rotational constants in cm-1:     0.295355     0.137164     0.110193
Rotational constants in MHz :  8854.523706  4112.077980  3303.490503

                             ****ORCA TERMINATED NORMALLY****
TOTAL RUN TIME: 0 days 0 hours 0 minutes 31 seconds 243 msec
