                         Program Version 5.0.0 -  RELEASE  -
|  1> !B3LYP D3BJ RIJCOSX def2-TZVPD def2/J TightSCF
|  2> *xyz 1 1
|  3> C          3.90595        2.81985       -3.75292
|  4> N          5.29562        3.13151       -4.10533
|  5> C          3.80351        1.37472       -3.26081
|  6> C          5.70862        3.46889       -5.32419
|  7> N          6.90470        3.03895       -5.71708
|  8> N          4.98188        4.29357       -6.09746
|  9> H          5.00055        4.10131       -7.08776
| 10> H          4.08469        4.59690       -5.73965
| 11> H          5.96336        2.52611       -3.64239
| 12> H          7.04716        2.06686       -5.47360
| 13> H          7.19815        3.30799       -6.64523
| 14> H          3.28202        2.94919       -4.64026
| 15> H          3.56525        3.51457       -2.98252
| 16> H          4.14157        0.71142       -4.02935
| 17> H          2.78528        1.15146       -3.01944
| 18> H          4.41205        1.25066       -2.38949
| 19> *
| 20>
| 21> %MaxCore 64000
| 22>
| 23> %pal nprocs 4
| 24> end
| 25>
| 26> %scf
| 27>   MaxIter 150
| 28> end
| 29>
| 30>
| 31>                          ****END OF INPUT****

CARTESIAN COORDINATES (ANGSTROEM)
---------------------------------
  C      3.905950    2.819850   -3.752920
  N      5.295620    3.131510   -4.105330
  C      3.803510    1.374720   -3.260810
  C      5.708620    3.468890   -5.324190
  N      6.904700    3.038950   -5.717080
  N      4.981880    4.293570   -6.097460
  H      5.000550    4.101310   -7.087760
  H      4.084690    4.596900   -5.739650
  H      5.963360    2.526110   -3.642390
  H      7.047160    2.066860   -5.473600
  H      7.198150    3.307990   -6.645230
  H      3.282020    2.949190   -4.640260
  H      3.565250    3.514570   -2.982520
  H      4.141570    0.711420   -4.029350
  H      2.785280    1.151460   -3.019440
  H      4.412050    1.250660   -2.389490

 Total Charge           Charge          ....    1
 Multiplicity           Mult            ....    1
 Number of Electrons    NEL             ....   48
 Basis Dimension        Dim             ....  312

ORBITAL ENERGIES
----------------

  NO   OCC          E(Eh)            E(eV)
   0   2.0000     -14.542143      -395.7118
   1   2.0000     -14.541626      -395.6978
   2   2.0000     -14.540914      -395.6784
   3   2.0000     -10.504418      -285.8397
   4   2.0000     -10.379392      -282.4376
   5   2.0000     -10.311806      -280.5985
   6   2.0000      -1.220670       -33.2161
   7   2.0000      -1.108847       -30.1733
   8   2.0000      -1.101163       -29.9642
   9   2.0000      -0.934244       -25.4221
  10   2.0000      -0.835511       -22.7354
  11   2.0000      -0.808623       -22.0037
  12   2.0000      -0.776486       -21.1293
  13   2.0000      -0.746142       -20.3035
  14   2.0000      -0.701536       -19.0898
  15   2.0000      -0.688942       -18.7471
  16   2.0000      -0.650985       -17.7142
  17   2.0000      -0.628336       -17.0979
  18   2.0000      -0.595646       -16.2083
  19   2.0000      -0.560784       -15.2597
  20   2.0000      -0.538149       -14.6438
  21   2.0000      -0.523521       -14.2457
  22   2.0000      -0.490912       -13.3584
  23   2.0000      -0.461144       -12.5484
  24   0.0000      -0.195629        -5.3233
  25   0.0000      -0.166135        -4.5208
  26   0.0000      -0.132693        -3.6107
  27   0.0000      -0.120242        -3.2720
  28   0.0000      -0.103905        -2.8274

MULLIKEN ATOMIC CHARGES
-----------------------
   0 C :   -0.261690
   1 N :   -0.099924
   2 C :   -1.257322
   3 C :    0.502891
   4 N :   -0.327501
   5 N :   -0.339036
   6 H :    0.221679
   7 H :    0.248518
   8 H :    0.231226
   9 H :    0.237757
  10 H :    0.234678
  11 H :    0.298833
  12 H :    0.267368
  13 H :    0.354074
  14 H :    0.323337
  15 H :    0.365111
Sum of atomic charges:    1.0000000

LOEWDIN ATOMIC CHARGES
----------------------
   0 C :   -0.197855
   1 N :    0.091973
   2 C :   -0.053359
   3 C :   -0.443622
   4 N :    0.211732
   5 N :    0.221686
   6 H :    0.135946
   7 H :    0.127067
   8 H :    0.153924
   9 H :    0.138089
  10 H :    0.134963
  11 H :    0.115296
  12 H :    0.126970
  13 H :    0.075475
  14 H :    0.083603
  15 H :    0.078112

  Mayer bond orders larger than 0.100000
B(  0-C ,  1-N ) :   0.8477 B(  0-C ,  2-C ) :   0.5937 B(  0-C , 11-H ) :   0.8674
B(  0-C , 12-H ) :   0.9691 B(  1-N ,  3-C ) :   1.3153 B(  1-N ,  8-H ) :   0.8887
B(  2-C , 13-H ) :   0.9501 B(  2-C , 14-H ) :   0.9651 B(  2-C , 15-H ) :   0.9408
B(  3-C ,  4-N ) :   1.1993 B(  3-C ,  5-N ) :   1.1625 B(  4-N ,  9-H ) :   0.9358
B(  4-N , 10-H ) :   0.9162 B(  5-N ,  6-H ) :   0.9475 B(  5-N ,  7-H ) :   0.9146

Dispersion correction           -0.020056513
FINAL SINGLE POINT ENERGY      -284.345483156707

DIPOLE MOMENT
-------------
                                X             Y             Z
Electronic contribution:      3.50923       3.41053      -2.63903
Nuclear contribution   :     -3.31456      -3.64300       1.57303
                        -----------------------------------------
Total Dipole Moment    :      0.19467      -0.23247      -1.06600
                        -----------------------------------------
Magnitude (a.u.)       :      1.10828
Magnitude (Debye)      :      2.81703

Rotational constants in cm-1:     0.229487     0.071000     0.059428
Rotational constants in MHz :  6879.840828  2128.520047  1781.605314

                             ****ORCA TERMINATED NORMALLY****
TOTAL RUN TIME: 0 days 0 hours 0 minutes 49 seconds 32 msec
