                         Program Version 5.0.0 -  RELEASE  -
|  1> !B3LYP D3BJ RIJCOSX def2-TZVPD def2/J TightSCF xyzfile
|  2>
|  3> *xyzfile 0 1 B.xyz
|  4>
|  5> %MaxCore 64000
|  6>
|  7> %pal nprocs 4
|  8> end
|  9>
| 10> %scf
| 11>   MaxIter 150
| 12> end
| 13>
| 14>
| 15>                          ****END OF INPUT****

CARTESIAN COORDINATES (ANGSTROEM)
---------------------------------
  C      3.905947    2.819855   -3.752920
  N      5.295615    3.131515   -4.105334
  C      3.803511    1.374716   -3.260807
  C      3.939934    0.320362   -4.367729
  H      4.105043   -0.655085   -3.907733
  H      3.022801    0.280517   -4.957117
  C      5.105846    0.668022   -5.305463
  C      5.708619    3.468885   -5.324190
  N      6.904696    3.038954   -5.717084
  N      4.981884    4.293570   -6.097457
  H      5.000546    4.101311   -7.087761
  H      4.084693    4.596899   -5.739652
  H      5.963358    2.526112   -3.642391
  H      7.047164    2.066861   -5.473604
  H      7.198145    3.307994   -6.645225
  H      3.282025    2.949187   -4.640259
  H      3.565254    3.514574   -2.982523
  H      4.574833    1.215157   -2.500443
  H      2.843514    1.260845   -2.751465
  O      4.809132    1.150187   -6.414361
  O      6.267366    0.564999   -4.819481

 Total Charge           Charge          ....    0
 Multiplicity           Mult            ....    1
 Number of Electrons    NEL             ....   78
 Basis Dimension        Dim             ....  475

ORBITAL ENERGIES
----------------

  NO   OCC          E(Eh)            E(eV)
   0   2.0000     -19.043010      -518.1866
   1   2.0000     -19.039786      -518.0989
   2   2.0000     -14.379430      -391.2842
   3   2.0000     -14.371319      -391.0635
   4   2.0000     -14.348981      -390.4556
   5   2.0000     -10.333553      -281.1903
   6   2.0000     -10.230587      -278.3884
   7   2.0000     -10.227116      -278.2940
   8   2.0000     -10.180464      -277.0245
   9   2.0000     -10.147615      -276.1306
  10   2.0000      -1.050071       -28.5739
  11   2.0000      -1.004335       -27.3293
  12   2.0000      -0.943502       -25.6740
  13   2.0000      -0.925328       -25.1795
  14   2.0000      -0.913388       -24.8546
  15   2.0000      -0.795752       -21.6535
  16   2.0000      -0.714006       -19.4291
  17   2.0000      -0.657994       -17.9049
  18   2.0000      -0.624014       -16.9803
  19   2.0000      -0.607056       -16.5188
  20   2.0000      -0.575209       -15.6522
  21   2.0000      -0.535435       -14.5699
  22   2.0000      -0.516315       -14.0496
  23   2.0000      -0.497589       -13.5401
  24   2.0000      -0.479847       -13.0573
  25   2.0000      -0.474945       -12.9239
  26   2.0000      -0.430578       -11.7166
  27   2.0000      -0.424083       -11.5399
  28   2.0000      -0.411475       -11.1968
  29   2.0000      -0.388131       -10.5616
  30   2.0000      -0.382810       -10.4168
  31   2.0000      -0.377476       -10.2716
  32   2.0000      -0.341520        -9.2932
  33   2.0000      -0.337803        -9.1921
  34   2.0000      -0.317697        -8.6450
  35   2.0000      -0.293523        -7.9872
  36   2.0000      -0.235304        -6.4029
  37   2.0000      -0.219454        -5.9717
  38   2.0000      -0.210104        -5.7172
  39   0.0000      -0.025235        -0.6867
  40   0.0000      -0.018467        -0.5025
  41   0.0000       0.005401         0.1470
  42   0.0000       0.014632         0.3981
  43   0.0000       0.032362         0.8806

MULLIKEN ATOMIC CHARGES
-----------------------
   0 C :   -0.413370
   1 N :   -0.147813
   2 C :   -0.593677
   3 C :   -0.353587
   4 H :    0.214273
   5 H :    0.232142
   6 C :    0.832605
   7 C :    0.495289
   8 N :   -0.351666
   9 N :   -0.413921
  10 H :    0.198904
  11 H :    0.224283
  12 H :    0.277881
  13 H :    0.296454
  14 H :    0.197582
  15 H :    0.278330
  16 H :    0.158404
  17 H :    0.254089
  18 H :    0.178746
  19 O :   -0.732296
  20 O :   -0.832654
Sum of atomic charges:    0.0000000

LOEWDIN ATOMIC CHARGES
----------------------
   0 C :   -0.159913
   1 N :    0.091910
   2 C :   -0.176160
   3 C :   -0.115696
   4 H :    0.110287
   5 H :    0.107058
   6 C :   -0.709033
   7 C :   -0.475327
   8 N :    0.202253
   9 N :    0.198583
  10 H :    0.123945
  11 H :    0.112307
  12 H :    0.142483
  13 H :    0.074420
  14 H :    0.124353
  15 H :    0.119020
  16 H :    0.114180
  17 H :    0.113558
  18 H :    0.108650
  19 O :   -0.033307
  20 O :   -0.073570

  Mayer bond orders larger than 0.100000
B(  0-C ,  1-N ) :   0.8561 B(  0-C ,  2-C ) :   0.9054 B(  0-C , 15-H ) :   0.8442
B(  0-C , 16-H ) :   1.0584 B(  1-N ,  7-C ) :   1.3062 B(  1-N , 12-H ) :   0.8072
B(  2-C ,  3-C ) :   0.9098 B(  2-C , 17-H ) :   0.9169 B(  2-C , 18-H ) :   1.0212
B(  3-C ,  4-H ) :   0.9463 B(  3-C ,  5-H ) :   0.9763 B(  3-C ,  6-C ) :   0.9092
B(  6-C , 19-O ) :   1.3133 B(  6-C , 20-O ) :   1.1326 B(  7-C ,  8-N ) :   1.1603
B(  7-C ,  9-N ) :   0.9524 B(  8-N , 13-H ) :   0.7879 B(  8-N , 14-H ) :   0.9057
B(  9-N , 10-H ) :   0.9522 B(  9-N , 11-H ) :   0.9111 B( 13-H , 20-O ) :   0.1536

Dispersion correction           -0.037868969
FINAL SINGLE POINT ENERGY      -511.837926043326

DIPOLE MOMENT
-------------
                                X             Y             Z
Electronic contribution:      4.17330       0.38713      -3.42312
Nuclear contribution   :     -4.94498       2.03334       3.78956
                        -----------------------------------------
Total Dipole Moment    :     -0.77168       2.42047       0.36644
                        -----------------------------------------
Magnitude (a.u.)       :      2.56680
Magnitude (Debye)      :      6.52428

Rotational constants in cm-1:     0.062533     0.042832     0.033687
Rotational constants in MHz :  1874.701390  1284.063603  1009.911042

                             ****ORCA TERMINATED NORMALLY****
TOTAL RUN TIME: 0 days 0 hours 2 minutes 31 seconds 603 msec
