                         Program Version 5.0.0 -  RELEASE  -
|  1> !B3LYP D3BJ RIJCOSX def2-TZVPD def2/J TightSCF
|  2> *xyz 0 1
|  3> C          3.80351        1.37472       -3.26081
|  4> C          3.93993        0.32036       -4.36773
|  5> H          4.10504       -0.65508       -3.90773
|  6> H          3.02280        0.28052       -4.95712
|  7> C          5.10585        0.66802       -5.30546
|  8> F          4.80913        1.15019       -6.41436
|  9> O          6.26737        0.56500       -4.81948
| 10> H          3.64113        2.33595       -3.70189
| 11> H          4.69995        1.39701       -2.67703
| 12> H          2.97435        1.12625       -2.63180
| 13> *
| 14>
| 15> %MaxCore 64000
| 16>
| 17> %pal nprocs 4
| 18> end
| 19>
| 20> %scf
| 21>   MaxIter 150
| 22> end
| 23>
| 24>
| 25>                          ****END OF INPUT****

CARTESIAN COORDINATES (ANGSTROEM)
---------------------------------
  C      3.803510    1.374720   -3.260810
  C      3.939930    0.320360   -4.367730
  H      4.105040   -0.655080   -3.907730
  H      3.022800    0.280520   -4.957120
  C      5.105850    0.668020   -5.305460
  F      4.809130    1.150190   -6.414360
  O      6.267370    0.565000   -4.819480
  H      3.641130    2.335950   -3.701890
  H      4.699950    1.397010   -2.677030
  H      2.974350    1.126250   -2.631800

 Total Charge           Charge          ....    0
 Multiplicity           Mult            ....    1
 Number of Electrons    NEL             ....   40
 Basis Dimension        Dim             ....  236

ORBITAL ENERGIES
----------------

  NO   OCC          E(Eh)            E(eV)
   0   2.0000     -24.757642      -673.6897
   1   2.0000     -19.131470      -520.5938
   2   2.0000     -10.349387      -281.6211
   3   2.0000     -10.200503      -277.5698
   4   2.0000     -10.174909      -276.8734
   5   2.0000      -1.329195       -36.1692
   6   2.0000      -1.030183       -28.0327
   7   2.0000      -0.800627       -21.7862
   8   2.0000      -0.691853       -18.8263
   9   2.0000      -0.644038       -17.5252
  10   2.0000      -0.554897       -15.0995
  11   2.0000      -0.540911       -14.7189
  12   2.0000      -0.508842       -13.8463
  13   2.0000      -0.466277       -12.6880
  14   2.0000      -0.436826       -11.8866
  15   2.0000      -0.400596       -10.9008
  16   2.0000      -0.381165       -10.3720
  17   2.0000      -0.376016       -10.2319
  18   2.0000      -0.347516        -9.4564
  19   2.0000      -0.292218        -7.9517
  20   0.0000      -0.035835        -0.9751
  21   0.0000       0.000664         0.0181
  22   0.0000       0.027887         0.7589
  23   0.0000       0.038585         1.0499
  24   0.0000       0.047449         1.2911

MULLIKEN ATOMIC CHARGES
-----------------------
   0 C :   -1.115842
   1 C :   -0.058965
   2 H :    0.217328
   3 H :    0.225096
   4 C :    0.542409
   5 F :   -0.205974
   6 O :   -0.507349
   7 H :    0.332529
   8 H :    0.300028
   9 H :    0.270740
Sum of atomic charges:    0.0000000

LOEWDIN ATOMIC CHARGES
----------------------
   0 C :   -0.082193
   1 C :   -0.151055
   2 H :    0.115898
   3 H :    0.104522
   4 C :   -0.491515
   5 F :    0.220327
   6 O :    0.072174
   7 H :    0.072314
   8 H :    0.072231
   9 H :    0.067296

  Mayer bond orders larger than 0.100000
B(  0-C ,  1-C ) :   0.6146 B(  0-C ,  4-C ) :   0.1327 B(  0-C ,  7-H ) :   0.9175
B(  0-C ,  8-H ) :   1.0055 B(  0-C ,  9-H ) :   0.9665 B(  1-C ,  2-H ) :   0.9675
B(  1-C ,  3-H ) :   0.9730 B(  1-C ,  4-C ) :   0.8781 B(  4-C ,  5-F ) :   1.0193
B(  4-C ,  6-O ) :   1.7339

Dispersion correction           -0.010433496
FINAL SINGLE POINT ENERGY      -292.378130164508

DIPOLE MOMENT
-------------
                                X             Y             Z
Electronic contribution:      3.99175      -0.01198      -7.43031
Nuclear contribution   :     -5.17129      -0.01923       7.59895
                        -----------------------------------------
Total Dipole Moment    :     -1.17954      -0.03122       0.16863
                        -----------------------------------------
Magnitude (a.u.)       :      1.19194
Magnitude (Debye)      :      3.02968

Rotational constants in cm-1:     0.282073     0.131822     0.105134
Rotational constants in MHz :  8456.328792  3951.925810  3151.840112

                             ****ORCA TERMINATED NORMALLY****
TOTAL RUN TIME: 0 days 0 hours 0 minutes 26 seconds 136 msec
