                         Program Version 5.0.0 -  RELEASE  -
|  1> !B3LYP D3BJ RIJCOSX def2-TZVPD def2/J TightSCF
|  2> *xyz 0 1
|  3> C          3.90595        2.81985       -3.75292
|  4> C          5.29562        3.13151       -4.10533
|  5> C          3.80351        1.37472       -3.26081
|  6> C          5.70862        3.46889       -5.32419
|  7> N          6.90470        3.03895       -5.71708
|  8> N          4.98188        4.29357       -6.09746
|  9> H          5.00055        4.10131       -7.08776
| 10> H          4.08469        4.59690       -5.73965
| 11> H          5.96336        2.52611       -3.64239
| 12> H          7.04716        2.06686       -5.47360
| 13> H          7.19815        3.30799       -6.64523
| 14> H          3.28202        2.94919       -4.64026
| 15> H          3.56525        3.51457       -2.98252
| 16> H          4.14157        0.71142       -4.02935
| 17> H          2.78528        1.15146       -3.01944
| 18> H          4.41205        1.25066       -2.38949
| 19> *
| 20>
| 21> %MaxCore 64000
| 22>
| 23> %pal nprocs 4
| 24> end
| 25>
| 26> %scf
| 27>   MaxIter 150
| 28> end
| 29>
| 30>
| 31>                          ****END OF INPUT****

CARTESIAN COORDINATES (ANGSTROEM)
---------------------------------
  C      3.905950    2.819850   -3.752920
  C      5.295620    3.131510   -4.105330
  C      3.803510    1.374720   -3.260810
  C      5.708620    3.468890   -5.324190
  N      6.904700    3.038950   -5.717080
  N      4.981880    4.293570   -6.097460
  H      5.000550    4.101310   -7.087760
  H      4.084690    4.596900   -5.739650
  H      5.963360    2.526110   -3.642390
  H      7.047160    2.066860   -5.473600
  H      7.198150    3.307990   -6.645230
  H      3.282020    2.949190   -4.640260
  H      3.565250    3.514570   -2.982520
  H      4.141570    0.711420   -4.029350
  H      2.785280    1.151460   -3.019440
  H      4.412050    1.250660   -2.389490

 Total Charge           Charge          ....    0
 Multiplicity           Mult            ....    1
 Number of Electrons    NEL             ....   48
 Basis Dimension        Dim             ....  312

ORBITAL ENERGIES
----------------

  NO   OCC          E(Eh)            E(eV)
   0   2.0000     -14.319819      -389.6621
   1   2.0000     -14.316916      -389.5831
   2   2.0000     -10.210824      -277.8507
   3   2.0000     -10.146287      -276.0945
   4   2.0000     -10.138277      -275.8765
   5   2.0000     -10.095507      -274.7127
   6   2.0000      -0.966129       -26.2897
   7   2.0000      -0.878415       -23.9029
   8   2.0000      -0.776944       -21.1417
   9   2.0000      -0.696158       -18.9434
  10   2.0000      -0.614089       -16.7102
  11   2.0000      -0.576844       -15.6967
  12   2.0000      -0.535536       -14.5727
  13   2.0000      -0.511502       -13.9187
  14   2.0000      -0.478507       -13.0208
  15   2.0000      -0.446568       -12.1517
  16   2.0000      -0.422246       -11.4899
  17   2.0000      -0.389663       -10.6033
  18   2.0000      -0.369861       -10.0644
  19   2.0000      -0.352044        -9.5796
  20   2.0000      -0.328763        -8.9461
  21   2.0000      -0.325219        -8.8497
  22   2.0000      -0.275659        -7.5011
  23   2.0000      -0.171640        -4.6706
  24   0.0000      -0.006173        -0.1680
  25   0.0000       0.022675         0.6170
  26   0.0000       0.025698         0.6993
  27   0.0000       0.039212         1.0670
  28   0.0000       0.051345         1.3972

MULLIKEN ATOMIC CHARGES
-----------------------
   0 C :    0.089397
   1 C :   -0.473869
   2 C :   -1.323870
   3 C :    0.036933
   4 N :   -0.372132
   5 N :   -0.403396
   6 H :    0.149268
   7 H :    0.195149
   8 H :    0.372983
   9 H :    0.193674
  10 H :    0.190756
  11 H :    0.221930
  12 H :    0.175896
  13 H :    0.336968
  14 H :    0.297464
  15 H :    0.312851
Sum of atomic charges:    0.0000000

LOEWDIN ATOMIC CHARGES
----------------------
   0 C :   -0.281276
   1 C :   -0.132958
   2 C :   -0.105160
   3 C :   -0.555421
   4 N :    0.116489
   5 N :    0.127676
   6 H :    0.092832
   7 H :    0.098768
   8 H :    0.061532
   9 H :    0.107136
  10 H :    0.093823
  11 H :    0.093078
  12 H :    0.097019
  13 H :    0.065026
  14 H :    0.057396
  15 H :    0.064039

  Mayer bond orders larger than 0.100000
B(  0-C ,  1-C ) :   0.6112 B(  0-C ,  2-C ) :   0.4356 B(  0-C , 11-H ) :   0.9448
B(  0-C , 12-H ) :   1.0134 B(  1-C ,  2-C ) :   0.2360 B(  1-C ,  3-C ) :   1.7546
B(  1-C ,  5-N ) :   0.1173 B(  1-C ,  8-H ) :   0.8900 B(  2-C , 13-H ) :   0.9686
B(  2-C , 14-H ) :   0.9795 B(  2-C , 15-H ) :   0.9817 B(  3-C ,  4-N ) :   1.0467
B(  3-C ,  5-N ) :   0.9166 B(  4-N ,  9-H ) :   0.9659 B(  4-N , 10-H ) :   0.9383
B(  5-N ,  6-H ) :   1.0170 B(  5-N ,  7-H ) :   0.9204

Dispersion correction           -0.020987934
FINAL SINGLE POINT ENERGY      -267.864381017254

DIPOLE MOMENT
-------------
                                X             Y             Z
Electronic contribution:      3.17769       3.26173      -2.80494
Nuclear contribution   :     -3.27358      -3.61654       1.70633
                        -----------------------------------------
Total Dipole Moment    :     -0.09588      -0.35481      -1.09861
                        -----------------------------------------
Magnitude (a.u.)       :      1.15846
Magnitude (Debye)      :      2.94457

Rotational constants in cm-1:     0.231961     0.071249     0.059473
Rotational constants in MHz :  6954.024434  2135.976855  1782.962814

                             ****ORCA TERMINATED NORMALLY****
TOTAL RUN TIME: 0 days 0 hours 0 minutes 54 seconds 16 msec
