                         Program Version 5.0.0 -  RELEASE  -
|  1> !B3LYP D3BJ RIJCOSX def2-TZVPD def2/J TightSCF
|  2> *xyz 0 1
|  3> C          3.80351        1.37472       -3.26081
|  4> C          3.93993        0.32036       -4.36773
|  5> H          4.10504       -0.65508       -3.90773
|  6> H          3.02280        0.28052       -4.95712
|  7> C          5.10585        0.66802       -5.30546
|  8> O          4.80913        1.15019       -6.41436
|  9> F          6.26737        0.56500       -4.81948
| 10> H          3.64113        2.33595       -3.70189
| 11> H          4.69995        1.39701       -2.67703
| 12> H          2.97435        1.12625       -2.63180
| 13> *
| 14>
| 15> %MaxCore 64000
| 16>
| 17> %pal nprocs 4
| 18> end
| 19>
| 20> %scf
| 21>   MaxIter 150
| 22> end
| 23>
| 24>
| 25>                          ****END OF INPUT****

CARTESIAN COORDINATES (ANGSTROEM)
---------------------------------
  C      3.803510    1.374720   -3.260810
  C      3.939930    0.320360   -4.367730
  H      4.105040   -0.655080   -3.907730
  H      3.022800    0.280520   -4.957120
  C      5.105850    0.668020   -5.305460
  O      4.809130    1.150190   -6.414360
  F      6.267370    0.565000   -4.819480
  H      3.641130    2.335950   -3.701890
  H      4.699950    1.397010   -2.677030
  H      2.974350    1.126250   -2.631800

 Total Charge           Charge          ....    0
 Multiplicity           Mult            ....    1
 Number of Electrons    NEL             ....   40
 Basis Dimension        Dim             ....  236

ORBITAL ENERGIES
----------------

  NO   OCC          E(Eh)            E(eV)
   0   2.0000     -24.750783      -673.5030
   1   2.0000     -19.134189      -520.6678
   2   2.0000     -10.347408      -281.5673
   3   2.0000     -10.200049      -277.5574
   4   2.0000     -10.177575      -276.9459
   5   2.0000      -1.315602       -35.7993
   6   2.0000      -1.041279       -28.3346
   7   2.0000      -0.802440       -21.8355
   8   2.0000      -0.686193       -18.6723
   9   2.0000      -0.642206       -17.4753
  10   2.0000      -0.549014       -14.9394
  11   2.0000      -0.536355       -14.5950
  12   2.0000      -0.505757       -13.7624
  13   2.0000      -0.466354       -12.6901
  14   2.0000      -0.437912       -11.9162
  15   2.0000      -0.403893       -10.9905
  16   2.0000      -0.386516       -10.5176
  17   2.0000      -0.376698       -10.2505
  18   2.0000      -0.356355        -9.6969
  19   2.0000      -0.293036        -7.9739
  20   0.0000      -0.031838        -0.8664
  21   0.0000      -0.000033        -0.0009
  22   0.0000       0.027684         0.7533
  23   0.0000       0.038665         1.0521
  24   0.0000       0.047862         1.3024

MULLIKEN ATOMIC CHARGES
-----------------------
   0 C :   -1.124614
   1 C :   -0.053506
   2 H :    0.244258
   3 H :    0.203171
   4 C :    0.534275
   5 O :   -0.483292
   6 F :   -0.229355
   7 H :    0.336844
   8 H :    0.305429
   9 H :    0.266790
Sum of atomic charges:    0.0000000

LOEWDIN ATOMIC CHARGES
----------------------
   0 C :   -0.083539
   1 C :   -0.149156
   2 H :    0.110154
   3 H :    0.113691
   4 C :   -0.492169
   5 O :    0.089906
   6 F :    0.200186
   7 H :    0.074831
   8 H :    0.068420
   9 H :    0.067676

  Mayer bond orders larger than 0.100000
B(  0-C ,  1-C ) :   0.5796 B(  0-C ,  4-C ) :   0.1321 B(  0-C ,  7-H ) :   0.9501
B(  0-C ,  8-H ) :   0.9636 B(  0-C ,  9-H ) :   0.9740 B(  1-C ,  2-H ) :   0.9468
B(  1-C ,  3-H ) :   0.9995 B(  1-C ,  4-C ) :   0.8812 B(  4-C ,  5-O ) :   1.7478
B(  4-C ,  6-F ) :   0.9895

Dispersion correction           -0.010394963
FINAL SINGLE POINT ENERGY      -292.383511671493

DIPOLE MOMENT
-------------
                                X             Y             Z
Electronic contribution:      6.40492      -0.98841      -4.76516
Nuclear contribution   :     -6.76123       0.61881       5.86003
                        -----------------------------------------
Total Dipole Moment    :     -0.35631      -0.36961       1.09487
                        -----------------------------------------
Magnitude (a.u.)       :      1.20925
Magnitude (Debye)      :      3.07368

Rotational constants in cm-1:     0.275298     0.134631     0.105723
Rotational constants in MHz :  8253.224169  4036.137572  3169.487264

                             ****ORCA TERMINATED NORMALLY****
TOTAL RUN TIME: 0 days 0 hours 0 minutes 30 seconds 132 msec
