                         Program Version 5.0.0 -  RELEASE  -
|  1> !B3LYP D3BJ RIJCOSX def2-TZVPD def2/J TightSCF
|  2> *xyz 0 1
|  3> C          3.90595        2.81985       -3.75292
|  4> N          5.29562        3.13151       -4.10533
|  5> C          3.80351        1.37472       -3.26081
|  6> C          5.70862        3.46889       -5.32419
|  7> C          6.90470        3.03895       -5.71708
|  8> N          4.98188        4.29357       -6.09746
|  9> H          5.00055        4.10131       -7.08776
| 10> H          4.08469        4.59690       -5.73965
| 11> H          5.96336        2.52611       -3.64239
| 12> H          7.04716        2.06686       -5.47360
| 13> H          7.19815        3.30799       -6.64523
| 14> H          3.28202        2.94919       -4.64026
| 15> H          3.56525        3.51457       -2.98252
| 16> H          4.14157        0.71142       -4.02935
| 17> H          2.78528        1.15146       -3.01944
| 18> H          4.41205        1.25066       -2.38949
| 19> *
| 20>
| 21> %MaxCore 64000
| 22>
| 23> %pal nprocs 4
| 24> end
| 25>
| 26> %scf
| 27>   MaxIter 150
| 28> end
| 29>
| 30>
| 31>                          ****END OF INPUT****

CARTESIAN COORDINATES (ANGSTROEM)
---------------------------------
  C      3.905950    2.819850   -3.752920
  N      5.295620    3.131510   -4.105330
  C      3.803510    1.374720   -3.260810
  C      5.708620    3.468890   -5.324190
  C      6.904700    3.038950   -5.717080
  N      4.981880    4.293570   -6.097460
  H      5.000550    4.101310   -7.087760
  H      4.084690    4.596900   -5.739650
  H      5.963360    2.526110   -3.642390
  H      7.047160    2.066860   -5.473600
  H      7.198150    3.307990   -6.645230
  H      3.282020    2.949190   -4.640260
  H      3.565250    3.514570   -2.982520
  H      4.141570    0.711420   -4.029350
  H      2.785280    1.151460   -3.019440
  H      4.412050    1.250660   -2.389490

 Total Charge           Charge          ....    0
 Multiplicity           Mult            ....    1
 Number of Electrons    NEL             ....   48
 Basis Dimension        Dim             ....  312

ORBITAL ENERGIES
----------------

  NO   OCC          E(Eh)            E(eV)
   0   2.0000     -14.319392      -389.6505
   1   2.0000     -14.317588      -389.6014
   2   2.0000     -10.215499      -277.9778
   3   2.0000     -10.209073      -277.8030
   4   2.0000     -10.167182      -276.6631
   5   2.0000     -10.080913      -274.3156
   6   2.0000      -0.970592       -26.4112
   7   2.0000      -0.889244       -24.1976
   8   2.0000      -0.774138       -21.0654
   9   2.0000      -0.707401       -19.2494
  10   2.0000      -0.631357       -17.1801
  11   2.0000      -0.597177       -16.2500
  12   2.0000      -0.534572       -14.5464
  13   2.0000      -0.495901       -13.4941
  14   2.0000      -0.484376       -13.1805
  15   2.0000      -0.453770       -12.3477
  16   2.0000      -0.423720       -11.5300
  17   2.0000      -0.402365       -10.9489
  18   2.0000      -0.382078       -10.3969
  19   2.0000      -0.376421       -10.2429
  20   2.0000      -0.373275       -10.1573
  21   2.0000      -0.338735        -9.2174
  22   2.0000      -0.262359        -7.1392
  23   2.0000      -0.175147        -4.7660
  24   0.0000      -0.003746        -0.1019
  25   0.0000       0.016259         0.4424
  26   0.0000       0.027921         0.7598
  27   0.0000       0.034499         0.9388
  28   0.0000       0.052685         1.4336

MULLIKEN ATOMIC CHARGES
-----------------------
   0 C :   -0.245370
   1 N :   -0.193283
   2 C :   -1.209767
   3 C :    0.491188
   4 C :   -0.968917
   5 N :   -0.387665
   6 H :    0.188138
   7 H :    0.191392
   8 H :    0.190058
   9 H :    0.229234
  10 H :    0.269033
  11 H :    0.275487
  12 H :    0.212412
  13 H :    0.330657
  14 H :    0.309945
  15 H :    0.317459
Sum of atomic charges:   -0.0000000

LOEWDIN ATOMIC CHARGES
----------------------
   0 C :   -0.234710
   1 N :    0.019812
   2 C :   -0.082021
   3 C :   -0.570304
   4 C :   -0.001488
   5 N :    0.129317
   6 H :    0.106232
   7 H :    0.089771
   8 H :    0.127435
   9 H :    0.007086
  10 H :    0.002358
  11 H :    0.103044
  12 H :    0.105184
  13 H :    0.069538
  14 H :    0.063456
  15 H :    0.065290

  Mayer bond orders larger than 0.100000
B(  0-C ,  1-N ) :   0.8138 B(  0-C ,  2-C ) :   0.5509 B(  0-C , 11-H ) :   0.9037
B(  0-C , 12-H ) :   1.0019 B(  1-N ,  3-C ) :   1.1853 B(  1-N ,  8-H ) :   0.9047
B(  2-C , 13-H ) :   0.9895 B(  2-C , 14-H ) :   0.9683 B(  2-C , 15-H ) :   0.9656
B(  3-C ,  4-C ) :   1.3274 B(  3-C ,  5-N ) :   0.9830 B(  4-C ,  9-H ) :   1.0187
B(  4-C , 10-H ) :   1.1093 B(  5-N ,  6-H ) :   0.9696 B(  5-N ,  7-H ) :   0.9325

Dispersion correction           -0.020752750
FINAL SINGLE POINT ENERGY      -267.854005202942

DIPOLE MOMENT
-------------
                                X             Y             Z
Electronic contribution:      1.52809       3.24265      -1.26418
Nuclear contribution   :     -2.93222      -3.63618       1.36440
                        -----------------------------------------
Total Dipole Moment    :     -1.40413      -0.39353       0.10023
                        -----------------------------------------
Magnitude (a.u.)       :      1.46168
Magnitude (Debye)      :      3.71529

Rotational constants in cm-1:     0.237993     0.072843     0.061284
Rotational constants in MHz :  7134.860770  2183.763760  1837.240960

                             ****ORCA TERMINATED NORMALLY****
TOTAL RUN TIME: 0 days 0 hours 0 minutes 53 seconds 477 msec
