                         Program Version 5.0.0 -  RELEASE  -
|  1> !B3LYP D3BJ RIJCOSX def2-TZVPD def2/J TightSCF
|  2> *xyz 0 1
|  3> C          3.90595        2.81985       -3.75292
|  4> N          5.29562        3.13151       -4.10533
|  5> C          3.80351        1.37472       -3.26081
|  6> C          5.70862        3.46889       -5.32419
|  7> N          6.90470        3.03895       -5.71708
|  8> C          4.98188        4.29357       -6.09746
|  9> H          5.00055        4.10131       -7.08776
| 10> H          4.08469        4.59690       -5.73965
| 11> H          5.96336        2.52611       -3.64239
| 12> H          7.04716        2.06686       -5.47360
| 13> H          7.19815        3.30799       -6.64523
| 14> H          3.28202        2.94919       -4.64026
| 15> H          3.56525        3.51457       -2.98252
| 16> H          4.14157        0.71142       -4.02935
| 17> H          2.78528        1.15146       -3.01944
| 18> H          4.41205        1.25066       -2.38949
| 19> *
| 20>
| 21> %MaxCore 64000
| 22>
| 23> %pal nprocs 4
| 24> end
| 25>
| 26> %scf
| 27>   MaxIter 150
| 28> end
| 29>
| 30>
| 31>                          ****END OF INPUT****

CARTESIAN COORDINATES (ANGSTROEM)
---------------------------------
  C      3.905950    2.819850   -3.752920
  N      5.295620    3.131510   -4.105330
  C      3.803510    1.374720   -3.260810
  C      5.708620    3.468890   -5.324190
  N      6.904700    3.038950   -5.717080
  C      4.981880    4.293570   -6.097460
  H      5.000550    4.101310   -7.087760
  H      4.084690    4.596900   -5.739650
  H      5.963360    2.526110   -3.642390
  H      7.047160    2.066860   -5.473600
  H      7.198150    3.307990   -6.645230
  H      3.282020    2.949190   -4.640260
  H      3.565250    3.514570   -2.982520
  H      4.141570    0.711420   -4.029350
  H      2.785280    1.151460   -3.019440
  H      4.412050    1.250660   -2.389490

 Total Charge           Charge          ....    0
 Multiplicity           Mult            ....    1
 Number of Electrons    NEL             ....   48
 Basis Dimension        Dim             ....  312

ORBITAL ENERGIES
----------------

  NO   OCC          E(Eh)            E(eV)
   0   2.0000     -14.319951      -389.6657
   1   2.0000     -14.318442      -389.6246
   2   2.0000     -10.214498      -277.9506
   3   2.0000     -10.203692      -277.6566
   4   2.0000     -10.165115      -276.6069
   5   2.0000     -10.086468      -274.4667
   6   2.0000      -0.975617       -26.5479
   7   2.0000      -0.891001       -24.2454
   8   2.0000      -0.763366       -20.7722
   9   2.0000      -0.708992       -19.2927
  10   2.0000      -0.644600       -17.5405
  11   2.0000      -0.568222       -15.4621
  12   2.0000      -0.537153       -14.6167
  13   2.0000      -0.518270       -14.1028
  14   2.0000      -0.472211       -12.8495
  15   2.0000      -0.457974       -12.4621
  16   2.0000      -0.406397       -11.0586
  17   2.0000      -0.403589       -10.9822
  18   2.0000      -0.394451       -10.7336
  19   2.0000      -0.375532       -10.2188
  20   2.0000      -0.365179        -9.9370
  21   2.0000      -0.340460        -9.2644
  22   2.0000      -0.260152        -7.0791
  23   2.0000      -0.178643        -4.8611
  24   0.0000      -0.004021        -0.1094
  25   0.0000       0.018344         0.4992
  26   0.0000       0.029460         0.8016
  27   0.0000       0.036825         1.0021
  28   0.0000       0.048690         1.3249

MULLIKEN ATOMIC CHARGES
-----------------------
   0 C :   -0.209947
   1 N :   -0.182912
   2 C :   -1.212774
   3 C :    0.478614
   4 N :   -0.400657
   5 C :   -1.049003
   6 H :    0.193749
   7 H :    0.352273
   8 H :    0.208973
   9 H :    0.173006
  10 H :    0.197021
  11 H :    0.280587
  12 H :    0.219787
  13 H :    0.325509
  14 H :    0.311624
  15 H :    0.314151
Sum of atomic charges:   -0.0000000

LOEWDIN ATOMIC CHARGES
----------------------
   0 C :   -0.227937
   1 N :    0.020835
   2 C :   -0.084483
   3 C :   -0.577491
   4 N :    0.117857
   5 C :    0.013319
   6 H :    0.004332
   7 H :    0.000407
   8 H :    0.123267
   9 H :    0.096850
  10 H :    0.103886
  11 H :    0.106937
  12 H :    0.109507
  13 H :    0.066179
  14 H :    0.064060
  15 H :    0.062474

  Mayer bond orders larger than 0.100000
B(  0-C ,  1-N ) :   0.8204 B(  0-C ,  2-C ) :   0.4926 B(  0-C , 11-H ) :   0.9151
B(  0-C , 12-H ) :   0.9829 B(  1-N ,  3-C ) :   1.0722 B(  1-N ,  8-H ) :   0.9028
B(  2-C , 13-H ) :   0.9960 B(  2-C , 14-H ) :   0.9676 B(  2-C , 15-H ) :   0.9710
B(  3-C ,  4-N ) :   1.0254 B(  3-C ,  5-C ) :   1.3993 B(  4-N ,  9-H ) :   0.9781
B(  4-N , 10-H ) :   0.9373 B(  5-C ,  6-H ) :   1.1524 B(  5-C ,  7-H ) :   0.8838

Dispersion correction           -0.020819231
FINAL SINGLE POINT ENERGY      -267.858630210589

DIPOLE MOMENT
-------------
                                X             Y             Z
Electronic contribution:      3.37341       2.08416      -0.97567
Nuclear contribution   :     -3.34013      -3.37002       1.28371
                        -----------------------------------------
Total Dipole Moment    :      0.03327      -1.28585       0.30804
                        -----------------------------------------
Magnitude (a.u.)       :      1.32266
Magnitude (Debye)      :      3.36192

Rotational constants in cm-1:     0.239537     0.072280     0.060961
Rotational constants in MHz :  7181.153552  2166.902802  1827.551447

                             ****ORCA TERMINATED NORMALLY****
TOTAL RUN TIME: 0 days 0 hours 0 minutes 53 seconds 690 msec
