                         Program Version 5.0.0 -  RELEASE  -
|  1> !B3LYP D3BJ RIJCOSX def2-TZVPD def2/J TightSCF xyzfile
|  2>
|  3> *xyzfile 0 1 D1.xyz
|  4>
|  5> %MaxCore 64000
|  6>
|  7> %pal nprocs 4
|  8> end
|  9>
| 10> %scf
| 11>   MaxIter 150
| 12> end
| 13>
| 14>
| 15>                          ****END OF INPUT****

CARTESIAN COORDINATES (ANGSTROEM)
---------------------------------
  C      3.905947    2.819855   -3.752920
  C      5.295615    3.131515   -4.105334
  C      3.803511    1.374716   -3.260807
  C      3.939934    0.320362   -4.367729
  H      4.105043   -0.655085   -3.907733
  H      3.022801    0.280517   -4.957117
  C      5.105846    0.668022   -5.305463
  C      5.708619    3.468885   -5.324190
  N      6.904696    3.038954   -5.717084
  N      4.981884    4.293570   -6.097457
  H      5.000546    4.101311   -7.087761
  H      4.084693    4.596899   -5.739652
  H      5.963358    2.526112   -3.642391
  H      7.047164    2.066861   -5.473604
  H      7.198145    3.307994   -6.645225
  H      3.282025    2.949187   -4.640259
  H      3.565254    3.514574   -2.982523
  H      4.574833    1.215157   -2.500443
  H      2.843514    1.260845   -2.751465
  F      4.809132    1.150187   -6.414361
  O      6.267366    0.564999   -4.819481

 Total Charge           Charge          ....    0
 Multiplicity           Mult            ....    1
 Number of Electrons    NEL             ....   78
 Basis Dimension        Dim             ....  475

ORBITAL ENERGIES
----------------

  NO   OCC          E(Eh)            E(eV)
   0   2.0000     -24.760577      -673.7696
   1   2.0000     -19.132912      -520.6330
   2   2.0000     -14.318990      -389.6395
   3   2.0000     -14.297775      -389.0622
   4   2.0000     -10.354640      -281.7641
   5   2.0000     -10.209634      -277.8183
   6   2.0000     -10.197010      -277.4747
   7   2.0000     -10.175752      -276.8963
   8   2.0000     -10.158282      -276.4209
   9   2.0000     -10.096454      -274.7385
  10   2.0000      -1.333783       -36.2941
  11   2.0000      -1.039948       -28.2984
  12   2.0000      -0.960642       -26.1404
  13   2.0000      -0.871576       -23.7168
  14   2.0000      -0.817356       -22.2414
  15   2.0000      -0.752345       -20.4723
  16   2.0000      -0.696395       -18.9499
  17   2.0000      -0.662340       -18.0232
  18   2.0000      -0.609786       -16.5931
  19   2.0000      -0.579457       -15.7678
  20   2.0000      -0.559603       -15.2276
  21   2.0000      -0.543082       -14.7780
  22   2.0000      -0.534430       -14.5426
  23   2.0000      -0.520166       -14.1544
  24   2.0000      -0.502785       -13.6815
  25   2.0000      -0.468508       -12.7487
  26   2.0000      -0.460718       -12.5368
  27   2.0000      -0.442361       -12.0373
  28   2.0000      -0.431825       -11.7506
  29   2.0000      -0.399577       -10.8730
  30   2.0000      -0.387052       -10.5322
  31   2.0000      -0.369645       -10.0585
  32   2.0000      -0.363612        -9.8944
  33   2.0000      -0.348911        -9.4943
  34   2.0000      -0.337191        -9.1754
  35   2.0000      -0.323967        -8.8156
  36   2.0000      -0.300407        -8.1745
  37   2.0000      -0.265994        -7.2381
  38   2.0000      -0.173015        -4.7080
  39   0.0000      -0.039803        -1.0831
  40   0.0000      -0.004438        -0.1208
  41   0.0000       0.014527         0.3953
  42   0.0000       0.023048         0.6272
  43   0.0000       0.030523         0.8306

MULLIKEN ATOMIC CHARGES
-----------------------
   0 C :   -0.145003
   1 C :   -0.459448
   2 C :   -0.556101
   3 C :   -0.495068
   4 H :    0.231669
   5 H :    0.261388
   6 C :    0.946970
   7 C :   -0.152131
   8 N :   -0.375510
   9 N :   -0.425373
  10 H :    0.145255
  11 H :    0.205783
  12 H :    0.430245
  13 H :    0.299781
  14 H :    0.166637
  15 H :    0.265013
  16 H :    0.101448
  17 H :    0.260889
  18 H :    0.198563
  19 F :   -0.283623
  20 O :   -0.621387
Sum of atomic charges:   -0.0000000

LOEWDIN ATOMIC CHARGES
----------------------
   0 C :   -0.218115
   1 C :   -0.125948
   2 C :   -0.184013
   3 C :   -0.082955
   4 H :    0.120807
   5 H :    0.112328
   6 C :   -0.470601
   7 C :   -0.564849
   8 N :    0.138194
   9 N :    0.138447
  10 H :    0.094970
  11 H :    0.099380
  12 H :    0.070117
  13 H :    0.064174
  14 H :    0.102034
  15 H :    0.103781
  16 H :    0.103461
  17 H :    0.118164
  18 H :    0.108179
  19 F :    0.226283
  20 O :    0.046161

  Mayer bond orders larger than 0.100000
B(  0-C ,  1-C ) :   0.5893 B(  0-C ,  2-C ) :   0.7860 B(  0-C , 15-H ) :   0.8879
B(  0-C , 16-H ) :   1.1208 B(  1-C ,  2-C ) :   0.1684 B(  1-C ,  7-C ) :   1.6985
B(  1-C , 12-H ) :   0.9125 B(  2-C ,  3-C ) :   0.9276 B(  2-C , 17-H ) :   0.9093
B(  2-C , 18-H ) :   1.0176 B(  3-C ,  4-H ) :   0.9266 B(  3-C ,  5-H ) :   0.9582
B(  3-C ,  6-C ) :   0.9086 B(  6-C , 19-F ) :   0.8715 B(  6-C , 20-O ) :   1.4997
B(  7-C ,  8-N ) :   0.9437 B(  7-C ,  9-N ) :   0.8103 B(  8-N , 13-H ) :   0.7932
B(  8-N , 14-H ) :   0.9271 B(  9-N , 10-H ) :   0.9920 B(  9-N , 11-H ) :   0.9192

Dispersion correction           -0.037840045
FINAL SINGLE POINT ENERGY      -519.741170135567

DIPOLE MOMENT
-------------
                                X             Y             Z
Electronic contribution:      3.42088      -3.61295      -6.43266
Nuclear contribution   :     -4.60158       3.22721       5.56005
                        -----------------------------------------
Total Dipole Moment    :     -1.18070      -0.38574      -0.87261
                        -----------------------------------------
Magnitude (a.u.)       :      1.51799
Magnitude (Debye)      :      3.85843

Rotational constants in cm-1:     0.061224     0.042534     0.033552
Rotational constants in MHz :  1835.464095  1275.135177  1005.856966

                             ****ORCA TERMINATED NORMALLY****
TOTAL RUN TIME: 0 days 0 hours 2 minutes 43 seconds 253 msec
