                         Program Version 5.0.0 -  RELEASE  -
|  1> !B3LYP D3BJ RIJCOSX def2-TZVPD def2/J TightSCF xyzfile
|  2>
|  3> *xyzfile 0 1 D2.xyz
|  4>
|  5> %MaxCore 64000
|  6>
|  7> %pal nprocs 4
|  8> end
|  9>
| 10> %scf
| 11>   MaxIter 150
| 12> end
| 13>
| 14>
| 15>                          ****END OF INPUT****

CARTESIAN COORDINATES (ANGSTROEM)
---------------------------------
  C      3.905947    2.819855   -3.752920
  N      5.295615    3.131515   -4.105334
  C      3.803511    1.374716   -3.260807
  C      3.939934    0.320362   -4.367729
  H      4.105043   -0.655085   -3.907733
  H      3.022801    0.280517   -4.957117
  C      5.105846    0.668022   -5.305463
  C      5.708619    3.468885   -5.324190
  C      6.904696    3.038954   -5.717084
  N      4.981884    4.293570   -6.097457
  H      5.000546    4.101311   -7.087761
  H      4.084693    4.596899   -5.739652
  H      5.963358    2.526112   -3.642391
  H      7.047164    2.066861   -5.473604
  H      7.198145    3.307994   -6.645225
  H      3.282025    2.949187   -4.640259
  H      3.565254    3.514574   -2.982523
  H      4.574833    1.215157   -2.500443
  H      2.843514    1.260845   -2.751465
  F      4.809132    1.150187   -6.414361
  O      6.267366    0.564999   -4.819481

 Total Charge           Charge          ....    0
 Multiplicity           Mult            ....    1
 Number of Electrons    NEL             ....   78
 Basis Dimension        Dim             ....  475

ORBITAL ENERGIES
----------------

  NO   OCC          E(Eh)            E(eV)
   0   2.0000     -24.760980      -673.7805
   1   2.0000     -19.133354      -520.6450
   2   2.0000     -14.317098      -389.5880
   3   2.0000     -14.314818      -389.5260
   4   2.0000     -10.356420      -281.8125
   5   2.0000     -10.217228      -278.0249
   6   2.0000     -10.208964      -277.8000
   7   2.0000     -10.205829      -277.7147
   8   2.0000     -10.199609      -277.5455
   9   2.0000     -10.064075      -273.8574
  10   2.0000      -1.333867       -36.2964
  11   2.0000      -1.040328       -28.3088
  12   2.0000      -0.969832       -26.3905
  13   2.0000      -0.889752       -24.2114
  14   2.0000      -0.819761       -22.3068
  15   2.0000      -0.744721       -20.2649
  16   2.0000      -0.701339       -19.0844
  17   2.0000      -0.667419       -18.1614
  18   2.0000      -0.622969       -16.9518
  19   2.0000      -0.595500       -16.2044
  20   2.0000      -0.563319       -15.3287
  21   2.0000      -0.548413       -14.9231
  22   2.0000      -0.536150       -14.5894
  23   2.0000      -0.512685       -13.9509
  24   2.0000      -0.498359       -13.5610
  25   2.0000      -0.483480       -13.1562
  26   2.0000      -0.470225       -12.7955
  27   2.0000      -0.443987       -12.0815
  28   2.0000      -0.420380       -11.4391
  29   2.0000      -0.406674       -11.0662
  30   2.0000      -0.396413       -10.7869
  31   2.0000      -0.393076       -10.6962
  32   2.0000      -0.370309       -10.0766
  33   2.0000      -0.369638       -10.0584
  34   2.0000      -0.346238        -9.4216
  35   2.0000      -0.337582        -9.1861
  36   2.0000      -0.285214        -7.7611
  37   2.0000      -0.259980        -7.0744
  38   2.0000      -0.166743        -4.5373
  39   0.0000      -0.044592        -1.2134
  40   0.0000      -0.008402        -0.2286
  41   0.0000       0.010148         0.2761
  42   0.0000       0.017210         0.4683
  43   0.0000       0.025392         0.6910

MULLIKEN ATOMIC CHARGES
-----------------------
   0 C :   -0.526274
   1 N :   -0.229585
   2 C :   -0.496304
   3 C :   -0.409455
   4 H :    0.222404
   5 H :    0.266005
   6 C :    0.845562
   7 C :    0.389734
   8 C :   -1.080828
   9 N :   -0.463601
  10 H :    0.182037
  11 H :    0.193015
  12 H :    0.240123
  13 H :    0.528084
  14 H :    0.249971
  15 H :    0.289289
  16 H :    0.179602
  17 H :    0.259941
  18 H :    0.200994
  19 F :   -0.268930
  20 O :   -0.571785
Sum of atomic charges:   -0.0000000

LOEWDIN ATOMIC CHARGES
----------------------
   0 C :   -0.178308
   1 N :    0.038435
   2 C :   -0.170716
   3 C :   -0.083795
   4 H :    0.121864
   5 H :    0.113054
   6 C :   -0.471552
   7 C :   -0.582427
   8 C :    0.007394
   9 N :    0.135079
  10 H :    0.105761
  11 H :    0.089172
  12 H :    0.130532
  13 H :   -0.012135
  14 H :    0.017318
  15 H :    0.112780
  16 H :    0.111483
  17 H :    0.118231
  18 H :    0.111411
  19 F :    0.233459
  20 O :    0.052960

  Mayer bond orders larger than 0.100000
B(  0-C ,  1-N ) :   0.8032 B(  0-C ,  2-C ) :   0.8579 B(  0-C ,  7-C ) :  -0.1284
B(  0-C , 15-H ) :   0.9126 B(  0-C , 16-H ) :   1.0480 B(  1-N ,  7-C ) :   1.0016
B(  1-N , 12-H ) :   0.8319 B(  2-C ,  3-C ) :   0.8934 B(  2-C , 17-H ) :   0.9252
B(  2-C , 18-H ) :   1.0285 B(  3-C ,  4-H ) :   0.9444 B(  3-C ,  5-H ) :   0.9600
B(  3-C ,  6-C ) :   0.9234 B(  6-C , 19-F ) :   0.9001 B(  6-C , 20-O ) :   1.6016
B(  7-C ,  8-C ) :   1.5382 B(  7-C ,  9-N ) :   0.8013 B(  7-C , 14-H ) :  -0.1401
B(  8-C , 13-H ) :   0.6934 B(  8-C , 14-H ) :   1.2921 B(  9-N , 10-H ) :   0.9606
B(  9-N , 11-H ) :   0.9311

Dispersion correction           -0.037581372
FINAL SINGLE POINT ENERGY      -519.712632676330

DIPOLE MOMENT
-------------
                                X             Y             Z
Electronic contribution:      2.09190      -3.77316      -5.17450
Nuclear contribution   :     -4.40347       3.21582       5.36161
                        -----------------------------------------
Total Dipole Moment    :     -2.31157      -0.55734       0.18711
                        -----------------------------------------
Magnitude (a.u.)       :      2.38517
Magnitude (Debye)      :      6.06261

Rotational constants in cm-1:     0.061226     0.043199     0.033926
Rotational constants in MHz :  1835.503528  1295.087558  1017.061512

                             ****ORCA TERMINATED NORMALLY****
TOTAL RUN TIME: 0 days 0 hours 3 minutes 2 seconds 742 msec
