                         Program Version 5.0.0 -  RELEASE  -
|  1> !B3LYP D3BJ RIJCOSX def2-TZVPD def2/J TightSCF xyzfile
|  2>
|  3> *xyzfile 0 1 D3.xyz
|  4>
|  5> %MaxCore 64000
|  6>
|  7> %pal nprocs 4
|  8> end
|  9>
| 10> %scf
| 11>   MaxIter 150
| 12> end
| 13>
| 14>
| 15>                          ****END OF INPUT****

CARTESIAN COORDINATES (ANGSTROEM)
---------------------------------
  C      3.905947    2.819855   -3.752920
  N      5.295615    3.131515   -4.105334
  C      3.803511    1.374716   -3.260807
  C      3.939934    0.320362   -4.367729
  H      4.105043   -0.655085   -3.907733
  H      3.022801    0.280517   -4.957117
  C      5.105846    0.668022   -5.305463
  C      5.708619    3.468885   -5.324190
  N      6.904696    3.038954   -5.717084
  C      4.981884    4.293570   -6.097457
  H      5.000546    4.101311   -7.087761
  H      4.084693    4.596899   -5.739652
  H      5.963358    2.526112   -3.642391
  H      7.047164    2.066861   -5.473604
  H      7.198145    3.307994   -6.645225
  H      3.282025    2.949187   -4.640259
  H      3.565254    3.514574   -2.982523
  H      4.574833    1.215157   -2.500443
  H      2.843514    1.260845   -2.751465
  F      4.809132    1.150187   -6.414361
  O      6.267366    0.564999   -4.819481

 Total Charge           Charge          ....    0
 Multiplicity           Mult            ....    1
 Number of Electrons    NEL             ....   78
 Basis Dimension        Dim             ....  475

ORBITAL ENERGIES
----------------

  NO   OCC          E(Eh)            E(eV)
   0   2.0000     -24.771708      -674.0724
   1   2.0000     -19.151100      -521.1279
   2   2.0000     -14.319434      -389.6516
   3   2.0000     -14.295885      -389.0108
   4   2.0000     -10.371898      -282.2337
   5   2.0000     -10.214672      -277.9554
   6   2.0000     -10.214144      -277.9410
   7   2.0000     -10.208355      -277.7835
   8   2.0000     -10.201033      -277.5842
   9   2.0000     -10.080886      -274.3148
  10   2.0000      -1.344387       -36.5826
  11   2.0000      -1.058601       -28.8060
  12   2.0000      -0.971155       -26.4265
  13   2.0000      -0.887438       -24.1484
  14   2.0000      -0.819435       -22.2980
  15   2.0000      -0.739931       -20.1345
  16   2.0000      -0.704657       -19.1747
  17   2.0000      -0.681039       -18.5320
  18   2.0000      -0.635234       -17.2856
  19   2.0000      -0.573745       -15.6124
  20   2.0000      -0.569298       -15.4914
  21   2.0000      -0.558402       -15.1949
  22   2.0000      -0.542516       -14.7626
  23   2.0000      -0.516223       -14.0471
  24   2.0000      -0.505060       -13.7434
  25   2.0000      -0.484384       -13.1808
  26   2.0000      -0.474910       -12.9230
  27   2.0000      -0.438169       -11.9232
  28   2.0000      -0.429809       -11.6957
  29   2.0000      -0.409957       -11.1555
  30   2.0000      -0.394080       -10.7235
  31   2.0000      -0.392784       -10.6882
  32   2.0000      -0.379143       -10.3170
  33   2.0000      -0.372770       -10.1436
  34   2.0000      -0.360813        -9.8182
  35   2.0000      -0.334177        -9.0934
  36   2.0000      -0.315159        -8.5759
  37   2.0000      -0.253807        -6.9064
  38   2.0000      -0.172802        -4.7022
  39   0.0000      -0.057562        -1.5663
  40   0.0000      -0.005218        -0.1420
  41   0.0000       0.016277         0.4429
  42   0.0000       0.019757         0.5376
  43   0.0000       0.025712         0.6997

MULLIKEN ATOMIC CHARGES
-----------------------
   0 C :   -0.500783
   1 N :   -0.204504
   2 C :   -0.522370
   3 C :   -0.428126
   4 H :    0.229367
   5 H :    0.272227
   6 C :    0.909959
   7 C :    0.308855
   8 N :   -0.390243
   9 C :   -1.238223
  10 H :    0.290237
  11 H :    0.387133
  12 H :    0.275950
  13 H :    0.330990
  14 H :    0.190243
  15 H :    0.305268
  16 H :    0.196600
  17 H :    0.261951
  18 H :    0.192766
  19 F :   -0.237627
  20 O :   -0.629669
Sum of atomic charges:    0.0000000

LOEWDIN ATOMIC CHARGES
----------------------
   0 C :   -0.170089
   1 N :    0.038692
   2 C :   -0.168924
   3 C :   -0.081117
   4 H :    0.122689
   5 H :    0.115668
   6 C :   -0.464355
   7 C :   -0.591799
   8 N :    0.135714
   9 C :    0.008294
  10 H :    0.007293
  11 H :    0.000463
  12 H :    0.126662
  13 H :    0.056250
  14 H :    0.110316
  15 H :    0.116972
  16 H :    0.116023
  17 H :    0.116433
  18 H :    0.113271
  19 F :    0.242462
  20 O :    0.049083

  Mayer bond orders larger than 0.100000
B(  0-C ,  1-N ) :   0.8127 B(  0-C ,  2-C ) :   0.8410 B(  0-C ,  9-C ) :   0.1058
B(  0-C , 15-H ) :   0.9211 B(  0-C , 16-H ) :   0.9969 B(  1-N ,  7-C ) :   1.0568
B(  1-N , 12-H ) :   0.7735 B(  2-C ,  3-C ) :   0.8893 B(  2-C , 17-H ) :   0.9183
B(  2-C , 18-H ) :   1.0343 B(  3-C ,  4-H ) :   0.9392 B(  3-C ,  5-H ) :   0.9566
B(  3-C ,  6-C ) :   0.9351 B(  6-C , 19-F ) :   0.9352 B(  6-C , 20-O ) :   1.4577
B(  7-C ,  8-N ) :   0.9064 B(  7-C ,  9-C ) :   1.4213 B(  7-C , 10-H ) :  -0.1008
B(  8-N , 13-H ) :   0.7610 B(  8-N , 14-H ) :   0.9146 B(  9-C , 10-H ) :   1.0158
B(  9-C , 11-H ) :   0.9137

Dispersion correction           -0.037553149
FINAL SINGLE POINT ENERGY      -519.731612347758

DIPOLE MOMENT
-------------
                                X             Y             Z
Electronic contribution:      3.57049      -4.85333      -4.86724
Nuclear contribution   :     -4.64021       3.37029       5.31478
                        -----------------------------------------
Total Dipole Moment    :     -1.06972      -1.48305       0.44755
                        -----------------------------------------
Magnitude (a.u.)       :      1.88256
Magnitude (Debye)      :      4.78508

Rotational constants in cm-1:     0.061077     0.043622     0.034103
Rotational constants in MHz :  1831.041375  1307.759852  1022.388536

                             ****ORCA TERMINATED NORMALLY****
TOTAL RUN TIME: 0 days 0 hours 2 minutes 53 seconds 513 msec
