                         Program Version 5.0.0 -  RELEASE  -
|  1> !B3LYP D3BJ RIJCOSX def2-TZVPD def2/J TightSCF xyzfile
|  2>
|  3> *xyzfile 0 1 D4.xyz
|  4>
|  5> %MaxCore 64000
|  6>
|  7> %pal nprocs 4
|  8> end
|  9>
| 10> %scf
| 11>   MaxIter 150
| 12> end
| 13>
| 14>
| 15>                          ****END OF INPUT****

CARTESIAN COORDINATES (ANGSTROEM)
---------------------------------
  C      3.905947    2.819855   -3.752920
  C      5.295615    3.131515   -4.105334
  C      3.803511    1.374716   -3.260807
  C      3.939934    0.320362   -4.367729
  H      4.105043   -0.655085   -3.907733
  H      3.022801    0.280517   -4.957117
  C      5.105846    0.668022   -5.305463
  C      5.708619    3.468885   -5.324190
  N      6.904696    3.038954   -5.717084
  N      4.981884    4.293570   -6.097457
  H      5.000546    4.101311   -7.087761
  H      4.084693    4.596899   -5.739652
  H      5.963358    2.526112   -3.642391
  H      7.047164    2.066861   -5.473604
  H      7.198145    3.307994   -6.645225
  H      3.282025    2.949187   -4.640259
  H      3.565254    3.514574   -2.982523
  H      4.574833    1.215157   -2.500443
  H      2.843514    1.260845   -2.751465
  O      4.809132    1.150187   -6.414361
  F      6.267366    0.564999   -4.819481

 Total Charge           Charge          ....    0
 Multiplicity           Mult            ....    1
 Number of Electrons    NEL             ....   78
 Basis Dimension        Dim             ....  475

ORBITAL ENERGIES
----------------

  NO   OCC          E(Eh)            E(eV)
   0   2.0000     -24.757421      -673.6837
   1   2.0000     -19.130136      -520.5575
   2   2.0000     -14.317127      -389.5888
   3   2.0000     -14.306322      -389.2948
   4   2.0000     -10.347568      -281.5716
   5   2.0000     -10.212607      -277.8992
   6   2.0000     -10.194097      -277.3955
   7   2.0000     -10.175874      -276.8996
   8   2.0000     -10.155763      -276.3524
   9   2.0000     -10.097481      -274.7664
  10   2.0000      -1.326163       -36.0867
  11   2.0000      -1.042013       -28.3546
  12   2.0000      -0.962133       -26.1810
  13   2.0000      -0.874060       -23.7844
  14   2.0000      -0.816750       -22.2249
  15   2.0000      -0.751143       -20.4396
  16   2.0000      -0.695220       -18.9179
  17   2.0000      -0.660128       -17.9630
  18   2.0000      -0.609542       -16.5865
  19   2.0000      -0.589045       -16.0287
  20   2.0000      -0.555744       -15.1226
  21   2.0000      -0.544002       -14.8030
  22   2.0000      -0.528939       -14.3932
  23   2.0000      -0.510253       -13.8847
  24   2.0000      -0.501216       -13.6388
  25   2.0000      -0.469603       -12.7786
  26   2.0000      -0.463829       -12.6214
  27   2.0000      -0.443164       -12.0591
  28   2.0000      -0.429896       -11.6981
  29   2.0000      -0.399649       -10.8750
  30   2.0000      -0.384733       -10.4691
  31   2.0000      -0.372834       -10.1453
  32   2.0000      -0.364729        -9.9248
  33   2.0000      -0.347154        -9.4465
  34   2.0000      -0.338153        -9.2016
  35   2.0000      -0.329015        -8.9530
  36   2.0000      -0.291957        -7.9445
  37   2.0000      -0.266750        -7.2586
  38   2.0000      -0.175049        -4.7633
  39   0.0000      -0.031637        -0.8609
  40   0.0000       0.000613         0.0167
  41   0.0000       0.014199         0.3864
  42   0.0000       0.023641         0.6433
  43   0.0000       0.030183         0.8213

MULLIKEN ATOMIC CHARGES
-----------------------
   0 C :   -0.050121
   1 C :   -0.592704
   2 C :   -0.644367
   3 C :   -0.482379
   4 H :    0.263019
   5 H :    0.233768
   6 C :    0.898737
   7 C :   -0.044832
   8 N :   -0.372900
   9 N :   -0.425426
  10 H :    0.145118
  11 H :    0.209885
  12 H :    0.489408
  13 H :    0.267977
  14 H :    0.165135
  15 H :    0.255598
  16 H :    0.099324
  17 H :    0.266675
  18 H :    0.195199
  19 O :   -0.568644
  20 F :   -0.308469
Sum of atomic charges:    0.0000000

LOEWDIN ATOMIC CHARGES
----------------------
   0 C :   -0.217305
   1 C :   -0.134808
   2 C :   -0.188208
   3 C :   -0.083941
   4 H :    0.114379
   5 H :    0.120218
   6 C :   -0.485014
   7 C :   -0.561926
   8 N :    0.140434
   9 N :    0.151176
  10 H :    0.100190
  11 H :    0.102009
  12 H :    0.066082
  13 H :    0.079348
  14 H :    0.105976
  15 H :    0.107129
  16 H :    0.102950
  17 H :    0.113801
  18 H :    0.108210
  19 O :    0.083342
  20 F :    0.175959

  Mayer bond orders larger than 0.100000
B(  0-C ,  1-C ) :   0.6043 B(  0-C ,  2-C ) :   0.7531 B(  0-C , 15-H ) :   0.8789
B(  0-C , 16-H ) :   1.1300 B(  1-C ,  2-C ) :   0.2187 B(  1-C ,  7-C ) :   1.6575
B(  1-C ,  9-N ) :   0.1020 B(  1-C , 12-H ) :   0.8430 B(  2-C ,  3-C ) :   0.9338
B(  2-C , 17-H ) :   0.9235 B(  2-C , 18-H ) :   1.0169 B(  3-C ,  4-H ) :   0.9248
B(  3-C ,  5-H ) :   0.9706 B(  3-C ,  6-C ) :   0.9144 B(  6-C , 19-O ) :   1.5893
B(  6-C , 20-F ) :   0.7845 B(  7-C ,  8-N ) :   0.9658 B(  7-C ,  9-N ) :   0.8290
B(  8-N , 13-H ) :   0.8434 B(  8-N , 14-H ) :   0.9117 B(  9-N , 10-H ) :   0.9845
B(  9-N , 11-H ) :   0.9164

Dispersion correction           -0.037900227
FINAL SINGLE POINT ENERGY      -519.742347456351

DIPOLE MOMENT
-------------
                                X             Y             Z
Electronic contribution:      5.84065      -4.48909      -3.89542
Nuclear contribution   :     -6.25608       3.89116       3.75052
                        -----------------------------------------
Total Dipole Moment    :     -0.41543      -0.59793      -0.14490
                        -----------------------------------------
Magnitude (a.u.)       :      0.74236
Magnitude (Debye)      :      1.88693

Rotational constants in cm-1:     0.061229     0.042568     0.033282
Rotational constants in MHz :  1835.590871  1276.154029   997.769927

                             ****ORCA TERMINATED NORMALLY****
TOTAL RUN TIME: 0 days 0 hours 2 minutes 32 seconds 967 msec
