                         Program Version 5.0.0 -  RELEASE  -
|  1> !B3LYP D3BJ RIJCOSX def2-TZVPD def2/J TightSCF xyzfile
|  2>
|  3> *xyzfile 0 1 D5.xyz
|  4>
|  5> %MaxCore 64000
|  6>
|  7> %pal nprocs 4
|  8> end
|  9>
| 10> %scf
| 11>   MaxIter 150
| 12> end
| 13>
| 14>
| 15>                          ****END OF INPUT****

CARTESIAN COORDINATES (ANGSTROEM)
---------------------------------
  C      3.905947    2.819855   -3.752920
  N      5.295615    3.131515   -4.105334
  C      3.803511    1.374716   -3.260807
  C      3.939934    0.320362   -4.367729
  H      4.105043   -0.655085   -3.907733
  H      3.022801    0.280517   -4.957117
  C      5.105846    0.668022   -5.305463
  C      5.708619    3.468885   -5.324190
  C      6.904696    3.038954   -5.717084
  N      4.981884    4.293570   -6.097457
  H      5.000546    4.101311   -7.087761
  H      4.084693    4.596899   -5.739652
  H      5.963358    2.526112   -3.642391
  H      7.047164    2.066861   -5.473604
  H      7.198145    3.307994   -6.645225
  H      3.282025    2.949187   -4.640259
  H      3.565254    3.514574   -2.982523
  H      4.574833    1.215157   -2.500443
  H      2.843514    1.260845   -2.751465
  O      4.809132    1.150187   -6.414361
  F      6.267366    0.564999   -4.819481

 Total Charge           Charge          ....    0
 Multiplicity           Mult            ....    1
 Number of Electrons    NEL             ....   78
 Basis Dimension        Dim             ....  475

ORBITAL ENERGIES
----------------

  NO   OCC          E(Eh)            E(eV)
   0   2.0000     -24.754003      -673.5907
   1   2.0000     -19.134880      -520.6865
   2   2.0000     -14.322411      -389.7326
   3   2.0000     -14.311976      -389.4487
   4   2.0000     -10.350541      -281.6525
   5   2.0000     -10.216642      -278.0090
   6   2.0000     -10.208195      -277.7791
   7   2.0000     -10.207158      -277.7509
   8   2.0000     -10.201051      -277.5847
   9   2.0000     -10.069525      -274.0057
  10   2.0000      -1.323323       -36.0094
  11   2.0000      -1.045238       -28.4424
  12   2.0000      -0.971416       -26.4336
  13   2.0000      -0.889354       -24.2005
  14   2.0000      -0.820038       -22.3144
  15   2.0000      -0.744521       -20.2595
  16   2.0000      -0.702252       -19.1093
  17   2.0000      -0.662202       -18.0194
  18   2.0000      -0.623908       -16.9774
  19   2.0000      -0.599678       -16.3181
  20   2.0000      -0.557321       -15.1655
  21   2.0000      -0.554566       -15.0905
  22   2.0000      -0.522691       -14.2231
  23   2.0000      -0.508682       -13.8419
  24   2.0000      -0.500099       -13.6084
  25   2.0000      -0.486903       -13.2493
  26   2.0000      -0.467968       -12.7341
  27   2.0000      -0.443522       -12.0689
  28   2.0000      -0.423501       -11.5240
  29   2.0000      -0.405619       -11.0374
  30   2.0000      -0.396396       -10.7865
  31   2.0000      -0.383505       -10.4357
  32   2.0000      -0.375695       -10.2232
  33   2.0000      -0.368376       -10.0240
  34   2.0000      -0.361428        -9.8350
  35   2.0000      -0.326085        -8.8732
  36   2.0000      -0.295337        -8.0365
  37   2.0000      -0.262902        -7.1539
  38   2.0000      -0.167486        -4.5575
  39   0.0000      -0.036414        -0.9909
  40   0.0000      -0.006386        -0.1738
  41   0.0000       0.009419         0.2563
  42   0.0000       0.019045         0.5182
  43   0.0000       0.025595         0.6965

MULLIKEN ATOMIC CHARGES
-----------------------
   0 C :   -0.441973
   1 N :   -0.244558
   2 C :   -0.584560
   3 C :   -0.389371
   4 H :    0.255644
   5 H :    0.239109
   6 C :    0.800758
   7 C :    0.424234
   8 C :   -0.955190
   9 N :   -0.466778
  10 H :    0.178468
  11 H :    0.192735
  12 H :    0.224844
  13 H :    0.403044
  14 H :    0.248145
  15 H :    0.277000
  16 H :    0.177945
  17 H :    0.268959
  18 H :    0.199238
  19 O :   -0.525265
  20 F :   -0.282427
Sum of atomic charges:    0.0000000

LOEWDIN ATOMIC CHARGES
----------------------
   0 C :   -0.176656
   1 N :    0.039092
   2 C :   -0.174046
   3 C :   -0.083881
   4 H :    0.116213
   5 H :    0.120921
   6 C :   -0.485389
   7 C :   -0.579338
   8 C :    0.003150
   9 N :    0.144735
  10 H :    0.109718
  11 H :    0.091455
  12 H :    0.128065
  13 H :   -0.002243
  14 H :    0.019831
  15 H :    0.116260
  16 H :    0.111634
  17 H :    0.114497
  18 H :    0.111458
  19 O :    0.100243
  20 F :    0.174281

  Mayer bond orders larger than 0.100000
B(  0-C ,  1-N ) :   0.8308 B(  0-C ,  2-C ) :   0.8521 B(  0-C ,  7-C ) :  -0.1085
B(  0-C , 15-H ) :   0.8967 B(  0-C , 16-H ) :   1.0554 B(  1-N ,  7-C ) :   0.9769
B(  1-N , 12-H ) :   0.8418 B(  2-C ,  3-C ) :   0.8821 B(  2-C , 17-H ) :   0.9373
B(  2-C , 18-H ) :   1.0283 B(  3-C ,  4-H ) :   0.9420 B(  3-C ,  5-H ) :   0.9721
B(  3-C ,  6-C ) :   0.9298 B(  6-C , 19-O ) :   1.6443 B(  6-C , 20-F ) :   0.8320
B(  7-C ,  8-C ) :   1.5861 B(  7-C ,  9-N ) :   0.8177 B(  7-C , 14-H ) :  -0.1358
B(  8-C , 13-H ) :   0.7675 B(  8-C , 14-H ) :   1.2489 B(  9-N , 10-H ) :   0.9537
B(  9-N , 11-H ) :   0.9269

Dispersion correction           -0.037642309
FINAL SINGLE POINT ENERGY      -519.718264028603

DIPOLE MOMENT
-------------
                                X             Y             Z
Electronic contribution:      4.42452      -4.65454      -2.60914
Nuclear contribution   :     -6.05797       3.87976       3.55209
                        -----------------------------------------
Total Dipole Moment    :     -1.63345      -0.77478       0.94294
                        -----------------------------------------
Magnitude (a.u.)       :      2.03901
Magnitude (Debye)      :      5.18276

Rotational constants in cm-1:     0.061282     0.043164     0.033679
Rotational constants in MHz :  1837.191639  1294.028651  1009.659886

                             ****ORCA TERMINATED NORMALLY****
TOTAL RUN TIME: 0 days 0 hours 3 minutes 0 seconds 538 msec
