                         Program Version 5.0.0 -  RELEASE  -
|  1> !B3LYP D3BJ RIJCOSX def2-TZVPD def2/J TightSCF xyzfile
|  2>
|  3> *xyzfile 0 1 D6.xyz
|  4>
|  5> %MaxCore 64000
|  6>
|  7> %pal nprocs 4
|  8> end
|  9>
| 10> %scf
| 11>   MaxIter 150
| 12> end
| 13>
| 14>
| 15>                          ****END OF INPUT****

CARTESIAN COORDINATES (ANGSTROEM)
---------------------------------
  C      3.905947    2.819855   -3.752920
  N      5.295615    3.131515   -4.105334
  C      3.803511    1.374716   -3.260807
  C      3.939934    0.320362   -4.367729
  H      4.105043   -0.655085   -3.907733
  H      3.022801    0.280517   -4.957117
  C      5.105846    0.668022   -5.305463
  C      5.708619    3.468885   -5.324190
  N      6.904696    3.038954   -5.717084
  C      4.981884    4.293570   -6.097457
  H      5.000546    4.101311   -7.087761
  H      4.084693    4.596899   -5.739652
  H      5.963358    2.526112   -3.642391
  H      7.047164    2.066861   -5.473604
  H      7.198145    3.307994   -6.645225
  H      3.282025    2.949187   -4.640259
  H      3.565254    3.514574   -2.982523
  H      4.574833    1.215157   -2.500443
  H      2.843514    1.260845   -2.751465
  O      4.809132    1.150187   -6.414361
  F      6.267366    0.564999   -4.819481

 Total Charge           Charge          ....    0
 Multiplicity           Mult            ....    1
 Number of Electrons    NEL             ....   78
 Basis Dimension        Dim             ....  475

ORBITAL ENERGIES
----------------

  NO   OCC          E(Eh)            E(eV)
   0   2.0000     -24.771089      -674.0556
   1   2.0000     -19.143231      -520.9138
   2   2.0000     -14.325199      -389.8085
   3   2.0000     -14.303885      -389.2285
   4   2.0000     -10.356676      -281.8195
   5   2.0000     -10.213086      -277.9122
   6   2.0000     -10.209862      -277.8245
   7   2.0000     -10.209305      -277.8093
   8   2.0000     -10.200473      -277.5690
   9   2.0000     -10.080901      -274.3153
  10   2.0000      -1.340264       -36.4704
  11   2.0000      -1.052715       -28.6458
  12   2.0000      -0.975539       -26.5458
  13   2.0000      -0.891340       -24.2546
  14   2.0000      -0.817893       -22.2560
  15   2.0000      -0.738988       -20.1089
  16   2.0000      -0.704230       -19.1631
  17   2.0000      -0.681936       -18.5564
  18   2.0000      -0.635395       -17.2900
  19   2.0000      -0.578592       -15.7443
  20   2.0000      -0.573790       -15.6136
  21   2.0000      -0.564148       -15.3512
  22   2.0000      -0.524984       -14.2855
  23   2.0000      -0.512379       -13.9425
  24   2.0000      -0.503094       -13.6899
  25   2.0000      -0.484448       -13.1825
  26   2.0000      -0.480249       -13.0682
  27   2.0000      -0.432731       -11.7752
  28   2.0000      -0.428561       -11.6617
  29   2.0000      -0.405710       -11.0399
  30   2.0000      -0.394686       -10.7400
  31   2.0000      -0.390723       -10.6321
  32   2.0000      -0.383744       -10.4422
  33   2.0000      -0.369171       -10.0457
  34   2.0000      -0.362967        -9.8768
  35   2.0000      -0.333275        -9.0689
  36   2.0000      -0.301222        -8.1967
  37   2.0000      -0.258502        -7.0342
  38   2.0000      -0.173694        -4.7265
  39   0.0000      -0.042417        -1.1542
  40   0.0000      -0.007614        -0.2072
  41   0.0000       0.017576         0.4783
  42   0.0000       0.017848         0.4857
  43   0.0000       0.026636         0.7248

MULLIKEN ATOMIC CHARGES
-----------------------
   0 C :   -0.401430
   1 N :   -0.209751
   2 C :   -0.614439
   3 C :   -0.409920
   4 H :    0.259194
   5 H :    0.240629
   6 C :    0.826166
   7 C :    0.430019
   8 N :   -0.381466
   9 C :   -1.246650
  10 H :    0.284904
  11 H :    0.382620
  12 H :    0.247007
  13 H :    0.280164
  14 H :    0.193974
  15 H :    0.283679
  16 H :    0.192498
  17 H :    0.275151
  18 H :    0.188782
  19 O :   -0.501415
  20 F :   -0.319715
Sum of atomic charges:    0.0000000

LOEWDIN ATOMIC CHARGES
----------------------
   0 C :   -0.167858
   1 N :    0.038767
   2 C :   -0.173473
   3 C :   -0.083460
   4 H :    0.115825
   5 H :    0.122828
   6 C :   -0.486719
   7 C :   -0.590530
   8 N :    0.136609
   9 C :    0.020441
  10 H :    0.014055
  11 H :    0.004406
  12 H :    0.124431
  13 H :    0.070259
  14 H :    0.113415
  15 H :    0.120842
  16 H :    0.115958
  17 H :    0.112103
  18 H :    0.112756
  19 O :    0.107602
  20 F :    0.171741

  Mayer bond orders larger than 0.100000
B(  0-C ,  1-N ) :   0.8449 B(  0-C ,  2-C ) :   0.8405 B(  0-C , 15-H ) :   0.9018
B(  0-C , 16-H ) :   1.0081 B(  1-N ,  7-C ) :   1.0559 B(  1-N , 12-H ) :   0.7704
B(  2-C ,  3-C ) :   0.8754 B(  2-C , 17-H ) :   0.9235 B(  2-C , 18-H ) :   1.0397
B(  3-C ,  4-H ) :   0.9416 B(  3-C ,  5-H ) :   0.9681 B(  3-C ,  6-C ) :   0.9398
B(  6-C , 19-O ) :   1.6474 B(  6-C , 20-F ) :   0.7676 B(  7-C ,  8-N ) :   0.8908
B(  7-C ,  9-C ) :   1.3797 B(  7-C , 10-H ) :  -0.1120 B(  8-N ,  9-C ) :   0.1080
B(  8-N , 13-H ) :   0.8052 B(  8-N , 14-H ) :   0.8976 B(  9-C , 10-H ) :   1.0217
B(  9-C , 11-H ) :   0.9126

Dispersion correction           -0.037629016
FINAL SINGLE POINT ENERGY      -519.728912028444

DIPOLE MOMENT
-------------
                                X             Y             Z
Electronic contribution:      5.95567      -5.64370      -2.33651
Nuclear contribution   :     -6.29470       4.03423       3.50525
                        -----------------------------------------
Total Dipole Moment    :     -0.33903      -1.60947       1.16875
                        -----------------------------------------
Magnitude (a.u.)       :      2.01774
Magnitude (Debye)      :      5.12870

Rotational constants in cm-1:     0.061094     0.043661     0.033867
Rotational constants in MHz :  1831.559881  1308.929520  1015.295167

                             ****ORCA TERMINATED NORMALLY****
TOTAL RUN TIME: 0 days 0 hours 2 minutes 44 seconds 58 msec
