                         Program Version 5.0.0 -  RELEASE  -
|  1> !wB97X-D3 RIJCOSX def2-SVP def2/J TightSCF
|  2> *xyz -1 1
|  3> C          4.26524        2.50052       -0.79589
|  4> C          4.98224        1.65026        0.24742
|  5> O          4.36806        1.38927        1.31371
|  6> O          6.12892        1.23351       -0.04562
|  7> H          4.90412        2.63966       -1.64287
|  8> H          4.02079        3.45265       -0.37328
|  9> H          3.36773        2.00584       -1.10356
| 10> *
| 11> %MaxCore 64000
| 12> %pal nprocs 8
| 13> end
| 14> %scf
| 15>   MaxIter 150
| 16> end
| 17>
| 18>
| 19>                          ****END OF INPUT****

CARTESIAN COORDINATES (ANGSTROEM)
---------------------------------
  C      4.265240    2.500520   -0.795890
  C      4.982240    1.650260    0.247420
  O      4.368060    1.389270    1.313710
  O      6.128920    1.233510   -0.045620
  H      4.904120    2.639660   -1.642870
  H      4.020790    3.452650   -0.373280
  H      3.367730    2.005840   -1.103560

 Total Charge           Charge          ....   -1
 Multiplicity           Mult            ....    1
 Number of Electrons    NEL             ....   32
 Basis Dimension        Dim             ....   71

ORBITAL ENERGIES
----------------

  NO   OCC          E(Eh)            E(eV)
   0   2.0000     -18.930798      -515.1332
   1   2.0000     -18.928661      -515.0750
   2   2.0000     -10.138354      -275.8786
   3   2.0000     -10.083934      -274.3978
   4   2.0000      -0.884363       -24.0648
   5   2.0000      -0.787088       -21.4178
   6   2.0000      -0.634848       -17.2751
   7   2.0000      -0.379426       -10.3247
   8   2.0000      -0.343191        -9.3387
   9   2.0000      -0.327180        -8.9030
  10   2.0000      -0.289927        -7.8893
  11   2.0000      -0.246539        -6.7087
  12   2.0000      -0.232558        -6.3282
  13   2.0000      -0.098875        -2.6905
  14   2.0000      -0.098222        -2.6728
  15   2.0000      -0.081223        -2.2102
  16   0.0000       0.330389         8.9904
  17   0.0000       0.357956         9.7405
  18   0.0000       0.393623        10.7110
  19   0.0000       0.425965        11.5911
  20   0.0000       0.517868        14.0919

MULLIKEN ATOMIC CHARGES
-----------------------
   0 C :   -0.012096
   1 C :    0.027188
   2 O :   -0.472645
   3 O :   -0.458709
   4 H :   -0.037993
   5 H :   -0.024391
   6 H :   -0.021354
Sum of atomic charges:   -1.0000000

LOEWDIN ATOMIC CHARGES
----------------------
   0 C :   -0.124069
   1 C :   -0.046667
   2 O :   -0.423585
   3 O :   -0.412478
   4 H :   -0.003340
   5 H :    0.004375
   6 H :    0.005764

  Mayer bond orders larger than 0.100000
B(  0-C ,  1-C ) :   0.9417 B(  0-C ,  4-H ) :   0.9651 B(  0-C ,  5-H ) :   0.9651
B(  0-C ,  6-H ) :   0.9666 B(  1-C ,  2-O ) :   1.8332 B(  1-C ,  3-O ) :   1.8577
B(  2-O ,  3-O ) :   0.1090

Dispersion correction           -0.000903673
FINAL SINGLE POINT ENERGY      -228.264205670569

DIPOLE MOMENT
-------------
                                X             Y             Z
Electronic contribution:      1.74515      -2.08880       2.54878
Nuclear contribution   :     -2.34880       2.82033      -3.41655
                        -----------------------------------------
Total Dipole Moment    :     -0.60365       0.73153      -0.86777
                        -----------------------------------------
Magnitude (a.u.)       :      1.28552
Magnitude (Debye)      :      3.26752

Rotational constants in cm-1:     0.393413     0.334516     0.186969
Rotational constants in MHz : 11794.232386 10028.538646  5605.197050

                             ****ORCA TERMINATED NORMALLY****
TOTAL RUN TIME: 0 days 0 hours 0 minutes 4 seconds 780 msec
