                         Program Version 5.0.0 -  RELEASE  -
|  1> !wB97X-D3 RIJCOSX def2-SVP def2/J TightSCF
|  2> *xyz 1 1
|  3> C          3.91385       -1.65829        3.01513
|  4> N          5.03927       -0.90115        2.49282
|  5> C          6.21038       -1.41726        2.17824
|  6> N          6.53591       -2.67712        2.55608
|  7> N          7.07675       -0.70082        1.47891
|  8> H          7.95464       -1.12155        1.20755
|  9> H          6.75616        0.10664        0.96028
| 10> H          4.84217        0.01761        2.11519
| 11> H          5.99388       -3.12692        3.28278
| 12> H          7.49844       -2.97548        2.46878
| 13> H          3.08844       -0.99893        3.18495
| 14> H          4.19412       -2.12366        3.93697
| 15> H          3.63051       -2.40965        2.30798
| 16> *
| 17> %MaxCore 64000
| 18> %pal nprocs 8
| 19> end
| 20> %scf
| 21>   MaxIter 150
| 22> end
| 23>
| 24>
| 25>                          ****END OF INPUT****

CARTESIAN COORDINATES (ANGSTROEM)
---------------------------------
  C      3.913850   -1.658290    3.015130
  N      5.039270   -0.901150    2.492820
  C      6.210380   -1.417260    2.178240
  N      6.535910   -2.677120    2.556080
  N      7.076750   -0.700820    1.478910
  H      7.954640   -1.121550    1.207550
  H      6.756160    0.106640    0.960280
  H      4.842170    0.017610    2.115190
  H      5.993880   -3.126920    3.282780
  H      7.498440   -2.975480    2.468780
  H      3.088440   -0.998930    3.184950
  H      4.194120   -2.123660    3.936970
  H      3.630510   -2.409650    2.307980

 Total Charge           Charge          ....    1
 Multiplicity           Mult            ....    1
 Number of Electrons    NEL             ....   40
 Basis Dimension        Dim             ....  110

ORBITAL ENERGIES
----------------

  NO   OCC          E(Eh)            E(eV)
   0   2.0000     -14.666217      -399.0880
   1   2.0000     -14.663050      -399.0019
   2   2.0000     -14.661350      -398.9556
   3   2.0000     -10.631051      -289.2856
   4   2.0000     -10.494837      -285.5790
   5   2.0000      -1.331722       -36.2380
   6   2.0000      -1.218645       -33.1610
   7   2.0000      -1.201271       -32.6883
   8   2.0000      -1.017559       -27.6892
   9   2.0000      -0.933748       -25.4086
  10   2.0000      -0.893900       -24.3243
  11   2.0000      -0.859806       -23.3965
  12   2.0000      -0.795842       -21.6560
  13   2.0000      -0.789788       -21.4912
  14   2.0000      -0.759677       -20.6719
  15   2.0000      -0.744321       -20.2540
  16   2.0000      -0.692572       -18.8458
  17   2.0000      -0.677035       -18.4231
  18   2.0000      -0.575642       -15.6640
  19   2.0000      -0.551016       -14.9939
  20   0.0000      -0.080405        -2.1879
  21   0.0000      -0.052315        -1.4236
  22   0.0000      -0.013219        -0.3597
  23   0.0000      -0.007725        -0.2102
  24   0.0000       0.013423         0.3653

MULLIKEN ATOMIC CHARGES
-----------------------
   0 C :    0.061638
   1 N :   -0.188225
   2 C :    0.109167
   3 N :   -0.100044
   4 N :   -0.060487
   5 H :    0.184448
   6 H :    0.186374
   7 H :    0.180532
   8 H :    0.180229
   9 H :    0.182910
  10 H :    0.097462
  11 H :    0.077173
  12 H :    0.088824
Sum of atomic charges:    1.0000000

LOEWDIN ATOMIC CHARGES
----------------------
   0 C :    0.051181
   1 N :    0.019616
   2 C :    0.160810
   3 N :    0.027418
   4 N :    0.043447
   5 H :    0.113898
   6 H :    0.114568
   7 H :    0.110939
   8 H :    0.109525
   9 H :    0.112259
  10 H :    0.057509
  11 H :    0.037394
  12 H :    0.041435

  Mayer bond orders larger than 0.100000
B(  0-C ,  1-N ) :   0.9290 B(  0-C , 10-H ) :   0.9707 B(  0-C , 11-H ) :   0.9731
B(  0-C , 12-H ) :   0.9779 B(  1-N ,  2-C ) :   1.3910 B(  1-N ,  7-H ) :   0.9123
B(  2-C ,  3-N ) :   1.3745 B(  2-C ,  4-N ) :   1.4024 B(  3-N ,  8-H ) :   0.9246
B(  3-N ,  9-H ) :   0.9261 B(  4-N ,  5-H ) :   0.9257 B(  4-N ,  6-H ) :   0.9240

Dispersion correction           -0.002371491
FINAL SINGLE POINT ENERGY      -244.838681615388

DIPOLE MOMENT
-------------
                                X             Y             Z
Electronic contribution:      2.47922       0.85344      -0.98823
Nuclear contribution   :     -2.01473      -0.74897       0.69347
                        -----------------------------------------
Total Dipole Moment    :      0.46449       0.10447      -0.29476
                        -----------------------------------------
Magnitude (a.u.)       :      0.55996
Magnitude (Debye)      :      1.42329

Rotational constants in cm-1:     0.313249     0.134439     0.096258
Rotational constants in MHz :  9390.961986  4030.377472  2885.728233

                             ****ORCA TERMINATED NORMALLY****
TOTAL RUN TIME: 0 days 0 hours 0 minutes 8 seconds 512 msec
