                         Program Version 5.0.0 -  RELEASE  -
|  1> !wB97X-D3 RIJCOSX def2-SVP def2/J TightSCF xyzfile
|  2>
|  3> *xyzfile 0 1 B.xyz
|  4>
|  5> %MaxCore 64000
|  6>
|  7> %pal nprocs 18
|  8> end
|  9>
| 10> %scf
| 11>   MaxIter 150
| 12> end
| 13>
| 14>
| 15>                          ****END OF INPUT****

CARTESIAN COORDINATES (ANGSTROEM)
---------------------------------
  C      3.913853   -1.658291    3.015134
  N      5.039266   -0.901154    2.492821
  C      4.084215    1.742081   -2.114724
  C      4.265245    2.500518   -0.795890
  H      4.868534    3.392674   -0.981134
  H      3.307640    2.824571   -0.387809
  C      4.982240    1.650257    0.247422
  C      6.210384   -1.417261    2.178244
  N      6.535913   -2.677122    2.556078
  N      7.076754   -0.700820    1.478906
  H      7.954643   -1.121554    1.207554
  H      6.756161    0.106637    0.960278
  H      4.842168    0.017609    2.115191
  H      5.993876   -3.126918    3.282784
  H      7.498441   -2.975482    2.468776
  O      4.368065    1.389270    1.313706
  O      6.128919    1.233512   -0.045620
  C      3.139159   -2.376572    1.910609
  H      3.267235   -0.939401    3.520693
  H      4.247195   -2.355095    3.790065
  C      1.997274    0.430918   -1.399218
  C      3.412746    0.376886   -1.965497
  H      4.047407   -0.246590   -1.326706
  H      3.390774   -0.118719   -2.942839
  H      5.068475    1.598504   -2.565728
  H      3.503356    2.363939   -2.804565
  C      2.399946   -1.389579    1.009490
  H      2.440750   -3.087118    2.362976
  H      3.844475   -2.970462    1.318677
  C      2.070177   -1.936705   -0.372401
  H      1.481611   -1.061542    1.509912
  H      3.008628   -0.490001    0.897451
  C      1.322238   -0.935775   -1.256413
  H      1.472747   -2.850902   -0.283997
  H      3.003539   -2.234041   -0.862535
  H      1.376444    1.058920   -2.047420
  H      2.015341    0.929780   -0.426535
  H      0.316648   -0.787213   -0.848278
  H      1.185611   -1.379252   -2.248613

 Total Charge           Charge          ....    0
 Multiplicity           Mult            ....    1
 Number of Electrons    NEL             ....  126
 Basis Dimension        Dim             ....  339

ORBITAL ENERGIES
----------------

  NO   OCC          E(Eh)            E(eV)
   0   2.0000     -19.148814      -521.0657
   1   2.0000     -19.147389      -521.0269
   2   2.0000     -14.501566      -394.6077
   3   2.0000     -14.462730      -393.5509
   4   2.0000     -14.458589      -393.4382
   5   2.0000     -10.449428      -284.3434
   6   2.0000     -10.345672      -281.5201
   7   2.0000     -10.340427      -281.3773
   8   2.0000     -10.295048      -280.1425
   9   2.0000     -10.272855      -279.5386
  10   2.0000     -10.271657      -279.5060
  11   2.0000     -10.268565      -279.4218
  12   2.0000     -10.259154      -279.1658
  13   2.0000     -10.257462      -279.1197
  14   2.0000     -10.256133      -279.0836
  15   2.0000     -10.243797      -278.7479
  16   2.0000      -1.150812       -31.3152
  17   2.0000      -1.103255       -30.0211
  18   2.0000      -1.040394       -28.3106
  19   2.0000      -1.023978       -27.8639
  20   2.0000      -1.004254       -27.3272
  21   2.0000      -0.920551       -25.0495
  22   2.0000      -0.895234       -24.3605
  23   2.0000      -0.865366       -23.5478
  24   2.0000      -0.824245       -22.4288
  25   2.0000      -0.784824       -21.3562
  26   2.0000      -0.765874       -20.8405
  27   2.0000      -0.735826       -20.0228
  28   2.0000      -0.719014       -19.5654
  29   2.0000      -0.706096       -19.2138
  30   2.0000      -0.676723       -18.4146
  31   2.0000      -0.671015       -18.2593
  32   2.0000      -0.639287       -17.3959
  33   2.0000      -0.623042       -16.9538
  34   2.0000      -0.617330       -16.7984
  35   2.0000      -0.598281       -16.2801
  36   2.0000      -0.569584       -15.4992
  37   2.0000      -0.563474       -15.3329
  38   2.0000      -0.558214       -15.1898
  39   2.0000      -0.552159       -15.0250
  40   2.0000      -0.538305       -14.6480
  41   2.0000      -0.518317       -14.1041
  42   2.0000      -0.515588       -14.0299
  43   2.0000      -0.512727       -13.9520
  44   2.0000      -0.503049       -13.6886
  45   2.0000      -0.491541       -13.3755
  46   2.0000      -0.475207       -12.9310
  47   2.0000      -0.463559       -12.6141
  48   2.0000      -0.458119       -12.4661
  49   2.0000      -0.446915       -12.1612
  50   2.0000      -0.440085       -11.9753
  51   2.0000      -0.431337       -11.7373
  52   2.0000      -0.418236       -11.3808
  53   2.0000      -0.410175       -11.1614
  54   2.0000      -0.405257       -11.0276
  55   2.0000      -0.398548       -10.8450
  56   2.0000      -0.388478       -10.5710
  57   2.0000      -0.383555       -10.4371
  58   2.0000      -0.376573       -10.2471
  59   2.0000      -0.363415        -9.8890
  60   2.0000      -0.314081        -8.5466
  61   2.0000      -0.305720        -8.3191
  62   2.0000      -0.300306        -8.1717
  63   0.0000       0.094570         2.5734
  64   0.0000       0.097712         2.6589
  65   0.0000       0.128902         3.5076
  66   0.0000       0.149790         4.0760
  67   0.0000       0.163362         4.4453

MULLIKEN ATOMIC CHARGES
-----------------------
   0 C :    0.077596
   1 N :   -0.155058
   2 C :   -0.024620
   3 C :    0.018738
   4 H :    0.027154
   5 H :    0.016839
   6 C :    0.151416
   7 C :    0.065475
   8 N :   -0.119456
   9 N :   -0.044767
  10 H :    0.134467
  11 H :    0.145367
  12 H :    0.161677
  13 H :    0.148987
  14 H :    0.148553
  15 O :   -0.417258
  16 O :   -0.425591
  17 C :   -0.003092
  18 H :    0.056088
  19 H :    0.015612
  20 C :   -0.062447
  21 C :   -0.048261
  22 H :    0.020134
  23 H :    0.005354
  24 H :    0.026769
  25 H :    0.008409
  26 C :   -0.086636
  27 H :    0.026895
  28 H :    0.010241
  29 C :   -0.040703
  30 H :    0.017742
  31 H :    0.033157
  32 C :    0.009484
  33 H :    0.010337
  34 H :    0.017690
  35 H :    0.010042
  36 H :    0.038844
  37 H :    0.012869
  38 H :    0.011953
Sum of atomic charges:   -0.0000000

LOEWDIN ATOMIC CHARGES
----------------------
   0 C :    0.040065
   1 N :    0.026244
   2 C :   -0.031730
   3 C :   -0.069867
   4 H :    0.032340
   5 H :    0.019172
   6 C :    0.031029
   7 C :    0.143080
   8 N :   -0.012469
   9 N :    0.036434
  10 H :    0.085040
  11 H :    0.038102
  12 H :    0.042180
  13 H :    0.087954
  14 H :    0.090919
  15 O :   -0.320965
  16 O :   -0.318524
  17 C :   -0.046203
  18 H :    0.041704
  19 H :    0.012368
  20 C :   -0.043802
  21 C :   -0.043345
  22 H :    0.017015
  23 H :    0.017912
  24 H :    0.024824
  25 H :    0.016394
  26 C :   -0.045763
  27 H :    0.025285
  28 H :    0.018724
  29 C :   -0.040909
  30 H :    0.023009
  31 H :    0.022037
  32 C :   -0.036810
  33 H :    0.017632
  34 H :    0.017315
  35 H :    0.020589
  36 H :    0.023385
  37 H :    0.020188
  38 H :    0.019444

  Mayer bond orders larger than 0.100000
B(  0-C ,  1-N ) :   0.9793 B(  0-C , 17-C ) :   1.0606 B(  0-C , 18-H ) :   0.9460
B(  0-C , 19-H ) :   0.9565 B(  1-N ,  7-C ) :   1.4262 B(  1-N , 12-H ) :   0.7943
B(  2-C ,  3-C ) :   1.0703 B(  2-C , 21-C ) :   1.0894 B(  2-C , 24-H ) :   0.9442
B(  2-C , 25-H ) :   0.9522 B(  3-C ,  4-H ) :   0.9331 B(  3-C ,  5-H ) :   0.9418
B(  3-C ,  6-C ) :   0.9731 B(  6-C , 15-O ) :   1.6326 B(  6-C , 16-O ) :   1.6643
B(  7-C ,  8-N ) :   1.2743 B(  7-C ,  9-N ) :   1.4629 B(  8-N , 13-H ) :   0.9348
B(  8-N , 14-H ) :   0.9384 B(  9-N , 10-H ) :   0.9363 B(  9-N , 11-H ) :   0.8131
B( 11-H , 16-O ) :   0.2404 B( 12-H , 15-O ) :   0.2364 B( 17-C , 26-C ) :   1.0533
B( 17-C , 27-H ) :   0.9441 B( 17-C , 28-H ) :   0.9437 B( 20-C , 21-C ) :   1.0538
B( 20-C , 32-C ) :   1.0806 B( 20-C , 35-H ) :   0.9454 B( 20-C , 36-H ) :   0.9401
B( 21-C , 22-H ) :   0.9312 B( 21-C , 23-H ) :   0.9449 B( 26-C , 29-C ) :   1.0599
B( 26-C , 30-H ) :   0.9450 B( 26-C , 31-H ) :   0.9315 B( 29-C , 32-C ) :   1.0774
B( 29-C , 33-H ) :   0.9475 B( 29-C , 34-H ) :   0.9455 B( 32-C , 37-H ) :   0.9481
B( 32-C , 38-H ) :   0.9481

Dispersion correction           -0.020324763
FINAL SINGLE POINT ENERGY      -747.068344369136

DIPOLE MOMENT
-------------
                                X             Y             Z
Electronic contribution:     12.48479       3.23522       7.77205
Nuclear contribution   :    -11.44764      -6.21818      -6.18483
                        -----------------------------------------
Total Dipole Moment    :      1.03715      -2.98296       1.58722
                        -----------------------------------------
Magnitude (a.u.)       :      3.53454
Magnitude (Debye)      :      8.98410

Rotational constants in cm-1:     0.020281     0.013510     0.009451
Rotational constants in MHz :   608.005987   405.034308   283.324538

                             ****ORCA TERMINATED NORMALLY****
TOTAL RUN TIME: 0 days 0 hours 0 minutes 47 seconds 149 msec
