                         Program Version 5.0.0 -  RELEASE  -
|  1> !wB97X-D3 RIJCOSX def2-SVP def2/J TightSCF
|  2> *xyz 0 1
|  3> C          4.26524        2.50052       -0.79589
|  4> C          4.98224        1.65026        0.24742
|  5> F          4.36806        1.38927        1.31371
|  6> O          6.12892        1.23351       -0.04562
|  7> H          4.90412        2.63966       -1.64287
|  8> H          4.02079        3.45265       -0.37328
|  9> H          3.36773        2.00584       -1.10356
| 10> *
| 11> %MaxCore 64000
| 12> %pal nprocs 8
| 13> end
| 14> %scf
| 15>   MaxIter 150
| 16> end
| 17>
| 18>
| 19>                          ****END OF INPUT****

CARTESIAN COORDINATES (ANGSTROEM)
---------------------------------
  C      4.265240    2.500520   -0.795890
  C      4.982240    1.650260    0.247420
  F      4.368060    1.389270    1.313710
  O      6.128920    1.233510   -0.045620
  H      4.904120    2.639660   -1.642870
  H      4.020790    3.452650   -0.373280
  H      3.367730    2.005840   -1.103560

 Total Charge           Charge          ....    0
 Multiplicity           Mult            ....    1
 Number of Electrons    NEL             ....   32
 Basis Dimension        Dim             ....   71

ORBITAL ENERGIES
----------------

  NO   OCC          E(Eh)            E(eV)
   0   2.0000     -24.858936      -676.4460
   1   2.0000     -19.240526      -523.5613
   2   2.0000     -10.466102      -284.7971
   3   2.0000     -10.312320      -280.6125
   4   2.0000      -1.413891       -38.4739
   5   2.0000      -1.133058       -30.8321
   6   2.0000      -0.879544       -23.9336
   7   2.0000      -0.757019       -20.5995
   8   2.0000      -0.649007       -17.6604
   9   2.0000      -0.644861       -17.5475
  10   2.0000      -0.598624       -16.2894
  11   2.0000      -0.541759       -14.7420
  12   2.0000      -0.529579       -14.4106
  13   2.0000      -0.494810       -13.4645
  14   2.0000      -0.445124       -12.1125
  15   2.0000      -0.383328       -10.4309
  16   0.0000       0.068664         1.8684
  17   0.0000       0.151191         4.1141
  18   0.0000       0.210788         5.7358
  19   0.0000       0.215280         5.8581
  20   0.0000       0.263221         7.1626

MULLIKEN ATOMIC CHARGES
-----------------------
   0 C :   -0.069099
   1 C :    0.225163
   2 F :   -0.088135
   3 O :   -0.271687
   4 H :    0.073058
   5 H :    0.064042
   6 H :    0.066658
Sum of atomic charges:   -0.0000000

LOEWDIN ATOMIC CHARGES
----------------------
   0 C :   -0.080782
   1 C :    0.112111
   2 F :    0.034116
   3 O :   -0.203504
   4 H :    0.048617
   5 H :    0.044025
   6 H :    0.045418

  Mayer bond orders larger than 0.100000
B(  0-C ,  1-C ) :   1.0278 B(  0-C ,  4-H ) :   0.9711 B(  0-C ,  5-H ) :   0.9556
B(  0-C ,  6-H ) :   0.9559 B(  1-C ,  2-F ) :   1.1779 B(  1-C ,  3-O ) :   2.0823

Dispersion correction           -0.000896073
FINAL SINGLE POINT ENERGY      -252.820649963701

DIPOLE MOMENT
-------------
                                X             Y             Z
Electronic contribution:      0.80255      -2.54978       4.35267
Nuclear contribution   :     -1.76261       3.13449      -4.58927
                        -----------------------------------------
Total Dipole Moment    :     -0.96005       0.58471      -0.23661
                        -----------------------------------------
Magnitude (a.u.)       :      1.14873
Magnitude (Debye)      :      2.91983

Rotational constants in cm-1:     0.370628     0.320375     0.177409
Rotational constants in MHz : 11111.155899  9604.607061  5318.597912

                             ****ORCA TERMINATED NORMALLY****
TOTAL RUN TIME: 0 days 0 hours 0 minutes 5 seconds 428 msec
