                         Program Version 5.0.0 -  RELEASE  -
|  1> !wB97X-D3 RIJCOSX def2-SVP def2/J TightSCF
|  2> *xyz 0 1
|  3> C          3.91385       -1.65829        3.01513
|  4> C          5.03927       -0.90115        2.49282
|  5> C          6.21038       -1.41726        2.17824
|  6> N          6.53591       -2.67712        2.55608
|  7> N          7.07675       -0.70082        1.47891
|  8> H          7.95464       -1.12155        1.20755
|  9> H          6.75616        0.10664        0.96028
| 10> H          4.84217        0.01761        2.11519
| 11> H          5.99388       -3.12692        3.28278
| 12> H          7.49844       -2.97548        2.46878
| 13> H          3.08844       -0.99893        3.18495
| 14> H          4.19412       -2.12366        3.93697
| 15> H          3.63051       -2.40965        2.30798
| 16> *
| 17> %MaxCore 64000
| 18> %pal nprocs 8
| 19> end
| 20> %scf
| 21>   MaxIter 150
| 22> end
| 23>
| 24>
| 25>                          ****END OF INPUT****

CARTESIAN COORDINATES (ANGSTROEM)
---------------------------------
  C      3.913850   -1.658290    3.015130
  C      5.039270   -0.901150    2.492820
  C      6.210380   -1.417260    2.178240
  N      6.535910   -2.677120    2.556080
  N      7.076750   -0.700820    1.478910
  H      7.954640   -1.121550    1.207550
  H      6.756160    0.106640    0.960280
  H      4.842170    0.017610    2.115190
  H      5.993880   -3.126920    3.282780
  H      7.498440   -2.975480    2.468780
  H      3.088440   -0.998930    3.184950
  H      4.194120   -2.123660    3.936970
  H      3.630510   -2.409650    2.307980

 Total Charge           Charge          ....    0
 Multiplicity           Mult            ....    1
 Number of Electrons    NEL             ....   40
 Basis Dimension        Dim             ....  110

ORBITAL ENERGIES
----------------

  NO   OCC          E(Eh)            E(eV)
   0   2.0000     -14.428607      -392.6224
   1   2.0000     -14.424901      -392.5215
   2   2.0000     -10.322393      -280.8866
   3   2.0000     -10.247158      -278.8394
   4   2.0000     -10.198674      -277.5200
   5   2.0000      -1.060148       -28.8481
   6   2.0000      -0.967190       -26.3186
   7   2.0000      -0.854561       -23.2538
   8   2.0000      -0.755796       -20.5663
   9   2.0000      -0.679057       -18.4781
  10   2.0000      -0.633843       -17.2478
  11   2.0000      -0.603454       -16.4208
  12   2.0000      -0.563763       -15.3408
  13   2.0000      -0.516333       -14.0501
  14   2.0000      -0.505133       -13.7454
  15   2.0000      -0.465866       -12.6768
  16   2.0000      -0.448926       -12.2159
  17   2.0000      -0.426168       -11.5966
  18   2.0000      -0.352419        -9.5898
  19   2.0000      -0.235139        -6.3984
  20   0.0000       0.134830         3.6689
  21   0.0000       0.165552         4.5049
  22   0.0000       0.179297         4.8789
  23   0.0000       0.193472         5.2647
  24   0.0000       0.207971         5.6592

MULLIKEN ATOMIC CHARGES
-----------------------
   0 C :    0.055999
   1 C :   -0.240107
   2 C :   -0.005327
   3 N :   -0.139706
   4 N :   -0.106437
   5 H :    0.109220
   6 H :    0.134082
   7 H :   -0.078987
   8 H :    0.129330
   9 H :    0.112149
  10 H :    0.012482
  11 H :    0.000616
  12 H :    0.016686
Sum of atomic charges:    0.0000000

LOEWDIN ATOMIC CHARGES
----------------------
   0 C :   -0.057658
   1 C :   -0.235057
   2 C :    0.030576
   3 N :   -0.042982
   4 N :   -0.030212
   5 H :    0.065262
   6 H :    0.084152
   7 H :   -0.010244
   8 H :    0.079659
   9 H :    0.065745
  10 H :    0.027023
  11 H :    0.009431
  12 H :    0.014305

  Mayer bond orders larger than 0.100000
B(  0-C ,  1-C ) :   1.0535 B(  0-C , 10-H ) :   0.9582 B(  0-C , 11-H ) :   0.9613
B(  0-C , 12-H ) :   0.9741 B(  1-C ,  2-C ) :   1.7395 B(  1-C ,  7-H ) :   0.9507
B(  2-C ,  3-N ) :   1.2287 B(  2-C ,  4-N ) :   1.2194 B(  3-N ,  8-H ) :   0.9425
B(  3-N ,  9-H ) :   0.9524 B(  4-N ,  5-H ) :   0.9554 B(  4-N ,  6-H ) :   0.9423

Dispersion correction           -0.002373163
FINAL SINGLE POINT ENERGY      -228.368744929212

DIPOLE MOMENT
-------------
                                X             Y             Z
Electronic contribution:      3.13206       0.29548      -1.04596
Nuclear contribution   :     -2.16157      -0.63191       0.72436
                        -----------------------------------------
Total Dipole Moment    :      0.97050      -0.33643      -0.32160
                        -----------------------------------------
Magnitude (a.u.)       :      1.07633
Magnitude (Debye)      :      2.73580

Rotational constants in cm-1:     0.318470     0.135474     0.097247
Rotational constants in MHz :  9547.495553  4061.405016  2915.385882

                             ****ORCA TERMINATED NORMALLY****
TOTAL RUN TIME: 0 days 0 hours 0 minutes 8 seconds 582 msec
