                         Program Version 5.0.0 -  RELEASE  -
|  1> !wB97X-D3 RIJCOSX def2-SVP def2/J TightSCF
|  2> *xyz 0 1
|  3> C          4.26524        2.50052       -0.79589
|  4> C          4.98224        1.65026        0.24742
|  5> O          4.36806        1.38927        1.31371
|  6> F          6.12892        1.23351       -0.04562
|  7> H          4.90412        2.63966       -1.64287
|  8> H          4.02079        3.45265       -0.37328
|  9> H          3.36773        2.00584       -1.10356
| 10> *
| 11> %MaxCore 64000
| 12> %pal nprocs 8
| 13> end
| 14> %scf
| 15>   MaxIter 150
| 16> end
| 17>
| 18>
| 19>                          ****END OF INPUT****

CARTESIAN COORDINATES (ANGSTROEM)
---------------------------------
  C      4.265240    2.500520   -0.795890
  C      4.982240    1.650260    0.247420
  O      4.368060    1.389270    1.313710
  F      6.128920    1.233510   -0.045620
  H      4.904120    2.639660   -1.642870
  H      4.020790    3.452650   -0.373280
  H      3.367730    2.005840   -1.103560

 Total Charge           Charge          ....    0
 Multiplicity           Mult            ....    1
 Number of Electrons    NEL             ....   32
 Basis Dimension        Dim             ....   71

ORBITAL ENERGIES
----------------

  NO   OCC          E(Eh)            E(eV)
   0   2.0000     -24.859148      -676.4518
   1   2.0000     -19.239748      -523.5402
   2   2.0000     -10.466740      -284.8145
   3   2.0000     -10.312753      -280.6243
   4   2.0000      -1.415658       -38.5220
   5   2.0000      -1.130753       -30.7693
   6   2.0000      -0.880126       -23.9495
   7   2.0000      -0.757905       -20.6236
   8   2.0000      -0.649211       -17.6659
   9   2.0000      -0.645921       -17.5764
  10   2.0000      -0.599196       -16.3049
  11   2.0000      -0.542408       -14.7597
  12   2.0000      -0.528887       -14.3917
  13   2.0000      -0.494394       -13.4531
  14   2.0000      -0.441628       -12.0173
  15   2.0000      -0.384524       -10.4634
  16   0.0000       0.064734         1.7615
  17   0.0000       0.151925         4.1341
  18   0.0000       0.204038         5.5522
  19   0.0000       0.223920         6.0932
  20   0.0000       0.268643         7.3101

MULLIKEN ATOMIC CHARGES
-----------------------
   0 C :   -0.074528
   1 C :    0.226430
   2 O :   -0.278886
   3 F :   -0.083664
   4 H :    0.045038
   5 H :    0.082076
   6 H :    0.083535
Sum of atomic charges:    0.0000000

LOEWDIN ATOMIC CHARGES
----------------------
   0 C :   -0.082046
   1 C :    0.112206
   2 O :   -0.209701
   3 F :    0.038687
   4 H :    0.031977
   5 H :    0.054117
   6 H :    0.054760

  Mayer bond orders larger than 0.100000
B(  0-C ,  1-C ) :   1.0228 B(  0-C ,  4-H ) :   0.9620 B(  0-C ,  5-H ) :   0.9604
B(  0-C ,  6-H ) :   0.9603 B(  1-C ,  2-O ) :   2.0653 B(  1-C ,  3-F ) :   1.1891

Dispersion correction           -0.000908897
FINAL SINGLE POINT ENERGY      -252.819820730833

DIPOLE MOMENT
-------------
                                X             Y             Z
Electronic contribution:      3.63431      -2.79403       2.15518
Nuclear contribution   :     -3.58210       3.29544      -3.18468
                        -----------------------------------------
Total Dipole Moment    :      0.05221       0.50141      -1.02950
                        -----------------------------------------
Magnitude (a.u.)       :      1.14630
Magnitude (Debye)      :      2.91367

Rotational constants in cm-1:     0.368075     0.322590     0.177495
Rotational constants in MHz : 11034.605942  9670.991558  5321.154504

                             ****ORCA TERMINATED NORMALLY****
TOTAL RUN TIME: 0 days 0 hours 0 minutes 4 seconds 260 msec
