                         Program Version 5.0.0 -  RELEASE  -
|  1> !wB97X-D3 RIJCOSX def2-SVP def2/J TightSCF
|  2> *xyz 0 1
|  3> C          3.91385       -1.65829        3.01513
|  4> N          5.03927       -0.90115        2.49282
|  5> C          6.21038       -1.41726        2.17824
|  6> C          6.53591       -2.67712        2.55608
|  7> N          7.07675       -0.70082        1.47891
|  8> H          7.95464       -1.12155        1.20755
|  9> H          6.75616        0.10664        0.96028
| 10> H          4.84217        0.01761        2.11519
| 11> H          5.99388       -3.12692        3.28278
| 12> H          7.49844       -2.97548        2.46878
| 13> H          3.08844       -0.99893        3.18495
| 14> H          4.19412       -2.12366        3.93697
| 15> H          3.63051       -2.40965        2.30798
| 16> *
| 17> %MaxCore 64000
| 18> %pal nprocs 8
| 19> end
| 20> %scf
| 21>   MaxIter 150
| 22> end
| 23>
| 24>
| 25>                          ****END OF INPUT****

CARTESIAN COORDINATES (ANGSTROEM)
---------------------------------
  C      3.913850   -1.658290    3.015130
  N      5.039270   -0.901150    2.492820
  C      6.210380   -1.417260    2.178240
  C      6.535910   -2.677120    2.556080
  N      7.076750   -0.700820    1.478910
  H      7.954640   -1.121550    1.207550
  H      6.756160    0.106640    0.960280
  H      4.842170    0.017610    2.115190
  H      5.993880   -3.126920    3.282780
  H      7.498440   -2.975480    2.468780
  H      3.088440   -0.998930    3.184950
  H      4.194120   -2.123660    3.936970
  H      3.630510   -2.409650    2.307980

 Total Charge           Charge          ....    0
 Multiplicity           Mult            ....    1
 Number of Electrons    NEL             ....   40
 Basis Dimension        Dim             ....  110

ORBITAL ENERGIES
----------------

  NO   OCC          E(Eh)            E(eV)
   0   2.0000     -14.434563      -392.7844
   1   2.0000     -14.430003      -392.6603
   2   2.0000     -10.331248      -281.1275
   3   2.0000     -10.311129      -280.5801
   4   2.0000     -10.192009      -277.3387
   5   2.0000      -1.075791       -29.2738
   6   2.0000      -0.988292       -26.8928
   7   2.0000      -0.820895       -22.3377
   8   2.0000      -0.796809       -21.6823
   9   2.0000      -0.668085       -18.1795
  10   2.0000      -0.647711       -17.6251
  11   2.0000      -0.615977       -16.7616
  12   2.0000      -0.548755       -14.9324
  13   2.0000      -0.540745       -14.7144
  14   2.0000      -0.508644       -13.8409
  15   2.0000      -0.476246       -12.9593
  16   2.0000      -0.462042       -12.5728
  17   2.0000      -0.453399       -12.3376
  18   2.0000      -0.338525        -9.2117
  19   2.0000      -0.242483        -6.5983
  20   0.0000       0.133543         3.6339
  21   0.0000       0.166899         4.5416
  22   0.0000       0.181712         4.9446
  23   0.0000       0.187093         5.0911
  24   0.0000       0.204933         5.5765

MULLIKEN ATOMIC CHARGES
-----------------------
   0 C :    0.121645
   1 N :   -0.227146
   2 C :    0.003748
   3 C :   -0.154699
   4 N :   -0.113435
   5 H :    0.136164
   6 H :    0.111521
   7 H :    0.110404
   8 H :   -0.040304
   9 H :   -0.048156
  10 H :    0.025700
  11 H :    0.042374
  12 H :    0.032184
Sum of atomic charges:    0.0000000

LOEWDIN ATOMIC CHARGES
----------------------
   0 C :    0.042547
   1 N :   -0.040075
   2 C :    0.041869
   3 C :   -0.282367
   4 N :   -0.026213
   5 H :    0.086274
   6 H :    0.065461
   7 H :    0.066853
   8 H :   -0.009465
   9 H :   -0.010615
  10 H :    0.023665
  11 H :    0.023734
  12 H :    0.018333

  Mayer bond orders larger than 0.100000
B(  0-C ,  1-N ) :   0.9971 B(  0-C , 10-H ) :   0.9787 B(  0-C , 11-H ) :   0.9722
B(  0-C , 12-H ) :   0.9742 B(  1-N ,  2-C ) :   1.1954 B(  1-N ,  7-H ) :   0.9430
B(  2-C ,  3-C ) :   1.7245 B(  2-C ,  4-N ) :   1.2341 B(  3-C ,  8-H ) :   0.9520
B(  3-C ,  9-H ) :   0.9513 B(  4-N ,  5-H ) :   0.9452 B(  4-N ,  6-H ) :   0.9532

Dispersion correction           -0.002368308
FINAL SINGLE POINT ENERGY      -228.359332567149

DIPOLE MOMENT
-------------
                                X             Y             Z
Electronic contribution:      1.47467       2.10675      -1.22079
Nuclear contribution   :     -1.85843      -0.99162       0.73717
                        -----------------------------------------
Total Dipole Moment    :     -0.38376       1.11513      -0.48362
                        -----------------------------------------
Magnitude (a.u.)       :      1.27463
Magnitude (Debye)      :      3.23985

Rotational constants in cm-1:     0.336495     0.135025     0.098658
Rotational constants in MHz : 10087.870488  4047.943278  2957.678786

                             ****ORCA TERMINATED NORMALLY****
TOTAL RUN TIME: 0 days 0 hours 0 minutes 8 seconds 774 msec
