                         Program Version 5.0.0 -  RELEASE  -
|  1> !wB97X-D3 RIJCOSX def2-SVP def2/J TightSCF
|  2> *xyz 0 1
|  3> C          3.91385       -1.65829        3.01513
|  4> N          5.03927       -0.90115        2.49282
|  5> C          6.21038       -1.41726        2.17824
|  6> N          6.53591       -2.67712        2.55608
|  7> C          7.07675       -0.70082        1.47891
|  8> H          7.95464       -1.12155        1.20755
|  9> H          6.75616        0.10664        0.96028
| 10> H          4.84217        0.01761        2.11519
| 11> H          5.99388       -3.12692        3.28278
| 12> H          7.49844       -2.97548        2.46878
| 13> H          3.08844       -0.99893        3.18495
| 14> H          4.19412       -2.12366        3.93697
| 15> H          3.63051       -2.40965        2.30798
| 16> *
| 17> %MaxCore 64000
| 18> %pal nprocs 8
| 19> end
| 20> %scf
| 21>   MaxIter 150
| 22> end
| 23>
| 24>
| 25>                          ****END OF INPUT****

CARTESIAN COORDINATES (ANGSTROEM)
---------------------------------
  C      3.913850   -1.658290    3.015130
  N      5.039270   -0.901150    2.492820
  C      6.210380   -1.417260    2.178240
  N      6.535910   -2.677120    2.556080
  C      7.076750   -0.700820    1.478910
  H      7.954640   -1.121550    1.207550
  H      6.756160    0.106640    0.960280
  H      4.842170    0.017610    2.115190
  H      5.993880   -3.126920    3.282780
  H      7.498440   -2.975480    2.468780
  H      3.088440   -0.998930    3.184950
  H      4.194120   -2.123660    3.936970
  H      3.630510   -2.409650    2.307980

 Total Charge           Charge          ....    0
 Multiplicity           Mult            ....    1
 Number of Electrons    NEL             ....   40
 Basis Dimension        Dim             ....  110

ORBITAL ENERGIES
----------------

  NO   OCC          E(Eh)            E(eV)
   0   2.0000     -14.430174      -392.6650
   1   2.0000     -14.428244      -392.6125
   2   2.0000     -10.328726      -281.0589
   3   2.0000     -10.320340      -280.8307
   4   2.0000     -10.190707      -277.3032
   5   2.0000      -1.070929       -29.1415
   6   2.0000      -0.981181       -26.6993
   7   2.0000      -0.848905       -23.0999
   8   2.0000      -0.768704       -20.9175
   9   2.0000      -0.698917       -19.0185
  10   2.0000      -0.629625       -17.1330
  11   2.0000      -0.588251       -16.0071
  12   2.0000      -0.568755       -15.4766
  13   2.0000      -0.555868       -15.1259
  14   2.0000      -0.501387       -13.6434
  15   2.0000      -0.481927       -13.1139
  16   2.0000      -0.471726       -12.8363
  17   2.0000      -0.451171       -12.2770
  18   2.0000      -0.343663        -9.3515
  19   2.0000      -0.241215        -6.5638
  20   0.0000       0.133295         3.6271
  21   0.0000       0.165822         4.5122
  22   0.0000       0.176680         4.8077
  23   0.0000       0.182011         4.9528
  24   0.0000       0.219491         5.9727

MULLIKEN ATOMIC CHARGES
-----------------------
   0 C :    0.094865
   1 N :   -0.213269
   2 C :    0.009058
   3 N :   -0.144948
   4 C :   -0.128696
   5 H :   -0.047852
   6 H :   -0.043157
   7 H :    0.133065
   8 H :    0.109540
   9 H :    0.134709
  10 H :    0.035923
  11 H :    0.027168
  12 H :    0.033594
Sum of atomic charges:    0.0000000

LOEWDIN ATOMIC CHARGES
----------------------
   0 C :    0.028168
   1 N :   -0.043568
   2 C :    0.047330
   3 N :   -0.040541
   4 C :   -0.266489
   5 H :   -0.009246
   6 H :   -0.008691
   7 H :    0.085908
   8 H :    0.063746
   9 H :    0.084453
  10 H :    0.029519
  11 H :    0.014284
  12 H :    0.015126

  Mayer bond orders larger than 0.100000
B(  0-C ,  1-N ) :   0.9978 B(  0-C , 10-H ) :   0.9795 B(  0-C , 11-H ) :   0.9749
B(  0-C , 12-H ) :   0.9767 B(  1-N ,  2-C ) :   1.2052 B(  1-N ,  7-H ) :   0.9334
B(  2-C ,  3-N ) :   1.2080 B(  2-C ,  4-C ) :   1.7541 B(  3-N ,  8-H ) :   0.9534
B(  3-N ,  9-H ) :   0.9460 B(  4-C ,  5-H ) :   0.9493 B(  4-C ,  6-H ) :   0.9515

Dispersion correction           -0.002384317
FINAL SINGLE POINT ENERGY      -228.358294571782

DIPOLE MOMENT
-------------
                                X             Y             Z
Electronic contribution:      0.92913       0.05635       0.07350
Nuclear contribution   :     -1.74889      -0.59133       0.51900
                        -----------------------------------------
Total Dipole Moment    :     -0.81975      -0.53498       0.59250
                        -----------------------------------------
Magnitude (a.u.)       :      1.14423
Magnitude (Debye)      :      2.90839

Rotational constants in cm-1:     0.319878     0.140238     0.099847
Rotational constants in MHz :  9589.703832  4204.215525  2993.343846

                             ****ORCA TERMINATED NORMALLY****
TOTAL RUN TIME: 0 days 0 hours 0 minutes 8 seconds 486 msec
