                         Program Version 5.0.0 -  RELEASE  -
|  1> !wB97X-D3 RIJCOSX def2-SVP def2/J TightSCF xyzfile
|  2>
|  3> *xyzfile 0 1 D1.xyz
|  4>
|  5> %MaxCore 64000
|  6>
|  7> %pal nprocs 18
|  8> end
|  9>
| 10> %scf
| 11>   MaxIter 150
| 12> end
| 13>
| 14>
| 15>                          ****END OF INPUT****

CARTESIAN COORDINATES (ANGSTROEM)
---------------------------------
  C      3.913853   -1.658291    3.015134
  C      5.039266   -0.901154    2.492821
  C      4.084215    1.742081   -2.114724
  C      4.265245    2.500518   -0.795890
  H      4.868534    3.392674   -0.981134
  H      3.307640    2.824571   -0.387809
  C      4.982240    1.650257    0.247422
  C      6.210384   -1.417261    2.178244
  N      6.535913   -2.677122    2.556078
  N      7.076754   -0.700820    1.478906
  H      7.954643   -1.121554    1.207554
  H      6.756161    0.106637    0.960278
  H      4.842168    0.017609    2.115191
  H      5.993876   -3.126918    3.282784
  H      7.498441   -2.975482    2.468776
  F      4.368065    1.389270    1.313706
  O      6.128919    1.233512   -0.045620
  C      3.139159   -2.376572    1.910609
  H      3.267235   -0.939401    3.520693
  H      4.247195   -2.355095    3.790065
  C      1.997274    0.430918   -1.399218
  C      3.412746    0.376886   -1.965497
  H      4.047407   -0.246590   -1.326706
  H      3.390774   -0.118719   -2.942839
  H      5.068475    1.598504   -2.565728
  H      3.503356    2.363939   -2.804565
  C      2.399946   -1.389579    1.009490
  H      2.440750   -3.087118    2.362976
  H      3.844475   -2.970462    1.318677
  C      2.070177   -1.936705   -0.372401
  H      1.481611   -1.061542    1.509912
  H      3.008628   -0.490001    0.897451
  C      1.322238   -0.935775   -1.256413
  H      1.472747   -2.850902   -0.283997
  H      3.003539   -2.234041   -0.862535
  H      1.376444    1.058920   -2.047420
  H      2.015341    0.929780   -0.426535
  H      0.316648   -0.787213   -0.848278
  H      1.185611   -1.379252   -2.248613

 Total Charge           Charge          ....    0
 Multiplicity           Mult            ....    1
 Number of Electrons    NEL             ....  126
 Basis Dimension        Dim             ....  339

ORBITAL ENERGIES
----------------

  NO   OCC          E(Eh)            E(eV)
   0   2.0000     -24.878030      -676.9656
   1   2.0000     -19.268257      -524.3159
   2   2.0000     -14.412590      -392.1865
   3   2.0000     -14.385261      -391.4428
   4   2.0000     -10.489131      -285.4238
   5   2.0000     -10.326132      -280.9883
   6   2.0000     -10.307532      -280.4822
   7   2.0000     -10.306004      -280.4406
   8   2.0000     -10.291480      -280.0454
   9   2.0000     -10.286117      -279.8995
  10   2.0000     -10.279368      -279.7158
  11   2.0000     -10.271024      -279.4888
  12   2.0000     -10.263378      -279.2807
  13   2.0000     -10.253818      -279.0206
  14   2.0000     -10.247630      -278.8522
  15   2.0000     -10.173972      -276.8479
  16   2.0000      -1.436187       -39.0806
  17   2.0000      -1.165532       -31.7157
  18   2.0000      -1.038309       -28.2538
  19   2.0000      -0.946279       -25.7495
  20   2.0000      -0.942103       -25.6359
  21   2.0000      -0.912701       -24.8358
  22   2.0000      -0.881871       -23.9969
  23   2.0000      -0.852523       -23.1983
  24   2.0000      -0.813430       -22.1345
  25   2.0000      -0.791395       -21.5350
  26   2.0000      -0.764674       -20.8078
  27   2.0000      -0.738961       -20.1082
  28   2.0000      -0.708190       -19.2708
  29   2.0000      -0.688053       -18.7229
  30   2.0000      -0.672166       -18.2906
  31   2.0000      -0.660011       -17.9598
  32   2.0000      -0.658217       -17.9110
  33   2.0000      -0.652608       -17.7584
  34   2.0000      -0.625339       -17.0163
  35   2.0000      -0.611256       -16.6331
  36   2.0000      -0.586182       -15.9508
  37   2.0000      -0.580068       -15.7845
  38   2.0000      -0.577760       -15.7217
  39   2.0000      -0.558583       -15.1998
  40   2.0000      -0.543974       -14.8023
  41   2.0000      -0.531463       -14.4618
  42   2.0000      -0.524415       -14.2700
  43   2.0000      -0.513922       -13.9845
  44   2.0000      -0.511077       -13.9071
  45   2.0000      -0.504711       -13.7339
  46   2.0000      -0.486130       -13.2283
  47   2.0000      -0.483013       -13.1434
  48   2.0000      -0.464401       -12.6370
  49   2.0000      -0.459655       -12.5079
  50   2.0000      -0.455537       -12.3958
  51   2.0000      -0.453032       -12.3276
  52   2.0000      -0.440527       -11.9873
  53   2.0000      -0.429486       -11.6869
  54   2.0000      -0.427085       -11.6216
  55   2.0000      -0.413734       -11.2583
  56   2.0000      -0.402331       -10.9480
  57   2.0000      -0.397949       -10.8288
  58   2.0000      -0.392764       -10.6876
  59   2.0000      -0.387618       -10.5476
  60   2.0000      -0.379327       -10.3220
  61   2.0000      -0.329072        -8.9545
  62   2.0000      -0.218322        -5.9408
  63   0.0000       0.039915         1.0862
  64   0.0000       0.133582         3.6349
  65   0.0000       0.150641         4.0991
  66   0.0000       0.154802         4.2124
  67   0.0000       0.158179         4.3043

MULLIKEN ATOMIC CHARGES
-----------------------
   0 C :    0.070814
   1 C :   -0.257093
   2 C :   -0.025085
   3 C :   -0.034730
   4 H :    0.078889
   5 H :    0.053199
   6 C :    0.294576
   7 C :   -0.000702
   8 N :   -0.131394
   9 N :   -0.098113
  10 H :    0.095814
  11 H :    0.115142
  12 H :   -0.085756
  13 H :    0.120650
  14 H :    0.107870
  15 F :   -0.056791
  16 O :   -0.283298
  17 C :    0.046508
  18 H :   -0.010562
  19 H :   -0.021856
  20 C :   -0.062404
  21 C :   -0.078920
  22 H :    0.044842
  23 H :    0.029031
  24 H :    0.050556
  25 H :    0.037161
  26 C :   -0.055904
  27 H :   -0.001649
  28 H :    0.002617
  29 C :   -0.042187
  30 H :    0.006686
  31 H :   -0.025631
  32 C :    0.010315
  33 H :    0.018781
  34 H :    0.021005
  35 H :    0.016772
  36 H :    0.016729
  37 H :    0.018535
  38 H :    0.015583
Sum of atomic charges:   -0.0000000

LOEWDIN ATOMIC CHARGES
----------------------
   0 C :   -0.038560
   1 C :   -0.255989
   2 C :   -0.024523
   3 C :   -0.062441
   4 H :    0.056795
   5 H :    0.032590
   6 C :    0.154877
   7 C :    0.038087
   8 N :   -0.047307
   9 N :   -0.037705
  10 H :    0.057783
  11 H :    0.029236
  12 H :   -0.031441
  13 H :    0.073520
  14 H :    0.063414
  15 F :    0.090293
  16 O :   -0.163553
  17 C :   -0.036829
  18 H :    0.019103
  19 H :    0.006172
  20 C :   -0.045149
  21 C :   -0.045385
  22 H :    0.023092
  23 H :    0.029403
  24 H :    0.033502
  25 H :    0.029826
  26 C :   -0.042284
  27 H :    0.010517
  28 H :    0.016728
  29 C :   -0.041126
  30 H :    0.018065
  31 H :    0.005056
  32 C :   -0.036923
  33 H :    0.022801
  34 H :    0.018462
  35 H :    0.022400
  36 H :    0.013863
  37 H :    0.022848
  38 H :    0.020781

  Mayer bond orders larger than 0.100000
B(  0-C ,  1-C ) :   1.0666 B(  0-C , 17-C ) :   1.0582 B(  0-C , 18-H ) :   0.9219
B(  0-C , 19-H ) :   0.9389 B(  1-C ,  7-C ) :   1.6822 B(  1-C , 12-H ) :   0.9623
B(  2-C ,  3-C ) :   1.0593 B(  2-C , 21-C ) :   1.0874 B(  2-C , 24-H ) :   0.9481
B(  2-C , 25-H ) :   0.9515 B(  3-C ,  4-H ) :   0.9276 B(  3-C ,  5-H ) :   0.9360
B(  3-C ,  6-C ) :   0.9931 B(  6-C , 15-F ) :   1.1441 B(  6-C , 16-O ) :   1.9250
B(  7-C ,  8-N ) :   1.2254 B(  7-C ,  9-N ) :   1.2712 B(  8-N , 13-H ) :   0.9426
B(  8-N , 14-H ) :   0.9517 B(  9-N , 10-H ) :   0.9513 B(  9-N , 11-H ) :   0.8935
B( 11-H , 16-O ) :   0.1273 B( 17-C , 26-C ) :   1.0642 B( 17-C , 27-H ) :   0.9423
B( 17-C , 28-H ) :   0.9485 B( 20-C , 21-C ) :   1.0479 B( 20-C , 32-C ) :   1.0811
B( 20-C , 35-H ) :   0.9472 B( 20-C , 36-H ) :   0.9399 B( 21-C , 22-H ) :   0.9342
B( 21-C , 23-H ) :   0.9432 B( 26-C , 29-C ) :   1.0630 B( 26-C , 30-H ) :   0.9433
B( 26-C , 31-H ) :   0.9406 B( 29-C , 32-C ) :   1.0735 B( 29-C , 33-H ) :   0.9461
B( 29-C , 34-H ) :   0.9455 B( 32-C , 37-H ) :   0.9474 B( 32-C , 38-H ) :   0.9492

Dispersion correction           -0.020017275
FINAL SINGLE POINT ENERGY      -754.925055399186

DIPOLE MOMENT
-------------
                                X             Y             Z
Electronic contribution:     11.51020       8.95664       5.90226
Nuclear contribution   :    -11.48003      -8.36271      -6.78621
                        -----------------------------------------
Total Dipole Moment    :      0.03017       0.59393      -0.88396
                        -----------------------------------------
Magnitude (a.u.)       :      1.06539
Magnitude (Debye)      :      2.70799

Rotational constants in cm-1:     0.020055     0.013548     0.009477
Rotational constants in MHz :   601.234832   406.162779   284.104317

                             ****ORCA TERMINATED NORMALLY****
TOTAL RUN TIME: 0 days 0 hours 0 minutes 51 seconds 913 msec
