                         Program Version 5.0.0 -  RELEASE  -
|  1> !wB97X-D3 RIJCOSX def2-TZVP def2/J TightSCF
|  2> *xyz -1 1
|  3> C         -1.78916       -0.63923        4.55750
|  4> C         -2.79070       -0.78527        5.70281
|  5> H         -2.86731       -1.83565        6.00167
|  6> H         -3.77455       -0.48658        5.33481
|  7> C         -2.45380        0.05510        6.94145
|  8> C         -2.07842        1.48042        6.56410
|  9> H         -1.62558       -0.38216        7.49891
| 10> H         -3.32527        0.08775        7.59917
| 11> O         -0.90125        1.85816        6.82810
| 12> O         -2.93658        2.17731        5.96415
| 13> H         -2.09421       -1.25377        3.73641
| 14> H         -0.81933       -0.94475        4.89064
| 15> H         -1.75281        0.38306        4.24366
| 16> *
| 17> %MaxCore 64000
| 18>
| 19> %pal nprocs 18
| 20> end
| 21>
| 22> %scf
| 23>   MaxIter 150
| 24> end
| 25>
| 26>
| 27>                          ****END OF INPUT****

CARTESIAN COORDINATES (ANGSTROEM)
---------------------------------
  C     -1.789160   -0.639230    4.557500
  C     -2.790700   -0.785270    5.702810
  H     -2.867310   -1.835650    6.001670
  H     -3.774550   -0.486580    5.334810
  C     -2.453800    0.055100    6.941450
  C     -2.078420    1.480420    6.564100
  H     -1.625580   -0.382160    7.498910
  H     -3.325270    0.087750    7.599170
  O     -0.901250    1.858160    6.828100
  O     -2.936580    2.177310    5.964150
  H     -2.094210   -1.253770    3.736410
  H     -0.819330   -0.944750    4.890640
  H     -1.752810    0.383060    4.243660

 Total Charge           Charge          ....   -1
 Multiplicity           Mult            ....    1
 Number of Electrons    NEL             ....   48
 Basis Dimension        Dim             ....  228

ORBITAL ENERGIES
----------------

  NO   OCC          E(Eh)            E(eV)
   0   2.0000     -18.956450      -515.8312
   1   2.0000     -18.954914      -515.7894
   2   2.0000     -10.152715      -276.2694
   3   2.0000     -10.124700      -275.5071
   4   2.0000     -10.112564      -275.1769
   5   2.0000     -10.097220      -274.7593
   6   2.0000      -0.928014       -25.2525
   7   2.0000      -0.832003       -22.6400
   8   2.0000      -0.751833       -20.4584
   9   2.0000      -0.653222       -17.7751
  10   2.0000      -0.553502       -15.0616
  11   2.0000      -0.428401       -11.6574
  12   2.0000      -0.403629       -10.9833
  13   2.0000      -0.388895       -10.5824
  14   2.0000      -0.349790        -9.5183
  15   2.0000      -0.329081        -8.9548
  16   2.0000      -0.303548        -8.2600
  17   2.0000      -0.298617        -8.1258
  18   2.0000      -0.287370        -7.8197
  19   2.0000      -0.263443        -7.1687
  20   2.0000      -0.252392        -6.8679
  21   2.0000      -0.134669        -3.6645
  22   2.0000      -0.130279        -3.5451
  23   2.0000      -0.116171        -3.1612
  24   0.0000       0.251114         6.8332
  25   0.0000       0.285719         7.7748
  26   0.0000       0.300190         8.1686
  27   0.0000       0.312287         8.4978
  28   0.0000       0.324109         8.8194

MULLIKEN ATOMIC CHARGES
-----------------------
   0 C :   -0.333693
   1 C :   -0.141191
   2 H :    0.035954
   3 H :    0.066808
   4 C :   -0.137353
   5 C :    0.260410
   6 H :    0.044334
   7 H :    0.042588
   8 O :   -0.565678
   9 O :   -0.562251
  10 H :    0.061497
  11 H :    0.081936
  12 H :    0.146638
Sum of atomic charges:   -1.0000000

LOEWDIN ATOMIC CHARGES
----------------------
   0 C :   -0.311675
   1 C :   -0.301875
   2 H :    0.110871
   3 H :    0.127644
   4 C :   -0.266038
   5 C :   -0.689207
   6 H :    0.122098
   7 H :    0.123907
   8 O :   -0.128445
   9 O :   -0.120309
  10 H :    0.096856
  11 H :    0.109296
  12 H :    0.126878

  Mayer bond orders larger than 0.100000
B(  0-C ,  1-C ) :   0.9903 B(  0-C , 10-H ) :   0.9778 B(  0-C , 11-H ) :   0.9790
B(  0-C , 12-H ) :   0.9776 B(  1-C ,  2-H ) :   0.9705 B(  1-C ,  3-H ) :   0.9709
B(  1-C ,  4-C ) :   0.9828 B(  4-C ,  5-C ) :   0.9360 B(  4-C ,  6-H ) :   0.9658
B(  4-C ,  7-H ) :   0.9590 B(  5-C ,  8-O ) :   1.8475 B(  5-C ,  9-O ) :   1.8258

Dispersion correction           -0.003483604
FINAL SINGLE POINT ENERGY      -307.184082220603

DIPOLE MOMENT
-------------
                                X             Y             Z
Electronic contribution:      0.64443       6.45199       2.68487
Nuclear contribution   :     -1.12936      -8.75108      -3.05770
                        -----------------------------------------
Total Dipole Moment    :     -0.48493      -2.29909      -0.37283
                        -----------------------------------------
Magnitude (a.u.)       :      2.37907
Magnitude (Debye)      :      6.04711

Rotational constants in cm-1:     0.189092     0.083831     0.082013
Rotational constants in MHz :  5668.846461  2513.177001  2458.689996

                             ****ORCA TERMINATED NORMALLY****
TOTAL RUN TIME: 0 days 0 hours 0 minutes 19 seconds 208 msec
