                         Program Version 5.0.0 -  RELEASE  -
|  1> !wB97X-D3 RIJCOSX def2-TZVP def2/J TightSCF
|  2> *xyz 1 1
|  3> C         -0.69912        3.48945        3.75516
|  4> H         -0.96672        4.34901        3.14049
|  5> N         -1.08067        3.79296        5.15686
|  6> C          0.77696        3.13839        3.61741
|  7> H         -1.33146        2.65651        3.44632
|  8> H          1.37140        3.88834        4.14974
|  9> H          1.04693        3.23206        2.56133
| 10> C          1.11892        1.73117        4.11516
| 11> H         -0.87449        4.76274        5.42734
| 12> H         -0.68079        3.13476        5.83900
| 13> H         -2.05755        3.53169        5.34620
| 14> H          0.52974        1.01235        3.58499
| 15> H          0.90870        1.66226        5.16204
| 16> H          2.15725        1.53562        3.94624
| 17> *
| 18> %MaxCore 64000
| 19>
| 20> %pal nprocs 18
| 21> end
| 22>
| 23> %scf
| 24>   MaxIter 150
| 25> end
| 26>
| 27>
| 28>                          ****END OF INPUT****

CARTESIAN COORDINATES (ANGSTROEM)
---------------------------------
  C     -0.699120    3.489450    3.755160
  H     -0.966720    4.349010    3.140490
  N     -1.080670    3.792960    5.156860
  C      0.776960    3.138390    3.617410
  H     -1.331460    2.656510    3.446320
  H      1.371400    3.888340    4.149740
  H      1.046930    3.232060    2.561330
  C      1.118920    1.731170    4.115160
  H     -0.874490    4.762740    5.427340
  H     -0.680790    3.134760    5.839000
  H     -2.057550    3.531690    5.346200
  H      0.529740    1.012350    3.584990
  H      0.908700    1.662260    5.162040
  H      2.157250    1.535620    3.946240

 Total Charge           Charge          ....    1
 Multiplicity           Mult            ....    1
 Number of Electrons    NEL             ....   34
 Basis Dimension        Dim             ....  184

ORBITAL ENERGIES
----------------

  NO   OCC          E(Eh)            E(eV)
   0   2.0000     -14.753459      -401.4620
   1   2.0000     -10.521711      -286.3103
   2   2.0000     -10.451667      -284.4043
   3   2.0000     -10.415573      -283.4222
   4   2.0000      -1.330417       -36.2025
   5   2.0000      -1.089796       -29.6549
   6   2.0000      -0.996885       -27.1266
   7   2.0000      -0.915614       -24.9151
   8   2.0000      -0.893857       -24.3231
   9   2.0000      -0.863121       -23.4867
  10   2.0000      -0.792939       -21.5770
  11   2.0000      -0.729284       -19.8448
  12   2.0000      -0.704920       -19.1818
  13   2.0000      -0.680653       -18.5215
  14   2.0000      -0.617876       -16.8133
  15   2.0000      -0.612051       -16.6547
  16   2.0000      -0.606879       -16.5140
  17   0.0000      -0.106531        -2.8988
  18   0.0000      -0.047035        -1.2799
  19   0.0000      -0.045925        -1.2497
  20   0.0000      -0.021703        -0.5906
  21   0.0000       0.009297         0.2530

MULLIKEN ATOMIC CHARGES
-----------------------
   0 C :   -0.207162
   1 H :    0.202556
   2 N :   -0.315086
   3 C :   -0.243976
   4 H :    0.192009
   5 H :    0.135666
   6 H :    0.167803
   7 C :   -0.337745
   8 H :    0.348607
   9 H :    0.319968
  10 H :    0.335562
  11 H :    0.145671
  12 H :    0.082098
  13 H :    0.174028
Sum of atomic charges:    1.0000000

LOEWDIN ATOMIC CHARGES
----------------------
   0 C :   -0.257593
   1 H :    0.154696
   2 N :    0.167957
   3 C :   -0.286163
   4 H :    0.153108
   5 H :    0.145513
   6 H :    0.161321
   7 C :   -0.284020
   8 H :    0.225361
   9 H :    0.220224
  10 H :    0.225866
  11 H :    0.127331
  12 H :    0.109102
  13 H :    0.137296

  Mayer bond orders larger than 0.100000
B(  0-C ,  1-H ) :   0.9561 B(  0-C ,  2-N ) :   0.8600 B(  0-C ,  3-C ) :   0.9651
B(  0-C ,  4-H ) :   0.9640 B(  2-N ,  8-H ) :   0.8640 B(  2-N ,  9-H ) :   0.8776
B(  2-N , 10-H ) :   0.8775 B(  3-C ,  5-H ) :   0.9592 B(  3-C ,  6-H ) :   0.9520
B(  3-C ,  7-C ) :   0.9873 B(  7-C , 11-H ) :   0.9675 B(  7-C , 12-H ) :   0.9689
B(  7-C , 13-H ) :   0.9699

Dispersion correction           -0.002828484
FINAL SINGLE POINT ENERGY      -174.864741894942

DIPOLE MOMENT
-------------
                                X             Y             Z
Electronic contribution:     -1.68931       1.68913       0.74131
Nuclear contribution   :      0.19356      -0.71099       0.46987
                        -----------------------------------------
Total Dipole Moment    :     -1.49575       0.97813       1.21118
                        -----------------------------------------
Magnitude (a.u.)       :      2.15893
Magnitude (Debye)      :      5.48755

Rotational constants in cm-1:     0.465349     0.150671     0.132807
Rotational constants in MHz : 13950.800968  4516.999758  3981.442177

                             ****ORCA TERMINATED NORMALLY****
TOTAL RUN TIME: 0 days 0 hours 0 minutes 12 seconds 868 msec
