                         Program Version 5.0.0 -  RELEASE  -
|  1> !wB97X-D3 RIJCOSX def2-TZVP def2/J TightSCF
|  2> *xyz 0 1
|  3> C         -1.78916       -0.63923        4.55750
|  4> C         -2.79070       -0.78527        5.70281
|  5> H         -2.86731       -1.83565        6.00167
|  6> H         -3.77455       -0.48658        5.33481
|  7> C         -2.45380        0.05510        6.94145
|  8> C         -2.07842        1.48042        6.56410
|  9> H         -1.62558       -0.38216        7.49891
| 10> H         -3.32527        0.08775        7.59917
| 11> F         -0.90125        1.85816        6.82810
| 12> O         -2.93658        2.17731        5.96415
| 13> H         -2.09421       -1.25377        3.73641
| 14> H         -0.81933       -0.94475        4.89064
| 15> H         -1.75281        0.38306        4.24366
| 16> *
| 17> %MaxCore 64000
| 18>
| 19> %pal nprocs 18
| 20> end
| 21>
| 22> %scf
| 23>   MaxIter 150
| 24> end
| 25>
| 26>
| 27>                          ****END OF INPUT****

CARTESIAN COORDINATES (ANGSTROEM)
---------------------------------
  C     -1.789160   -0.639230    4.557500
  C     -2.790700   -0.785270    5.702810
  H     -2.867310   -1.835650    6.001670
  H     -3.774550   -0.486580    5.334810
  C     -2.453800    0.055100    6.941450
  C     -2.078420    1.480420    6.564100
  H     -1.625580   -0.382160    7.498910
  H     -3.325270    0.087750    7.599170
  F     -0.901250    1.858160    6.828100
  O     -2.936580    2.177310    5.964150
  H     -2.094210   -1.253770    3.736410
  H     -0.819330   -0.944750    4.890640
  H     -1.752810    0.383060    4.243660

 Total Charge           Charge          ....    0
 Multiplicity           Mult            ....    1
 Number of Electrons    NEL             ....   48
 Basis Dimension        Dim             ....  228

ORBITAL ENERGIES
----------------

  NO   OCC          E(Eh)            E(eV)
   0   2.0000     -24.851210      -676.2358
   1   2.0000     -19.234371      -523.3938
   2   2.0000     -10.454052      -284.4692
   3   2.0000     -10.304907      -280.4108
   4   2.0000     -10.290622      -280.0221
   5   2.0000     -10.266081      -279.3543
   6   2.0000      -1.428362       -38.8677
   7   2.0000      -1.146652       -31.2020
   8   2.0000      -0.933130       -25.3918
   9   2.0000      -0.845051       -22.9950
  10   2.0000      -0.770459       -20.9652
  11   2.0000      -0.719692       -19.5838
  12   2.0000      -0.649176       -17.6650
  13   2.0000      -0.632712       -17.2170
  14   2.0000      -0.614765       -16.7286
  15   2.0000      -0.567846       -15.4519
  16   2.0000      -0.556427       -15.1411
  17   2.0000      -0.517179       -14.0732
  18   2.0000      -0.501180       -13.6378
  19   2.0000      -0.467507       -12.7215
  20   2.0000      -0.453439       -12.3387
  21   2.0000      -0.442008       -12.0277
  22   2.0000      -0.437505       -11.9051
  23   2.0000      -0.388606       -10.5745
  24   0.0000       0.055046         1.4979
  25   0.0000       0.113558         3.0901
  26   0.0000       0.151812         4.1310
  27   0.0000       0.155589         4.2338
  28   0.0000       0.162472         4.4211

MULLIKEN ATOMIC CHARGES
-----------------------
   0 C :   -0.365997
   1 C :   -0.185135
   2 H :    0.108224
   3 H :    0.118856
   4 C :   -0.221724
   5 C :    0.391019
   6 H :    0.117420
   7 H :    0.138020
   8 F :   -0.111173
   9 O :   -0.358279
  10 H :    0.122304
  11 H :    0.112205
  12 H :    0.134259
Sum of atomic charges:    0.0000000

LOEWDIN ATOMIC CHARGES
----------------------
   0 C :   -0.298404
   1 C :   -0.279892
   2 H :    0.136093
   3 H :    0.142397
   4 C :   -0.237219
   5 C :   -0.486339
   6 H :    0.141474
   7 H :    0.156831
   8 F :    0.311477
   9 O :    0.057469
  10 H :    0.118998
  11 H :    0.115797
  12 H :    0.121318

  Mayer bond orders larger than 0.100000
B(  0-C ,  1-C ) :   0.9782 B(  0-C , 10-H ) :   0.9760 B(  0-C , 11-H ) :   0.9779
B(  0-C , 12-H ) :   0.9697 B(  1-C ,  2-H ) :   0.9728 B(  1-C ,  3-H ) :   0.9670
B(  1-C ,  4-C ) :   0.9735 B(  4-C ,  5-C ) :   0.9753 B(  4-C ,  6-H ) :   0.9659
B(  4-C ,  7-H ) :   0.9485 B(  5-C ,  8-F ) :   1.1489 B(  5-C ,  9-O ) :   2.0338

Dispersion correction           -0.003394302
FINAL SINGLE POINT ENERGY      -331.755583249791

DIPOLE MOMENT
-------------
                                X             Y             Z
Electronic contribution:      2.81492       8.97277       4.28742
Nuclear contribution   :     -2.53960     -10.05333      -3.90042
                        -----------------------------------------
Total Dipole Moment    :      0.27533      -1.08056       0.38700
                        -----------------------------------------
Magnitude (a.u.)       :      1.18033
Magnitude (Debye)      :      3.00016

Rotational constants in cm-1:     0.183043     0.080991     0.078218
Rotational constants in MHz :  5487.486217  2428.040459  2344.904824

                             ****ORCA TERMINATED NORMALLY****
TOTAL RUN TIME: 0 days 0 hours 0 minutes 14 seconds 939 msec
