                         Program Version 5.0.0 -  RELEASE  -
|  1> !wB97X-D3 RIJCOSX def2-TZVP def2/J TightSCF
|  2> *xyz 0 1
|  3> C         -0.69912        3.48945        3.75516
|  4> H         -0.96672        4.34901        3.14049
|  5> C         -1.08067        3.79296        5.15686
|  6> C          0.77696        3.13839        3.61741
|  7> H         -1.33146        2.65651        3.44632
|  8> H          1.37140        3.88834        4.14974
|  9> H          1.04693        3.23206        2.56133
| 10> C          1.11892        1.73117        4.11516
| 11> H         -0.87449        4.76274        5.42734
| 12> H         -0.68079        3.13476        5.83900
| 13> H         -2.05755        3.53169        5.34620
| 14> H          0.52974        1.01235        3.58499
| 15> H          0.90870        1.66226        5.16204
| 16> H          2.15725        1.53562        3.94624
| 17> *
| 18> %MaxCore 64000
| 19>
| 20> %pal nprocs 18
| 21> end
| 22>
| 23> %scf
| 24>   MaxIter 150
| 25> end
| 26>
| 27>
| 28>                          ****END OF INPUT****

CARTESIAN COORDINATES (ANGSTROEM)
---------------------------------
  C     -0.699120    3.489450    3.755160
  H     -0.966720    4.349010    3.140490
  C     -1.080670    3.792960    5.156860
  C      0.776960    3.138390    3.617410
  H     -1.331460    2.656510    3.446320
  H      1.371400    3.888340    4.149740
  H      1.046930    3.232060    2.561330
  C      1.118920    1.731170    4.115160
  H     -0.874490    4.762740    5.427340
  H     -0.680790    3.134760    5.839000
  H     -2.057550    3.531690    5.346200
  H      0.529740    1.012350    3.584990
  H      0.908700    1.662260    5.162040
  H      2.157250    1.535620    3.946240

 Total Charge           Charge          ....    0
 Multiplicity           Mult            ....    1
 Number of Electrons    NEL             ....   34
 Basis Dimension        Dim             ....  184

ORBITAL ENERGIES
----------------

  NO   OCC          E(Eh)            E(eV)
   0   2.0000     -10.263031      -279.2713
   1   2.0000     -10.258611      -279.1510
   2   2.0000     -10.251830      -278.9665
   3   2.0000     -10.231061      -278.4013
   4   2.0000      -0.918831       -25.0027
   5   2.0000      -0.844955       -22.9924
   6   2.0000      -0.756696       -20.5907
   7   2.0000      -0.678884       -18.4734
   8   2.0000      -0.569849       -15.5064
   9   2.0000      -0.560367       -15.2484
  10   2.0000      -0.527062       -14.3421
  11   2.0000      -0.483694       -13.1620
  12   2.0000      -0.474907       -12.9229
  13   2.0000      -0.459252       -12.4969
  14   2.0000      -0.416583       -11.3358
  15   2.0000      -0.413546       -11.2532
  16   2.0000      -0.408138       -11.1060
  17   0.0000       0.121162         3.2970
  18   0.0000       0.154696         4.2095
  19   0.0000       0.156952         4.2709
  20   0.0000       0.163285         4.4432
  21   0.0000       0.186244         5.0680

MULLIKEN ATOMIC CHARGES
-----------------------
   0 C :   -0.147856
   1 H :    0.094056
   2 C :   -0.354249
   3 C :   -0.164897
   4 H :    0.085137
   5 H :    0.089957
   6 H :    0.092195
   7 C :   -0.342437
   8 H :    0.115859
   9 H :    0.098195
  10 H :    0.110318
  11 H :    0.106739
  12 H :    0.101228
  13 H :    0.115755
Sum of atomic charges:    0.0000000

LOEWDIN ATOMIC CHARGES
----------------------
   0 C :   -0.299334
   1 H :    0.133293
   2 C :   -0.305809
   3 C :   -0.292486
   4 H :    0.134684
   5 H :    0.132540
   6 H :    0.130059
   7 C :   -0.302599
   8 H :    0.107436
   9 H :    0.109794
  10 H :    0.111727
  11 H :    0.114225
  12 H :    0.111849
  13 H :    0.114622

  Mayer bond orders larger than 0.100000
B(  0-C ,  1-H ) :   0.9750 B(  0-C ,  2-C ) :   0.9640 B(  0-C ,  3-C ) :   0.9664
B(  0-C ,  4-H ) :   0.9879 B(  2-C ,  8-H ) :   0.9796 B(  2-C ,  9-H ) :   0.9864
B(  2-C , 10-H ) :   0.9860 B(  3-C ,  5-H ) :   0.9739 B(  3-C ,  6-H ) :   0.9763
B(  3-C ,  7-C ) :   0.9838 B(  7-C , 11-H ) :   0.9794 B(  7-C , 12-H ) :   0.9787
B(  7-C , 13-H ) :   0.9830

Dispersion correction           -0.002731080
FINAL SINGLE POINT ENERGY      -158.451024938404

DIPOLE MOMENT
-------------
                                X             Y             Z
Electronic contribution:      0.12340       0.47164      -0.76094
Nuclear contribution   :     -0.14518      -0.47660       0.76944
                        -----------------------------------------
Total Dipole Moment    :     -0.02178      -0.00495       0.00850
                        -----------------------------------------
Magnitude (a.u.)       :      0.02390
Magnitude (Debye)      :      0.06075

Rotational constants in cm-1:     0.472466     0.157481     0.138592
Rotational constants in MHz : 14164.171374  4721.163669  4154.874787

                             ****ORCA TERMINATED NORMALLY****
TOTAL RUN TIME: 0 days 0 hours 0 minutes 9 seconds 202 msec
