                         Program Version 5.0.0 -  RELEASE  -
|  1> !wB97X-D3 RIJCOSX def2-TZVP def2/J TightSCF
|  2> *xyz 0 1
|  3> C         -1.78916       -0.63923        4.55750
|  4> C         -2.79070       -0.78527        5.70281
|  5> H         -2.86731       -1.83565        6.00167
|  6> H         -3.77455       -0.48658        5.33481
|  7> C         -2.45380        0.05510        6.94145
|  8> C         -2.07842        1.48042        6.56410
|  9> H         -1.62558       -0.38216        7.49891
| 10> H         -3.32527        0.08775        7.59917
| 11> O         -0.90125        1.85816        6.82810
| 12> F         -2.93658        2.17731        5.96415
| 13> H         -2.09421       -1.25377        3.73641
| 14> H         -0.81933       -0.94475        4.89064
| 15> H         -1.75281        0.38306        4.24366
| 16> *
| 17> %MaxCore 64000
| 18>
| 19> %pal nprocs 18
| 20> end
| 21>
| 22> %scf
| 23>   MaxIter 150
| 24> end
| 25>
| 26>
| 27>                          ****END OF INPUT****

CARTESIAN COORDINATES (ANGSTROEM)
---------------------------------
  C     -1.789160   -0.639230    4.557500
  C     -2.790700   -0.785270    5.702810
  H     -2.867310   -1.835650    6.001670
  H     -3.774550   -0.486580    5.334810
  C     -2.453800    0.055100    6.941450
  C     -2.078420    1.480420    6.564100
  H     -1.625580   -0.382160    7.498910
  H     -3.325270    0.087750    7.599170
  O     -0.901250    1.858160    6.828100
  F     -2.936580    2.177310    5.964150
  H     -2.094210   -1.253770    3.736410
  H     -0.819330   -0.944750    4.890640
  H     -1.752810    0.383060    4.243660

 Total Charge           Charge          ....    0
 Multiplicity           Mult            ....    1
 Number of Electrons    NEL             ....   48
 Basis Dimension        Dim             ....  228

ORBITAL ENERGIES
----------------

  NO   OCC          E(Eh)            E(eV)
   0   2.0000     -24.854661      -676.3297
   1   2.0000     -19.232478      -523.3423
   2   2.0000     -10.453458      -284.4530
   3   2.0000     -10.304181      -280.3910
   4   2.0000     -10.293986      -280.1136
   5   2.0000     -10.268294      -279.4145
   6   2.0000      -1.433903       -39.0185
   7   2.0000      -1.141337       -31.0574
   8   2.0000      -0.936281       -25.4775
   9   2.0000      -0.844900       -22.9909
  10   2.0000      -0.770841       -20.9756
  11   2.0000      -0.725238       -19.7347
  12   2.0000      -0.654526       -17.8106
  13   2.0000      -0.642819       -17.4920
  14   2.0000      -0.598612       -16.2891
  15   2.0000      -0.575997       -15.6737
  16   2.0000      -0.557407       -15.1678
  17   2.0000      -0.516868       -14.0647
  18   2.0000      -0.498150       -13.5553
  19   2.0000      -0.468669       -12.7531
  20   2.0000      -0.460870       -12.5409
  21   2.0000      -0.444905       -12.1065
  22   2.0000      -0.438384       -11.9290
  23   2.0000      -0.381714       -10.3870
  24   0.0000       0.058892         1.6025
  25   0.0000       0.109686         2.9847
  26   0.0000       0.149847         4.0775
  27   0.0000       0.155678         4.2362
  28   0.0000       0.164035         4.4636

MULLIKEN ATOMIC CHARGES
-----------------------
   0 C :   -0.341545
   1 C :   -0.208151
   2 H :    0.113093
   3 H :    0.109302
   4 C :   -0.213067
   5 C :    0.381213
   6 H :    0.138789
   7 H :    0.126675
   8 O :   -0.361447
   9 F :   -0.108457
  10 H :    0.121396
  11 H :    0.122858
  12 H :    0.119340
Sum of atomic charges:   -0.0000000

LOEWDIN ATOMIC CHARGES
----------------------
   0 C :   -0.295159
   1 C :   -0.287401
   2 H :    0.137719
   3 H :    0.136829
   4 C :   -0.234074
   5 C :   -0.490148
   6 H :    0.154320
   7 H :    0.148955
   8 O :    0.048077
   9 F :    0.323405
  10 H :    0.118160
  11 H :    0.120770
  12 H :    0.118546

  Mayer bond orders larger than 0.100000
B(  0-C ,  1-C ) :   0.9800 B(  0-C , 10-H ) :   0.9747 B(  0-C , 11-H ) :   0.9759
B(  0-C , 12-H ) :   0.9716 B(  1-C ,  2-H ) :   0.9721 B(  1-C ,  3-H ) :   0.9722
B(  1-C ,  4-C ) :   0.9643 B(  4-C ,  5-C ) :   0.9865 B(  4-C ,  6-H ) :   0.9694
B(  4-C ,  7-H ) :   0.9514 B(  5-C ,  8-O ) :   2.0373 B(  5-C ,  9-F ) :   1.1475

Dispersion correction           -0.003400970
FINAL SINGLE POINT ENERGY      -331.753047045892

DIPOLE MOMENT
-------------
                                X             Y             Z
Electronic contribution:     -0.63869       9.48831       2.81486
Nuclear contribution   :     -0.24054     -10.41383      -2.92452
                        -----------------------------------------
Total Dipole Moment    :     -0.87923      -0.92552      -0.10966
                        -----------------------------------------
Magnitude (a.u.)       :      1.28127
Magnitude (Debye)      :      3.25674

Rotational constants in cm-1:     0.180403     0.081943     0.079197
Rotational constants in MHz :  5408.335479  2456.587956  2374.272438

                             ****ORCA TERMINATED NORMALLY****
TOTAL RUN TIME: 0 days 0 hours 0 minutes 15 seconds 454 msec
