                         Program Version 5.0.0 -  RELEASE  -
|  1> !wB97X-D3 RIJCOSX def2-TZVP def2/J TightSCF xyzfile
|  2>
|  3> *xyzfile 0 1 D1.xyz
|  4>
|  5> %MaxCore 64000
|  6>
|  7> %pal nprocs 18
|  8> end
|  9>
| 10> %scf
| 11>   MaxIter 150
| 12> end
| 13>
| 14>
| 15>                          ****END OF INPUT****

CARTESIAN COORDINATES (ANGSTROEM)
---------------------------------
  C     -0.699123    3.489451    3.755163
  H     -0.966716    4.349013    3.140491
  C     -1.080669    3.792957    5.156857
  C      0.776956    3.138391    3.617408
  H     -1.331455    2.656510    3.446323
  H      1.371398    3.888342    4.149744
  H      1.046926    3.232057    2.561331
  C      1.118917    1.731170    4.115155
  H      2.200573    1.654226    4.254882
  C      0.659466    0.635182    3.153306
  H      0.677024    1.576674    5.103150
  H      1.312288    0.638870    2.274207
  H     -0.339563    0.868049    2.772876
  C      0.639957   -0.771175    3.755619
  C     -0.341821   -0.965537    4.915046
  H      1.648266   -1.028665    4.097015
  H      0.398568   -1.482386    2.958453
  H     -0.279892   -2.005646    5.252547
  C     -1.789164   -0.639231    4.557496
  H     -0.032380   -0.352918    5.765118
  H     -2.107151   -1.270102    3.719619
  H     -1.856352    0.391636    4.197604
  C     -2.790700   -0.785275    5.702812
  H     -2.867308   -1.835651    6.001675
  H     -3.774554   -0.486577    5.334807
  C     -2.453797    0.055101    6.941445
  C     -2.078419    1.480421    6.564098
  H     -1.625584   -0.382163    7.498914
  H     -3.325274    0.087746    7.599175
  H     -0.874488    4.762737    5.427344
  H     -0.680793    3.134762    5.839000
  H     -2.057550    3.531691    5.346197
  F     -0.901252    1.858156    6.828104
  O     -2.936582    2.177309    5.964151

 Total Charge           Charge          ....    0
 Multiplicity           Mult            ....    1
 Number of Electrons    NEL             ....  104
 Basis Dimension        Dim             ....  529

ORBITAL ENERGIES
----------------

  NO   OCC          E(Eh)            E(eV)
   0   2.0000     -24.863773      -676.5777
   1   2.0000     -19.242763      -523.6222
   2   2.0000     -10.466186      -284.7994
   3   2.0000     -10.310079      -280.5515
   4   2.0000     -10.292460      -280.0721
   5   2.0000     -10.277582      -279.6672
   6   2.0000     -10.274671      -279.5880
   7   2.0000     -10.269358      -279.4434
   8   2.0000     -10.262097      -279.2459
   9   2.0000     -10.259320      -279.1703
  10   2.0000     -10.252007      -278.9713
  11   2.0000     -10.241900      -278.6963
  12   2.0000     -10.185841      -277.1708
  13   2.0000      -1.447357       -39.3846
  14   2.0000      -1.162272       -31.6270
  15   2.0000      -0.950280       -25.8584
  16   2.0000      -0.925662       -25.1885
  17   2.0000      -0.894811       -24.3490
  18   2.0000      -0.865347       -23.5473
  19   2.0000      -0.822649       -22.3854
  20   2.0000      -0.797308       -21.6959
  21   2.0000      -0.768443       -20.9104
  22   2.0000      -0.737677       -20.0732
  23   2.0000      -0.717914       -19.5354
  24   2.0000      -0.675938       -18.3932
  25   2.0000      -0.667978       -18.1766
  26   2.0000      -0.661471       -17.9995
  27   2.0000      -0.643681       -17.5154
  28   2.0000      -0.624699       -16.9989
  29   2.0000      -0.582709       -15.8563
  30   2.0000      -0.578844       -15.7511
  31   2.0000      -0.561534       -15.2801
  32   2.0000      -0.558655       -15.2018
  33   2.0000      -0.536429       -14.5970
  34   2.0000      -0.528143       -14.3715
  35   2.0000      -0.512503       -13.9459
  36   2.0000      -0.505589       -13.7578
  37   2.0000      -0.496973       -13.5233
  38   2.0000      -0.485675       -13.2159
  39   2.0000      -0.476275       -12.9601
  40   2.0000      -0.463490       -12.6122
  41   2.0000      -0.454832       -12.3766
  42   2.0000      -0.445930       -12.1344
  43   2.0000      -0.438554       -11.9337
  44   2.0000      -0.432363       -11.7652
  45   2.0000      -0.420785       -11.4501
  46   2.0000      -0.416050       -11.3213
  47   2.0000      -0.404400       -11.0043
  48   2.0000      -0.400691       -10.9033
  49   2.0000      -0.389497       -10.5988
  50   2.0000      -0.386940       -10.5292
  51   2.0000      -0.358641        -9.7591
  52   0.0000       0.042286         1.1507
  53   0.0000       0.108969         2.9652
  54   0.0000       0.126258         3.4357
  55   0.0000       0.129039         3.5113
  56   0.0000       0.137674         3.7463

MULLIKEN ATOMIC CHARGES
-----------------------
   0 C :   -0.191667
   1 H :    0.090150
   2 C :   -0.403765
   3 C :   -0.118007
   4 H :    0.088550
   5 H :    0.097229
   6 H :    0.085708
   7 C :   -0.222152
   8 H :    0.100561
   9 C :   -0.256785
  10 H :    0.081945
  11 H :    0.108901
  12 H :    0.119004
  13 C :   -0.134730
  14 C :   -0.281923
  15 H :    0.101447
  16 H :    0.104100
  17 H :    0.108616
  18 C :   -0.220234
  19 H :    0.115138
  20 H :    0.114420
  21 H :    0.112402
  22 C :   -0.184552
  23 H :    0.114583
  24 H :    0.128529
  25 C :   -0.232371
  26 C :    0.402489
  27 H :    0.140370
  28 H :    0.149809
  29 H :    0.103107
  30 H :    0.098111
  31 H :    0.155985
  32 F :   -0.114061
  33 O :   -0.360906
Sum of atomic charges:   -0.0000000

LOEWDIN ATOMIC CHARGES
----------------------
   0 C :   -0.301135
   1 H :    0.132085
   2 C :   -0.329775
   3 C :   -0.266044
   4 H :    0.128665
   5 H :    0.134730
   6 H :    0.132628
   7 C :   -0.264555
   8 H :    0.133741
   9 C :   -0.269165
  10 H :    0.129575
  11 H :    0.135860
  12 H :    0.133478
  13 C :   -0.266383
  14 C :   -0.269589
  15 H :    0.136254
  16 H :    0.136167
  17 H :    0.136400
  18 C :   -0.267062
  19 H :    0.130164
  20 H :    0.140631
  21 H :    0.138978
  22 C :   -0.253163
  23 H :    0.140042
  24 H :    0.145772
  25 C :   -0.230972
  26 C :   -0.467211
  27 H :    0.143195
  28 H :    0.158120
  29 H :    0.099557
  30 H :    0.098952
  31 H :    0.110314
  32 F :    0.325043
  33 O :    0.084702

  Mayer bond orders larger than 0.100000
B(  0-C ,  1-H ) :   0.9775 B(  0-C ,  2-C ) :   0.9394 B(  0-C ,  3-C ) :   0.9488
B(  0-C ,  4-H ) :   1.0108 B(  2-C , 29-H ) :   0.9682 B(  2-C , 30-H ) :   0.9971
B(  2-C , 31-H ) :   0.9714 B(  3-C ,  5-H ) :   0.9721 B(  3-C ,  6-H ) :   0.9747
B(  3-C ,  7-C ) :   0.9772 B(  7-C ,  8-H ) :   0.9684 B(  7-C ,  9-C ) :   0.9487
B(  7-C , 10-H ) :   0.9966 B(  9-C , 11-H ) :   0.9693 B(  9-C , 12-H ) :   0.9948
B(  9-C , 13-C ) :   0.9555 B( 13-C , 14-C ) :   0.9806 B( 13-C , 15-H ) :   0.9798
B( 13-C , 16-H ) :   0.9801 B( 14-C , 17-H ) :   0.9708 B( 14-C , 18-C ) :   0.9240
B( 14-C , 19-H ) :   0.9900 B( 18-C , 20-H ) :   0.9684 B( 18-C , 21-H ) :   0.9793
B( 18-C , 22-C ) :   0.9870 B( 22-C , 23-H ) :   0.9755 B( 22-C , 24-H ) :   0.9693
B( 22-C , 25-C ) :   0.9526 B( 25-C , 26-C ) :   0.9678 B( 25-C , 27-H ) :   0.9781
B( 25-C , 28-H ) :   0.9496 B( 26-C , 32-F ) :   1.1074 B( 26-C , 33-O ) :   1.9684

Dispersion correction           -0.017256555
FINAL SINGLE POINT ENERGY      -606.920345704577

DIPOLE MOMENT
-------------
                                X             Y             Z
Electronic contribution:     -5.46801       2.47608      10.85511
Nuclear contribution   :      5.54676      -3.70047     -10.28793
                        -----------------------------------------
Total Dipole Moment    :      0.07875      -1.22439       0.56718
                        -----------------------------------------
Magnitude (a.u.)       :      1.35168
Magnitude (Debye)      :      3.43569

Rotational constants in cm-1:     0.028503     0.023389     0.015214
Rotational constants in MHz :   854.502405   701.197575   456.108322

                             ****ORCA TERMINATED NORMALLY****
TOTAL RUN TIME: 0 days 0 hours 1 minutes 26 seconds 643 msec
