                         Program Version 5.0.0 -  RELEASE  -
|  1> !wB97X-D3 RIJCOSX def2-TZVP def2/J TightSCF
|  2> *xyz -1 1
|  3> C         -0.81136       -2.90878       -4.60763
|  4> C         -1.91658       -2.48508       -3.64367
|  5> H         -2.55452       -1.71243       -4.09199
|  6> C         -1.36353       -1.98134       -2.29361
|  7> H         -2.55345       -3.35567       -3.45881
|  8> O         -0.35039       -2.74969       -1.79601
|  9> H         -2.22622       -1.90839       -1.60204
| 10> H         -1.05135       -0.91567       -2.44333
| 11> H         -1.24783       -3.24801       -5.52377
| 12> H         -0.24047       -3.70079       -4.16978
| 13> H         -0.17107       -2.07453       -4.80501
| 14> *
| 15>
| 16> %MaxCore 64000
| 17> %pal nprocs 18
| 18> end
| 19>
| 20> %scf
| 21>   MaxIter 150
| 22> end
| 23>
| 24>
| 25>                          ****END OF INPUT****

CARTESIAN COORDINATES (ANGSTROEM)
---------------------------------
  C     -0.811360   -2.908780   -4.607630
  C     -1.916580   -2.485080   -3.643670
  H     -2.554520   -1.712430   -4.091990
  C     -1.363530   -1.981340   -2.293610
  H     -2.553450   -3.355670   -3.458810
  O     -0.350390   -2.749690   -1.796010
  H     -2.226220   -1.908390   -1.602040
  H     -1.051350   -0.915670   -2.443330
  H     -1.247830   -3.248010   -5.523770
  H     -0.240470   -3.700790   -4.169780
  H     -0.171070   -2.074530   -4.805010

 Total Charge           Charge          ....   -1
 Multiplicity           Mult            ....    1
 Number of Electrons    NEL             ....   34
 Basis Dimension        Dim             ....  166

ORBITAL ENERGIES
----------------

  NO   OCC          E(Eh)            E(eV)
   0   2.0000     -18.878169      -513.7011
   1   2.0000     -10.082232      -274.3515
   2   2.0000     -10.081812      -274.3401
   3   2.0000     -10.077269      -274.2164
   4   2.0000      -0.788417       -21.4539
   5   2.0000      -0.691479       -18.8161
   6   2.0000      -0.574257       -15.6263
   7   2.0000      -0.463892       -12.6232
   8   2.0000      -0.372074       -10.1246
   9   2.0000      -0.359387        -9.7794
  10   2.0000      -0.304535        -8.2868
  11   2.0000      -0.279872        -7.6157
  12   2.0000      -0.247808        -6.7432
  13   2.0000      -0.236574        -6.4375
  14   2.0000      -0.197100        -5.3634
  15   2.0000      -0.053427        -1.4538
  16   2.0000      -0.049495        -1.3468
  17   0.0000       0.276140         7.5141
  18   0.0000       0.307336         8.3630
  19   0.0000       0.322736         8.7821
  20   0.0000       0.340552         9.2669
  21   0.0000       0.350442         9.5360

MULLIKEN ATOMIC CHARGES
-----------------------
   0 C :   -0.278052
   1 C :   -0.052345
   2 H :   -0.017522
   3 C :    0.085914
   4 H :    0.012844
   5 O :   -0.789914
   6 H :   -0.067912
   7 H :   -0.084776
   8 H :    0.036253
   9 H :    0.097940
  10 H :    0.057569
Sum of atomic charges:   -1.0000000

LOEWDIN ATOMIC CHARGES
----------------------
   0 C :   -0.337122
   1 C :   -0.330863
   2 H :    0.096639
   3 C :   -0.527298
   4 H :    0.106619
   5 O :   -0.422520
   6 H :    0.059631
   7 H :    0.053736
   8 H :    0.086709
   9 H :    0.112045
  10 H :    0.102424

  Mayer bond orders larger than 0.100000
B(  0-C ,  1-C ) :   0.9787 B(  0-C ,  8-H ) :   0.9752 B(  0-C ,  9-H ) :   0.9696
B(  0-C , 10-H ) :   0.9770 B(  1-C ,  2-H ) :   0.9518 B(  1-C ,  3-C ) :   0.9329
B(  1-C ,  4-H ) :   0.9691 B(  1-C ,  5-O ) :  -0.1370 B(  3-C ,  5-O ) :   1.5544
B(  3-C ,  6-H ) :   0.9331 B(  3-C ,  7-H ) :   0.9193

Dispersion correction           -0.001934106
FINAL SINGLE POINT ENERGY      -193.752253454844

DIPOLE MOMENT
-------------
                                X             Y             Z
Electronic contribution:      1.33897      -0.62554       2.61559
Nuclear contribution   :     -2.20255       0.75707      -4.26861
                        -----------------------------------------
Total Dipole Moment    :     -0.86359       0.13153      -1.65302
                        -----------------------------------------
Magnitude (a.u.)       :      1.86964
Magnitude (Debye)      :      4.75226

Rotational constants in cm-1:     0.480704     0.187939     0.150770
Rotational constants in MHz : 14411.155440  5634.276828  4519.982802

                             ****ORCA TERMINATED NORMALLY****
TOTAL RUN TIME: 0 days 0 hours 0 minutes 10 seconds 386 msec
