                         Program Version 5.0.0 -  RELEASE  -
|  1> !wB97X-D3 RIJCOSX def2-TZVP def2/J TightSCF
|  2> *xyz 1 1
|  3> C          1.64703       -2.34528       -5.02041
|  4> C          0.21763       -1.81402       -4.92439
|  5> C          2.20996       -2.81239       -3.66571
|  6> H          2.30838       -1.58870       -5.45713
|  7> H          1.67429       -3.20348       -5.69739
|  8> C          2.48901       -1.66851       -2.73754
|  9> N          3.59631       -0.94761       -2.95225
| 10> N          1.66394       -1.41369       -1.77781
| 11> H          0.81164       -1.96318       -1.70275
| 12> H          1.84550       -0.63508       -1.15875
| 13> H          4.20535       -1.17600       -3.73383
| 14> H          3.81723       -0.12585       -2.40604
| 15> H          3.14311       -3.36280       -3.81152
| 16> H          1.48768       -3.45893       -3.16521
| 17> H         -0.11459       -1.50684       -5.89401
| 18> H          0.19193       -0.97796       -4.25713
| 19> H         -0.42543       -2.58523       -4.55479
| 20> *
| 21>
| 22> %MaxCore 64000
| 23> %pal nprocs 18
| 24> end
| 25>
| 26> %scf
| 27>   MaxIter 150
| 28> end
| 29>
| 30>
| 31>                          ****END OF INPUT****

CARTESIAN COORDINATES (ANGSTROEM)
---------------------------------
  C      1.647030   -2.345280   -5.020410
  C      0.217630   -1.814020   -4.924390
  C      2.209960   -2.812390   -3.665710
  H      2.308380   -1.588700   -5.457130
  H      1.674290   -3.203480   -5.697390
  C      2.489010   -1.668510   -2.737540
  N      3.596310   -0.947610   -2.952250
  N      1.663940   -1.413690   -1.777810
  H      0.811640   -1.963180   -1.702750
  H      1.845500   -0.635080   -1.158750
  H      4.205350   -1.176000   -3.733830
  H      3.817230   -0.125850   -2.406040
  H      3.143110   -3.362800   -3.811520
  H      1.487680   -3.458930   -3.165210
  H     -0.114590   -1.506840   -5.894010
  H      0.191930   -0.977960   -4.257130
  H     -0.425430   -2.585230   -4.554790

 Total Charge           Charge          ....    1
 Multiplicity           Mult            ....    1
 Number of Electrons    NEL             ....   48
 Basis Dimension        Dim             ....  252

ORBITAL ENERGIES
----------------

  NO   OCC          E(Eh)            E(eV)
   0   2.0000     -14.669198      -399.1692
   1   2.0000     -14.659680      -398.9102
   2   2.0000     -10.596415      -288.3431
   3   2.0000     -10.468299      -284.8569
   4   2.0000     -10.435680      -283.9693
   5   2.0000     -10.398670      -282.9622
   6   2.0000      -1.320564       -35.9344
   7   2.0000      -1.222132       -33.2559
   8   2.0000      -1.089415       -29.6445
   9   2.0000      -1.000737       -27.2314
  10   2.0000      -0.939964       -25.5777
  11   2.0000      -0.892052       -24.2740
  12   2.0000      -0.869960       -23.6728
  13   2.0000      -0.840853       -22.8808
  14   2.0000      -0.799646       -21.7595
  15   2.0000      -0.753766       -20.5110
  16   2.0000      -0.723981       -19.7005
  17   2.0000      -0.697063       -18.9681
  18   2.0000      -0.668346       -18.1866
  19   2.0000      -0.657386       -17.8884
  20   2.0000      -0.598420       -16.2838
  21   2.0000      -0.594340       -16.1728
  22   2.0000      -0.589201       -16.0330
  23   2.0000      -0.577630       -15.7181
  24   0.0000      -0.120330        -3.2743
  25   0.0000      -0.072635        -1.9765
  26   0.0000      -0.030019        -0.8169
  27   0.0000      -0.024994        -0.6801
  28   0.0000       0.003004         0.0818

MULLIKEN ATOMIC CHARGES
-----------------------
   0 C :   -0.188544
   1 C :   -0.384430
   2 C :   -0.271484
   3 H :    0.127674
   4 H :    0.159050
   5 C :    0.322400
   6 N :   -0.407707
   7 N :   -0.348828
   8 H :    0.317335
   9 H :    0.294253
  10 H :    0.315715
  11 H :    0.293576
  12 H :    0.192971
  13 H :    0.160606
  14 H :    0.166381
  15 H :    0.112156
  16 H :    0.138877
Sum of atomic charges:    1.0000000

LOEWDIN ATOMIC CHARGES
----------------------
   0 C :   -0.267054
   1 C :   -0.288047
   2 C :   -0.199975
   3 H :    0.140563
   4 H :    0.154318
   5 C :   -0.287366
   6 N :    0.090061
   7 N :    0.130571
   8 H :    0.216696
   9 H :    0.204403
  10 H :    0.209739
  11 H :    0.195698
  12 H :    0.168296
  13 H :    0.160340
  14 H :    0.133894
  15 H :    0.113797
  16 H :    0.124066

  Mayer bond orders larger than 0.100000
B(  0-C ,  1-C ) :   0.9573 B(  0-C ,  2-C ) :   0.9353 B(  0-C ,  3-H ) :   0.9662
B(  0-C ,  4-H ) :   0.9592 B(  1-C , 14-H ) :   0.9696 B(  1-C , 15-H ) :   0.9727
B(  1-C , 16-H ) :   0.9707 B(  2-C ,  5-C ) :   0.9635 B(  2-C , 12-H ) :   0.9496
B(  2-C , 13-H ) :   0.9802 B(  5-C ,  6-N ) :   1.4191 B(  5-C ,  7-N ) :   1.5084
B(  6-N , 10-H ) :   0.8806 B(  6-N , 11-H ) :   0.8893 B(  7-N ,  8-H ) :   0.8736
B(  7-N ,  9-H ) :   0.8841

Dispersion correction           -0.004634589
FINAL SINGLE POINT ENERGY      -268.376351418088

DIPOLE MOMENT
-------------
                                X             Y             Z
Electronic contribution:      3.27390       1.28119       4.38023
Nuclear contribution   :     -2.54148      -0.64126      -3.14660
                        -----------------------------------------
Total Dipole Moment    :      0.73242       0.63993       1.23362
                        -----------------------------------------
Magnitude (a.u.)       :      1.57092
Magnitude (Debye)      :      3.99295

Rotational constants in cm-1:     0.179759     0.078784     0.067518
Rotational constants in MHz :  5389.046501  2361.884510  2024.132984

                             ****ORCA TERMINATED NORMALLY****
TOTAL RUN TIME: 0 days 0 hours 0 minutes 22 seconds 56 msec
