                         Program Version 5.0.0 -  RELEASE  -
|  1> !wB97X-D3 RIJCOSX def2-TZVP def2/J TightSCF
|  2> *xyz 0 1
|  3> C         -0.81136       -2.90878       -4.60763
|  4> C         -1.91658       -2.48508       -3.64367
|  5> H         -2.55452       -1.71243       -4.09199
|  6> C         -1.36353       -1.98134       -2.29361
|  7> H         -2.55345       -3.35567       -3.45881
|  8> F         -0.35039       -2.74969       -1.79601
|  9> H         -2.22622       -1.90839       -1.60204
| 10> H         -1.05135       -0.91567       -2.44333
| 11> H         -1.24783       -3.24801       -5.52377
| 12> H         -0.24047       -3.70079       -4.16978
| 13> H         -0.17107       -2.07453       -4.80501
| 14> *
| 15>
| 16> %MaxCore 64000
| 17> %pal nprocs 18
| 18> end
| 19>
| 20> %scf
| 21>   MaxIter 150
| 22> end
| 23>
| 24>
| 25>                          ****END OF INPUT****

CARTESIAN COORDINATES (ANGSTROEM)
---------------------------------
  C     -0.811360   -2.908780   -4.607630
  C     -1.916580   -2.485080   -3.643670
  H     -2.554520   -1.712430   -4.091990
  C     -1.363530   -1.981340   -2.293610
  H     -2.553450   -3.355670   -3.458810
  F     -0.350390   -2.749690   -1.796010
  H     -2.226220   -1.908390   -1.602040
  H     -1.051350   -0.915670   -2.443330
  H     -1.247830   -3.248010   -5.523770
  H     -0.240470   -3.700790   -4.169780
  H     -0.171070   -2.074530   -4.805010

 Total Charge           Charge          ....    0
 Multiplicity           Mult            ....    1
 Number of Electrons    NEL             ....   34
 Basis Dimension        Dim             ....  166

ORBITAL ENERGIES
----------------

  NO   OCC          E(Eh)            E(eV)
   0   2.0000     -24.771172      -674.0579
   1   2.0000     -10.351357      -281.6747
   2   2.0000     -10.279540      -279.7205
   3   2.0000     -10.257181      -279.1121
   4   2.0000      -1.315611       -35.7996
   5   2.0000      -0.904362       -24.6089
   6   2.0000      -0.803268       -21.8580
   7   2.0000      -0.704394       -19.1675
   8   2.0000      -0.609854       -16.5950
   9   2.0000      -0.596354       -16.2276
  10   2.0000      -0.573918       -15.6171
  11   2.0000      -0.535502       -14.5718
  12   2.0000      -0.495424       -13.4812
  13   2.0000      -0.468730       -12.7548
  14   2.0000      -0.451148       -12.2764
  15   2.0000      -0.418813       -11.3965
  16   2.0000      -0.414262       -11.2727
  17   0.0000       0.117898         3.2082
  18   0.0000       0.150346         4.0911
  19   0.0000       0.163037         4.4365
  20   0.0000       0.176929         4.8145
  21   0.0000       0.190293         5.1781

MULLIKEN ATOMIC CHARGES
-----------------------
   0 C :   -0.330049
   1 C :   -0.196829
   2 H :    0.100917
   3 C :    0.038449
   4 H :    0.097451
   5 F :   -0.235444
   6 H :    0.094725
   7 H :    0.087395
   8 H :    0.114571
   9 H :    0.126221
  10 H :    0.102594
Sum of atomic charges:    0.0000000

LOEWDIN ATOMIC CHARGES
----------------------
   0 C :   -0.306163
   1 C :   -0.302847
   2 H :    0.136720
   3 C :   -0.350732
   4 H :    0.132146
   5 F :    0.103221
   6 H :    0.118566
   7 H :    0.119151
   8 H :    0.115273
   9 H :    0.119270
  10 H :    0.115394

  Mayer bond orders larger than 0.100000
B(  0-C ,  1-C ) :   0.9796 B(  0-C ,  8-H ) :   0.9788 B(  0-C ,  9-H ) :   0.9761
B(  0-C , 10-H ) :   0.9763 B(  1-C ,  2-H ) :   0.9607 B(  1-C ,  3-C ) :   0.9933
B(  1-C ,  4-H ) :   0.9733 B(  3-C ,  5-F ) :   0.9857 B(  3-C ,  6-H ) :   0.9759
B(  3-C ,  7-H ) :   0.9717

Dispersion correction           -0.001926563
FINAL SINGLE POINT ENERGY      -218.401235268666

DIPOLE MOMENT
-------------
                                X             Y             Z
Electronic contribution:      2.60396      -0.71113       5.49955
Nuclear contribution   :     -3.10989       1.02097      -5.82098
                        -----------------------------------------
Total Dipole Moment    :     -0.50594       0.30984      -0.32142
                        -----------------------------------------
Magnitude (a.u.)       :      0.67475
Magnitude (Debye)      :      1.71508

Rotational constants in cm-1:     0.466172     0.177379     0.142652
Rotational constants in MHz : 13975.492374  5317.681709  4276.599690

                             ****ORCA TERMINATED NORMALLY****
TOTAL RUN TIME: 0 days 0 hours 0 minutes 10 seconds 22 msec
