                         Program Version 5.0.0 -  RELEASE  -
|  1> !wB97X-D3 RIJCOSX def2-TZVP def2/J TightSCF
|  2> *xyz 0 1
|  3> C          1.64703       -2.34528       -5.02041
|  4> C          0.21763       -1.81402       -4.92439
|  5> C          2.20996       -2.81239       -3.66571
|  6> H          2.30838       -1.58870       -5.45713
|  7> H          1.67429       -3.20348       -5.69739
|  8> C          2.48901       -1.66851       -2.73754
|  9> C          3.59631       -0.94761       -2.95225
| 10> N          1.66394       -1.41369       -1.77781
| 11> H          0.81164       -1.96318       -1.70275
| 12> H          1.84550       -0.63508       -1.15875
| 13> H          4.20535       -1.17600       -3.73383
| 14> H          3.81723       -0.12585       -2.40604
| 15> H          3.14311       -3.36280       -3.81152
| 16> H          1.48768       -3.45893       -3.16521
| 17> H         -0.11459       -1.50684       -5.89401
| 18> H          0.19193       -0.97796       -4.25713
| 19> H         -0.42543       -2.58523       -4.55479
| 20> *
| 21>
| 22> %MaxCore 64000
| 23> %pal nprocs 18
| 24> end
| 25>
| 26> %scf
| 27>   MaxIter 150
| 28> end
| 29>
| 30>
| 31>                          ****END OF INPUT****

CARTESIAN COORDINATES (ANGSTROEM)
---------------------------------
  C      1.647030   -2.345280   -5.020410
  C      0.217630   -1.814020   -4.924390
  C      2.209960   -2.812390   -3.665710
  H      2.308380   -1.588700   -5.457130
  H      1.674290   -3.203480   -5.697390
  C      2.489010   -1.668510   -2.737540
  C      3.596310   -0.947610   -2.952250
  N      1.663940   -1.413690   -1.777810
  H      0.811640   -1.963180   -1.702750
  H      1.845500   -0.635080   -1.158750
  H      4.205350   -1.176000   -3.733830
  H      3.817230   -0.125850   -2.406040
  H      3.143110   -3.362800   -3.811520
  H      1.487680   -3.458930   -3.165210
  H     -0.114590   -1.506840   -5.894010
  H      0.191930   -0.977960   -4.257130
  H     -0.425430   -2.585230   -4.554790

 Total Charge           Charge          ....    0
 Multiplicity           Mult            ....    1
 Number of Electrons    NEL             ....   48
 Basis Dimension        Dim             ....  252

ORBITAL ENERGIES
----------------

  NO   OCC          E(Eh)            E(eV)
   0   2.0000     -14.424506      -392.5108
   1   2.0000     -10.294915      -280.1389
   2   2.0000     -10.272401      -279.5262
   3   2.0000     -10.269277      -279.4412
   4   2.0000     -10.254341      -279.0348
   5   2.0000     -10.199242      -277.5355
   6   2.0000      -1.056340       -28.7445
   7   2.0000      -0.910252       -24.7692
   8   2.0000      -0.844626       -22.9834
   9   2.0000      -0.791514       -21.5382
  10   2.0000      -0.717170       -19.5152
  11   2.0000      -0.667769       -18.1709
  12   2.0000      -0.631844       -17.1933
  13   2.0000      -0.586594       -15.9620
  14   2.0000      -0.553847       -15.0709
  15   2.0000      -0.529822       -14.4172
  16   2.0000      -0.501257       -13.6399
  17   2.0000      -0.486475       -13.2376
  18   2.0000      -0.468998       -12.7621
  19   2.0000      -0.453341       -12.3360
  20   2.0000      -0.431836       -11.7509
  21   2.0000      -0.420247       -11.4355
  22   2.0000      -0.416532       -11.3344
  23   2.0000      -0.269877        -7.3437
  24   0.0000       0.104730         2.8498
  25   0.0000       0.124302         3.3824
  26   0.0000       0.143013         3.8916
  27   0.0000       0.148067         4.0291
  28   0.0000       0.163962         4.4616

MULLIKEN ATOMIC CHARGES
-----------------------
   0 C :   -0.140298
   1 C :   -0.376222
   2 C :   -0.218109
   3 H :    0.109051
   4 H :    0.092259
   5 C :    0.197830
   6 C :   -0.460044
   7 N :   -0.465326
   8 H :    0.242038
   9 H :    0.243762
  10 H :    0.108758
  11 H :    0.095577
  12 H :    0.133549
  13 H :    0.092959
  14 H :    0.118681
  15 H :    0.122989
  16 H :    0.102545
Sum of atomic charges:    0.0000000

LOEWDIN ATOMIC CHARGES
----------------------
   0 C :   -0.278940
   1 C :   -0.305131
   2 C :   -0.214563
   3 H :    0.136991
   4 H :    0.130269
   5 C :   -0.376804
   6 C :   -0.290252
   7 N :    0.015922
   8 H :    0.175484
   9 H :    0.179019
  10 H :    0.104258
  11 H :    0.093036
  12 H :    0.151273
  13 H :    0.134338
  14 H :    0.115851
  15 H :    0.116925
  16 H :    0.112324

  Mayer bond orders larger than 0.100000
B(  0-C ,  1-C ) :   0.9709 B(  0-C ,  2-C ) :   0.9563 B(  0-C ,  3-H ) :   0.9687
B(  0-C ,  4-H ) :   0.9719 B(  1-C , 14-H ) :   0.9802 B(  1-C , 15-H ) :   0.9767
B(  1-C , 16-H ) :   0.9800 B(  2-C ,  5-C ) :   0.9168 B(  2-C , 12-H ) :   0.9801
B(  2-C , 13-H ) :   1.0016 B(  5-C ,  6-C ) :   1.7357 B(  5-C ,  7-N ) :   1.2009
B(  6-C , 10-H ) :   1.0004 B(  6-C , 11-H ) :   0.9944 B(  7-N ,  8-H ) :   0.9164
B(  7-N ,  9-H ) :   0.9143

Dispersion correction           -0.004626231
FINAL SINGLE POINT ENERGY      -251.899815370077

DIPOLE MOMENT
-------------
                                X             Y             Z
Electronic contribution:      1.41114       0.27177       3.30602
Nuclear contribution   :     -2.15663      -0.43764      -3.01766
                        -----------------------------------------
Total Dipole Moment    :     -0.74550      -0.16587       0.28836
                        -----------------------------------------
Magnitude (a.u.)       :      0.81635
Magnitude (Debye)      :      2.07500

Rotational constants in cm-1:     0.184410     0.080989     0.069427
Rotational constants in MHz :  5528.462717  2427.993314  2081.376031

                             ****ORCA TERMINATED NORMALLY****
TOTAL RUN TIME: 0 days 0 hours 0 minutes 24 seconds 346 msec
