                         Program Version 5.0.0 -  RELEASE  -
|  1> !wB97X-D3 RIJCOSX def2-TZVP def2/J TightSCF
|  2> *xyz 0 1
|  3> C          1.64703       -2.34528       -5.02041
|  4> C          0.21763       -1.81402       -4.92439
|  5> C          2.20996       -2.81239       -3.66571
|  6> H          2.30838       -1.58870       -5.45713
|  7> H          1.67429       -3.20348       -5.69739
|  8> C          2.48901       -1.66851       -2.73754
|  9> N          3.59631       -0.94761       -2.95225
| 10> C          1.66394       -1.41369       -1.77781
| 11> H          0.81164       -1.96318       -1.70275
| 12> H          1.84550       -0.63508       -1.15875
| 13> H          4.20535       -1.17600       -3.73383
| 14> H          3.81723       -0.12585       -2.40604
| 15> H          3.14311       -3.36280       -3.81152
| 16> H          1.48768       -3.45893       -3.16521
| 17> H         -0.11459       -1.50684       -5.89401
| 18> H          0.19193       -0.97796       -4.25713
| 19> H         -0.42543       -2.58523       -4.55479
| 20> *
| 21>
| 22> %MaxCore 64000
| 23> %pal nprocs 18
| 24> end
| 25>
| 26> %scf
| 27>   MaxIter 150
| 28> end
| 29>
| 30>
| 31>                          ****END OF INPUT****

CARTESIAN COORDINATES (ANGSTROEM)
---------------------------------
  C      1.647030   -2.345280   -5.020410
  C      0.217630   -1.814020   -4.924390
  C      2.209960   -2.812390   -3.665710
  H      2.308380   -1.588700   -5.457130
  H      1.674290   -3.203480   -5.697390
  C      2.489010   -1.668510   -2.737540
  N      3.596310   -0.947610   -2.952250
  C      1.663940   -1.413690   -1.777810
  H      0.811640   -1.963180   -1.702750
  H      1.845500   -0.635080   -1.158750
  H      4.205350   -1.176000   -3.733830
  H      3.817230   -0.125850   -2.406040
  H      3.143110   -3.362800   -3.811520
  H      1.487680   -3.458930   -3.165210
  H     -0.114590   -1.506840   -5.894010
  H      0.191930   -0.977960   -4.257130
  H     -0.425430   -2.585230   -4.554790

 Total Charge           Charge          ....    0
 Multiplicity           Mult            ....    1
 Number of Electrons    NEL             ....   48
 Basis Dimension        Dim             ....  252

ORBITAL ENERGIES
----------------

  NO   OCC          E(Eh)            E(eV)
   0   2.0000     -14.417334      -392.3156
   1   2.0000     -10.291359      -280.0421
   2   2.0000     -10.270701      -279.4800
   3   2.0000     -10.270359      -279.4707
   4   2.0000     -10.248728      -278.8821
   5   2.0000     -10.202470      -277.6233
   6   2.0000      -1.037154       -28.2224
   7   2.0000      -0.909146       -24.7391
   8   2.0000      -0.851523       -23.1711
   9   2.0000      -0.796555       -21.6754
  10   2.0000      -0.706110       -19.2142
  11   2.0000      -0.668550       -18.1922
  12   2.0000      -0.622212       -16.9312
  13   2.0000      -0.577767       -15.7218
  14   2.0000      -0.548173       -14.9165
  15   2.0000      -0.541856       -14.7447
  16   2.0000      -0.494627       -13.4595
  17   2.0000      -0.487245       -13.2586
  18   2.0000      -0.468265       -12.7421
  19   2.0000      -0.458163       -12.4673
  20   2.0000      -0.429701       -11.6928
  21   2.0000      -0.414239       -11.2720
  22   2.0000      -0.410564       -11.1720
  23   2.0000      -0.282296        -7.6817
  24   0.0000       0.106873         2.9082
  25   0.0000       0.127883         3.4799
  26   0.0000       0.142393         3.8747
  27   0.0000       0.152038         4.1372
  28   0.0000       0.167317         4.5529

MULLIKEN ATOMIC CHARGES
-----------------------
   0 C :   -0.144543
   1 C :   -0.366244
   2 C :   -0.226769
   3 H :    0.088935
   4 H :    0.097728
   5 C :    0.227630
   6 N :   -0.523717
   7 C :   -0.424643
   8 H :    0.114104
   9 H :    0.092468
  10 H :    0.241541
  11 H :    0.239835
  12 H :    0.111601
  13 H :    0.119143
  14 H :    0.113998
  15 H :    0.135125
  16 H :    0.103809
Sum of atomic charges:   -0.0000000

LOEWDIN ATOMIC CHARGES
----------------------
   0 C :   -0.284504
   1 C :   -0.301161
   2 C :   -0.215345
   3 H :    0.129465
   4 H :    0.131185
   5 C :   -0.363423
   6 N :   -0.019614
   7 C :   -0.262881
   8 H :    0.110582
   9 H :    0.100703
  10 H :    0.169564
  11 H :    0.169337
  12 H :    0.138384
  13 H :    0.149269
  14 H :    0.113807
  15 H :    0.119873
  16 H :    0.114760

  Mayer bond orders larger than 0.100000
B(  0-C ,  1-C ) :   0.9765 B(  0-C ,  2-C ) :   0.9511 B(  0-C ,  3-H ) :   0.9703
B(  0-C ,  4-H ) :   0.9749 B(  1-C , 14-H ) :   0.9796 B(  1-C , 15-H ) :   0.9772
B(  1-C , 16-H ) :   0.9799 B(  2-C ,  5-C ) :   0.9342 B(  2-C , 12-H ) :   0.9771
B(  2-C , 13-H ) :   1.0026 B(  5-C ,  6-N ) :   1.1231 B(  5-C ,  7-C ) :   1.7866
B(  6-N , 10-H ) :   0.9222 B(  6-N , 11-H ) :   0.9208 B(  7-C ,  8-H ) :   1.0003
B(  7-C ,  9-H ) :   0.9944

Dispersion correction           -0.004618596
FINAL SINGLE POINT ENERGY      -251.904194768727

DIPOLE MOMENT
-------------
                                X             Y             Z
Electronic contribution:      3.14308       0.70832       2.28382
Nuclear contribution   :     -2.61370      -0.54788      -2.73987
                        -----------------------------------------
Total Dipole Moment    :      0.52938       0.16045      -0.45605
                        -----------------------------------------
Magnitude (a.u.)       :      0.71691
Magnitude (Debye)      :      1.82225

Rotational constants in cm-1:     0.186678     0.079942     0.069329
Rotational constants in MHz :  5596.476267  2396.611465  2078.426257

                             ****ORCA TERMINATED NORMALLY****
TOTAL RUN TIME: 0 days 0 hours 0 minutes 16 seconds 342 msec
