                         Program Version 5.0.0 -  RELEASE  -
|  1> !wB97X-D3 RIJCOSX def2-TZVP def2/J TightSCF xyzfile
|  2>
|  3> *xyzfile 0 1 D1.xyz
|  4>
|  5> %MaxCore 64000
|  6>
|  7> %pal nprocs 18
|  8> end
|  9>
| 10> %scf
| 11>   MaxIter 150
| 12> end
| 13>
| 14>
| 15>                          ****END OF INPUT****

CARTESIAN COORDINATES (ANGSTROEM)
---------------------------------
  C      1.647032   -2.345276   -5.020411
  C      0.217628   -1.814022   -4.924389
  C      2.209964   -2.812388   -3.665708
  C     -0.811356   -2.908780   -4.607625
  C     -1.916579   -2.485081   -3.643665
  H     -2.554525   -1.712428   -4.091993
  C     -1.363531   -1.981337   -2.293608
  H     -2.553448   -3.355667   -3.458815
  F     -0.350395   -2.749689   -1.796006
  H      2.308385   -1.588704   -5.457128
  H      1.674286   -3.203478   -5.697392
  C      2.489007   -1.668510   -2.737538
  C      3.596314   -0.947608   -2.952247
  N      1.663936   -1.413685   -1.777806
  H      0.811642   -1.963178   -1.702755
  H      1.845503   -0.635078   -1.158749
  H      4.205351   -1.176003   -3.733825
  H      3.817230   -0.125845   -2.406041
  H     -1.244829   -3.280884   -5.541040
  H     -0.306331   -3.757746   -4.142734
  H     -0.036244   -1.318555   -5.865303
  H      0.175004   -1.035382   -4.158095
  H      3.143106   -3.362803   -3.811524
  H      1.487683   -3.458935   -3.165211
  H     -2.226220   -1.908386   -1.602039
  H     -1.051353   -0.915671   -2.443331

 Total Charge           Charge          ....    0
 Multiplicity           Mult            ....    1
 Number of Electrons    NEL             ....   80
 Basis Dimension        Dim             ....  406

ORBITAL ENERGIES
----------------

  NO   OCC          E(Eh)            E(eV)
   0   2.0000     -24.819645      -675.3769
   1   2.0000     -14.388624      -391.5344
   2   2.0000     -10.374534      -282.3054
   3   2.0000     -10.293009      -280.0870
   4   2.0000     -10.279383      -279.7162
   5   2.0000     -10.276751      -279.6446
   6   2.0000     -10.268347      -279.4159
   7   2.0000     -10.265211      -279.3306
   8   2.0000     -10.261045      -279.2172
   9   2.0000     -10.184052      -277.1221
  10   2.0000      -1.372731       -37.3539
  11   2.0000      -1.034166       -28.1411
  12   2.0000      -0.939540       -25.5662
  13   2.0000      -0.896928       -24.4067
  14   2.0000      -0.851006       -23.1571
  15   2.0000      -0.805865       -21.9287
  16   2.0000      -0.779350       -21.2072
  17   2.0000      -0.723032       -19.6747
  18   2.0000      -0.697025       -18.9670
  19   2.0000      -0.683083       -18.5876
  20   2.0000      -0.639387       -17.3986
  21   2.0000      -0.635593       -17.2954
  22   2.0000      -0.614601       -16.7242
  23   2.0000      -0.588414       -16.0116
  24   2.0000      -0.567930       -15.4542
  25   2.0000      -0.560290       -15.2463
  26   2.0000      -0.539396       -14.6777
  27   2.0000      -0.517976       -14.0948
  28   2.0000      -0.517135       -14.0720
  29   2.0000      -0.485379       -13.2078
  30   2.0000      -0.466096       -12.6831
  31   2.0000      -0.458807       -12.4848
  32   2.0000      -0.454977       -12.3806
  33   2.0000      -0.449674       -12.2362
  34   2.0000      -0.434135       -11.8134
  35   2.0000      -0.424280       -11.5453
  36   2.0000      -0.412314       -11.2196
  37   2.0000      -0.402953       -10.9649
  38   2.0000      -0.399590       -10.8734
  39   2.0000      -0.252862        -6.8807
  40   0.0000       0.108964         2.9651
  41   0.0000       0.120214         3.2712
  42   0.0000       0.131146         3.5687
  43   0.0000       0.143354         3.9009
  44   0.0000       0.144128         3.9219

MULLIKEN ATOMIC CHARGES
-----------------------
   0 C :   -0.170492
   1 C :   -0.209094
   2 C :   -0.230918
   3 C :   -0.220757
   4 C :   -0.202630
   5 H :    0.117675
   6 C :   -0.067046
   7 H :    0.113364
   8 F :   -0.206429
   9 H :    0.118017
  10 H :    0.095464
  11 C :    0.215677
  12 C :   -0.482375
  13 N :   -0.509645
  14 H :    0.287418
  15 H :    0.224165
  16 H :    0.101054
  17 H :    0.089547
  18 H :    0.115109
  19 H :    0.115040
  20 H :    0.106649
  21 H :    0.106938
  22 H :    0.131349
  23 H :    0.104008
  24 H :    0.123571
  25 H :    0.134343
Sum of atomic charges:   -0.0000000

LOEWDIN ATOMIC CHARGES
----------------------
   0 C :   -0.254763
   1 C :   -0.259226
   2 C :   -0.213064
   3 C :   -0.268710
   4 C :   -0.275347
   5 H :    0.144121
   6 C :   -0.349720
   7 H :    0.137490
   8 F :    0.165989
   9 H :    0.139606
  10 H :    0.133918
  11 C :   -0.378068
  12 C :   -0.305903
  13 N :    0.013845
  14 H :    0.120846
  15 H :    0.170075
  16 H :    0.100992
  17 H :    0.090946
  18 H :    0.136939
  19 H :    0.139839
  20 H :    0.133941
  21 H :    0.137575
  22 H :    0.149520
  23 H :    0.134269
  24 H :    0.126878
  25 H :    0.128010

  Mayer bond orders larger than 0.100000
B(  0-C ,  1-C ) :   0.9850 B(  0-C ,  2-C ) :   0.9511 B(  0-C ,  9-H ) :   0.9669
B(  0-C , 10-H ) :   0.9729 B(  1-C ,  3-C ) :   0.9270 B(  1-C , 20-H ) :   0.9669
B(  1-C , 21-H ) :   0.9855 B(  2-C , 11-C ) :   0.9057 B(  2-C , 22-H ) :   0.9811
B(  2-C , 23-H ) :   1.0058 B(  3-C ,  4-C ) :   0.9679 B(  3-C , 18-H ) :   0.9692
B(  3-C , 19-H ) :   0.9892 B(  4-C ,  5-H ) :   0.9563 B(  4-C ,  6-C ) :   0.9924
B(  4-C ,  7-H ) :   0.9739 B(  6-C ,  8-F ) :   0.9143 B(  6-C , 24-H ) :   0.9728
B(  6-C , 25-H ) :   0.9802 B(  8-F , 14-H ) :   0.1104 B( 11-C , 12-C ) :   1.7138
B( 11-C , 13-N ) :   1.2354 B( 12-C , 16-H ) :   1.0020 B( 12-C , 17-H ) :   0.9968
B( 13-N , 14-H ) :   0.8395 B( 13-N , 15-H ) :   0.9227

Dispersion correction           -0.011043733
FINAL SINGLE POINT ENERGY      -469.084265196097

DIPOLE MOMENT
-------------
                                X             Y             Z
Electronic contribution:     -1.32185      -1.74896       6.93440
Nuclear contribution   :     -0.37390       1.73388      -6.94752
                        -----------------------------------------
Total Dipole Moment    :     -1.69576      -0.01508      -0.01313
                        -----------------------------------------
Magnitude (a.u.)       :      1.69587
Magnitude (Debye)      :      4.31057

Rotational constants in cm-1:     0.062220     0.032742     0.024374
Rotational constants in MHz :  1865.297979   981.573941   730.711364

                             ****ORCA TERMINATED NORMALLY****
TOTAL RUN TIME: 0 days 0 hours 0 minutes 43 seconds 309 msec
