                         Program Version 5.0.0 -  RELEASE  -
|  1> !wB97X-D3 RIJCOSX def2-TZVP def2/J TightSCF xyzfile
|  2>
|  3> *xyzfile 0 1 D2.xyz
|  4>
|  5> %MaxCore 64000
|  6>
|  7> %pal nprocs 18
|  8> end
|  9>
| 10> %scf
| 11>   MaxIter 150
| 12> end
| 13>
| 14>
| 15>                          ****END OF INPUT****

CARTESIAN COORDINATES (ANGSTROEM)
---------------------------------
  C      1.647032   -2.345276   -5.020411
  C      0.217628   -1.814022   -4.924389
  C      2.209964   -2.812388   -3.665708
  C     -0.811356   -2.908780   -4.607625
  C     -1.916579   -2.485081   -3.643665
  H     -2.554525   -1.712428   -4.091993
  C     -1.363531   -1.981337   -2.293608
  H     -2.553448   -3.355667   -3.458815
  F     -0.350395   -2.749689   -1.796006
  H      2.308385   -1.588704   -5.457128
  H      1.674286   -3.203478   -5.697392
  C      2.489007   -1.668510   -2.737538
  N      3.596314   -0.947608   -2.952247
  C      1.663936   -1.413685   -1.777806
  H      0.811642   -1.963178   -1.702755
  H      1.845503   -0.635078   -1.158749
  H      4.205351   -1.176003   -3.733825
  H      3.817230   -0.125845   -2.406041
  H     -1.244829   -3.280884   -5.541040
  H     -0.306331   -3.757746   -4.142734
  H     -0.036244   -1.318555   -5.865303
  H      0.175004   -1.035382   -4.158095
  H      3.143106   -3.362803   -3.811524
  H      1.487683   -3.458935   -3.165211
  H     -2.226220   -1.908386   -1.602039
  H     -1.051353   -0.915671   -2.443331

 Total Charge           Charge          ....    0
 Multiplicity           Mult            ....    1
 Number of Electrons    NEL             ....   80
 Basis Dimension        Dim             ....  406

ORBITAL ENERGIES
----------------

  NO   OCC          E(Eh)            E(eV)
   0   2.0000     -24.785723      -674.4538
   1   2.0000     -14.403496      -391.9391
   2   2.0000     -10.355106      -281.7768
   3   2.0000     -10.280694      -279.7519
   4   2.0000     -10.274177      -279.5746
   5   2.0000     -10.268766      -279.4273
   6   2.0000     -10.265915      -279.3497
   7   2.0000     -10.261912      -279.2408
   8   2.0000     -10.260264      -279.1960
   9   2.0000     -10.168919      -276.7104
  10   2.0000      -1.341158       -36.4948
  11   2.0000      -1.023151       -27.8413
  12   2.0000      -0.929997       -25.3065
  13   2.0000      -0.893501       -24.3134
  14   2.0000      -0.841916       -22.9097
  15   2.0000      -0.814458       -22.1625
  16   2.0000      -0.769760       -20.9462
  17   2.0000      -0.713344       -19.4111
  18   2.0000      -0.678206       -18.4549
  19   2.0000      -0.672362       -18.2959
  20   2.0000      -0.630110       -17.1462
  21   2.0000      -0.615805       -16.7569
  22   2.0000      -0.599213       -16.3054
  23   2.0000      -0.588876       -16.0241
  24   2.0000      -0.563579       -15.3358
  25   2.0000      -0.546465       -14.8701
  26   2.0000      -0.541420       -14.7328
  27   2.0000      -0.529244       -14.4015
  28   2.0000      -0.499727       -13.5983
  29   2.0000      -0.478808       -13.0290
  30   2.0000      -0.463710       -12.6182
  31   2.0000      -0.452242       -12.3061
  32   2.0000      -0.445144       -12.1130
  33   2.0000      -0.431706       -11.7473
  34   2.0000      -0.420015       -11.4292
  35   2.0000      -0.416267       -11.3272
  36   2.0000      -0.402550       -10.9539
  37   2.0000      -0.398777       -10.8513
  38   2.0000      -0.385467       -10.4891
  39   2.0000      -0.265192        -7.2162
  40   0.0000       0.114026         3.1028
  41   0.0000       0.121015         3.2930
  42   0.0000       0.129147         3.5143
  43   0.0000       0.147479         4.0131
  44   0.0000       0.155346         4.2272

MULLIKEN ATOMIC CHARGES
-----------------------
   0 C :   -0.170654
   1 C :   -0.197004
   2 C :   -0.250042
   3 C :   -0.216495
   4 C :   -0.199517
   5 H :    0.110085
   6 C :   -0.057193
   7 H :    0.107608
   8 F :   -0.190204
   9 H :    0.098397
  10 H :    0.101403
  11 C :    0.261856
  12 N :   -0.527431
  13 C :   -0.564856
  14 H :    0.230687
  15 H :    0.077238
  16 H :    0.233654
  17 H :    0.235476
  18 H :    0.109876
  19 H :    0.108690
  20 H :    0.101422
  21 H :    0.115894
  22 H :    0.111605
  23 H :    0.126589
  24 H :    0.113780
  25 H :    0.129137
Sum of atomic charges:   -0.0000000

LOEWDIN ATOMIC CHARGES
----------------------
   0 C :   -0.260800
   1 C :   -0.258879
   2 C :   -0.215132
   3 C :   -0.268359
   4 C :   -0.276528
   5 H :    0.141365
   6 C :   -0.348398
   7 H :    0.135873
   8 F :    0.165792
   9 H :    0.132075
  10 H :    0.134792
  11 C :   -0.372425
  12 N :   -0.027502
  13 C :   -0.267293
  14 H :    0.075251
  15 H :    0.095018
  16 H :    0.165513
  17 H :    0.166870
  18 H :    0.134938
  19 H :    0.139769
  20 H :    0.131920
  21 H :    0.140166
  22 H :    0.136912
  23 H :    0.146767
  24 H :    0.123684
  25 H :    0.128612

  Mayer bond orders larger than 0.100000
B(  0-C ,  1-C ) :   0.9790 B(  0-C ,  2-C ) :   0.9426 B(  0-C ,  9-H ) :   0.9682
B(  0-C , 10-H ) :   0.9768 B(  1-C ,  3-C ) :   0.9381 B(  1-C , 20-H ) :   0.9674
B(  1-C , 21-H ) :   0.9843 B(  2-C , 11-C ) :   0.9318 B(  2-C , 22-H ) :   0.9801
B(  2-C , 23-H ) :   1.0106 B(  3-C ,  4-C ) :   0.9724 B(  3-C , 18-H ) :   0.9699
B(  3-C , 19-H ) :   0.9865 B(  4-C ,  5-H ) :   0.9582 B(  4-C ,  6-C ) :   0.9940
B(  4-C ,  7-H ) :   0.9734 B(  6-C ,  8-F ) :   0.9383 B(  6-C , 24-H ) :   0.9737
B(  6-C , 25-H ) :   0.9793 B( 11-C , 12-N ) :   1.1029 B( 11-C , 13-C ) :   1.7457
B( 12-N , 16-H ) :   0.9250 B( 12-N , 17-H ) :   0.9230 B( 13-C , 14-H ) :   0.9526
B( 13-C , 15-H ) :   0.9944

Dispersion correction           -0.010964995
FINAL SINGLE POINT ENERGY      -469.067196449198

DIPOLE MOMENT
-------------
                                X             Y             Z
Electronic contribution:      0.42958      -1.31263       6.06393
Nuclear contribution   :     -0.73748       1.64619      -6.72655
                        -----------------------------------------
Total Dipole Moment    :     -0.30791       0.33356      -0.66262
                        -----------------------------------------
Magnitude (a.u.)       :      0.80320
Magnitude (Debye)      :      2.04157

Rotational constants in cm-1:     0.063169     0.031711     0.023958
Rotational constants in MHz :  1893.751676   950.657187   718.229932

                             ****ORCA TERMINATED NORMALLY****
TOTAL RUN TIME: 0 days 0 hours 0 minutes 43 seconds 528 msec
