                         Program Version 5.0.0 -  RELEASE  -
|  1> !M062X D3Zero RIJCOSX def2-SVPD def2/J TightSCF
|  2> *xyz -1 1
|  3> C          3.34350        3.35457       -3.59200
|  4> C          2.95263        1.86308       -3.57485
|  5> C          4.12921        0.89839       -3.41895
|  6> H          3.73369       -0.10060       -3.23763
|  7> H          4.71910        0.86256       -4.33901
|  8> C          5.01734        1.31521       -2.22130
|  9> H          2.27894        1.73525       -2.72550
| 10> H          2.37747        1.62579       -4.47587
| 11> O          4.73706        0.85411       -1.12283
| 12> O          5.92815        2.16811       -2.49136
| 13> H          4.00801        3.53975       -4.40994
| 14> H          3.83025        3.60631       -2.67298
| 15> H          2.46347        3.95263       -3.70497
| 16> *
| 17> %MaxCore 64000
| 18>
| 19> %pal nprocs 4
| 20> end
| 21>
| 22> %scf
| 23>   MaxIter 150
| 24> end
| 25>
| 26>
| 27>                          ****END OF INPUT****

CARTESIAN COORDINATES (ANGSTROEM)
---------------------------------
  C      3.343500    3.354570   -3.592000
  C      2.952630    1.863080   -3.574850
  C      4.129210    0.898390   -3.418950
  H      3.733690   -0.100600   -3.237630
  H      4.719100    0.862560   -4.339010
  C      5.017340    1.315210   -2.221300
  H      2.278940    1.735250   -2.725500
  H      2.377470    1.625790   -4.475870
  O      4.737060    0.854110   -1.122830
  O      5.928150    2.168110   -2.491360
  H      4.008010    3.539750   -4.409940
  H      3.830250    3.606310   -2.672980
  H      2.463470    3.952630   -3.704970

 Total Charge           Charge          ....   -1
 Multiplicity           Mult            ....    1
 Number of Electrons    NEL             ....   48
 Basis Dimension        Dim             ....  182

ORBITAL ENERGIES
----------------

  NO   OCC          E(Eh)            E(eV)
   0   2.0000     -19.382380      -527.4214
   1   2.0000     -19.370093      -527.0870
   2   2.0000     -10.441434      -284.1259
   3   2.0000     -10.403557      -283.0952
   4   2.0000     -10.388392      -282.6825
   5   2.0000     -10.374662      -282.3089
   6   2.0000      -0.939033       -25.5524
   7   2.0000      -0.834775       -22.7154
   8   2.0000      -0.723407       -19.6849
   9   2.0000      -0.621088       -16.9007
  10   2.0000      -0.518667       -14.1136
  11   2.0000      -0.402668       -10.9572
  12   2.0000      -0.366220        -9.9653
  13   2.0000      -0.362083        -9.8528
  14   2.0000      -0.320353        -8.7172
  15   2.0000      -0.310629        -8.4526
  16   2.0000      -0.280645        -7.6367
  17   2.0000      -0.274176        -7.4607
  18   2.0000      -0.264032        -7.1847
  19   2.0000      -0.236432        -6.4337
  20   2.0000      -0.233912        -6.3651
  21   2.0000      -0.116108        -3.1595
  22   2.0000      -0.112484        -3.0608
  23   2.0000      -0.105218        -2.8631
  24   0.0000       0.165838         4.5127
  25   0.0000       0.189014         5.1433
  26   0.0000       0.203217         5.5298
  27   0.0000       0.215700         5.8695
  28   0.0000       0.246459         6.7065

MULLIKEN ATOMIC CHARGES
-----------------------
   0 C :    0.680153
   1 C :   -0.433817
   2 C :    0.197187
   3 H :   -0.042451
   4 H :   -0.039320
   5 C :    0.513244
   6 H :   -0.032326
   7 H :   -0.216033
   8 O :   -0.688260
   9 O :   -0.762849
  10 H :   -0.034911
  11 H :    0.007553
  12 H :   -0.148171
Sum of atomic charges:   -1.0000000

LOEWDIN ATOMIC CHARGES
----------------------
   0 C :    0.112097
   1 C :   -0.085326
   2 C :   -0.001645
   3 H :   -0.000572
   4 H :    0.006146
   5 C :   -0.292956
   6 H :    0.011888
   7 H :   -0.002536
   8 O :   -0.307802
   9 O :   -0.351420
  10 H :   -0.021488
  11 H :   -0.025015
  12 H :   -0.041370

  Mayer bond orders larger than 0.100000
B(  0-C ,  1-C ) :   1.3007 B(  0-C , 10-H ) :   0.7823 B(  0-C , 11-H ) :   0.8010
B(  0-C , 12-H ) :   0.7921 B(  1-C ,  2-C ) :   1.1957 B(  1-C ,  3-H ) :   0.1419
B(  1-C ,  4-H ) :   0.1442 B(  1-C ,  6-H ) :   0.9186 B(  1-C ,  7-H ) :   1.0027
B(  1-C , 10-H ) :   0.2075 B(  1-C , 11-H ) :   0.2320 B(  1-C , 12-H ) :   0.2082
B(  2-C ,  3-H ) :   0.8619 B(  2-C ,  4-H ) :   0.9028 B(  2-C ,  5-C ) :   0.9553
B(  2-C ,  6-H ) :   0.1219 B(  3-H ,  5-C ) :   0.1387 B(  5-C ,  8-O ) :   1.4213
B(  5-C ,  9-O ) :   1.3865

Dispersion correction           -0.000186182
FINAL SINGLE POINT ENERGY      -306.798252223733

DIPOLE MOMENT
-------------
                                X             Y             Z
Electronic contribution:      4.92512      -2.55242       4.46740
Nuclear contribution   :     -6.63819       2.74067      -6.05656
                        -----------------------------------------
Total Dipole Moment    :     -1.71307       0.18825      -1.58916
                        -----------------------------------------
Magnitude (a.u.)       :      2.34425
Magnitude (Debye)      :      5.95860

Rotational constants in cm-1:     0.190880     0.089683     0.076466
Rotational constants in MHz :  5722.446013  2688.617255  2292.390699

                             ****ORCA TERMINATED NORMALLY****
TOTAL RUN TIME: 0 days 0 hours 0 minutes 21 seconds 43 msec
