                         Program Version 5.0.0 -  RELEASE  -
|  1> !M062X D3Zero RIJCOSX def2-SVPD def2/J TightSCF
|  2> *xyz 1 1
|  3> C          3.34350        3.35457       -3.59200
|  4> C          2.95263        1.86308       -3.57485
|  5> C          4.12921        0.89839       -3.41895
|  6> C          4.25587        3.70385       -4.72605
|  7> N          3.73403        4.29378       -5.80077
|  8> N          5.51504        3.40725       -4.63718
|  9> H          6.14919        3.60120       -5.39905
| 10> H          5.81358        2.89950       -3.80879
| 11> H          2.74138        4.51311       -5.82470
| 12> H          4.28755        4.52126       -6.61434
| 13> H          2.27894        1.73525       -2.72550
| 14> H          2.37747        1.62579       -4.47587
| 15> H          3.86125        3.59725       -2.66298
| 16> H          2.44649        3.97346       -3.65656
| 17> H          4.79753        1.01430       -4.24649
| 18> H          3.76482       -0.10731       -3.39293
| 19> H          4.64840        1.11330       -2.50837
| 20> *
| 21> %MaxCore 64000
| 22>
| 23> %pal nprocs 4
| 24> end
| 25>
| 26> %scf
| 27>   MaxIter 150
| 28> end
| 29>
| 30>
| 31>                          ****END OF INPUT****

CARTESIAN COORDINATES (ANGSTROEM)
---------------------------------
  C      3.343500    3.354570   -3.592000
  C      2.952630    1.863080   -3.574850
  C      4.129210    0.898390   -3.418950
  C      4.255870    3.703850   -4.726050
  N      3.734030    4.293780   -5.800770
  N      5.515040    3.407250   -4.637180
  H      6.149190    3.601200   -5.399050
  H      5.813580    2.899500   -3.808790
  H      2.741380    4.513110   -5.824700
  H      4.287550    4.521260   -6.614340
  H      2.278940    1.735250   -2.725500
  H      2.377470    1.625790   -4.475870
  H      3.861250    3.597250   -2.662980
  H      2.446490    3.973460   -3.656560
  H      4.797530    1.014300   -4.246490
  H      3.764820   -0.107310   -3.392930
  H      4.648400    1.113300   -2.508370

 Total Charge           Charge          ....    1
 Multiplicity           Mult            ....    1
 Number of Electrons    NEL             ....   48
 Basis Dimension        Dim             ....  208

ORBITAL ENERGIES
----------------

  NO   OCC          E(Eh)            E(eV)
   0   2.0000     -15.007964      -408.3875
   1   2.0000     -15.003647      -408.2700
   2   2.0000     -10.873369      -295.8794
   3   2.0000     -10.744654      -292.3769
   4   2.0000     -10.713490      -291.5289
   5   2.0000     -10.683002      -290.6993
   6   2.0000      -1.302946       -35.4550
   7   2.0000      -1.200316       -32.6623
   8   2.0000      -1.063697       -28.9447
   9   2.0000      -0.975979       -26.5577
  10   2.0000      -0.910529       -24.7767
  11   2.0000      -0.867935       -23.6177
  12   2.0000      -0.847590       -23.0641
  13   2.0000      -0.807116       -21.9627
  14   2.0000      -0.770209       -20.9584
  15   2.0000      -0.725422       -19.7397
  16   2.0000      -0.691100       -18.8058
  17   2.0000      -0.675864       -18.3912
  18   2.0000      -0.641331       -17.4515
  19   2.0000      -0.625776       -17.0282
  20   2.0000      -0.570243       -15.5171
  21   2.0000      -0.563237       -15.3265
  22   2.0000      -0.560000       -15.2384
  23   2.0000      -0.545396       -14.8410
  24   0.0000      -0.166907        -4.5418
  25   0.0000      -0.132081        -3.5941
  26   0.0000      -0.092841        -2.5263
  27   0.0000      -0.087975        -2.3939
  28   0.0000      -0.065347        -1.7782

MULLIKEN ATOMIC CHARGES
-----------------------
   0 C :    0.042112
   1 C :   -0.286994
   2 C :    0.707504
   3 C :    0.886803
   4 N :   -0.115651
   5 N :    0.006237
   6 H :   -0.133646
   7 H :    0.099873
   8 H :    0.064357
   9 H :   -0.108292
  10 H :   -0.000768
  11 H :   -0.062826
  12 H :    0.074335
  13 H :   -0.029882
  14 H :   -0.039249
  15 H :   -0.128820
  16 H :    0.024907
Sum of atomic charges:    1.0000000

LOEWDIN ATOMIC CHARGES
----------------------
   0 C :    0.046162
   1 C :   -0.032729
   2 C :    0.136762
   3 C :   -0.036522
   4 N :    0.275572
   5 N :    0.284774
   6 H :    0.057513
   7 H :    0.045585
   8 H :    0.052258
   9 H :    0.044130
  10 H :    0.040066
  11 H :    0.034150
  12 H :    0.048140
  13 H :    0.039486
  14 H :   -0.033492
  15 H :    0.002766
  16 H :   -0.004620

  Mayer bond orders larger than 0.100000
B(  0-C ,  1-C ) :   1.1715 B(  0-C ,  3-C ) :   1.0682 B(  0-C ,  4-N ) :   0.1063
B(  0-C ,  5-N ) :   0.1085 B(  0-C , 10-H ) :   0.1060 B(  0-C , 12-H ) :   0.8391
B(  0-C , 13-H ) :   0.9200 B(  1-C ,  2-C ) :   1.3084 B(  1-C , 10-H ) :   0.9140
B(  1-C , 11-H ) :   1.0142 B(  1-C , 12-H ) :   0.1142 B(  1-C , 14-H ) :   0.1957
B(  1-C , 15-H ) :   0.2056 B(  1-C , 16-H ) :   0.2027 B(  2-C , 14-H ) :   0.8037
B(  2-C , 15-H ) :   0.8524 B(  2-C , 16-H ) :   0.7778 B(  3-C ,  4-N ) :   0.9535
B(  3-C ,  5-N ) :   1.1046 B(  3-C ,  6-H ) :  -0.2170 B(  3-C ,  8-H ) :  -0.1076
B(  3-C ,  9-H ) :  -0.1890 B(  3-C , 13-H ) :   0.1073 B(  4-N ,  5-N ) :   0.1615
B(  4-N ,  8-H ) :   1.0921 B(  4-N ,  9-H ) :   1.3096 B(  5-N ,  6-H ) :   1.3705
B(  5-N ,  7-H ) :   1.0030 B(  6-H ,  7-H ) :  -0.2097 B(  8-H ,  9-H ) :  -0.1909

Dispersion correction           -0.000342529
FINAL SINGLE POINT ENERGY      -268.024855692800

DIPOLE MOMENT
-------------
                                X             Y             Z
Electronic contribution:      1.42152       4.41227      -2.92779
Nuclear contribution   :     -0.87169      -3.40560       1.97790
                        -----------------------------------------
Total Dipole Moment    :      0.54983       1.00668      -0.94988
                        -----------------------------------------
Magnitude (a.u.)       :      1.48929
Magnitude (Debye)      :      3.78547

Rotational constants in cm-1:     0.188632     0.081113     0.066356
Rotational constants in MHz :  5655.057814  2431.708101  1989.304146

                             ****ORCA TERMINATED NORMALLY****
TOTAL RUN TIME: 0 days 0 hours 0 minutes 26 seconds 12 msec
