                         Program Version 5.0.0 -  RELEASE  -
|  1> !M062X D3Zero RIJCOSX def2-SVPD def2/J TightSCF
|  2> *xyz 0 1
|  3> C          3.34350        3.35457       -3.59200
|  4> C          2.95263        1.86308       -3.57485
|  5> C          4.12921        0.89839       -3.41895
|  6> H          3.73369       -0.10060       -3.23763
|  7> H          4.71910        0.86256       -4.33901
|  8> C          5.01734        1.31521       -2.22130
|  9> H          2.27894        1.73525       -2.72550
| 10> H          2.37747        1.62579       -4.47587
| 11> F          4.73706        0.85411       -1.12283
| 12> O          5.92815        2.16811       -2.49136
| 13> H          4.00801        3.53975       -4.40994
| 14> H          3.83025        3.60631       -2.67298
| 15> H          2.46347        3.95263       -3.70497
| 16> *
| 17> %MaxCore 64000
| 18>
| 19> %pal nprocs 4
| 20> end
| 21>
| 22> %scf
| 23>   MaxIter 150
| 24> end
| 25>
| 26>
| 27>                          ****END OF INPUT****

CARTESIAN COORDINATES (ANGSTROEM)
---------------------------------
  C      3.343500    3.354570   -3.592000
  C      2.952630    1.863080   -3.574850
  C      4.129210    0.898390   -3.418950
  H      3.733690   -0.100600   -3.237630
  H      4.719100    0.862560   -4.339010
  C      5.017340    1.315210   -2.221300
  H      2.278940    1.735250   -2.725500
  H      2.377470    1.625790   -4.475870
  F      4.737060    0.854110   -1.122830
  O      5.928150    2.168110   -2.491360
  H      4.008010    3.539750   -4.409940
  H      3.830250    3.606310   -2.672980
  H      2.463470    3.952630   -3.704970

 Total Charge           Charge          ....    0
 Multiplicity           Mult            ....    1
 Number of Electrons    NEL             ....   48
 Basis Dimension        Dim             ....  182

ORBITAL ENERGIES
----------------

  NO   OCC          E(Eh)            E(eV)
   0   2.0000     -25.343552      -689.6331
   1   2.0000     -19.645701      -534.5867
   2   2.0000     -10.741964      -292.3037
   3   2.0000     -10.581180      -287.9286
   4   2.0000     -10.569356      -287.6068
   5   2.0000     -10.539117      -286.7839
   6   2.0000      -1.472494       -40.0686
   7   2.0000      -1.131376       -30.7863
   8   2.0000      -0.904989       -24.6260
   9   2.0000      -0.816309       -22.2129
  10   2.0000      -0.768261       -20.9054
  11   2.0000      -0.697529       -18.9807
  12   2.0000      -0.662177       -18.0188
  13   2.0000      -0.643107       -17.4998
  14   2.0000      -0.583755       -15.8848
  15   2.0000      -0.542179       -14.7534
  16   2.0000      -0.526777       -14.3343
  17   2.0000      -0.485743       -13.2177
  18   2.0000      -0.468298       -12.7430
  19   2.0000      -0.430978       -11.7275
  20   2.0000      -0.427261       -11.6264
  21   2.0000      -0.412954       -11.2370
  22   2.0000      -0.402088       -10.9414
  23   2.0000      -0.361230        -9.8296
  24   0.0000       0.008799         0.2394
  25   0.0000       0.029536         0.8037
  26   0.0000       0.058292         1.5862
  27   0.0000       0.063551         1.7293
  28   0.0000       0.071177         1.9368

MULLIKEN ATOMIC CHARGES
-----------------------
   0 C :    0.669192
   1 C :   -0.420641
   2 C :    0.109139
   3 H :    0.019401
   4 H :    0.013887
   5 C :    0.842027
   6 H :   -0.021448
   7 H :   -0.155853
   8 F :   -0.377583
   9 O :   -0.558287
  10 H :   -0.013388
  11 H :    0.001792
  12 H :   -0.108238
Sum of atomic charges:    0.0000000

LOEWDIN ATOMIC CHARGES
----------------------
   0 C :    0.132362
   1 C :   -0.062088
   2 C :    0.046020
   3 H :    0.022030
   4 H :    0.038635
   5 C :    0.007318
   6 H :    0.021285
   7 H :    0.024912
   8 F :   -0.019699
   9 O :   -0.159660
  10 H :   -0.008306
  11 H :   -0.025105
  12 H :   -0.017704

  Mayer bond orders larger than 0.100000
B(  0-C ,  1-C ) :   1.3188 B(  0-C , 10-H ) :   0.7945 B(  0-C , 11-H ) :   0.8124
B(  0-C , 12-H ) :   0.8099 B(  1-C ,  2-C ) :   1.1981 B(  1-C ,  3-H ) :   0.1316
B(  1-C ,  4-H ) :   0.1374 B(  1-C ,  6-H ) :   0.9229 B(  1-C ,  7-H ) :   1.0092
B(  1-C , 10-H ) :   0.1954 B(  1-C , 11-H ) :   0.2108 B(  1-C , 12-H ) :   0.1968
B(  2-C ,  3-H ) :   0.8730 B(  2-C ,  4-H ) :   0.9142 B(  2-C ,  5-C ) :   1.0248
B(  2-C ,  6-H ) :   0.1049 B(  5-C ,  8-F ) :   0.6707 B(  5-C ,  9-O ) :   1.7413

Dispersion correction           -0.000186304
FINAL SINGLE POINT ENERGY      -331.317539983171

DIPOLE MOMENT
-------------
                                X             Y             Z
Electronic contribution:      6.05872      -4.36198       7.55791
Nuclear contribution   :     -7.06456       3.75953      -7.86734
                        -----------------------------------------
Total Dipole Moment    :     -1.00583      -0.60245      -0.30943
                        -----------------------------------------
Magnitude (a.u.)       :      1.21259
Magnitude (Debye)      :      3.08217

Rotational constants in cm-1:     0.185871     0.085512     0.073500
Rotational constants in MHz :  5572.269993  2563.593529  2203.466497

                             ****ORCA TERMINATED NORMALLY****
TOTAL RUN TIME: 0 days 0 hours 0 minutes 20 seconds 782 msec
