                         Program Version 5.0.0 -  RELEASE  -
|  1> !M062X D3Zero RIJCOSX def2-SVPD def2/J TightSCF
|  2> *xyz 0 1
|  3> C          3.34350        3.35457       -3.59200
|  4> C          2.95263        1.86308       -3.57485
|  5> C          4.12921        0.89839       -3.41895
|  6> C          4.25587        3.70385       -4.72605
|  7> C          3.73403        4.29378       -5.80077
|  8> N          5.51504        3.40725       -4.63718
|  9> H          6.14919        3.60120       -5.39905
| 10> H          5.81358        2.89950       -3.80879
| 11> H          2.74138        4.51311       -5.82470
| 12> H          4.28755        4.52126       -6.61434
| 13> H          2.27894        1.73525       -2.72550
| 14> H          2.37747        1.62579       -4.47587
| 15> H          3.86125        3.59725       -2.66298
| 16> H          2.44649        3.97346       -3.65656
| 17> H          4.79753        1.01430       -4.24649
| 18> H          3.76482       -0.10731       -3.39293
| 19> H          4.64840        1.11330       -2.50837
| 20> *
| 21> %MaxCore 64000
| 22>
| 23> %pal nprocs 4
| 24> end
| 25>
| 26> %scf
| 27>   MaxIter 150
| 28> end
| 29>
| 30>
| 31>                          ****END OF INPUT****

CARTESIAN COORDINATES (ANGSTROEM)
---------------------------------
  C      3.343500    3.354570   -3.592000
  C      2.952630    1.863080   -3.574850
  C      4.129210    0.898390   -3.418950
  C      4.255870    3.703850   -4.726050
  C      3.734030    4.293780   -5.800770
  N      5.515040    3.407250   -4.637180
  H      6.149190    3.601200   -5.399050
  H      5.813580    2.899500   -3.808790
  H      2.741380    4.513110   -5.824700
  H      4.287550    4.521260   -6.614340
  H      2.278940    1.735250   -2.725500
  H      2.377470    1.625790   -4.475870
  H      3.861250    3.597250   -2.662980
  H      2.446490    3.973460   -3.656560
  H      4.797530    1.014300   -4.246490
  H      3.764820   -0.107310   -3.392930
  H      4.648400    1.113300   -2.508370

 Total Charge           Charge          ....    0
 Multiplicity           Mult            ....    1
 Number of Electrons    NEL             ....   48
 Basis Dimension        Dim             ....  208

ORBITAL ENERGIES
----------------

  NO   OCC          E(Eh)            E(eV)
   0   2.0000     -14.764226      -401.7550
   1   2.0000     -10.570266      -287.6316
   2   2.0000     -10.548248      -287.0324
   3   2.0000     -10.547991      -287.0254
   4   2.0000     -10.536353      -286.7087
   5   2.0000     -10.482239      -285.2362
   6   2.0000      -1.035706       -28.1830
   7   2.0000      -0.883262       -24.0348
   8   2.0000      -0.822679       -22.3862
   9   2.0000      -0.763333       -20.7713
  10   2.0000      -0.686273       -18.6744
  11   2.0000      -0.640903       -17.4398
  12   2.0000      -0.602057       -16.3828
  13   2.0000      -0.556854       -15.1528
  14   2.0000      -0.520449       -14.1621
  15   2.0000      -0.502244       -13.6667
  16   2.0000      -0.477184       -12.9848
  17   2.0000      -0.456653       -12.4262
  18   2.0000      -0.438968       -11.9449
  19   2.0000      -0.426896       -11.6164
  20   2.0000      -0.400447       -10.8967
  21   2.0000      -0.388309       -10.5664
  22   2.0000      -0.382524       -10.4090
  23   2.0000      -0.238992        -6.5033
  24   0.0000       0.036150         0.9837
  25   0.0000       0.061571         1.6754
  26   0.0000       0.063208         1.7200
  27   0.0000       0.070930         1.9301
  28   0.0000       0.090125         2.4524

MULLIKEN ATOMIC CHARGES
-----------------------
   0 C :    0.296600
   1 C :   -0.289265
   2 C :    0.712955
   3 C :   -0.034121
   4 C :    0.421316
   5 N :    0.142982
   6 H :   -0.184962
   7 H :   -0.049986
   8 H :   -0.155083
   9 H :   -0.501405
  10 H :   -0.048845
  11 H :   -0.121358
  12 H :   -0.041440
  13 H :    0.038357
  14 H :   -0.031556
  15 H :   -0.161762
  16 H :    0.007574
Sum of atomic charges:   -0.0000000

LOEWDIN ATOMIC CHARGES
----------------------
   0 C :    0.004489
   1 C :   -0.057226
   2 C :    0.115574
   3 C :   -0.266029
   4 C :    0.182331
   5 N :    0.166483
   6 H :    0.019214
   7 H :   -0.000847
   8 H :   -0.085884
   9 H :   -0.091639
  10 H :    0.015798
  11 H :    0.024098
  12 H :    0.022089
  13 H :    0.023503
  14 H :   -0.035501
  15 H :   -0.018989
  16 H :   -0.017465

  Mayer bond orders larger than 0.100000
B(  0-C ,  1-C ) :   1.1494 B(  0-C ,  3-C ) :   1.1373 B(  0-C ,  4-C ) :   0.1225
B(  0-C ,  5-N ) :   0.1179 B(  0-C , 11-H ) :   0.1173 B(  0-C , 12-H ) :   0.7393
B(  0-C , 13-H ) :   0.8527 B(  1-C ,  2-C ) :   1.2875 B(  1-C , 10-H ) :   0.9091
B(  1-C , 11-H ) :   1.0242 B(  1-C , 12-H ) :   0.1330 B(  1-C , 13-H ) :   0.1053
B(  1-C , 14-H ) :   0.2050 B(  1-C , 15-H ) :   0.2145 B(  1-C , 16-H ) :   0.2146
B(  2-C , 14-H ) :   0.8192 B(  2-C , 15-H ) :   0.8233 B(  2-C , 16-H ) :   0.7648
B(  3-C ,  4-C ) :   1.6870 B(  3-C ,  5-N ) :   1.1200 B(  3-C ,  6-H ) :  -0.1358
B(  3-C ,  9-H ) :   0.1589 B(  3-C , 12-H ) :   0.1879 B(  3-C , 13-H ) :   0.1585
B(  4-C ,  5-N ) :   0.2731 B(  4-C ,  8-H ) :   0.9683 B(  4-C ,  9-H ) :   0.6953
B(  5-N ,  6-H ) :   1.3094 B(  5-N ,  7-H ) :   1.0173 B(  6-H ,  7-H ) :  -0.1888
B(  8-H ,  9-H ) :  -0.1320

Dispersion correction           -0.000338964
FINAL SINGLE POINT ENERGY      -251.569022215684

DIPOLE MOMENT
-------------
                                X             Y             Z
Electronic contribution:      1.43318       2.65646      -1.22196
Nuclear contribution   :     -0.93682      -3.08083       1.62582
                        -----------------------------------------
Total Dipole Moment    :      0.49636      -0.42436       0.40385
                        -----------------------------------------
Magnitude (a.u.)       :      0.76783
Magnitude (Debye)      :      1.95166

Rotational constants in cm-1:     0.191400     0.084268     0.068511
Rotational constants in MHz :  5738.038424  2526.291061  2053.912421

                             ****ORCA TERMINATED NORMALLY****
TOTAL RUN TIME: 0 days 0 hours 0 minutes 26 seconds 22 msec
