                         Program Version 5.0.0 -  RELEASE  -
|  1> !M062X D3Zero RIJCOSX def2-SVPD def2/J TightSCF
|  2> *xyz 0 1
|  3> C          3.34350        3.35457       -3.59200
|  4> C          2.95263        1.86308       -3.57485
|  5> C          4.12921        0.89839       -3.41895
|  6> H          3.73369       -0.10060       -3.23763
|  7> H          4.71910        0.86256       -4.33901
|  8> C          5.01734        1.31521       -2.22130
|  9> H          2.27894        1.73525       -2.72550
| 10> H          2.37747        1.62579       -4.47587
| 11> O          4.73706        0.85411       -1.12283
| 12> F          5.92815        2.16811       -2.49136
| 13> H          4.00801        3.53975       -4.40994
| 14> H          3.83025        3.60631       -2.67298
| 15> H          2.46347        3.95263       -3.70497
| 16> *
| 17> %MaxCore 64000
| 18>
| 19> %pal nprocs 4
| 20> end
| 21>
| 22> %scf
| 23>   MaxIter 150
| 24> end
| 25>
| 26>
| 27>                          ****END OF INPUT****

CARTESIAN COORDINATES (ANGSTROEM)
---------------------------------
  C      3.343500    3.354570   -3.592000
  C      2.952630    1.863080   -3.574850
  C      4.129210    0.898390   -3.418950
  H      3.733690   -0.100600   -3.237630
  H      4.719100    0.862560   -4.339010
  C      5.017340    1.315210   -2.221300
  H      2.278940    1.735250   -2.725500
  H      2.377470    1.625790   -4.475870
  O      4.737060    0.854110   -1.122830
  F      5.928150    2.168110   -2.491360
  H      4.008010    3.539750   -4.409940
  H      3.830250    3.606310   -2.672980
  H      2.463470    3.952630   -3.704970

 Total Charge           Charge          ....    0
 Multiplicity           Mult            ....    1
 Number of Electrons    NEL             ....   48
 Basis Dimension        Dim             ....  182

ORBITAL ENERGIES
----------------

  NO   OCC          E(Eh)            E(eV)
   0   2.0000     -25.321565      -689.0348
   1   2.0000     -19.655756      -534.8603
   2   2.0000     -10.737585      -292.1845
   3   2.0000     -10.580381      -287.9068
   4   2.0000     -10.569655      -287.6149
   5   2.0000     -10.547888      -287.0226
   6   2.0000      -1.430254       -38.9192
   7   2.0000      -1.166094       -31.7310
   8   2.0000      -0.906784       -24.6748
   9   2.0000      -0.813664       -22.1409
  10   2.0000      -0.750868       -20.4321
  11   2.0000      -0.695008       -18.9121
  12   2.0000      -0.638271       -17.3682
  13   2.0000      -0.621059       -16.8999
  14   2.0000      -0.592658       -16.1270
  15   2.0000      -0.539475       -14.6799
  16   2.0000      -0.527265       -14.3476
  17   2.0000      -0.487614       -13.2687
  18   2.0000      -0.486765       -13.2455
  19   2.0000      -0.455987       -12.4080
  20   2.0000      -0.426309       -11.6005
  21   2.0000      -0.415884       -11.3168
  22   2.0000      -0.409374       -11.1396
  23   2.0000      -0.371615       -10.1121
  24   0.0000       0.014921         0.4060
  25   0.0000       0.032556         0.8859
  26   0.0000       0.057451         1.5633
  27   0.0000       0.061779         1.6811
  28   0.0000       0.076589         2.0841

MULLIKEN ATOMIC CHARGES
-----------------------
   0 C :    0.649929
   1 C :   -0.390031
   2 C :    0.100215
   3 H :    0.019523
   4 H :    0.019062
   5 C :    0.839544
   6 H :   -0.005055
   7 H :   -0.158386
   8 O :   -0.501563
   9 F :   -0.427691
  10 H :   -0.026382
  11 H :   -0.020619
  12 H :   -0.098546
Sum of atomic charges:    0.0000000

LOEWDIN ATOMIC CHARGES
----------------------
   0 C :    0.130919
   1 C :   -0.059810
   2 C :    0.046845
   3 H :    0.031950
   4 H :    0.029412
   5 C :    0.003298
   6 H :    0.027187
   7 H :    0.024529
   8 O :   -0.119479
   9 F :   -0.064891
  10 H :   -0.012201
  11 H :   -0.022211
  12 H :   -0.015548

  Mayer bond orders larger than 0.100000
B(  0-C ,  1-C ) :   1.3226 B(  0-C , 10-H ) :   0.7899 B(  0-C , 11-H ) :   0.8147
B(  0-C , 12-H ) :   0.8157 B(  1-C ,  2-C ) :   1.2094 B(  1-C ,  3-H ) :   0.1267
B(  1-C ,  4-H ) :   0.1349 B(  1-C ,  6-H ) :   0.9278 B(  1-C ,  7-H ) :   1.0114
B(  1-C , 10-H ) :   0.1896 B(  1-C , 11-H ) :   0.2095 B(  1-C , 12-H ) :   0.1942
B(  2-C ,  3-H ) :   0.8804 B(  2-C ,  4-H ) :   0.9090 B(  2-C ,  5-C ) :   1.0102
B(  2-C ,  6-H ) :   0.1104 B(  3-H ,  5-C ) :   0.1134 B(  5-C ,  8-O ) :   1.7849
B(  5-C ,  9-F ) :   0.6026

Dispersion correction           -0.000190755
FINAL SINGLE POINT ENERGY      -331.334856110671

DIPOLE MOMENT
-------------
                                X             Y             Z
Electronic contribution:      8.03991      -2.13366       5.22536
Nuclear contribution   :     -8.40998       2.27527      -6.32148
                        -----------------------------------------
Total Dipole Moment    :     -0.37007       0.14161      -1.09612
                        -----------------------------------------
Magnitude (a.u.)       :      1.16555
Magnitude (Debye)      :      2.96258

Rotational constants in cm-1:     0.181105     0.088112     0.073966
Rotational constants in MHz :  5429.384816  2641.525058  2217.445966

                             ****ORCA TERMINATED NORMALLY****
TOTAL RUN TIME: 0 days 0 hours 0 minutes 21 seconds 26 msec
