                         Program Version 5.0.0 -  RELEASE  -
|  1> !M062X D3Zero RIJCOSX def2-SVPD def2/J TightSCF
|  2> *xyz 0 1
|  3> C          3.34350        3.35457       -3.59200
|  4> C          2.95263        1.86308       -3.57485
|  5> C          4.12921        0.89839       -3.41895
|  6> C          4.25587        3.70385       -4.72605
|  7> N          3.73403        4.29378       -5.80077
|  8> C          5.51504        3.40725       -4.63718
|  9> H          6.14919        3.60120       -5.39905
| 10> H          5.81358        2.89950       -3.80879
| 11> H          2.74138        4.51311       -5.82470
| 12> H          4.28755        4.52126       -6.61434
| 13> H          2.27894        1.73525       -2.72550
| 14> H          2.37747        1.62579       -4.47587
| 15> H          3.86125        3.59725       -2.66298
| 16> H          2.44649        3.97346       -3.65656
| 17> H          4.79753        1.01430       -4.24649
| 18> H          3.76482       -0.10731       -3.39293
| 19> H          4.64840        1.11330       -2.50837
| 20> *
| 21> %MaxCore 64000
| 22>
| 23> %pal nprocs 4
| 24> end
| 25>
| 26> %scf
| 27>   MaxIter 150
| 28> end
| 29>
| 30>
| 31>                          ****END OF INPUT****

CARTESIAN COORDINATES (ANGSTROEM)
---------------------------------
  C      3.343500    3.354570   -3.592000
  C      2.952630    1.863080   -3.574850
  C      4.129210    0.898390   -3.418950
  C      4.255870    3.703850   -4.726050
  N      3.734030    4.293780   -5.800770
  C      5.515040    3.407250   -4.637180
  H      6.149190    3.601200   -5.399050
  H      5.813580    2.899500   -3.808790
  H      2.741380    4.513110   -5.824700
  H      4.287550    4.521260   -6.614340
  H      2.278940    1.735250   -2.725500
  H      2.377470    1.625790   -4.475870
  H      3.861250    3.597250   -2.662980
  H      2.446490    3.973460   -3.656560
  H      4.797530    1.014300   -4.246490
  H      3.764820   -0.107310   -3.392930
  H      4.648400    1.113300   -2.508370

 Total Charge           Charge          ....    0
 Multiplicity           Mult            ....    1
 Number of Electrons    NEL             ....   48
 Basis Dimension        Dim             ....  208

ORBITAL ENERGIES
----------------

  NO   OCC          E(Eh)            E(eV)
   0   2.0000     -14.760845      -401.6630
   1   2.0000     -10.567432      -287.5545
   2   2.0000     -10.547563      -287.0138
   3   2.0000     -10.546114      -286.9743
   4   2.0000     -10.524774      -286.3937
   5   2.0000     -10.481187      -285.2076
   6   2.0000      -1.020074       -27.7576
   7   2.0000      -0.884367       -24.0649
   8   2.0000      -0.818805       -22.2808
   9   2.0000      -0.770062       -20.9545
  10   2.0000      -0.675392       -18.3784
  11   2.0000      -0.638421       -17.3723
  12   2.0000      -0.592627       -16.1262
  13   2.0000      -0.551352       -15.0031
  14   2.0000      -0.521853       -14.2004
  15   2.0000      -0.502598       -13.6764
  16   2.0000      -0.460451       -12.5295
  17   2.0000      -0.458550       -12.4778
  18   2.0000      -0.438611       -11.9352
  19   2.0000      -0.424828       -11.5601
  20   2.0000      -0.394944       -10.7470
  21   2.0000      -0.384673       -10.4675
  22   2.0000      -0.378228       -10.2921
  23   2.0000      -0.245294        -6.6748
  24   0.0000       0.036862         1.0031
  25   0.0000       0.061506         1.6737
  26   0.0000       0.063539         1.7290
  27   0.0000       0.072529         1.9736
  28   0.0000       0.088894         2.4189

MULLIKEN ATOMIC CHARGES
-----------------------
   0 C :    0.272730
   1 C :   -0.274418
   2 C :    0.653634
   3 C :    0.120113
   4 N :   -0.032288
   5 C :    0.398717
   6 H :   -0.635656
   7 H :    0.069709
   8 H :   -0.069558
   9 H :   -0.153132
  10 H :   -0.051613
  11 H :   -0.109749
  12 H :    0.095401
  13 H :   -0.128981
  14 H :    0.022867
  15 H :   -0.208714
  16 H :    0.030939
Sum of atomic charges:    0.0000000

LOEWDIN ATOMIC CHARGES
----------------------
   0 C :    0.004942
   1 C :   -0.058722
   2 C :    0.118232
   3 C :   -0.252144
   4 N :    0.161206
   5 C :    0.170624
   6 H :   -0.077204
   7 H :   -0.077622
   8 H :   -0.001515
   9 H :    0.004277
  10 H :    0.015463
  11 H :    0.020595
  12 H :    0.028174
  13 H :    0.013502
  14 H :   -0.035570
  15 H :   -0.020999
  16 H :   -0.013239

  Mayer bond orders larger than 0.100000
B(  0-C ,  1-C ) :   1.1641 B(  0-C ,  3-C ) :   1.0011 B(  0-C ,  4-N ) :   0.1274
B(  0-C ,  5-C ) :   0.1909 B(  0-C , 10-H ) :   0.1199 B(  0-C , 11-H ) :   0.1036
B(  0-C , 12-H ) :   0.7847 B(  0-C , 13-H ) :   0.8555 B(  1-C ,  2-C ) :   1.3094
B(  1-C , 10-H ) :   0.8720 B(  1-C , 11-H ) :   1.0001 B(  1-C , 12-H ) :   0.1343
B(  1-C , 13-H ) :   0.1196 B(  1-C , 14-H ) :   0.1977 B(  1-C , 15-H ) :   0.2234
B(  1-C , 16-H ) :   0.2063 B(  2-C , 14-H ) :   0.8163 B(  2-C , 15-H ) :   0.8531
B(  2-C , 16-H ) :   0.7716 B(  3-C ,  4-N ) :   1.0150 B(  3-C ,  5-C ) :   1.8624
B(  3-C ,  6-H ) :   0.1928 B(  3-C ,  7-H ) :   0.2578 B(  3-C ,  9-H ) :  -0.1241
B(  3-C , 13-H ) :   0.1427 B(  4-N ,  5-C ) :   0.2371 B(  4-N ,  8-H ) :   1.1342
B(  4-N ,  9-H ) :   1.2806 B(  5-C ,  6-H ) :   0.8156 B(  5-C ,  7-H ) :   0.6507
B(  6-H ,  7-H ) :  -0.2572 B(  8-H ,  9-H ) :  -0.1769

Dispersion correction           -0.000337706
FINAL SINGLE POINT ENERGY      -251.568447552934

DIPOLE MOMENT
-------------
                                X             Y             Z
Electronic contribution:     -0.06524       3.46393      -2.22752
Nuclear contribution   :     -0.51555      -3.29052       1.90104
                        -----------------------------------------
Total Dipole Moment    :     -0.58079       0.17341      -0.32647
                        -----------------------------------------
Magnitude (a.u.)       :      0.68846
Magnitude (Debye)      :      1.74993

Rotational constants in cm-1:     0.197086     0.081749     0.067746
Rotational constants in MHz :  5908.486274  2450.769911  2030.963952

                             ****ORCA TERMINATED NORMALLY****
TOTAL RUN TIME: 0 days 0 hours 0 minutes 26 seconds 340 msec
