                         Program Version 5.0.0 -  RELEASE  -
|  1> !M062X D3Zero RIJCOSX def2-SVPD def2/J TightSCF xyzfile
|  2>
|  3> *xyzfile 0 1 D2.xyz
|  4>
|  5> %MaxCore 64000
|  6>
|  7> %pal nprocs 4
|  8> end
|  9>
| 10> %scf
| 11>   MaxIter 150
| 12> end
| 13>
| 14>
| 15>                          ****END OF INPUT****

CARTESIAN COORDINATES (ANGSTROEM)
---------------------------------
  C      3.343500    3.354571   -3.591998
  C      2.952633    1.863077   -3.574849
  C      4.129209    0.898394   -3.418950
  H      3.733687   -0.100605   -3.237633
  H      4.719095    0.862556   -4.339005
  C      5.017344    1.315212   -2.221305
  C      4.255868    3.703851   -4.726054
  N      3.734032    4.293783   -5.800770
  C      5.515039    3.407255   -4.637185
  H      6.149187    3.601203   -5.399053
  H      5.813584    2.899504   -3.808785
  H      2.741380    4.513109   -5.824701
  H      4.287548    4.521260   -6.614341
  H      2.278938    1.735250   -2.725496
  H      2.377466    1.625787   -4.475869
  F      4.737055    0.854112   -1.122825
  O      5.928146    2.168108   -2.491365
  H      3.861246    3.597252   -2.662979
  H      2.446493    3.973461   -3.656556

 Total Charge           Charge          ....    0
 Multiplicity           Mult            ....    1
 Number of Electrons    NEL             ....   70
 Basis Dimension        Dim             ....  266

ORBITAL ENERGIES
----------------

  NO   OCC          E(Eh)            E(eV)
   0   2.0000     -25.348291      -689.7621
   1   2.0000     -19.648400      -534.6601
   2   2.0000     -14.752317      -401.4309
   3   2.0000     -10.749068      -292.4970
   4   2.0000     -10.580109      -287.8994
   5   2.0000     -10.571707      -287.6708
   6   2.0000     -10.555877      -287.2400
   7   2.0000     -10.552510      -287.1484
   8   2.0000     -10.450596      -284.3752
   9   2.0000      -1.476792       -40.1856
  10   2.0000      -1.145285       -31.1648
  11   2.0000      -1.011993       -27.5377
  12   2.0000      -0.910137       -24.7661
  13   2.0000      -0.839775       -22.8514
  14   2.0000      -0.790820       -21.5193
  15   2.0000      -0.773337       -21.0436
  16   2.0000      -0.705310       -19.1925
  17   2.0000      -0.668309       -18.1856
  18   2.0000      -0.656284       -17.8584
  19   2.0000      -0.629375       -17.1262
  20   2.0000      -0.608219       -16.5505
  21   2.0000      -0.574471       -15.6322
  22   2.0000      -0.551132       -14.9971
  23   2.0000      -0.537835       -14.6352
  24   2.0000      -0.522412       -14.2155
  25   2.0000      -0.489948       -13.3322
  26   2.0000      -0.460074       -12.5192
  27   2.0000      -0.457101       -12.4383
  28   2.0000      -0.429823       -11.6961
  29   2.0000      -0.421504       -11.4697
  30   2.0000      -0.414998       -11.2927
  31   2.0000      -0.391098       -10.6423
  32   2.0000      -0.383240       -10.4285
  33   2.0000      -0.340161        -9.2563
  34   2.0000      -0.232828        -6.3356
  35   0.0000       0.002863         0.0779
  36   0.0000       0.027638         0.7521
  37   0.0000       0.047237         1.2854
  38   0.0000       0.058180         1.5831
  39   0.0000       0.063226         1.7205

MULLIKEN ATOMIC CHARGES
-----------------------
   0 C :    0.313689
   1 C :    0.034056
   2 C :    0.086545
   3 H :   -0.193823
   4 H :    0.228736
   5 C :    0.916248
   6 C :    0.178391
   7 N :   -0.056865
   8 C :    0.869978
   9 H :   -0.675030
  10 H :   -0.331006
  11 H :   -0.100136
  12 H :   -0.171450
  13 H :    0.019244
  14 H :   -0.164899
  15 F :   -0.413672
  16 O :   -0.541211
  17 H :    0.247795
  18 H :   -0.246589
Sum of atomic charges:    0.0000000

LOEWDIN ATOMIC CHARGES
----------------------
   0 C :    0.022118
   1 C :   -0.001683
   2 C :    0.066277
   3 H :    0.023029
   4 H :    0.034195
   5 C :    0.064303
   6 C :   -0.236390
   7 N :    0.152919
   8 C :    0.205281
   9 H :   -0.071175
  10 H :   -0.191168
  11 H :   -0.007192
  12 H :    0.002382
  13 H :    0.023140
  14 H :    0.030355
  15 F :   -0.009793
  16 O :   -0.146702
  17 H :    0.023057
  18 H :    0.017048

  Mayer bond orders larger than 0.100000
B(  0-C ,  1-C ) :   1.1783 B(  0-C ,  6-C ) :   1.0578 B(  0-C ,  7-N ) :   0.1224
B(  0-C ,  8-C ) :   0.1927 B(  0-C , 13-H ) :   0.1132 B(  0-C , 14-H ) :   0.1132
B(  0-C , 17-H ) :   0.7174 B(  0-C , 18-H ) :   0.8904 B(  1-C ,  2-C ) :   1.2734
B(  1-C ,  3-H ) :   0.1804 B(  1-C ,  4-H ) :   0.1408 B(  1-C , 13-H ) :   0.8091
B(  1-C , 14-H ) :   0.9686 B(  1-C , 17-H ) :   0.1364 B(  1-C , 18-H ) :   0.1738
B(  2-C ,  3-H ) :   0.9013 B(  2-C ,  4-H ) :   0.8106 B(  2-C ,  5-C ) :   1.0538
B(  2-C , 10-H ) :   0.1181 B(  2-C , 13-H ) :   0.1268 B(  3-H ,  5-C ) :   0.1003
B(  3-H , 10-H ) :  -0.1210 B(  4-H , 10-H ) :   0.1252 B(  5-C , 15-F ) :   0.6428
B(  5-C , 16-O ) :   1.6044 B(  6-C ,  7-N ) :   0.8980 B(  6-C ,  8-C ) :   1.9088
B(  6-C ,  9-H ) :   0.2623 B(  6-C , 10-H ) :   0.3732 B(  6-C , 12-H ) :  -0.1462
B(  6-C , 18-H ) :   0.1157 B(  7-N ,  8-C ) :   0.2790 B(  7-N , 11-H ) :   1.1831
B(  7-N , 12-H ) :   1.3261 B(  8-C ,  9-H ) :   0.6977 B(  8-C , 10-H ) :   0.5443
B(  9-H , 10-H ) :  -0.3037 B( 10-H , 16-O ) :   0.1092 B( 11-H , 12-H ) :  -0.1752

Dispersion correction           -0.000551942
FINAL SINGLE POINT ENERGY      -463.881220912132

DIPOLE MOMENT
-------------
                                X             Y             Z
Electronic contribution:      4.29205      -5.14984       9.54522
Nuclear contribution   :     -5.64491       4.57111      -9.93176
                        -----------------------------------------
Total Dipole Moment    :     -1.35286      -0.57873      -0.38655
                        -----------------------------------------
Magnitude (a.u.)       :      1.52137
Magnitude (Debye)      :      3.86702

Rotational constants in cm-1:     0.109825     0.034347     0.029470
Rotational constants in MHz :  3292.465653  1029.684117   883.494260

                             ****ORCA TERMINATED NORMALLY****
TOTAL RUN TIME: 0 days 0 hours 0 minutes 59 seconds 802 msec
