                         Program Version 5.0.0 -  RELEASE  -
|  1> !M062X D3Zero RIJCOSX def2-SVPD def2/J TightSCF
|  2> *xyz -1 1
|  3> C          1.22302        2.46987       -3.75691
|  4> O          2.35381        1.71203       -3.93448
|  5> H          1.26998        3.33359       -4.38673
|  6> H          1.15671        2.77738       -2.73420
|  7> H          0.36099        1.88932       -4.01140
|  8> *
|  9>
| 10> %MaxCore 64000
| 11>
| 12> %pal nprocs 4
| 13> end
| 14>
| 15> %scf
| 16>   MaxIter 150
| 17> end
| 18>
| 19>
| 20>                          ****END OF INPUT****

CARTESIAN COORDINATES (ANGSTROEM)
---------------------------------
  C      1.223020    2.469870   -3.756910
  O      2.353810    1.712030   -3.934480
  H      1.269980    3.333590   -4.386730
  H      1.156710    2.777380   -2.734200
  H      0.360990    1.889320   -4.011400

 Total Charge           Charge          ....   -1
 Multiplicity           Mult            ....    1
 Number of Electrons    NEL             ....   18
 Basis Dimension        Dim             ....   67

ORBITAL ENERGIES
----------------

  NO   OCC          E(Eh)            E(eV)
   0   2.0000     -19.277169      -524.5584
   1   2.0000     -10.334191      -281.2076
   2   2.0000      -0.754626       -20.5344
   3   2.0000      -0.476280       -12.9602
   4   2.0000      -0.262711        -7.1487
   5   2.0000      -0.262690        -7.1482
   6   2.0000      -0.162792        -4.4298
   7   2.0000      -0.012664        -0.3446
   8   2.0000      -0.012603        -0.3429
   9   0.0000       0.217714         5.9243
  10   0.0000       0.296680         8.0731
  11   0.0000       0.296685         8.0732
  12   0.0000       0.304915         8.2972
  13   0.0000       0.338894         9.2218

MULLIKEN ATOMIC CHARGES
-----------------------
   0 C :    0.758636
   1 O :   -1.043536
   2 H :   -0.238864
   3 H :   -0.238113
   4 H :   -0.238122
Sum of atomic charges:   -1.0000000

LOEWDIN ATOMIC CHARGES
----------------------
   0 C :   -0.106609
   1 O :   -0.664280
   2 H :   -0.076388
   3 H :   -0.076441
   4 H :   -0.076282

  Mayer bond orders larger than 0.100000
B(  0-C ,  1-O ) :   1.1852 B(  0-C ,  2-H ) :   0.9219 B(  0-C ,  3-H ) :   0.9209
B(  0-C ,  4-H ) :   0.9218

Dispersion correction           -0.000000445
FINAL SINGLE POINT ENERGY      -114.953821086200

DIPOLE MOMENT
-------------
                                X             Y             Z
Electronic contribution:      1.52655      -1.02329      -0.23929
Nuclear contribution   :     -2.37854       1.59406       0.37350
                        -----------------------------------------
Total Dipole Moment    :     -0.85200       0.57077       0.13421
                        -----------------------------------------
Magnitude (a.u.)       :      1.03426
Magnitude (Debye)      :      2.62888

Rotational constants in cm-1:     5.477743     0.935515     0.935515
Rotational constants in MHz : 164218.600605 28046.042741 28046.034116

                             ****ORCA TERMINATED NORMALLY****
TOTAL RUN TIME: 0 days 0 hours 0 minutes 3 seconds 931 msec
