                         Program Version 5.0.0 -  RELEASE  -
|  1> !M062X D3Zero RIJCOSX def2-SVPD def2/J TightSCF
|  2> *xyz 1 1
|  3> C          1.63556       -1.67040       -5.29211
|  4> N          2.48451       -0.50741       -5.14039
|  5> C          3.45115       -0.14953       -5.95259
|  6> N          3.92267        1.08956       -5.85071
|  7> N          3.96616       -1.00618       -6.86788
|  8> H          3.52139       -1.90647       -6.99527
|  9> H          4.44482       -0.62347       -7.67035
| 10> H          2.25200        0.24080       -4.49879
| 11> H          3.46428        1.64078       -5.13639
| 12> H          4.83447        1.31375       -6.22465
| 13> H          2.06372       -2.33262       -6.01532
| 14> H          0.66479       -1.36293       -5.62068
| 15> H          1.55078       -2.17513       -4.35245
| 16> *
| 17>
| 18> %MaxCore 64000
| 19>
| 20> %pal nprocs 4
| 21> end
| 22>
| 23> %scf
| 24>   MaxIter 150
| 25> end
| 26>
| 27>
| 28>                          ****END OF INPUT****

CARTESIAN COORDINATES (ANGSTROEM)
---------------------------------
  C      1.635560   -1.670400   -5.292110
  N      2.484510   -0.507410   -5.140390
  C      3.451150   -0.149530   -5.952590
  N      3.922670    1.089560   -5.850710
  N      3.966160   -1.006180   -6.867880
  H      3.521390   -1.906470   -6.995270
  H      4.444820   -0.623470   -7.670350
  H      2.252000    0.240800   -4.498790
  H      3.464280    1.640780   -5.136390
  H      4.834470    1.313750   -6.224650
  H      2.063720   -2.332620   -6.015320
  H      0.664790   -1.362930   -5.620680
  H      1.550780   -2.175130   -4.352450

 Total Charge           Charge          ....    1
 Multiplicity           Mult            ....    1
 Number of Electrons    NEL             ....   40
 Basis Dimension        Dim             ....  164

ORBITAL ENERGIES
----------------

  NO   OCC          E(Eh)            E(eV)
   0   2.0000     -14.999050      -408.1449
   1   2.0000     -14.990545      -407.9135
   2   2.0000     -14.987550      -407.8320
   3   2.0000     -10.896188      -296.5004
   4   2.0000     -10.763302      -292.8843
   5   2.0000      -1.328897       -36.1611
   6   2.0000      -1.206650       -32.8346
   7   2.0000      -1.191574       -32.4244
   8   2.0000      -1.001847       -27.2616
   9   2.0000      -0.910959       -24.7885
  10   2.0000      -0.865636       -23.5551
  11   2.0000      -0.838049       -22.8045
  12   2.0000      -0.765726       -20.8365
  13   2.0000      -0.763752       -20.7828
  14   2.0000      -0.737706       -20.0740
  15   2.0000      -0.719063       -19.5667
  16   2.0000      -0.665895       -18.1199
  17   2.0000      -0.654291       -17.8042
  18   2.0000      -0.547269       -14.8920
  19   2.0000      -0.523570       -14.2471
  20   0.0000      -0.137274        -3.7354
  21   0.0000      -0.136078        -3.7029
  22   0.0000      -0.103235        -2.8092
  23   0.0000      -0.092270        -2.5108
  24   0.0000      -0.061109        -1.6629

MULLIKEN ATOMIC CHARGES
-----------------------
   0 C :    1.224817
   1 N :   -0.710418
   2 C :    1.352522
   3 N :   -0.089476
   4 N :   -0.048742
   5 H :   -0.039924
   6 H :   -0.064955
   7 H :   -0.234483
   8 H :    0.044461
   9 H :   -0.071535
  10 H :   -0.251018
  11 H :   -0.051652
  12 H :   -0.059597
Sum of atomic charges:    1.0000000

LOEWDIN ATOMIC CHARGES
----------------------
   0 C :    0.283531
   1 N :    0.003573
   2 C :   -0.022199
   3 N :    0.258178
   4 N :    0.271351
   5 H :    0.006207
   6 H :    0.039211
   7 H :    0.058686
   8 H :    0.035381
   9 H :    0.047344
  10 H :   -0.015149
  11 H :    0.016802
  12 H :    0.017083

  Mayer bond orders larger than 0.100000
B(  0-C ,  1-N ) :   0.9336 B(  0-C ,  7-H ) :  -0.1876 B(  0-C , 10-H ) :   0.8282
B(  0-C , 11-H ) :   0.7744 B(  0-C , 12-H ) :   0.7462 B(  1-N ,  2-C ) :   1.0053
B(  1-N ,  3-N ) :   0.2654 B(  1-N ,  4-N ) :   0.1524 B(  1-N ,  7-H ) :   1.3660
B(  1-N , 10-H ) :   0.2257 B(  1-N , 11-H ) :   0.1703 B(  1-N , 12-H ) :   0.2066
B(  2-C ,  3-N ) :   0.9141 B(  2-C ,  4-N ) :   0.9689 B(  2-C ,  6-H ) :  -0.1333
B(  2-C ,  7-H ) :  -0.2504 B(  2-C ,  9-H ) :  -0.1163 B(  3-N ,  4-N ) :   0.1441
B(  3-N ,  8-H ) :   1.0535 B(  3-N ,  9-H ) :   1.2198 B(  4-N ,  5-H ) :   1.0383
B(  4-N ,  6-H ) :   1.2011 B(  5-H ,  6-H ) :  -0.1615 B(  8-H ,  9-H ) :  -0.1505

Dispersion correction           -0.000169812
FINAL SINGLE POINT ENERGY      -244.791724139163

DIPOLE MOMENT
-------------
                                X             Y             Z
Electronic contribution:      1.95130       1.90638      -0.25877
Nuclear contribution   :     -1.83770      -1.53167       0.12165
                        -----------------------------------------
Total Dipole Moment    :      0.11360       0.37471      -0.13711
                        -----------------------------------------
Magnitude (a.u.)       :      0.41487
Magnitude (Debye)      :      1.05450

Rotational constants in cm-1:     0.307545     0.135665     0.096412
Rotational constants in MHz :  9219.967860  4067.145400  2890.348280

                             ****ORCA TERMINATED NORMALLY****
TOTAL RUN TIME: 0 days 0 hours 0 minutes 17 seconds 148 msec
