                         Program Version 5.0.0 -  RELEASE  -
|  1> !M062X D3Zero RIJCOSX def2-SVPD def2/J TightSCF
|  2> *xyz 0 1
|  3> C          1.22302        2.46987       -3.75691
|  4> F          2.35381        1.71203       -3.93448
|  5> H          1.26998        3.33359       -4.38673
|  6> H          1.15671        2.77738       -2.73420
|  7> H          0.36099        1.88932       -4.01140
|  8> *
|  9>
| 10> %MaxCore 64000
| 11>
| 12> %pal nprocs 4
| 13> end
| 14>
| 15> %scf
| 16>   MaxIter 150
| 17> end
| 18>
| 19>
| 20>                          ****END OF INPUT****

CARTESIAN COORDINATES (ANGSTROEM)
---------------------------------
  C      1.223020    2.469870   -3.756910
  F      2.353810    1.712030   -3.934480
  H      1.269980    3.333590   -4.386730
  H      1.156710    2.777380   -2.734200
  H      0.360990    1.889320   -4.011400

 Total Charge           Charge          ....    0
 Multiplicity           Mult            ....    1
 Number of Electrons    NEL             ....   18
 Basis Dimension        Dim             ....   67

ORBITAL ENERGIES
----------------

  NO   OCC          E(Eh)            E(eV)
   0   2.0000     -25.240453      -686.8276
   1   2.0000     -10.622236      -289.0457
   2   2.0000      -1.316631       -35.8274
   3   2.0000      -0.796918       -21.6852
   4   2.0000      -0.576951       -15.6996
   5   2.0000      -0.576895       -15.6981
   6   2.0000      -0.576768       -15.6947
   7   2.0000      -0.429693       -11.6925
   8   2.0000      -0.429661       -11.6917
   9   0.0000       0.040198         1.0939
  10   0.0000       0.093928         2.5559
  11   0.0000       0.120702         3.2845
  12   0.0000       0.120709         3.2847
  13   0.0000       0.156389         4.2556

MULLIKEN ATOMIC CHARGES
-----------------------
   0 C :    0.802683
   1 F :   -0.517006
   2 H :   -0.096050
   3 H :   -0.094430
   4 H :   -0.095197
Sum of atomic charges:   -0.0000000

LOEWDIN ATOMIC CHARGES
----------------------
   0 C :    0.283153
   1 F :   -0.268018
   2 H :   -0.005081
   3 H :   -0.005072
   4 H :   -0.004981

  Mayer bond orders larger than 0.100000
B(  0-C ,  1-F ) :   0.7920 B(  0-C ,  2-H ) :   0.9562 B(  0-C ,  3-H ) :   0.9548
B(  0-C ,  4-H ) :   0.9558

Dispersion correction           -0.000000628
FINAL SINGLE POINT ENERGY      -139.580594493293

DIPOLE MOMENT
-------------
                                X             Y             Z
Electronic contribution:      2.40059      -1.60863      -0.37707
Nuclear contribution   :     -3.01708       2.02200       0.47377
                        -----------------------------------------
Total Dipole Moment    :     -0.61649       0.41337       0.09671
                        -----------------------------------------
Magnitude (a.u.)       :      0.74852
Magnitude (Debye)      :      1.90260

Rotational constants in cm-1:     5.477743     0.870792     0.870792
Rotational constants in MHz : 164218.600605 26105.683059 26105.675587

                             ****ORCA TERMINATED NORMALLY****
TOTAL RUN TIME: 0 days 0 hours 0 minutes 3 seconds 462 msec
