                         Program Version 5.0.0 -  RELEASE  -
|  1> !M062X D3Zero RIJCOSX def2-SVPD def2/J TightSCF
|  2> *xyz 0 1
|  3> C          1.63556       -1.67040       -5.29211
|  4> C          2.48451       -0.50741       -5.14039
|  5> C          3.45115       -0.14953       -5.95259
|  6> N          3.92267        1.08956       -5.85071
|  7> N          3.96616       -1.00618       -6.86788
|  8> H          3.52139       -1.90647       -6.99527
|  9> H          4.44482       -0.62347       -7.67035
| 10> H          2.25200        0.24080       -4.49879
| 11> H          3.46428        1.64078       -5.13639
| 12> H          4.83447        1.31375       -6.22465
| 13> H          2.06372       -2.33262       -6.01532
| 14> H          0.66479       -1.36293       -5.62068
| 15> H          1.55078       -2.17513       -4.35245
| 16> *
| 17>
| 18> %MaxCore 64000
| 19>
| 20> %pal nprocs 4
| 21> end
| 22>
| 23> %scf
| 24>   MaxIter 150
| 25> end
| 26>
| 27>
| 28>                          ****END OF INPUT****

CARTESIAN COORDINATES (ANGSTROEM)
---------------------------------
  C      1.635560   -1.670400   -5.292110
  C      2.484510   -0.507410   -5.140390
  C      3.451150   -0.149530   -5.952590
  N      3.922670    1.089560   -5.850710
  N      3.966160   -1.006180   -6.867880
  H      3.521390   -1.906470   -6.995270
  H      4.444820   -0.623470   -7.670350
  H      2.252000    0.240800   -4.498790
  H      3.464280    1.640780   -5.136390
  H      4.834470    1.313750   -6.224650
  H      2.063720   -2.332620   -6.015320
  H      0.664790   -1.362930   -5.620680
  H      1.550780   -2.175130   -4.352450

 Total Charge           Charge          ....    0
 Multiplicity           Mult            ....    1
 Number of Electrons    NEL             ....   40
 Basis Dimension        Dim             ....  164

ORBITAL ENERGIES
----------------

  NO   OCC          E(Eh)            E(eV)
   0   2.0000     -14.758720      -401.6052
   1   2.0000     -14.756170      -401.5358
   2   2.0000     -10.590142      -288.1724
   3   2.0000     -10.518987      -286.2362
   4   2.0000     -10.475994      -285.0663
   5   2.0000      -1.056068       -28.7371
   6   2.0000      -0.960678       -26.1414
   7   2.0000      -0.845865       -23.0172
   8   2.0000      -0.740994       -20.1635
   9   2.0000      -0.659875       -17.9561
  10   2.0000      -0.612560       -16.6686
  11   2.0000      -0.582413       -15.8483
  12   2.0000      -0.534536       -14.5455
  13   2.0000      -0.494760       -13.4631
  14   2.0000      -0.479675       -13.0526
  15   2.0000      -0.449093       -12.2205
  16   2.0000      -0.425397       -11.5756
  17   2.0000      -0.410053       -11.1581
  18   2.0000      -0.328162        -8.9297
  19   2.0000      -0.213733        -5.8160
  20   0.0000       0.038948         1.0598
  21   0.0000       0.064023         1.7422
  22   0.0000       0.071754         1.9525
  23   0.0000       0.100946         2.7469
  24   0.0000       0.110629         3.0104

MULLIKEN ATOMIC CHARGES
-----------------------
   0 C :    0.920784
   1 C :   -0.694785
   2 C :    0.747820
   3 N :   -0.047106
   4 N :   -0.049414
   5 H :   -0.036454
   6 H :   -0.152039
   7 H :   -0.314480
   8 H :    0.064773
   9 H :   -0.173713
  10 H :   -0.332897
  11 H :    0.000205
  12 H :    0.067305
Sum of atomic charges:    0.0000000

LOEWDIN ATOMIC CHARGES
----------------------
   0 C :    0.109407
   1 C :   -0.066142
   2 C :   -0.227312
   3 N :    0.164045
   4 N :    0.186151
   5 H :   -0.025489
   6 H :   -0.010703
   7 H :   -0.051886
   8 H :    0.001829
   9 H :   -0.004994
  10 H :   -0.043793
  11 H :   -0.014546
  12 H :   -0.016565

  Mayer bond orders larger than 0.100000
B(  0-C ,  1-C ) :   1.1523 B(  0-C ,  7-H ) :   0.1388 B(  0-C , 10-H ) :   0.8064
B(  0-C , 11-H ) :   0.7815 B(  0-C , 12-H ) :   0.5723 B(  1-C ,  2-C ) :   1.7124
B(  1-C ,  3-N ) :   0.3082 B(  1-C ,  4-N ) :   0.1526 B(  1-C ,  7-H ) :   0.9299
B(  1-C , 10-H ) :   0.3840 B(  1-C , 11-H ) :   0.1034 B(  1-C , 12-H ) :   0.3010
B(  2-C ,  3-N ) :   0.9508 B(  2-C ,  4-N ) :   1.0019 B(  2-C ,  7-H ) :   0.2757
B(  3-N ,  4-N ) :   0.1057 B(  3-N ,  8-H ) :   1.0355 B(  3-N ,  9-H ) :   1.2160
B(  4-N ,  5-H ) :   1.0270 B(  4-N ,  6-H ) :   1.1769 B(  5-H ,  6-H ) :  -0.1374
B(  8-H ,  9-H ) :  -0.1493 B( 10-H , 12-H ) :   0.2183

Dispersion correction           -0.000168906
FINAL SINGLE POINT ENERGY      -228.332588757057

DIPOLE MOMENT
-------------
                                X             Y             Z
Electronic contribution:      2.39184       1.85744      -0.76734
Nuclear contribution   :     -1.96139      -1.54412       0.26148
                        -----------------------------------------
Total Dipole Moment    :      0.43046       0.31332      -0.50587
                        -----------------------------------------
Magnitude (a.u.)       :      0.73441
Magnitude (Debye)      :      1.86673

Rotational constants in cm-1:     0.312277     0.136708     0.097371
Rotational constants in MHz :  9361.815989  4098.393303  2919.105491

                             ****ORCA TERMINATED NORMALLY****
TOTAL RUN TIME: 0 days 0 hours 0 minutes 17 seconds 775 msec
