                         Program Version 5.0.0 -  RELEASE  -
|  1> !M062X D3Zero RIJCOSX def2-SVPD def2/J TightSCF
|  2> *xyz 0 1
|  3> C          1.63556       -1.67040       -5.29211
|  4> N          2.48451       -0.50741       -5.14039
|  5> C          3.45115       -0.14953       -5.95259
|  6> C          3.92267        1.08956       -5.85071
|  7> N          3.96616       -1.00618       -6.86788
|  8> H          3.52139       -1.90647       -6.99527
|  9> H          4.44482       -0.62347       -7.67035
| 10> H          2.25200        0.24080       -4.49879
| 11> H          3.46428        1.64078       -5.13639
| 12> H          4.83447        1.31375       -6.22465
| 13> H          2.06372       -2.33262       -6.01532
| 14> H          0.66479       -1.36293       -5.62068
| 15> H          1.55078       -2.17513       -4.35245
| 16> *
| 17>
| 18> %MaxCore 64000
| 19>
| 20> %pal nprocs 4
| 21> end
| 22>
| 23> %scf
| 24>   MaxIter 150
| 25> end
| 26>
| 27>
| 28>                          ****END OF INPUT****

CARTESIAN COORDINATES (ANGSTROEM)
---------------------------------
  C      1.635560   -1.670400   -5.292110
  N      2.484510   -0.507410   -5.140390
  C      3.451150   -0.149530   -5.952590
  C      3.922670    1.089560   -5.850710
  N      3.966160   -1.006180   -6.867880
  H      3.521390   -1.906470   -6.995270
  H      4.444820   -0.623470   -7.670350
  H      2.252000    0.240800   -4.498790
  H      3.464280    1.640780   -5.136390
  H      4.834470    1.313750   -6.224650
  H      2.063720   -2.332620   -6.015320
  H      0.664790   -1.362930   -5.620680
  H      1.550780   -2.175130   -4.352450

 Total Charge           Charge          ....    0
 Multiplicity           Mult            ....    1
 Number of Electrons    NEL             ....   40
 Basis Dimension        Dim             ....  164

ORBITAL ENERGIES
----------------

  NO   OCC          E(Eh)            E(eV)
   0   2.0000     -14.763967      -401.7480
   1   2.0000     -14.761273      -401.6747
   2   2.0000     -10.597095      -288.3616
   3   2.0000     -10.586915      -288.0846
   4   2.0000     -10.460855      -284.6543
   5   2.0000      -1.071314       -29.1519
   6   2.0000      -0.975310       -26.5395
   7   2.0000      -0.839400       -22.8412
   8   2.0000      -0.749419       -20.3927
   9   2.0000      -0.677695       -18.4410
  10   2.0000      -0.611760       -16.6468
  11   2.0000      -0.565366       -15.3844
  12   2.0000      -0.546480       -14.8705
  13   2.0000      -0.527971       -14.3668
  14   2.0000      -0.475268       -12.9327
  15   2.0000      -0.458434       -12.4746
  16   2.0000      -0.446986       -12.1631
  17   2.0000      -0.431230       -11.7344
  18   2.0000      -0.320350        -8.7172
  19   2.0000      -0.214497        -5.8368
  20   0.0000       0.030553         0.8314
  21   0.0000       0.065282         1.7764
  22   0.0000       0.068069         1.8522
  23   0.0000       0.104631         2.8472
  24   0.0000       0.105548         2.8721

MULLIKEN ATOMIC CHARGES
-----------------------
   0 C :    1.252445
   1 N :   -0.640207
   2 C :    0.618142
   3 C :    0.453017
   4 N :    0.008921
   5 H :   -0.163913
   6 H :   -0.071436
   7 H :   -0.268514
   8 H :   -0.203838
   9 H :   -0.445839
  10 H :   -0.303043
  11 H :   -0.111187
  12 H :   -0.124548
Sum of atomic charges:    0.0000000

LOEWDIN ATOMIC CHARGES
----------------------
   0 C :    0.229108
   1 N :   -0.062325
   2 C :   -0.233230
   3 C :    0.141058
   4 N :    0.189323
   5 H :   -0.038143
   6 H :    0.006772
   7 H :    0.032093
   8 H :   -0.105315
   9 H :   -0.098640
  10 H :   -0.034195
  11 H :   -0.013763
  12 H :   -0.012745

  Mayer bond orders larger than 0.100000
B(  0-C ,  1-N ) :   0.9142 B(  0-C ,  7-H ) :  -0.1926 B(  0-C , 10-H ) :   0.8164
B(  0-C , 11-H ) :   0.7806 B(  0-C , 12-H ) :   0.7430 B(  1-N ,  2-C ) :   1.0285
B(  1-N ,  3-C ) :   0.2674 B(  1-N ,  7-H ) :   1.3163 B(  1-N , 10-H ) :   0.2497
B(  1-N , 11-H ) :   0.1579 B(  1-N , 12-H ) :   0.2235 B(  2-C ,  3-C ) :   1.6850
B(  2-C ,  4-N ) :   0.9375 B(  2-C ,  6-H ) :  -0.1164 B(  2-C ,  7-H ) :  -0.2019
B(  2-C ,  8-H ) :   0.2321 B(  2-C ,  9-H ) :   0.2341 B(  3-C ,  4-N ) :   0.2186
B(  3-C ,  8-H ) :   0.7828 B(  3-C ,  9-H ) :   0.7320 B(  4-N ,  5-H ) :   1.0497
B(  4-N ,  6-H ) :   1.1670 B(  5-H ,  6-H ) :  -0.1571

Dispersion correction           -0.000165795
FINAL SINGLE POINT ENERGY      -228.318653024929

DIPOLE MOMENT
-------------
                                X             Y             Z
Electronic contribution:      1.00318       0.29918      -0.22091
Nuclear contribution   :     -1.67010      -1.22066       0.11760
                        -----------------------------------------
Total Dipole Moment    :     -0.66692      -0.92148      -0.10331
                        -----------------------------------------
Magnitude (a.u.)       :      1.14218
Magnitude (Debye)      :      2.90320

Rotational constants in cm-1:     0.314526     0.141398     0.099973
Rotational constants in MHz :  9429.255015  4239.015262  2997.111162

                             ****ORCA TERMINATED NORMALLY****
TOTAL RUN TIME: 0 days 0 hours 0 minutes 17 seconds 530 msec
