                         Program Version 5.0.0 -  RELEASE  -
|  1> !M062X D3Zero RIJCOSX def2-SVPD def2/J TightSCF
|  2> *xyz 0 1
|  3> C          1.63556       -1.67040       -5.29211
|  4> N          2.48451       -0.50741       -5.14039
|  5> C          3.45115       -0.14953       -5.95259
|  6> N          3.92267        1.08956       -5.85071
|  7> C          3.96616       -1.00618       -6.86788
|  8> H          3.52139       -1.90647       -6.99527
|  9> H          4.44482       -0.62347       -7.67035
| 10> H          2.25200        0.24080       -4.49879
| 11> H          3.46428        1.64078       -5.13639
| 12> H          4.83447        1.31375       -6.22465
| 13> H          2.06372       -2.33262       -6.01532
| 14> H          0.66479       -1.36293       -5.62068
| 15> H          1.55078       -2.17513       -4.35245
| 16> *
| 17>
| 18> %MaxCore 64000
| 19>
| 20> %pal nprocs 4
| 21> end
| 22>
| 23> %scf
| 24>   MaxIter 150
| 25> end
| 26>
| 27>
| 28>                          ****END OF INPUT****

CARTESIAN COORDINATES (ANGSTROEM)
---------------------------------
  C      1.635560   -1.670400   -5.292110
  N      2.484510   -0.507410   -5.140390
  C      3.451150   -0.149530   -5.952590
  N      3.922670    1.089560   -5.850710
  C      3.966160   -1.006180   -6.867880
  H      3.521390   -1.906470   -6.995270
  H      4.444820   -0.623470   -7.670350
  H      2.252000    0.240800   -4.498790
  H      3.464280    1.640780   -5.136390
  H      4.834470    1.313750   -6.224650
  H      2.063720   -2.332620   -6.015320
  H      0.664790   -1.362930   -5.620680
  H      1.550780   -2.175130   -4.352450

 Total Charge           Charge          ....    0
 Multiplicity           Mult            ....    1
 Number of Electrons    NEL             ....   40
 Basis Dimension        Dim             ....  164

ORBITAL ENERGIES
----------------

  NO   OCC          E(Eh)            E(eV)
   0   2.0000     -14.768901      -401.8822
   1   2.0000     -14.764163      -401.7533
   2   2.0000     -10.599516      -288.4275
   3   2.0000     -10.578281      -287.8497
   4   2.0000     -10.461489      -284.6716
   5   2.0000      -1.079732       -29.3810
   6   2.0000      -0.980365       -26.6771
   7   2.0000      -0.806037       -21.9334
   8   2.0000      -0.785875       -21.3847
   9   2.0000      -0.642780       -17.4909
  10   2.0000      -0.619696       -16.8628
  11   2.0000      -0.604123       -16.4390
  12   2.0000      -0.529953       -14.4207
  13   2.0000      -0.521022       -14.1777
  14   2.0000      -0.483107       -13.1460
  15   2.0000      -0.450981       -12.2718
  16   2.0000      -0.439211       -11.9515
  17   2.0000      -0.427815       -11.6414
  18   2.0000      -0.317509        -8.6399
  19   2.0000      -0.215315        -5.8590
  20   0.0000       0.032885         0.8948
  21   0.0000       0.056641         1.5413
  22   0.0000       0.071587         1.9480
  23   0.0000       0.103511         2.8167
  24   0.0000       0.106382         2.8948

MULLIKEN ATOMIC CHARGES
-----------------------
   0 C :    1.284112
   1 N :   -0.598088
   2 C :    0.569761
   3 N :   -0.000847
   4 C :    0.420890
   5 H :   -0.293166
   6 H :   -0.318335
   7 H :   -0.365533
   8 H :   -0.110754
   9 H :   -0.073909
  10 H :   -0.303676
  11 H :   -0.110007
  12 H :   -0.100449
Sum of atomic charges:    0.0000000

LOEWDIN ATOMIC CHARGES
----------------------
   0 C :    0.238544
   1 N :   -0.065671
   2 C :   -0.240464
   3 N :    0.177781
   4 C :    0.159975
   5 H :   -0.133608
   6 H :   -0.106336
   7 H :    0.018868
   8 H :   -0.011346
   9 H :    0.014604
  10 H :   -0.030431
  11 H :   -0.010655
  12 H :   -0.011261

  Mayer bond orders larger than 0.100000
B(  0-C ,  1-N ) :   0.9188 B(  0-C ,  7-H ) :  -0.1697 B(  0-C , 10-H ) :   0.8070
B(  0-C , 11-H ) :   0.7438 B(  0-C , 12-H ) :   0.7144 B(  1-N ,  2-C ) :   1.0161
B(  1-N ,  3-N ) :   0.1709 B(  1-N ,  4-C ) :   0.2612 B(  1-N ,  7-H ) :   1.3481
B(  1-N , 10-H ) :   0.2262 B(  1-N , 11-H ) :   0.1874 B(  1-N , 12-H ) :   0.2216
B(  2-C ,  3-N ) :   0.8881 B(  2-C ,  4-C ) :   1.8752 B(  2-C ,  5-H ) :   0.2423
B(  2-C ,  6-H ) :   0.2252 B(  2-C ,  7-H ) :  -0.2234 B(  3-N ,  4-C ) :   0.2446
B(  3-N ,  8-H ) :   1.0909 B(  3-N ,  9-H ) :   1.1929 B(  4-C ,  5-H ) :   0.6669
B(  4-C ,  6-H ) :   0.7661 B(  5-H ,  6-H ) :   0.2060 B(  5-H , 10-H ) :   0.1524
B(  8-H ,  9-H ) :  -0.1442

Dispersion correction           -0.000167103
FINAL SINGLE POINT ENERGY      -228.317996849689

DIPOLE MOMENT
-------------
                                X             Y             Z
Electronic contribution:      1.04947       2.32518       0.85378
Nuclear contribution   :     -1.66129      -1.64514      -0.08842
                        -----------------------------------------
Total Dipole Moment    :     -0.61182       0.68003       0.76536
                        -----------------------------------------
Magnitude (a.u.)       :      1.19271
Magnitude (Debye)      :      3.03162

Rotational constants in cm-1:     0.330436     0.136339     0.098902
Rotational constants in MHz :  9906.231858  4087.333233  2964.994979

                             ****ORCA TERMINATED NORMALLY****
TOTAL RUN TIME: 0 days 0 hours 0 minutes 16 seconds 795 msec
