                         Program Version 5.0.0 -  RELEASE  -
|  1> !M062X D3Zero RIJCOSX def2-SVPD def2/J TightSCF xyzfile
|  2>
|  3> *xyzfile 0 1 D2.xyz
|  4>
|  5> %MaxCore 64000
|  6>
|  7> %pal nprocs 4
|  8> end
|  9>
| 10> %scf
| 11>   MaxIter 150
| 12> end
| 13>
| 14>
| 15>                          ****END OF INPUT****

CARTESIAN COORDINATES (ANGSTROEM)
---------------------------------
  C      1.635557   -1.670396   -5.292109
  C      0.338484   -1.500907   -4.505398
  N      2.484511   -0.507410   -5.140392
  C     -0.684873   -0.528026   -5.099889
  C     -0.290406    0.951335   -5.153423
  H      0.607991    1.070692   -5.764412
  C     -0.055168    1.619420   -3.788577
  H     -1.080912    1.483775   -5.689436
  H      0.045006    0.862302   -3.003015
  H     -0.922936    2.230329   -3.517028
  C      1.223022    2.469865   -3.756911
  H      1.114701    3.258074   -4.532999
  H      1.237732    3.011242   -2.792157
  F      2.353815    1.712032   -3.934477
  H      1.398337   -1.829239   -6.352591
  H      2.155864   -2.565398   -4.932091
  C      3.451149   -0.149530   -5.952589
  C      3.922667    1.089559   -5.850711
  N      3.966162   -1.006183   -6.867880
  H      3.521391   -1.906467   -6.995270
  H      4.444824   -0.623472   -7.670348
  H      2.251995    0.240804   -4.498792
  H      3.464277    1.640782   -5.136392
  H      4.834470    1.313745   -6.224653
  H     -0.937999   -0.869056   -6.110838
  H     -1.604638   -0.622496   -4.513132
  H      0.594887   -1.211578   -3.482312
  H     -0.126530   -2.487656   -4.434176

 Total Charge           Charge          ....    0
 Multiplicity           Mult            ....    1
 Number of Electrons    NEL             ....   88
 Basis Dimension        Dim             ....  359

ORBITAL ENERGIES
----------------

  NO   OCC          E(Eh)            E(eV)
   0   2.0000     -25.273584      -687.7292
   1   2.0000     -14.746418      -401.2704
   2   2.0000     -14.733880      -400.9293
   3   2.0000     -10.643432      -289.6225
   4   2.0000     -10.580433      -287.9082
   5   2.0000     -10.577616      -287.8316
   6   2.0000     -10.565722      -287.5079
   7   2.0000     -10.554855      -287.2122
   8   2.0000     -10.554489      -287.2022
   9   2.0000     -10.552539      -287.1492
  10   2.0000     -10.434923      -283.9487
  11   2.0000      -1.356893       -36.9229
  12   2.0000      -1.053237       -28.6600
  13   2.0000      -0.962579       -26.1931
  14   2.0000      -0.911449       -24.8018
  15   2.0000      -0.867203       -23.5978
  16   2.0000      -0.826321       -22.4853
  17   2.0000      -0.770721       -20.9724
  18   2.0000      -0.735564       -20.0157
  19   2.0000      -0.703446       -19.1418
  20   2.0000      -0.663786       -18.0625
  21   2.0000      -0.645182       -17.5563
  22   2.0000      -0.626450       -17.0466
  23   2.0000      -0.602568       -16.3967
  24   2.0000      -0.589284       -16.0352
  25   2.0000      -0.584154       -15.8956
  26   2.0000      -0.558185       -15.1890
  27   2.0000      -0.546948       -14.8832
  28   2.0000      -0.520211       -14.1557
  29   2.0000      -0.512651       -13.9499
  30   2.0000      -0.493138       -13.4190
  31   2.0000      -0.483545       -13.1579
  32   2.0000      -0.467197       -12.7131
  33   2.0000      -0.449877       -12.2418
  34   2.0000      -0.434352       -11.8193
  35   2.0000      -0.428290       -11.6544
  36   2.0000      -0.418431       -11.3861
  37   2.0000      -0.412888       -11.2352
  38   2.0000      -0.397187       -10.8080
  39   2.0000      -0.387170       -10.5354
  40   2.0000      -0.383365       -10.4319
  41   2.0000      -0.380200       -10.3458
  42   2.0000      -0.303188        -8.2502
  43   2.0000      -0.195337        -5.3154
  44   0.0000       0.033082         0.9002
  45   0.0000       0.042638         1.1602
  46   0.0000       0.052491         1.4284
  47   0.0000       0.055415         1.5079
  48   0.0000       0.074511         2.0275

MULLIKEN ATOMIC CHARGES
-----------------------
   0 C :    0.709232
   1 C :    0.182239
   2 N :   -0.150046
   3 C :    0.226376
   4 C :    0.110442
   5 H :    0.121860
   6 C :    0.014558
   7 H :   -0.321448
   8 H :   -0.061253
   9 H :   -0.194894
  10 C :    1.011965
  11 H :   -0.056125
  12 H :   -0.058658
  13 F :   -0.863076
  14 H :   -0.012863
  15 H :   -0.254229
  16 C :    0.774059
  17 C :    0.666126
  18 N :   -0.094020
  19 H :   -0.059560
  20 H :   -0.075159
  21 H :   -0.529384
  22 H :   -0.248654
  23 H :   -0.580322
  24 H :    0.093632
  25 H :   -0.145328
  26 H :   -0.005872
  27 H :   -0.199597
Sum of atomic charges:    0.0000000

LOEWDIN ATOMIC CHARGES
----------------------
   0 C :    0.046641
   1 C :   -0.024291
   2 N :   -0.008897
   3 C :   -0.026185
   4 C :   -0.020053
   5 H :    0.010911
   6 C :   -0.001624
   7 H :    0.020127
   8 H :    0.015008
   9 H :    0.030078
  10 C :    0.169950
  11 H :    0.050354
  12 H :    0.038138
  13 F :   -0.236234
  14 H :    0.021095
  15 H :    0.018657
  16 C :   -0.209137
  17 C :    0.168781
  18 N :    0.189434
  19 H :   -0.029109
  20 H :    0.002337
  21 H :   -0.056587
  22 H :   -0.153967
  23 H :   -0.099280
  24 H :    0.024948
  25 H :    0.022169
  26 H :    0.014674
  27 H :    0.022061

  Mayer bond orders larger than 0.100000
B(  0-C ,  1-C ) :   1.2133 B(  0-C ,  2-N ) :   0.9337 B(  0-C , 14-H ) :   0.7478
B(  0-C , 15-H ) :   0.8837 B(  0-C , 21-H ) :  -0.1968 B(  0-C , 26-H ) :   0.1284
B(  0-C , 27-H ) :   0.1838 B(  1-C ,  3-C ) :   1.2097 B(  1-C , 24-H ) :   0.1482
B(  1-C , 25-H ) :   0.1890 B(  1-C , 26-H ) :   0.7631 B(  1-C , 27-H ) :   0.8207
B(  2-N , 14-H ) :   0.3634 B(  2-N , 15-H ) :   0.1874 B(  2-N , 16-C ) :   1.0188
B(  2-N , 17-C ) :   0.3567 B(  2-N , 18-N ) :   0.1335 B(  2-N , 21-H ) :   1.0364
B(  3-C ,  4-C ) :   1.3064 B(  3-C ,  5-H ) :   0.1291 B(  3-C , 24-H ) :   0.6747
B(  3-C , 25-H ) :   0.8574 B(  3-C , 26-H ) :   0.1593 B(  3-C , 27-H ) :   0.1180
B(  4-C ,  5-H ) :   0.8399 B(  4-C ,  6-C ) :   1.1766 B(  4-C ,  7-H ) :   0.8598
B(  4-C ,  8-H ) :   0.1180 B(  4-C ,  9-H ) :   0.1671 B(  4-C , 24-H ) :   0.2299
B(  4-C , 25-H ) :   0.1095 B(  5-H ,  7-H ) :  -0.1375 B(  6-C ,  8-H ) :   0.8735
B(  6-C ,  9-H ) :   0.9482 B(  6-C , 10-C ) :   1.1574 B(  6-C , 11-H ) :   0.1051
B(  6-C , 12-H ) :   0.1781 B(  6-C , 13-F ) :   0.1309 B(  8-H ,  9-H ) :  -0.1098
B(  8-H , 26-H ) :   0.1013 B( 10-C , 11-H ) :   0.8383 B( 10-C , 12-H ) :   0.8172
B( 10-C , 13-F ) :   0.6096 B( 11-H , 13-F ) :   0.2335 B( 13-F , 22-H ) :   0.1622
B( 14-H , 15-H ) :  -0.1066 B( 14-H , 25-H ) :  -0.1177 B( 16-C , 17-C ) :   1.5565
B( 16-C , 18-N ) :   0.7200 B( 16-C , 20-H ) :  -0.1572 B( 16-C , 21-H ) :  -0.4352
B( 16-C , 22-H ) :   0.3186 B( 16-C , 23-H ) :   0.4017 B( 17-C , 18-N ) :   0.3128
B( 17-C , 22-H ) :   0.5230 B( 17-C , 23-H ) :   0.4634 B( 18-N , 19-H ) :   0.9888
B( 18-N , 20-H ) :   1.2108 B( 19-H , 20-H ) :  -0.1609 B( 21-H , 22-H ) :  -0.1286
B( 24-H , 25-H ) :  -0.1418 B( 26-H , 27-H ) :  -0.1030

Dispersion correction           -0.001316595
FINAL SINGLE POINT ENERGY      -523.761073652301

DIPOLE MOMENT
-------------
                                X             Y             Z
Electronic contribution:      6.34062       2.46550       1.70448
Nuclear contribution   :     -7.85451      -2.70006      -1.48294
                        -----------------------------------------
Total Dipole Moment    :     -1.51389      -0.23456       0.22154
                        -----------------------------------------
Magnitude (a.u.)       :      1.54789
Magnitude (Debye)      :      3.93442

Rotational constants in cm-1:     0.044065     0.029250     0.019826
Rotational constants in MHz :  1321.026981   876.903192   594.367265

                             ****ORCA TERMINATED NORMALLY****
TOTAL RUN TIME: 0 days 0 hours 1 minutes 51 seconds 310 msec
