                         Program Version 5.0.0 -  RELEASE  -
|  1> !M062X D3Zero RIJCOSX def2-SVPD def2/J TightSCF xyzfile
|  2>
|  3> *xyzfile 0 1 D3.xyz
|  4>
|  5> %MaxCore 64000
|  6>
|  7> %pal nprocs 4
|  8> end
|  9>
| 10> %scf
| 11>   MaxIter 150
| 12> end
| 13>
| 14>
| 15>                          ****END OF INPUT****

CARTESIAN COORDINATES (ANGSTROEM)
---------------------------------
  C      1.635557   -1.670396   -5.292109
  C      0.338484   -1.500907   -4.505398
  N      2.484511   -0.507410   -5.140392
  C     -0.684873   -0.528026   -5.099889
  C     -0.290406    0.951335   -5.153423
  H      0.607991    1.070692   -5.764412
  C     -0.055168    1.619420   -3.788577
  H     -1.080912    1.483775   -5.689436
  H      0.045006    0.862302   -3.003015
  H     -0.922936    2.230329   -3.517028
  C      1.223022    2.469865   -3.756911
  H      1.114701    3.258074   -4.532999
  H      1.237732    3.011242   -2.792157
  F      2.353815    1.712032   -3.934477
  H      1.398337   -1.829239   -6.352591
  H      2.155864   -2.565398   -4.932091
  C      3.451149   -0.149530   -5.952589
  N      3.922667    1.089559   -5.850711
  C      3.966162   -1.006183   -6.867880
  H      3.521391   -1.906467   -6.995270
  H      4.444824   -0.623472   -7.670348
  H      2.251995    0.240804   -4.498792
  H      3.464277    1.640782   -5.136392
  H      4.834470    1.313745   -6.224653
  H     -0.937999   -0.869056   -6.110838
  H     -1.604638   -0.622496   -4.513132
  H      0.594887   -1.211578   -3.482312
  H     -0.126530   -2.487656   -4.434176

 Total Charge           Charge          ....    0
 Multiplicity           Mult            ....    1
 Number of Electrons    NEL             ....   88
 Basis Dimension        Dim             ....  359

ORBITAL ENERGIES
----------------

  NO   OCC          E(Eh)            E(eV)
   0   2.0000     -25.301423      -688.4867
   1   2.0000     -14.737783      -401.0355
   2   2.0000     -14.734780      -400.9537
   3   2.0000     -10.660252      -290.0802
   4   2.0000     -10.578591      -287.8581
   5   2.0000     -10.575303      -287.7686
   6   2.0000     -10.573379      -287.7163
   7   2.0000     -10.558468      -287.3105
   8   2.0000     -10.555527      -287.2305
   9   2.0000     -10.552434      -287.1463
  10   2.0000     -10.445418      -284.2343
  11   2.0000      -1.383799       -37.6551
  12   2.0000      -1.058644       -28.8072
  13   2.0000      -0.963545       -26.2194
  14   2.0000      -0.916142       -24.9295
  15   2.0000      -0.871009       -23.7014
  16   2.0000      -0.817490       -22.2450
  17   2.0000      -0.780991       -21.2518
  18   2.0000      -0.744536       -20.2599
  19   2.0000      -0.716550       -19.4983
  20   2.0000      -0.658566       -17.9205
  21   2.0000      -0.654068       -17.7981
  22   2.0000      -0.639185       -17.3931
  23   2.0000      -0.619218       -16.8498
  24   2.0000      -0.608753       -16.5650
  25   2.0000      -0.575203       -15.6521
  26   2.0000      -0.564369       -15.3573
  27   2.0000      -0.547336       -14.8938
  28   2.0000      -0.535051       -14.5595
  29   2.0000      -0.506782       -13.7902
  30   2.0000      -0.499089       -13.5809
  31   2.0000      -0.491162       -13.3652
  32   2.0000      -0.470647       -12.8070
  33   2.0000      -0.443566       -12.0700
  34   2.0000      -0.441888       -12.0244
  35   2.0000      -0.429335       -11.6828
  36   2.0000      -0.425710       -11.5842
  37   2.0000      -0.419907       -11.4263
  38   2.0000      -0.407772       -11.0960
  39   2.0000      -0.393207       -10.6997
  40   2.0000      -0.384357       -10.4589
  41   2.0000      -0.382823       -10.4171
  42   2.0000      -0.292014        -7.9461
  43   2.0000      -0.199756        -5.4356
  44   0.0000       0.026289         0.7154
  45   0.0000       0.042493         1.1563
  46   0.0000       0.050417         1.3719
  47   0.0000       0.054750         1.4898
  48   0.0000       0.069155         1.8818

MULLIKEN ATOMIC CHARGES
-----------------------
   0 C :    0.692343
   1 C :    0.197419
   2 N :    0.100521
   3 C :    0.233664
   4 C :    0.208710
   5 H :   -0.014009
   6 C :   -0.003191
   7 H :   -0.298864
   8 H :   -0.053209
   9 H :   -0.184910
  10 C :    1.014293
  11 H :   -0.058204
  12 H :   -0.059232
  13 F :   -0.848733
  14 H :    0.018166
  15 H :   -0.242969
  16 C :    0.473799
  17 N :    0.343018
  18 C :    0.428671
  19 H :   -0.032411
  20 H :   -0.418366
  21 H :   -0.755893
  22 H :   -0.239581
  23 H :   -0.223748
  24 H :    0.105459
  25 H :   -0.147256
  26 H :   -0.028358
  27 H :   -0.207129
Sum of atomic charges:   -0.0000000

LOEWDIN ATOMIC CHARGES
----------------------
   0 C :    0.058331
   1 C :   -0.024693
   2 N :   -0.007309
   3 C :   -0.024963
   4 C :   -0.020758
   5 H :    0.010228
   6 C :    0.000270
   7 H :    0.020509
   8 H :    0.016632
   9 H :    0.032114
  10 C :    0.169874
  11 H :    0.050767
  12 H :    0.040505
  13 F :   -0.227128
  14 H :    0.027575
  15 H :    0.026513
  16 C :   -0.224572
  17 N :    0.199785
  18 C :    0.160057
  19 H :   -0.128423
  20 H :   -0.112087
  21 H :   -0.064357
  22 H :   -0.075360
  23 H :    0.012209
  24 H :    0.027022
  25 H :    0.022106
  26 H :    0.012057
  27 H :    0.023096

  Mayer bond orders larger than 0.100000
B(  0-C ,  1-C ) :   1.1961 B(  0-C ,  2-N ) :   1.0177 B(  0-C , 14-H ) :   0.7520
B(  0-C , 15-H ) :   0.8911 B(  0-C , 21-H ) :  -0.2022 B(  0-C , 26-H ) :   0.1241
B(  0-C , 27-H ) :   0.1655 B(  1-C ,  3-C ) :   1.2104 B(  1-C , 24-H ) :   0.1483
B(  1-C , 25-H ) :   0.1946 B(  1-C , 26-H ) :   0.7547 B(  1-C , 27-H ) :   0.8415
B(  2-N , 13-F ) :  -0.1346 B(  2-N , 14-H ) :   0.3115 B(  2-N , 15-H ) :   0.1436
B(  2-N , 16-C ) :   1.3305 B(  2-N , 17-N ) :   0.1005 B(  2-N , 18-C ) :   0.1944
B(  2-N , 21-H ) :   0.8607 B(  3-C ,  4-C ) :   1.3053 B(  3-C ,  5-H ) :   0.1340
B(  3-C ,  7-H ) :   0.1052 B(  3-C , 24-H ) :   0.6761 B(  3-C , 25-H ) :   0.8587
B(  3-C , 26-H ) :   0.1559 B(  3-C , 27-H ) :   0.1092 B(  4-C ,  5-H ) :   0.8386
B(  4-C ,  6-C ) :   1.1688 B(  4-C ,  7-H ) :   0.8158 B(  4-C ,  8-H ) :   0.1198
B(  4-C ,  9-H ) :   0.1650 B(  4-C , 24-H ) :   0.2265 B(  6-C ,  8-H ) :   0.8788
B(  6-C ,  9-H ) :   0.9509 B(  6-C , 10-C ) :   1.1585 B(  6-C , 11-H ) :   0.1116
B(  6-C , 12-H ) :   0.1737 B(  6-C , 13-F ) :   0.1271 B(  8-H ,  9-H ) :  -0.1034
B(  8-H , 26-H ) :   0.1006 B( 10-C , 11-H ) :   0.8325 B( 10-C , 12-H ) :   0.8192
B( 10-C , 13-F ) :   0.5907 B( 11-H , 13-F ) :   0.2466 B( 13-F , 21-H ) :   0.1071
B( 13-F , 22-H ) :   0.1684 B( 14-H , 15-H ) :  -0.1033 B( 14-H , 25-H ) :  -0.1166
B( 16-C , 17-N ) :   0.8016 B( 16-C , 18-C ) :   1.8632 B( 16-C , 19-H ) :   0.3531
B( 16-C , 20-H ) :   0.2342 B( 16-C , 21-H ) :  -0.4811 B( 16-C , 23-H ) :  -0.1782
B( 17-N , 18-C ) :   0.1915 B( 17-N , 22-H ) :   1.0206 B( 17-N , 23-H ) :   1.2970
B( 18-C , 19-H ) :   0.5738 B( 18-C , 20-H ) :   0.7655 B( 19-H , 20-H ) :   0.1508
B( 22-H , 23-H ) :  -0.1707 B( 24-H , 25-H ) :  -0.1431 B( 26-H , 27-H ) :  -0.1049

Dispersion correction           -0.001322984
FINAL SINGLE POINT ENERGY      -523.773241229981

DIPOLE MOMENT
-------------
                                X             Y             Z
Electronic contribution:      6.25679       4.43624       2.79080
Nuclear contribution   :     -7.84660      -3.08098      -1.66782
                        -----------------------------------------
Total Dipole Moment    :     -1.58982       1.35525       1.12298
                        -----------------------------------------
Magnitude (a.u.)       :      2.37177
Magnitude (Debye)      :      6.02857

Rotational constants in cm-1:     0.043547     0.029898     0.020008
Rotational constants in MHz :  1305.520367   896.323854   599.829375

                             ****ORCA TERMINATED NORMALLY****
TOTAL RUN TIME: 0 days 0 hours 1 minutes 58 seconds 348 msec
