                         Program Version 5.0.0 -  RELEASE  -
|  1> !BLYP D3BJ RIJCOSX def2-SVPD def2/J TightSCF
|  2> *xyz -1 1
|  3> C         -2.45380        0.05510        6.94145
|  4> C         -2.07842        1.48042        6.56410
|  5> O         -0.90125        1.85816        6.82810
|  6> O         -2.93658        2.17731        5.96415
|  7> H         -3.47026       -0.13135        6.66407
|  8> H         -2.34265       -0.07527        7.99765
|  9> H         -1.81248       -0.63046        6.42801
| 10> *
| 11> %MaxCore 64000
| 12>
| 13> %pal nprocs 4
| 14> end
| 15>
| 16> %scf
| 17>   MaxIter 150
| 18> end
| 19>
| 20>
| 21>                          ****END OF INPUT****

CARTESIAN COORDINATES (ANGSTROEM)
---------------------------------
  C     -2.453800    0.055100    6.941450
  C     -2.078420    1.480420    6.564100
  O     -0.901250    1.858160    6.828100
  O     -2.936580    2.177310    5.964150
  H     -3.470260   -0.131350    6.664070
  H     -2.342650   -0.075270    7.997650
  H     -1.812480   -0.630460    6.428010

 Total Charge           Charge          ....   -1
 Multiplicity           Mult            ....    1
 Number of Electrons    NEL             ....   32
 Basis Dimension        Dim             ....  110

ORBITAL ENERGIES
----------------

  NO   OCC          E(Eh)            E(eV)
   0   2.0000     -18.529690      -504.2185
   1   2.0000     -18.527311      -504.1538
   2   2.0000      -9.802330      -266.7350
   3   2.0000      -9.736375      -264.9402
   4   2.0000      -0.712442       -19.3865
   5   2.0000      -0.624264       -16.9871
   6   2.0000      -0.464394       -12.6368
   7   2.0000      -0.242335        -6.5943
   8   2.0000      -0.209724        -5.7069
   9   2.0000      -0.194162        -5.2834
  10   2.0000      -0.165315        -4.4985
  11   2.0000      -0.129719        -3.5298
  12   2.0000      -0.116207        -3.1622
  13   2.0000      -0.006484        -0.1764
  14   2.0000       0.004280         0.1165
  15   2.0000       0.024559         0.6683
  16   0.0000       0.155099         4.2205
  17   0.0000       0.197214         5.3665
  18   0.0000       0.200452         5.4546
  19   0.0000       0.223621         6.0850
  20   0.0000       0.242147         6.5892

MULLIKEN ATOMIC CHARGES
-----------------------
   0 C :    0.863086
   1 C :   -0.142117
   2 O :   -0.589114
   3 O :   -0.549283
   4 H :   -0.213825
   5 H :   -0.183391
   6 H :   -0.185357
Sum of atomic charges:   -1.0000000

LOEWDIN ATOMIC CHARGES
----------------------
   0 C :    0.154538
   1 C :   -0.358358
   2 O :   -0.329944
   3 O :   -0.321558
   4 H :   -0.053263
   5 H :   -0.046633
   6 H :   -0.044783

  Mayer bond orders larger than 0.100000
B(  0-C ,  1-C ) :   1.2184 B(  0-C ,  4-H ) :   0.7883 B(  0-C ,  5-H ) :   0.7322
B(  0-C ,  6-H ) :   0.7410 B(  1-C ,  2-O ) :   1.5703 B(  1-C ,  3-O ) :   1.5546
B(  1-C ,  4-H ) :   0.3215 B(  1-C ,  5-H ) :   0.2301 B(  1-C ,  6-H ) :   0.2218

Dispersion correction           -0.007716990
FINAL SINGLE POINT ENERGY      -228.325708859092

DIPOLE MOMENT
-------------
                                X             Y             Z
Electronic contribution:      0.88681       3.41098      -0.92626
Nuclear contribution   :     -1.26064      -4.68337       1.27880
                        -----------------------------------------
Total Dipole Moment    :     -0.37383      -1.27239       0.35254
                        -----------------------------------------
Magnitude (a.u.)       :      1.37223
Magnitude (Debye)      :      3.48793

Rotational constants in cm-1:     0.391994     0.333933     0.186475
Rotational constants in MHz : 11751.676689 10011.065304  5590.392476

                             ****ORCA TERMINATED NORMALLY****
TOTAL RUN TIME: 0 days 0 hours 0 minutes 3 seconds 372 msec
