                         Program Version 5.0.0 -  RELEASE  -
|  1> !BLYP D3BJ RIJCOSX def2-SVPD def2/J TightSCF
|  2> *xyz 1 1
|  3> C         -0.69912        3.48945        3.75516
|  4> N         -1.08067        3.79296        5.15686
|  5> H         -0.87449        4.76274        5.42734
|  6> H         -0.68079        3.13476        5.83900
|  7> H         -2.05755        3.53169        5.34620
|  8> H         -1.14600        4.20803        3.10030
|  9> H         -1.04188        2.50941        3.49644
| 10> H          0.36562        3.53208        3.65813
| 11> *
| 12> %MaxCore 64000
| 13>
| 14> %pal nprocs 4
| 15> end
| 16>
| 17> %scf
| 18>   MaxIter 150
| 19> end
| 20>
| 21>
| 22>                          ****END OF INPUT****

CARTESIAN COORDINATES (ANGSTROEM)
---------------------------------
  C     -0.699120    3.489450    3.755160
  N     -1.080670    3.792960    5.156860
  H     -0.874490    4.762740    5.427340
  H     -0.680790    3.134760    5.839000
  H     -2.057550    3.531690    5.346200
  H     -1.146000    4.208030    3.100300
  H     -1.041880    2.509410    3.496440
  H      0.365620    3.532080    3.658130

 Total Charge           Charge          ....    1
 Multiplicity           Mult            ....    1
 Number of Electrons    NEL             ....   18
 Basis Dimension        Dim             ....   88

ORBITAL ENERGIES
----------------

  NO   OCC          E(Eh)            E(eV)
   0   2.0000     -14.372918      -391.1070
   1   2.0000     -10.182530      -277.0807
   2   2.0000      -1.134132       -30.8613
   3   2.0000      -0.868017       -23.6199
   4   2.0000      -0.770217       -20.9587
   5   2.0000      -0.733107       -19.9489
   6   2.0000      -0.669364       -18.2143
   7   2.0000      -0.581845       -15.8328
   8   2.0000      -0.576248       -15.6805
   9   0.0000      -0.233031        -6.3411
  10   0.0000      -0.170555        -4.6410
  11   0.0000      -0.164697        -4.4816
  12   0.0000      -0.155793        -4.2393
  13   0.0000      -0.109798        -2.9877

MULLIKEN ATOMIC CHARGES
-----------------------
   0 C :    1.356177
   1 N :   -0.683084
   2 H :    0.313891
   3 H :    0.291708
   4 H :    0.306634
   5 H :   -0.199176
   6 H :   -0.196257
   7 H :   -0.189894
Sum of atomic charges:    1.0000000

LOEWDIN ATOMIC CHARGES
----------------------
   0 C :    0.294590
   1 N :    0.321256
   2 H :    0.110591
   3 H :    0.104405
   4 H :    0.104013
   5 H :    0.021890
   6 H :    0.021990
   7 H :    0.021266

  Mayer bond orders larger than 0.100000
B(  0-C ,  1-N ) :   0.8061 B(  0-C ,  5-H ) :   0.8070 B(  0-C ,  6-H ) :   0.8043
B(  0-C ,  7-H ) :   0.8136 B(  1-N ,  2-H ) :   0.7928 B(  1-N ,  3-H ) :   0.8471
B(  1-N ,  4-H ) :   0.8217 B(  1-N ,  5-H ) :   0.1256 B(  1-N ,  6-H ) :   0.1258
B(  1-N ,  7-H ) :   0.1160

Dispersion correction           -0.006787436
FINAL SINGLE POINT ENERGY       -96.095215237707

DIPOLE MOMENT
-------------
                                X             Y             Z
Electronic contribution:     -0.24624       0.28405       0.98412
Nuclear contribution   :     -0.00699      -0.18064      -0.14199
                        -----------------------------------------
Total Dipole Moment    :     -0.25323       0.10340       0.84213
                        -----------------------------------------
Magnitude (a.u.)       :      0.88544
Magnitude (Debye)      :      2.25061

Rotational constants in cm-1:     2.906310     0.688008     0.676648
Rotational constants in MHz : 87128.982229 20625.947414 20285.402367

                             ****ORCA TERMINATED NORMALLY****
TOTAL RUN TIME: 0 days 0 hours 0 minutes 2 seconds 733 msec
