                         Program Version 5.0.0 -  RELEASE  -
|  1> !BLYP D3BJ RIJCOSX def2-SVPD def2/J TightSCF
|  2> *xyz 0 1
|  3> C         -2.45380        0.05510        6.94145
|  4> C         -2.07842        1.48042        6.56410
|  5> F         -0.90125        1.85816        6.82810
|  6> O         -2.93658        2.17731        5.96415
|  7> H         -3.47026       -0.13135        6.66407
|  8> H         -2.34265       -0.07527        7.99765
|  9> H         -1.81248       -0.63046        6.42801
| 10> *
| 11> %MaxCore 64000
| 12>
| 13> %pal nprocs 4
| 14> end
| 15>
| 16> %scf
| 17>   MaxIter 150
| 18> end
| 19>
| 20>
| 21>                          ****END OF INPUT****

CARTESIAN COORDINATES (ANGSTROEM)
---------------------------------
  C     -2.453800    0.055100    6.941450
  C     -2.078420    1.480420    6.564100
  F     -0.901250    1.858160    6.828100
  O     -2.936580    2.177310    5.964150
  H     -3.470260   -0.131350    6.664070
  H     -2.342650   -0.075270    7.997650
  H     -1.812480   -0.630460    6.428010

 Total Charge           Charge          ....    0
 Multiplicity           Mult            ....    1
 Number of Electrons    NEL             ....   32
 Basis Dimension        Dim             ....  110

ORBITAL ENERGIES
----------------

  NO   OCC          E(Eh)            E(eV)
   0   2.0000     -24.375616      -663.2942
   1   2.0000     -18.801937      -511.6267
   2   2.0000     -10.102493      -274.9028
   3   2.0000      -9.952146      -270.8116
   4   2.0000      -1.194376       -32.5006
   5   2.0000      -0.933497       -25.4018
   6   2.0000      -0.693901       -18.8820
   7   2.0000      -0.588196       -16.0056
   8   2.0000      -0.487087       -13.2543
   9   2.0000      -0.480870       -13.0851
  10   2.0000      -0.442301       -12.0356
  11   2.0000      -0.397152       -10.8070
  12   2.0000      -0.385727       -10.4962
  13   2.0000      -0.351435        -9.5630
  14   2.0000      -0.315979        -8.5982
  15   2.0000      -0.246120        -6.6973
  16   0.0000      -0.069568        -1.8931
  17   0.0000      -0.007560        -0.2057
  18   0.0000       0.040686         1.1071
  19   0.0000       0.063699         1.7333
  20   0.0000       0.070674         1.9231

MULLIKEN ATOMIC CHARGES
-----------------------
   0 C :    0.831033
   1 C :    0.256387
   2 F :   -0.312124
   3 O :   -0.354298
   4 H :   -0.194341
   5 H :   -0.114562
   6 H :   -0.112094
Sum of atomic charges:   -0.0000000

LOEWDIN ATOMIC CHARGES
----------------------
   0 C :    0.226994
   1 C :   -0.066129
   2 F :   -0.023247
   3 O :   -0.117544
   4 H :   -0.005992
   5 H :   -0.008086
   6 H :   -0.005996

  Mayer bond orders larger than 0.100000
B(  0-C ,  1-C ) :   1.2315 B(  0-C ,  4-H ) :   0.7964 B(  0-C ,  5-H ) :   0.7287
B(  0-C ,  6-H ) :   0.7352 B(  1-C ,  2-F ) :   0.8331 B(  1-C ,  3-O ) :   1.9051
B(  1-C ,  4-H ) :   0.2829 B(  1-C ,  5-H ) :   0.1821 B(  1-C ,  6-H ) :   0.1763
B(  2-F ,  3-O ) :   0.1131

Dispersion correction           -0.007103819
FINAL SINGLE POINT ENERGY      -252.864517621327

DIPOLE MOMENT
-------------
                                X             Y             Z
Electronic contribution:      2.81982       4.15874      -0.50680
Nuclear contribution   :     -2.49112      -5.16552       1.01592
                        -----------------------------------------
Total Dipole Moment    :      0.32870      -1.00678       0.50912
                        -----------------------------------------
Magnitude (a.u.)       :      1.17510
Magnitude (Debye)      :      2.98686

Rotational constants in cm-1:     0.367635     0.321184     0.176974
Rotational constants in MHz : 11021.414238  9628.842971  5305.560130

                             ****ORCA TERMINATED NORMALLY****
TOTAL RUN TIME: 0 days 0 hours 0 minutes 3 seconds 375 msec
