                         Program Version 5.0.0 -  RELEASE  -
|  1> !BLYP D3BJ RIJCOSX def2-SVPD def2/J TightSCF
|  2> *xyz 0 1
|  3> C         -0.69912        3.48945        3.75516
|  4> C         -1.08067        3.79296        5.15686
|  5> H         -0.87449        4.76274        5.42734
|  6> H         -0.68079        3.13476        5.83900
|  7> H         -2.05755        3.53169        5.34620
|  8> H         -1.14600        4.20803        3.10030
|  9> H         -1.04188        2.50941        3.49644
| 10> H          0.36562        3.53208        3.65813
| 11> *
| 12> %MaxCore 64000
| 13>
| 14> %pal nprocs 4
| 15> end
| 16>
| 17> %scf
| 18>   MaxIter 150
| 19> end
| 20>
| 21>
| 22>                          ****END OF INPUT****

CARTESIAN COORDINATES (ANGSTROEM)
---------------------------------
  C     -0.699120    3.489450    3.755160
  C     -1.080670    3.792960    5.156860
  H     -0.874490    4.762740    5.427340
  H     -0.680790    3.134760    5.839000
  H     -2.057550    3.531690    5.346200
  H     -1.146000    4.208030    3.100300
  H     -1.041880    2.509410    3.496440
  H      0.365620    3.532080    3.658130

 Total Charge           Charge          ....    0
 Multiplicity           Mult            ....    1
 Number of Electrons    NEL             ....   18
 Basis Dimension        Dim             ....   88

ORBITAL ENERGIES
----------------

  NO   OCC          E(Eh)            E(eV)
   0   2.0000      -9.902324      -269.4559
   1   2.0000      -9.889289      -269.1012
   2   2.0000      -0.685183       -18.6448
   3   2.0000      -0.552445       -15.0328
   4   2.0000      -0.404686       -11.0121
   5   2.0000      -0.384780       -10.4704
   6   2.0000      -0.327275        -8.9056
   7   2.0000      -0.308285        -8.3889
   8   2.0000      -0.287096        -7.8123
   9   0.0000       0.009893         0.2692
  10   0.0000       0.041268         1.1230
  11   0.0000       0.077362         2.1051
  12   0.0000       0.082524         2.2456
  13   0.0000       0.101513         2.7623

MULLIKEN ATOMIC CHARGES
-----------------------
   0 C :    0.680232
   1 C :    0.938965
   2 H :   -0.349221
   3 H :   -0.353390
   4 H :   -0.347669
   5 H :   -0.197152
   6 H :   -0.177873
   7 H :   -0.193890
Sum of atomic charges:    0.0000000

LOEWDIN ATOMIC CHARGES
----------------------
   0 C :    0.096236
   1 C :    0.090578
   2 H :   -0.034815
   3 H :   -0.042949
   4 H :   -0.042906
   5 H :   -0.022190
   6 H :   -0.020898
   7 H :   -0.023055

  Mayer bond orders larger than 0.100000
B(  0-C ,  1-C ) :   1.4212 B(  0-C ,  2-H ) :   0.2062 B(  0-C ,  3-H ) :   0.1940
B(  0-C ,  4-H ) :   0.2012 B(  0-C ,  5-H ) :   0.7563 B(  0-C ,  6-H ) :   0.7705
B(  0-C ,  7-H ) :   0.7619 B(  1-C ,  2-H ) :   0.6633 B(  1-C ,  3-H ) :   0.5682
B(  1-C ,  4-H ) :   0.5737 B(  1-C ,  5-H ) :   0.2082 B(  1-C ,  6-H ) :   0.2215
B(  1-C ,  7-H ) :   0.2036 B(  3-H ,  4-H ) :   0.3422

Dispersion correction           -0.006832434
FINAL SINGLE POINT ENERGY       -79.695521095665

DIPOLE MOMENT
-------------
                                X             Y             Z
Electronic contribution:      0.05354       0.10438      -0.06163
Nuclear contribution   :     -0.07174      -0.12630       0.09844
                        -----------------------------------------
Total Dipole Moment    :     -0.01820      -0.02192       0.03681
                        -----------------------------------------
Magnitude (a.u.)       :      0.04655
Magnitude (Debye)      :      0.11832

Rotational constants in cm-1:     2.906543     0.717882     0.705537
Rotational constants in MHz : 87135.978289 21521.550473 21151.459355

                             ****ORCA TERMINATED NORMALLY****
TOTAL RUN TIME: 0 days 0 hours 0 minutes 2 seconds 772 msec
