                         Program Version 5.0.0 -  RELEASE  -
|  1> !BLYP D3BJ RIJCOSX def2-SVPD def2/J TightSCF
|  2> *xyz 0 1
|  3> C         -2.45380        0.05510        6.94145
|  4> C         -2.07842        1.48042        6.56410
|  5> O         -0.90125        1.85816        6.82810
|  6> F         -2.93658        2.17731        5.96415
|  7> H         -3.47026       -0.13135        6.66407
|  8> H         -2.34265       -0.07527        7.99765
|  9> H         -1.81248       -0.63046        6.42801
| 10> *
| 11> %MaxCore 64000
| 12>
| 13> %pal nprocs 4
| 14> end
| 15>
| 16> %scf
| 17>   MaxIter 150
| 18> end
| 19>
| 20>
| 21>                          ****END OF INPUT****

CARTESIAN COORDINATES (ANGSTROEM)
---------------------------------
  C     -2.453800    0.055100    6.941450
  C     -2.078420    1.480420    6.564100
  O     -0.901250    1.858160    6.828100
  F     -2.936580    2.177310    5.964150
  H     -3.470260   -0.131350    6.664070
  H     -2.342650   -0.075270    7.997650
  H     -1.812480   -0.630460    6.428010

 Total Charge           Charge          ....    0
 Multiplicity           Mult            ....    1
 Number of Electrons    NEL             ....   32
 Basis Dimension        Dim             ....  110

ORBITAL ENERGIES
----------------

  NO   OCC          E(Eh)            E(eV)
   0   2.0000     -24.378287      -663.3669
   1   2.0000     -18.800490      -511.5873
   2   2.0000     -10.103097      -274.9192
   3   2.0000      -9.952359      -270.8175
   4   2.0000      -1.199342       -32.6357
   5   2.0000      -0.929565       -25.2948
   6   2.0000      -0.693710       -18.8768
   7   2.0000      -0.591115       -16.0851
   8   2.0000      -0.489199       -13.3118
   9   2.0000      -0.483061       -13.1448
  10   2.0000      -0.443146       -12.0586
  11   2.0000      -0.398409       -10.8413
  12   2.0000      -0.385175       -10.4811
  13   2.0000      -0.350752        -9.5444
  14   2.0000      -0.310796        -8.4572
  15   2.0000      -0.245838        -6.6896
  16   0.0000      -0.072768        -1.9801
  17   0.0000      -0.007838        -0.2133
  18   0.0000       0.040615         1.1052
  19   0.0000       0.064078         1.7437
  20   0.0000       0.068456         1.8628

MULLIKEN ATOMIC CHARGES
-----------------------
   0 C :    0.817714
   1 C :    0.242744
   2 O :   -0.385401
   3 F :   -0.279461
   4 H :   -0.179605
   5 H :   -0.109426
   6 H :   -0.106565
Sum of atomic charges:    0.0000000

LOEWDIN ATOMIC CHARGES
----------------------
   0 C :    0.227079
   1 C :   -0.064350
   2 O :   -0.123014
   3 F :   -0.018906
   4 H :   -0.019845
   5 H :   -0.000969
   6 H :    0.000006

  Mayer bond orders larger than 0.100000
B(  0-C ,  1-C ) :   1.2493 B(  0-C ,  4-H ) :   0.8062 B(  0-C ,  5-H ) :   0.7214
B(  0-C ,  6-H ) :   0.7323 B(  1-C ,  2-O ) :   1.8756 B(  1-C ,  3-F ) :   0.8853
B(  1-C ,  4-H ) :   0.2123 B(  1-C ,  5-H ) :   0.2046 B(  1-C ,  6-H ) :   0.1929
B(  2-O ,  3-F ) :   0.1055

Dispersion correction           -0.007106023
FINAL SINGLE POINT ENERGY      -252.861843526485

DIPOLE MOMENT
-------------
                                X             Y             Z
Electronic contribution:     -0.45386       4.67468      -1.89689
Nuclear contribution   :     -0.38801      -5.49530       1.90863
                        -----------------------------------------
Total Dipole Moment    :     -0.84187      -0.82061       0.01174
                        -----------------------------------------
Magnitude (a.u.)       :      1.17571
Magnitude (Debye)      :      2.98842

Rotational constants in cm-1:     0.368583     0.320435     0.176966
Rotational constants in MHz : 11049.843408  9606.394840  5305.299921

                             ****ORCA TERMINATED NORMALLY****
TOTAL RUN TIME: 0 days 0 hours 0 minutes 3 seconds 369 msec
