                         Program Version 5.0.0 -  RELEASE  -
|  1> !BLYP D3BJ RIJCOSX def2-SVPD def2/J TightSCF xyzfile
|  2>
|  3> *xyzfile 0 1 D1.xyz
|  4>
|  5> %MaxCore 64000
|  6>
|  7> %pal nprocs 4
|  8> end
|  9>
| 10> %scf
| 11>   MaxIter 150
| 12> end
| 13>
| 14>
| 15>                          ****END OF INPUT****

CARTESIAN COORDINATES (ANGSTROEM)
---------------------------------
  C     -0.699123    3.489451    3.755163
  H     -0.966716    4.349013    3.140491
  C     -1.080669    3.792957    5.156857
  C      0.776956    3.138391    3.617408
  H     -1.331455    2.656510    3.446323
  H      1.371398    3.888342    4.149744
  H      1.046926    3.232057    2.561331
  C      1.118917    1.731170    4.115155
  H      2.200573    1.654226    4.254882
  C      0.659466    0.635182    3.153306
  H      0.677024    1.576674    5.103150
  H      1.312288    0.638870    2.274207
  H     -0.339563    0.868049    2.772876
  C      0.639957   -0.771175    3.755619
  C     -0.341821   -0.965537    4.915046
  H      1.648266   -1.028665    4.097015
  H      0.398568   -1.482386    2.958453
  H     -0.279892   -2.005646    5.252547
  C     -1.789164   -0.639231    4.557496
  H     -0.032380   -0.352918    5.765118
  H     -2.107151   -1.270102    3.719619
  H     -1.856352    0.391636    4.197604
  C     -2.790700   -0.785275    5.702812
  H     -2.867308   -1.835651    6.001675
  H     -3.774554   -0.486577    5.334807
  C     -2.453797    0.055101    6.941445
  C     -2.078419    1.480421    6.564098
  H     -1.625584   -0.382163    7.498914
  H     -3.325274    0.087746    7.599175
  H     -0.874488    4.762737    5.427344
  H     -0.680793    3.134762    5.839000
  H     -2.057550    3.531691    5.346197
  F     -0.901252    1.858156    6.828104
  O     -2.936582    2.177309    5.964151

 Total Charge           Charge          ....    0
 Multiplicity           Mult            ....    1
 Number of Electrons    NEL             ....  104
 Basis Dimension        Dim             ....  434

ORBITAL ENERGIES
----------------

  NO   OCC          E(Eh)            E(eV)
   0   2.0000     -24.382705      -663.4871
   1   2.0000     -18.805183      -511.7151
   2   2.0000     -10.105176      -274.9758
   3   2.0000      -9.955552      -270.9043
   4   2.0000      -9.938769      -270.4477
   5   2.0000      -9.924374      -270.0559
   6   2.0000      -9.921443      -269.9762
   7   2.0000      -9.916079      -269.8302
   8   2.0000      -9.909186      -269.6427
   9   2.0000      -9.906593      -269.5721
  10   2.0000      -9.899308      -269.3739
  11   2.0000      -9.890393      -269.1313
  12   2.0000      -9.840055      -267.7615
  13   2.0000      -1.207272       -32.8515
  14   2.0000      -0.944402       -25.6985
  15   2.0000      -0.744401       -20.2562
  16   2.0000      -0.720942       -19.6178
  17   2.0000      -0.692708       -18.8495
  18   2.0000      -0.667177       -18.1548
  19   2.0000      -0.628737       -17.1088
  20   2.0000      -0.609533       -16.5862
  21   2.0000      -0.585328       -15.9276
  22   2.0000      -0.552874       -15.0445
  23   2.0000      -0.538967       -14.6660
  24   2.0000      -0.499993       -13.6055
  25   2.0000      -0.499879       -13.6024
  26   2.0000      -0.488461       -13.2917
  27   2.0000      -0.470776       -12.8105
  28   2.0000      -0.457646       -12.4532
  29   2.0000      -0.425288       -11.5727
  30   2.0000      -0.422442       -11.4952
  31   2.0000      -0.406692       -11.0667
  32   2.0000      -0.403697       -10.9852
  33   2.0000      -0.386401       -10.5145
  34   2.0000      -0.375265       -10.2115
  35   2.0000      -0.362651        -9.8682
  36   2.0000      -0.359025        -9.7696
  37   2.0000      -0.351567        -9.5666
  38   2.0000      -0.342198        -9.3117
  39   2.0000      -0.331293        -9.0150
  40   2.0000      -0.321252        -8.7417
  41   2.0000      -0.316182        -8.6037
  42   2.0000      -0.308576        -8.3968
  43   2.0000      -0.301424        -8.2022
  44   2.0000      -0.293039        -7.9740
  45   2.0000      -0.286032        -7.7833
  46   2.0000      -0.280232        -7.6255
  47   2.0000      -0.270690        -7.3658
  48   2.0000      -0.266425        -7.2498
  49   2.0000      -0.257613        -7.0100
  50   2.0000      -0.252278        -6.8648
  51   2.0000      -0.221058        -6.0153
  52   0.0000      -0.080924        -2.2021
  53   0.0000      -0.004154        -0.1130
  54   0.0000       0.011386         0.3098
  55   0.0000       0.014345         0.3903
  56   0.0000       0.020889         0.5684

MULLIKEN ATOMIC CHARGES
-----------------------
   0 C :    0.363621
   1 H :   -0.491724
   2 C :    2.575104
   3 C :    0.867823
   4 H :   -0.423309
   5 H :   -0.256255
   6 H :   -0.282898
   7 C :    1.060176
   8 H :   -0.116925
   9 C :    0.322602
  10 H :   -1.007502
  11 H :   -0.417751
  12 H :   -0.260425
  13 C :    1.040446
  14 C :    0.274288
  15 H :   -0.305964
  16 H :   -0.113505
  17 H :   -0.464510
  18 C :    0.749099
  19 H :   -0.160862
  20 H :   -0.179398
  21 H :   -0.847756
  22 C :    0.784690
  23 H :   -0.348630
  24 H :   -0.052038
  25 C :    0.635848
  26 C :    0.382101
  27 H :    0.006692
  28 H :   -0.357364
  29 H :   -0.422049
  30 H :   -1.015446
  31 H :   -0.546188
  32 F :   -0.516751
  33 O :   -0.475241
Sum of atomic charges:    0.0000000

LOEWDIN ATOMIC CHARGES
----------------------
   0 C :   -0.028957
   1 H :    0.017057
   2 C :    0.144372
   3 C :   -0.016541
   4 H :   -0.001328
   5 H :    0.019111
   6 H :    0.011836
   7 C :   -0.005742
   8 H :    0.020458
   9 C :   -0.021892
  10 H :   -0.019829
  11 H :    0.020400
  12 H :   -0.003681
  13 C :   -0.017636
  14 C :   -0.018699
  15 H :    0.018122
  16 H :    0.017259
  17 H :    0.022020
  18 C :   -0.013811
  19 H :   -0.009046
  20 H :    0.029955
  21 H :   -0.004082
  22 C :    0.001143
  23 H :    0.022835
  24 H :    0.026218
  25 C :    0.064019
  26 C :    0.015385
  27 H :    0.018133
  28 H :    0.036668
  29 H :   -0.022596
  30 H :   -0.101779
  31 H :   -0.102868
  32 F :   -0.028492
  33 O :   -0.088010

  Mayer bond orders larger than 0.100000
B(  0-C ,  1-H ) :   0.6648 B(  0-C ,  2-C ) :   0.6261 B(  0-C ,  3-C ) :   1.1558
B(  0-C ,  4-H ) :   0.5593 B(  0-C ,  5-H ) :   0.1651 B(  0-C ,  6-H ) :   0.2322
B(  0-C ,  7-C ) :   0.2955 B(  0-C , 10-H ) :  -0.2120 B(  0-C , 29-H ) :   0.1698
B(  0-C , 30-H ) :   0.7765 B(  0-C , 31-H ) :   0.4869 B(  1-H ,  2-C ) :  -0.1032
B(  1-H ,  3-C ) :   0.1087 B(  1-H ,  5-H ) :   0.1328 B(  1-H ,  8-H ) :   0.1432
B(  1-H , 10-H ) :  -0.1170 B(  1-H , 29-H ) :  -0.1031 B(  1-H , 30-H ) :   0.1629
B(  2-C ,  3-C ) :   0.1519 B(  2-C ,  4-H ) :   0.3003 B(  2-C , 29-H ) :   0.2441
B(  2-C , 30-H ) :  -1.1412 B(  2-C , 31-H ) :  -0.1861 B(  2-C , 32-F ) :  -0.1612
B(  3-C ,  4-H ) :   0.1593 B(  3-C ,  5-H ) :   0.5197 B(  3-C ,  6-H ) :   0.5493
B(  3-C ,  7-C ) :   1.1114 B(  3-C ,  9-C ) :   0.1111 B(  3-C , 10-H ) :   0.2955
B(  3-C , 30-H ) :  -0.1669 B(  4-H ,  7-C ) :  -0.1334 B(  4-H ,  8-H ) :  -0.1242
B(  4-H , 10-H ) :   0.1418 B(  4-H , 12-H ) :   0.1349 B(  4-H , 18-C ) :  -0.1002
B(  4-H , 21-H ) :   0.2524 B(  5-H ,  6-H ) :  -0.2082 B(  5-H ,  7-C ) :   0.2141
B(  5-H , 10-H ) :   0.1562 B(  6-H ,  7-C ) :   0.1445 B(  6-H ,  8-H ) :   0.1166
B(  7-C ,  8-H ) :   0.5102 B(  7-C ,  9-C ) :   1.0410 B(  7-C , 11-H ) :   0.2427
B(  7-C , 12-H ) :   0.1499 B(  8-H ,  9-C ) :   0.2588 B(  9-C , 10-H ) :   0.3731
B(  9-C , 11-H ) :   0.6921 B(  9-C , 12-H ) :   0.7686 B(  9-C , 13-C ) :   1.1511
B(  9-C , 14-C ) :   0.2037 B(  9-C , 15-H ) :   0.1666 B(  9-C , 16-H ) :   0.3186
B( 10-H , 13-C ) :  -0.1092 B( 10-H , 19-H ) :   0.1354 B( 10-H , 30-H ) :   0.1259
B( 11-H , 21-H ) :  -0.1016 B( 12-H , 14-C ) :  -0.1059 B( 13-C , 14-C ) :   1.1049
B( 13-C , 15-H ) :   0.4555 B( 13-C , 16-H ) :   0.5201 B( 14-C , 15-H ) :   0.3944
B( 14-C , 16-H ) :   0.1134 B( 14-C , 17-H ) :   0.7321 B( 14-C , 18-C ) :   1.0867
B( 14-C , 19-H ) :   0.7733 B( 14-C , 20-H ) :   0.2054 B( 14-C , 21-H ) :   0.3663
B( 15-H , 16-H ) :  -0.1981 B( 17-H , 18-C ) :   0.1531 B( 18-C , 19-H ) :   0.1552
B( 18-C , 20-H ) :   0.5579 B( 18-C , 21-H ) :   0.1959 B( 18-C , 22-C ) :   1.1482
B( 18-C , 23-H ) :   0.1837 B( 18-C , 24-H ) :   0.3458 B( 18-C , 25-C ) :   0.2252
B( 20-H , 22-C ) :   0.1124 B( 21-H , 22-C ) :   0.2226 B( 22-C , 23-H ) :   0.6156
B( 22-C , 24-H ) :   0.5402 B( 22-C , 25-C ) :   1.0801 B( 22-C , 26-C ) :   0.1537
B( 22-C , 27-H ) :   0.1187 B( 22-C , 28-H ) :   0.2160 B( 23-H , 24-H ) :  -0.2175
B( 23-H , 25-C ) :   0.1820 B( 24-H , 25-C ) :   0.1191 B( 25-C , 26-C ) :   1.2128
B( 25-C , 27-H ) :   0.7207 B( 25-C , 28-H ) :   0.4401 B( 25-C , 33-O ) :   0.1186
B( 26-C , 27-H ) :   0.2088 B( 26-C , 28-H ) :   0.3679 B( 26-C , 30-H ) :   0.1150
B( 26-C , 32-F ) :   0.7408 B( 26-C , 33-O ) :   1.7951 B( 27-H , 28-H ) :  -0.1157
B( 29-H , 30-H ) :   0.2456 B( 29-H , 31-H ) :  -0.1056 B( 30-H , 31-H ) :   0.5706
B( 30-H , 32-F ) :   0.3394 B( 31-H , 33-O ) :   0.2390 B( 32-F , 33-O ) :   0.1168

Dispersion correction           -0.074716834
FINAL SINGLE POINT ENERGY      -606.195017390772

DIPOLE MOMENT
-------------
                                X             Y             Z
Electronic contribution:     -5.47837       2.51968      10.83052
Nuclear contribution   :      5.54676      -3.70047     -10.28793
                        -----------------------------------------
Total Dipole Moment    :      0.06839      -1.18078       0.54259
                        -----------------------------------------
Magnitude (a.u.)       :      1.30128
Magnitude (Debye)      :      3.30759

Rotational constants in cm-1:     0.028503     0.023389     0.015214
Rotational constants in MHz :   854.502405   701.197575   456.108322

                             ****ORCA TERMINATED NORMALLY****
TOTAL RUN TIME: 0 days 0 hours 0 minutes 44 seconds 563 msec
