                         Program Version 5.0.0 -  RELEASE  -
|  1> !PBE D3BJ RIJCOSX def2-TZVP def2/J TightSCF
|  2> *xyz -1 1
|  3> C         -0.87096        0.24804       -2.66280
|  4> C         -0.47749        0.60819       -4.10105
|  5> H          0.20677        1.45830       -4.11875
|  6> H         -1.36844        0.92942       -4.64785
|  7> C          0.18467       -0.50664       -4.91676
|  8> O         -0.15869       -1.70109       -4.65798
|  9> O          1.05594       -0.17441       -5.74037
| 10> H         -1.54056       -0.58646       -2.67455
| 11> H         -1.35339        1.08600       -2.20455
| 12> H          0.00660       -0.00662       -2.10609
| 13> *
| 14>
| 15> %MaxCore 64000
| 16>
| 17> %pal nprocs 4
| 18> end
| 19>
| 20> %scf
| 21>   MaxIter 150
| 22> end
| 23>
| 24>
| 25>                          ****END OF INPUT****

CARTESIAN COORDINATES (ANGSTROEM)
---------------------------------
  C     -0.870960    0.248040   -2.662800
  C     -0.477490    0.608190   -4.101050
  H      0.206770    1.458300   -4.118750
  H     -1.368440    0.929420   -4.647850
  C      0.184670   -0.506640   -4.916760
  O     -0.158690   -1.701090   -4.657980
  O      1.055940   -0.174410   -5.740370
  H     -1.540560   -0.586460   -2.674550
  H     -1.353390    1.086000   -2.204550
  H      0.006600   -0.006620   -2.106090

 Total Charge           Charge          ....   -1
 Multiplicity           Mult            ....    1
 Number of Electrons    NEL             ....   40
 Basis Dimension        Dim             ....  185

ORBITAL ENERGIES
----------------

  NO   OCC          E(Eh)            E(eV)
   0   2.0000     -18.475147      -502.7343
   1   2.0000     -18.472932      -502.6740
   2   2.0000      -9.743934      -265.1459
   3   2.0000      -9.709025      -264.1960
   4   2.0000      -9.700053      -263.9519
   5   2.0000      -0.722023       -19.6472
   6   2.0000      -0.632856       -17.2209
   7   2.0000      -0.525450       -14.2982
   8   2.0000      -0.404794       -11.0150
   9   2.0000      -0.257012        -6.9937
  10   2.0000      -0.238410        -6.4875
  11   2.0000      -0.202537        -5.5113
  12   2.0000      -0.174396        -4.7456
  13   2.0000      -0.161959        -4.4071
  14   2.0000      -0.149603        -4.0709
  15   2.0000      -0.122635        -3.3371
  16   2.0000      -0.108195        -2.9441
  17   2.0000      -0.000862        -0.0235
  18   2.0000       0.011909         0.3241
  19   2.0000       0.029332         0.7982
  20   0.0000       0.166123         4.5204
  21   0.0000       0.207812         5.6549
  22   0.0000       0.212394         5.7795
  23   0.0000       0.228761         6.2249
  24   0.0000       0.239215         6.5094

MULLIKEN ATOMIC CHARGES
-----------------------
   0 C :   -0.287114
   1 C :   -0.163823
   2 H :    0.037436
   3 H :    0.036316
   4 C :    0.112295
   5 O :   -0.485216
   6 O :   -0.455105
   7 H :    0.081402
   8 H :    0.045955
   9 H :    0.077853
Sum of atomic charges:   -1.0000000

LOEWDIN ATOMIC CHARGES
----------------------
   0 C :   -0.337054
   1 C :   -0.307009
   2 H :    0.120208
   3 H :    0.122915
   4 C :   -0.734472
   5 O :   -0.102868
   6 O :   -0.068780
   7 H :    0.108413
   8 H :    0.091371
   9 H :    0.107276

  Mayer bond orders larger than 0.100000
B(  0-C ,  1-C ) :   0.9614 B(  0-C ,  7-H ) :   0.9624 B(  0-C ,  8-H ) :   0.9521
B(  0-C ,  9-H ) :   0.9747 B(  1-C ,  2-H ) :   0.9424 B(  1-C ,  3-H ) :   0.9426
B(  1-C ,  4-C ) :   0.9408 B(  4-C ,  5-O ) :   1.8839 B(  4-C ,  6-O ) :   1.9455

Dispersion correction           -0.006499158
FINAL SINGLE POINT ENERGY      -267.636011492369

DIPOLE MOMENT
-------------
                                X             Y             Z
Electronic contribution:      2.73414      -3.05612      -4.71221
Nuclear contribution   :     -3.54611       4.15440       5.90446
                        -----------------------------------------
Total Dipole Moment    :     -0.81198       1.09829       1.19226
                        -----------------------------------------
Magnitude (a.u.)       :      1.81301
Magnitude (Debye)      :      4.60831

Rotational constants in cm-1:     0.332789     0.132085     0.101080
Rotational constants in MHz :  9976.755824  3959.803182  3030.288811

                             ****ORCA TERMINATED NORMALLY****
TOTAL RUN TIME: 0 days 0 hours 0 minutes 9 seconds 509 msec
