                         Program Version 5.0.0 -  RELEASE  -
|  1> !PBE D3BJ RIJCOSX def2-TZVP def2/J TightSCF
|  2> *xyz 1 1
|  3> C          2.48645       -2.67712       -2.56345
|  4> C          3.03764       -2.36672       -3.92351
|  5> N          2.28036       -2.45441       -4.96769
|  6> N          4.32174       -2.01793       -4.01664
|  7> H          4.87994       -1.91167       -3.17382
|  8> H          4.71015       -1.67088       -4.88356
|  9> H          1.27042       -2.41265       -4.86614
| 10> H          2.58183       -2.05528       -5.84688
| 11> C          2.49799       -1.46946       -1.61030
| 12> H          1.47259       -3.05153       -2.69437
| 13> H          3.08320       -3.49064       -2.14147
| 14> H          1.91240       -0.67831       -2.02991
| 15> H          3.50450       -1.13364       -1.47227
| 16> H          2.08509       -1.75655       -0.66585
| 17> *
| 18>
| 19> %MaxCore 64000
| 20>
| 21> %pal nprocs 4
| 22> end
| 23>
| 24> %scf
| 25>   MaxIter 150
| 26> end
| 27>
| 28>
| 29>                          ****END OF INPUT****

CARTESIAN COORDINATES (ANGSTROEM)
---------------------------------
  C      2.486450   -2.677120   -2.563450
  C      3.037640   -2.366720   -3.923510
  N      2.280360   -2.454410   -4.967690
  N      4.321740   -2.017930   -4.016640
  H      4.879940   -1.911670   -3.173820
  H      4.710150   -1.670880   -4.883560
  H      1.270420   -2.412650   -4.866140
  H      2.581830   -2.055280   -5.846880
  C      2.497990   -1.469460   -1.610300
  H      1.472590   -3.051530   -2.694370
  H      3.083200   -3.490640   -2.141470
  H      1.912400   -0.678310   -2.029910
  H      3.504500   -1.133640   -1.472270
  H      2.085090   -1.756550   -0.665850

 Total Charge           Charge          ....    1
 Multiplicity           Mult            ....    1
 Number of Electrons    NEL             ....   40
 Basis Dimension        Dim             ....  209

ORBITAL ENERGIES
----------------

  NO   OCC          E(Eh)            E(eV)
   0   2.0000     -14.231932      -387.2706
   1   2.0000     -14.227406      -387.1474
   2   2.0000     -10.195639      -277.4374
   3   2.0000     -10.080053      -274.2922
   4   2.0000     -10.037493      -273.1341
   5   2.0000      -1.124549       -30.6005
   6   2.0000      -1.034561       -28.1518
   7   2.0000      -0.898053       -24.4373
   8   2.0000      -0.804310       -21.8864
   9   2.0000      -0.757080       -20.6012
  10   2.0000      -0.722620       -19.6635
  11   2.0000      -0.696369       -18.9492
  12   2.0000      -0.653198       -17.7744
  13   2.0000      -0.604142       -16.4395
  14   2.0000      -0.576371       -15.6838
  15   2.0000      -0.562756       -15.3134
  16   2.0000      -0.507557       -13.8113
  17   2.0000      -0.495601       -13.4860
  18   2.0000      -0.485821       -13.2199
  19   2.0000      -0.457820       -12.4579
  20   0.0000      -0.247458        -6.7337
  21   0.0000      -0.182332        -4.9615
  22   0.0000      -0.140419        -3.8210
  23   0.0000      -0.138009        -3.7554
  24   0.0000      -0.107575        -2.9273

MULLIKEN ATOMIC CHARGES
-----------------------
   0 C :   -0.240818
   1 C :    0.272503
   2 N :   -0.272427
   3 N :   -0.304483
   4 H :    0.288402
   5 H :    0.270983
   6 H :    0.291223
   7 H :    0.268095
   8 C :   -0.332894
   9 H :    0.141748
  10 H :    0.178550
  11 H :    0.141963
  12 H :    0.122405
  13 H :    0.174751
Sum of atomic charges:    1.0000000

LOEWDIN ATOMIC CHARGES
----------------------
   0 C :   -0.222225
   1 C :   -0.312554
   2 N :    0.137972
   3 N :    0.118185
   4 H :    0.206570
   5 H :    0.194699
   6 H :    0.211899
   7 H :    0.198830
   8 C :   -0.263302
   9 H :    0.160080
  10 H :    0.173820
  11 H :    0.131046
  12 H :    0.123245
  13 H :    0.141733

  Mayer bond orders larger than 0.100000
B(  0-C ,  1-C ) :   1.0031 B(  0-C ,  8-C ) :   0.9848 B(  0-C ,  9-H ) :   0.9546
B(  0-C , 10-H ) :   0.9231 B(  1-C ,  2-N ) :   1.4994 B(  1-C ,  3-N ) :   1.4437
B(  2-N ,  6-H ) :   0.8792 B(  2-N ,  7-H ) :   0.8883 B(  3-N ,  4-H ) :   0.8870
B(  3-N ,  5-H ) :   0.8891 B(  8-C , 11-H ) :   0.9567 B(  8-C , 12-H ) :   0.9644
B(  8-C , 13-H ) :   0.9540

Dispersion correction           -0.010135719
FINAL SINGLE POINT ENERGY      -228.825422957773

DIPOLE MOMENT
-------------
                                X             Y             Z
Electronic contribution:      1.06886      -1.06812      -3.92518
Nuclear contribution   :     -0.84604       1.34287       2.92710
                        -----------------------------------------
Total Dipole Moment    :      0.22282       0.27475      -0.99808
                        -----------------------------------------
Magnitude (a.u.)       :      1.05892
Magnitude (Debye)      :      2.69155

Rotational constants in cm-1:     0.265816     0.126189     0.097583
Rotational constants in MHz :  7968.948902  3783.040103  2925.457702

                             ****ORCA TERMINATED NORMALLY****
TOTAL RUN TIME: 0 days 0 hours 0 minutes 11 seconds 508 msec
