                         Program Version 5.0.0 -  RELEASE  -
|  1> !PBE D3BJ RIJCOSX def2-TZVP def2/J TightSCF
|  2> *xyz 0 1
|  3> C         -0.87096        0.24804       -2.66280
|  4> C         -0.47749        0.60819       -4.10105
|  5> H          0.20677        1.45830       -4.11875
|  6> H         -1.36844        0.92942       -4.64785
|  7> C          0.18467       -0.50664       -4.91676
|  8> F         -0.15869       -1.70109       -4.65798
|  9> O          1.05594       -0.17441       -5.74037
| 10> H         -1.54056       -0.58646       -2.67455
| 11> H         -1.35339        1.08600       -2.20455
| 12> H          0.00660       -0.00662       -2.10609
| 13> *
| 14>
| 15> %MaxCore 64000
| 16>
| 17> %pal nprocs 4
| 18> end
| 19>
| 20> %scf
| 21>   MaxIter 150
| 22> end
| 23>
| 24>
| 25>                          ****END OF INPUT****

CARTESIAN COORDINATES (ANGSTROEM)
---------------------------------
  C     -0.870960    0.248040   -2.662800
  C     -0.477490    0.608190   -4.101050
  H      0.206770    1.458300   -4.118750
  H     -1.368440    0.929420   -4.647850
  C      0.184670   -0.506640   -4.916760
  F     -0.158690   -1.701090   -4.657980
  O      1.055940   -0.174410   -5.740370
  H     -1.540560   -0.586460   -2.674550
  H     -1.353390    1.086000   -2.204550
  H      0.006600   -0.006620   -2.106090

 Total Charge           Charge          ....    0
 Multiplicity           Mult            ....    1
 Number of Electrons    NEL             ....   40
 Basis Dimension        Dim             ....  185

ORBITAL ENERGIES
----------------

  NO   OCC          E(Eh)            E(eV)
   0   2.0000     -24.319438      -661.7656
   1   2.0000     -18.752072      -510.2698
   2   2.0000     -10.044843      -273.3341
   3   2.0000      -9.911649      -269.7097
   4   2.0000      -9.886368      -269.0218
   5   2.0000      -1.204259       -32.7696
   6   2.0000      -0.949549       -25.8385
   7   2.0000      -0.728485       -19.8231
   8   2.0000      -0.617789       -16.8109
   9   2.0000      -0.577191       -15.7062
  10   2.0000      -0.484062       -13.1720
  11   2.0000      -0.476094       -12.9552
  12   2.0000      -0.438086       -11.9209
  13   2.0000      -0.416099       -11.3226
  14   2.0000      -0.382868       -10.4184
  15   2.0000      -0.354975        -9.6594
  16   2.0000      -0.340743        -9.2721
  17   2.0000      -0.332118        -9.0374
  18   2.0000      -0.308130        -8.3846
  19   2.0000      -0.242471        -6.5980
  20   0.0000      -0.062633        -1.7043
  21   0.0000       0.006789         0.1847
  22   0.0000       0.053925         1.4674
  23   0.0000       0.071118         1.9352
  24   0.0000       0.076938         2.0936

MULLIKEN ATOMIC CHARGES
-----------------------
   0 C :   -0.339104
   1 C :   -0.227024
   2 H :    0.134093
   3 H :    0.123303
   4 C :    0.288295
   5 F :   -0.073778
   6 O :   -0.273901
   7 H :    0.119439
   8 H :    0.124975
   9 H :    0.123703
Sum of atomic charges:   -0.0000000

LOEWDIN ATOMIC CHARGES
----------------------
   0 C :   -0.302790
   1 C :   -0.266085
   2 H :    0.155267
   3 H :    0.155222
   4 C :   -0.532065
   5 F :    0.325825
   6 O :    0.100735
   7 H :    0.120336
   8 H :    0.122018
   9 H :    0.121538

  Mayer bond orders larger than 0.100000
B(  0-C ,  1-C ) :   0.9824 B(  0-C ,  7-H ) :   0.9644 B(  0-C ,  8-H ) :   0.9609
B(  0-C ,  9-H ) :   0.9708 B(  1-C ,  2-H ) :   0.9509 B(  1-C ,  3-H ) :   0.9231
B(  1-C ,  4-C ) :   1.0228 B(  4-C ,  5-F ) :   1.1741 B(  4-C ,  6-O ) :   2.1104

Dispersion correction           -0.006134695
FINAL SINGLE POINT ENERGY      -292.194997676010

DIPOLE MOMENT
-------------
                                X             Y             Z
Electronic contribution:      2.65270      -5.38438      -5.34781
Nuclear contribution   :     -3.42837       5.66737       6.17046
                        -----------------------------------------
Total Dipole Moment    :     -0.77567       0.28299       0.82265
                        -----------------------------------------
Magnitude (a.u.)       :      1.16555
Magnitude (Debye)      :      2.96258

Rotational constants in cm-1:     0.304660     0.130969     0.097716
Rotational constants in MHz :  9133.464515  3926.366384  2929.457090

                             ****ORCA TERMINATED NORMALLY****
TOTAL RUN TIME: 0 days 0 hours 0 minutes 9 seconds 822 msec
