                         Program Version 5.0.0 -  RELEASE  -
|  1> !PBE D3BJ RIJCOSX def2-TZVP def2/J TightSCF
|  2> *xyz 0 1
|  3> C          2.48645       -2.67712       -2.56345
|  4> C          3.03764       -2.36672       -3.92351
|  5> C          2.28036       -2.45441       -4.96769
|  6> N          4.32174       -2.01793       -4.01664
|  7> H          4.87994       -1.91167       -3.17382
|  8> H          4.71015       -1.67088       -4.88356
|  9> H          1.27042       -2.41265       -4.86614
| 10> H          2.58183       -2.05528       -5.84688
| 11> C          2.49799       -1.46946       -1.61030
| 12> H          1.47259       -3.05153       -2.69437
| 13> H          3.08320       -3.49064       -2.14147
| 14> H          1.91240       -0.67831       -2.02991
| 15> H          3.50450       -1.13364       -1.47227
| 16> H          2.08509       -1.75655       -0.66585
| 17> *
| 18>
| 19> %MaxCore 64000
| 20>
| 21> %pal nprocs 4
| 22> end
| 23>
| 24> %scf
| 25>   MaxIter 150
| 26> end
| 27>
| 28>
| 29>                          ****END OF INPUT****

CARTESIAN COORDINATES (ANGSTROEM)
---------------------------------
  C      2.486450   -2.677120   -2.563450
  C      3.037640   -2.366720   -3.923510
  C      2.280360   -2.454410   -4.967690
  N      4.321740   -2.017930   -4.016640
  H      4.879940   -1.911670   -3.173820
  H      4.710150   -1.670880   -4.883560
  H      1.270420   -2.412650   -4.866140
  H      2.581830   -2.055280   -5.846880
  C      2.497990   -1.469460   -1.610300
  H      1.472590   -3.051530   -2.694370
  H      3.083200   -3.490640   -2.141470
  H      1.912400   -0.678310   -2.029910
  H      3.504500   -1.133640   -1.472270
  H      2.085090   -1.756550   -0.665850

 Total Charge           Charge          ....    0
 Multiplicity           Mult            ....    1
 Number of Electrons    NEL             ....   40
 Basis Dimension        Dim             ....  209

ORBITAL ENERGIES
----------------

  NO   OCC          E(Eh)            E(eV)
   0   2.0000     -13.984548      -380.5389
   1   2.0000      -9.896344      -269.2932
   2   2.0000      -9.879608      -268.8378
   3   2.0000      -9.867906      -268.5194
   4   2.0000      -9.808737      -266.9093
   5   2.0000      -0.844839       -22.9892
   6   2.0000      -0.706810       -19.2333
   7   2.0000      -0.654491       -17.8096
   8   2.0000      -0.572256       -15.5719
   9   2.0000      -0.511782       -13.9263
  10   2.0000      -0.473443       -12.8831
  11   2.0000      -0.426325       -11.6009
  12   2.0000      -0.388902       -10.5826
  13   2.0000      -0.383534       -10.4365
  14   2.0000      -0.341962        -9.3053
  15   2.0000      -0.337357        -9.1799
  16   2.0000      -0.311138        -8.4665
  17   2.0000      -0.290744        -7.9116
  18   2.0000      -0.282501        -7.6873
  19   2.0000      -0.164551        -4.4777
  20   0.0000       0.003195         0.0869
  21   0.0000       0.014400         0.3918
  22   0.0000       0.049544         1.3482
  23   0.0000       0.056177         1.5287
  24   0.0000       0.069812         1.8997

MULLIKEN ATOMIC CHARGES
-----------------------
   0 C :   -0.194620
   1 C :    0.191390
   2 C :   -0.383311
   3 N :   -0.419029
   4 H :    0.216572
   5 H :    0.218763
   6 H :    0.094045
   7 H :    0.070369
   8 C :   -0.329495
   9 H :    0.106916
  10 H :    0.099669
  11 H :    0.118023
  12 H :    0.092121
  13 H :    0.118587
Sum of atomic charges:    0.0000000

LOEWDIN ATOMIC CHARGES
----------------------
   0 C :   -0.241142
   1 C :   -0.373779
   2 C :   -0.277164
   3 N :    0.007081
   4 H :    0.166235
   5 H :    0.168155
   6 H :    0.110737
   7 H :    0.100940
   8 C :   -0.299799
   9 H :    0.148245
  10 H :    0.141346
  11 H :    0.120586
  12 H :    0.110945
  13 H :    0.117614

  Mayer bond orders larger than 0.100000
B(  0-C ,  1-C ) :   1.0014 B(  0-C ,  8-C ) :   0.9820 B(  0-C ,  9-H ) :   0.9622
B(  0-C , 10-H ) :   0.9497 B(  1-C ,  2-C ) :   1.8123 B(  1-C ,  3-N ) :   1.1749
B(  2-C ,  6-H ) :   0.9733 B(  2-C ,  7-H ) :   0.9762 B(  3-N ,  4-H ) :   0.9228
B(  3-N ,  5-H ) :   0.9151 B(  8-C , 11-H ) :   0.9710 B(  8-C , 12-H ) :   0.9702
B(  8-C , 13-H ) :   0.9662

Dispersion correction           -0.010500897
FINAL SINGLE POINT ENERGY      -212.355781470096

DIPOLE MOMENT
-------------
                                X             Y             Z
Electronic contribution:      1.58353      -0.87387      -2.14467
Nuclear contribution   :     -0.99743       1.27863       2.57190
                        -----------------------------------------
Total Dipole Moment    :      0.58610       0.40475       0.42723
                        -----------------------------------------
Magnitude (a.u.)       :      0.83058
Magnitude (Debye)      :      2.11116

Rotational constants in cm-1:     0.274050     0.130114     0.100964
Rotational constants in MHz :  8215.815505  3900.722919  3026.834930

                             ****ORCA TERMINATED NORMALLY****
TOTAL RUN TIME: 0 days 0 hours 0 minutes 9 seconds 537 msec
