                         Program Version 5.0.0 -  RELEASE  -
|  1> !PBE D3BJ RIJCOSX def2-TZVP def2/J TightSCF
|  2> *xyz 0 1
|  3> C         -0.87096        0.24804       -2.66280
|  4> C         -0.47749        0.60819       -4.10105
|  5> H          0.20677        1.45830       -4.11875
|  6> H         -1.36844        0.92942       -4.64785
|  7> C          0.18467       -0.50664       -4.91676
|  8> O         -0.15869       -1.70109       -4.65798
|  9> F          1.05594       -0.17441       -5.74037
| 10> H         -1.54056       -0.58646       -2.67455
| 11> H         -1.35339        1.08600       -2.20455
| 12> H          0.00660       -0.00662       -2.10609
| 13> *
| 14>
| 15> %MaxCore 64000
| 16>
| 17> %pal nprocs 4
| 18> end
| 19>
| 20> %scf
| 21>   MaxIter 150
| 22> end
| 23>
| 24>
| 25>                          ****END OF INPUT****

CARTESIAN COORDINATES (ANGSTROEM)
---------------------------------
  C     -0.870960    0.248040   -2.662800
  C     -0.477490    0.608190   -4.101050
  H      0.206770    1.458300   -4.118750
  H     -1.368440    0.929420   -4.647850
  C      0.184670   -0.506640   -4.916760
  O     -0.158690   -1.701090   -4.657980
  F      1.055940   -0.174410   -5.740370
  H     -1.540560   -0.586460   -2.674550
  H     -1.353390    1.086000   -2.204550
  H      0.006600   -0.006620   -2.106090

 Total Charge           Charge          ....    0
 Multiplicity           Mult            ....    1
 Number of Electrons    NEL             ....   40
 Basis Dimension        Dim             ....  185

ORBITAL ENERGIES
----------------

  NO   OCC          E(Eh)            E(eV)
   0   2.0000     -24.328577      -662.0142
   1   2.0000     -18.749243      -510.1928
   2   2.0000     -10.047213      -273.3986
   3   2.0000      -9.912816      -269.7414
   4   2.0000      -9.880763      -268.8692
   5   2.0000      -1.222488       -33.2656
   6   2.0000      -0.935277       -25.4502
   7   2.0000      -0.724815       -19.7232
   8   2.0000      -0.626791       -17.0558
   9   2.0000      -0.576008       -15.6740
  10   2.0000      -0.491509       -13.3746
  11   2.0000      -0.476385       -12.9631
  12   2.0000      -0.448728       -12.2105
  13   2.0000      -0.415848       -11.3158
  14   2.0000      -0.380660       -10.3583
  15   2.0000      -0.350165        -9.5285
  16   2.0000      -0.330559        -8.9950
  17   2.0000      -0.326294        -8.8789
  18   2.0000      -0.303868        -8.2687
  19   2.0000      -0.239351        -6.5131
  20   0.0000      -0.065114        -1.7718
  21   0.0000       0.012088         0.3289
  22   0.0000       0.052614         1.4317
  23   0.0000       0.067986         1.8500
  24   0.0000       0.076236         2.0745

MULLIKEN ATOMIC CHARGES
-----------------------
   0 C :   -0.329513
   1 C :   -0.226052
   2 H :    0.111643
   3 H :    0.125555
   4 C :    0.300422
   5 O :   -0.302833
   6 F :   -0.051302
   7 H :    0.134648
   8 H :    0.119506
   9 H :    0.117926
Sum of atomic charges:   -0.0000000

LOEWDIN ATOMIC CHARGES
----------------------
   0 C :   -0.292100
   1 C :   -0.270825
   2 H :    0.142964
   3 H :    0.156641
   4 C :   -0.537433
   5 O :    0.069288
   6 F :    0.363275
   7 H :    0.126036
   8 H :    0.120066
   9 H :    0.122088

  Mayer bond orders larger than 0.100000
B(  0-C ,  1-C ) :   1.0056 B(  0-C ,  7-H ) :   0.9627 B(  0-C ,  8-H ) :   0.9589
B(  0-C ,  9-H ) :   0.9721 B(  1-C ,  2-H ) :   0.9439 B(  1-C ,  3-H ) :   0.9177
B(  1-C ,  4-C ) :   1.0134 B(  4-C ,  5-O ) :   2.0663 B(  4-C ,  6-F ) :   1.2073

Dispersion correction           -0.006184933
FINAL SINGLE POINT ENERGY      -292.188662800191

DIPOLE MOMENT
-------------
                                X             Y             Z
Electronic contribution:      4.66447      -2.90022      -7.15197
Nuclear contribution   :     -4.75269       4.00281       7.35060
                        -----------------------------------------
Total Dipole Moment    :     -0.08822       1.10259       0.19863
                        -----------------------------------------
Magnitude (a.u.)       :      1.12381
Magnitude (Debye)      :      2.85650

Rotational constants in cm-1:     0.323805     0.124913     0.096140
Rotational constants in MHz :  9707.430323  3744.789513  2882.191141

                             ****ORCA TERMINATED NORMALLY****
TOTAL RUN TIME: 0 days 0 hours 0 minutes 8 seconds 762 msec
