                         Program Version 5.0.0 -  RELEASE  -
|  1> !PBE D3BJ RIJCOSX def2-TZVP def2/J TightSCF
|  2> *xyz 0 1
|  3> C          2.48645       -2.67712       -2.56345
|  4> C          3.03764       -2.36672       -3.92351
|  5> N          2.28036       -2.45441       -4.96769
|  6> C          4.32174       -2.01793       -4.01664
|  7> H          4.87994       -1.91167       -3.17382
|  8> H          4.71015       -1.67088       -4.88356
|  9> H          1.27042       -2.41265       -4.86614
| 10> H          2.58183       -2.05528       -5.84688
| 11> C          2.49799       -1.46946       -1.61030
| 12> H          1.47259       -3.05153       -2.69437
| 13> H          3.08320       -3.49064       -2.14147
| 14> H          1.91240       -0.67831       -2.02991
| 15> H          3.50450       -1.13364       -1.47227
| 16> H          2.08509       -1.75655       -0.66585
| 17> *
| 18>
| 19> %MaxCore 64000
| 20>
| 21> %pal nprocs 4
| 22> end
| 23>
| 24> %scf
| 25>   MaxIter 150
| 26> end
| 27>
| 28>
| 29>                          ****END OF INPUT****

CARTESIAN COORDINATES (ANGSTROEM)
---------------------------------
  C      2.486450   -2.677120   -2.563450
  C      3.037640   -2.366720   -3.923510
  N      2.280360   -2.454410   -4.967690
  C      4.321740   -2.017930   -4.016640
  H      4.879940   -1.911670   -3.173820
  H      4.710150   -1.670880   -4.883560
  H      1.270420   -2.412650   -4.866140
  H      2.581830   -2.055280   -5.846880
  C      2.497990   -1.469460   -1.610300
  H      1.472590   -3.051530   -2.694370
  H      3.083200   -3.490640   -2.141470
  H      1.912400   -0.678310   -2.029910
  H      3.504500   -1.133640   -1.472270
  H      2.085090   -1.756550   -0.665850

 Total Charge           Charge          ....    0
 Multiplicity           Mult            ....    1
 Number of Electrons    NEL             ....   40
 Basis Dimension        Dim             ....  209

ORBITAL ENERGIES
----------------

  NO   OCC          E(Eh)            E(eV)
   0   2.0000     -13.987848      -380.6287
   1   2.0000      -9.896509      -269.2977
   2   2.0000      -9.880473      -268.8613
   3   2.0000      -9.863914      -268.4107
   4   2.0000      -9.809972      -266.9429
   5   2.0000      -0.859572       -23.3901
   6   2.0000      -0.707868       -19.2621
   7   2.0000      -0.639744       -17.4083
   8   2.0000      -0.577293       -15.7089
   9   2.0000      -0.514989       -14.0136
  10   2.0000      -0.470193       -12.7946
  11   2.0000      -0.430314       -11.7094
  12   2.0000      -0.396736       -10.7957
  13   2.0000      -0.361180        -9.8282
  14   2.0000      -0.348615        -9.4863
  15   2.0000      -0.332947        -9.0600
  16   2.0000      -0.309297        -8.4164
  17   2.0000      -0.293815        -7.9951
  18   2.0000      -0.290959        -7.9174
  19   2.0000      -0.156236        -4.2514
  20   0.0000       0.005634         0.1533
  21   0.0000       0.010173         0.2768
  22   0.0000       0.047635         1.2962
  23   0.0000       0.054735         1.4894
  24   0.0000       0.072244         1.9659

MULLIKEN ATOMIC CHARGES
-----------------------
   0 C :   -0.198307
   1 C :    0.183682
   2 N :   -0.386977
   3 C :   -0.415196
   4 H :    0.094184
   5 H :    0.079336
   6 H :    0.215038
   7 H :    0.220275
   8 C :   -0.319725
   9 H :    0.078952
  10 H :    0.116930
  11 H :    0.105015
  12 H :    0.116597
  13 H :    0.110197
Sum of atomic charges:   -0.0000000

LOEWDIN ATOMIC CHARGES
----------------------
   0 C :   -0.241656
   1 C :   -0.387231
   2 N :    0.026084
   3 C :   -0.279353
   4 H :    0.105263
   5 H :    0.095426
   6 H :    0.167126
   7 H :    0.171877
   8 C :   -0.293742
   9 H :    0.133084
  10 H :    0.151428
  11 H :    0.117615
  12 H :    0.119446
  13 H :    0.114635

  Mayer bond orders larger than 0.100000
B(  0-C ,  1-C ) :   0.9658 B(  0-C ,  8-C ) :   0.9954 B(  0-C ,  9-H ) :   0.9613
B(  0-C , 10-H ) :   0.9632 B(  1-C ,  2-N ) :   1.2307 B(  1-C ,  3-C ) :   1.7379
B(  2-N ,  6-H ) :   0.9146 B(  2-N ,  7-H ) :   0.9144 B(  3-C ,  4-H ) :   0.9857
B(  3-C ,  5-H ) :   0.9706 B(  8-C , 11-H ) :   0.9702 B(  8-C , 12-H ) :   0.9706
B(  8-C , 13-H ) :   0.9620

Dispersion correction           -0.010523076
FINAL SINGLE POINT ENERGY      -212.356551288402

DIPOLE MOMENT
-------------
                                X             Y             Z
Electronic contribution:     -0.27546      -1.20819      -3.01476
Nuclear contribution   :     -0.52463       1.37972       2.79217
                        -----------------------------------------
Total Dipole Moment    :     -0.80009       0.17153      -0.22259
                        -----------------------------------------
Magnitude (a.u.)       :      0.84800
Magnitude (Debye)      :      2.15545

Rotational constants in cm-1:     0.281086     0.127387     0.100311
Rotational constants in MHz :  8426.743103  3818.969834  3007.238026

                             ****ORCA TERMINATED NORMALLY****
TOTAL RUN TIME: 0 days 0 hours 0 minutes 11 seconds 246 msec
