                         Program Version 5.0.0 -  RELEASE  -
|  1> !PBE D3BJ RIJCOSX def2-TZVP def2/J TightSCF xyzfile
|  2>
|  3> *xyzfile 0 1 D2.xyz
|  4>
|  5> %MaxCore 64000
|  6>
|  7> %pal nprocs 18
|  8> end
|  9>
| 10> %scf
| 11>   MaxIter 150
| 12> end
| 13>
| 14>
| 15>                          ****END OF INPUT****

CARTESIAN COORDINATES (ANGSTROEM)
---------------------------------
  C      2.486452   -2.677121   -2.563447
  C     -0.870963    0.248043   -2.662804
  C     -0.477492    0.608191   -4.101052
  H      0.206773    1.458299   -4.118748
  H     -1.368442    0.929419   -4.647855
  C      0.184673   -0.506640   -4.916760
  C      3.037640   -2.366715   -3.923509
  N      2.280360   -2.454408   -4.967692
  C      4.321736   -2.017932   -4.016641
  H      4.879940   -1.911668   -3.173823
  H      4.710148   -1.670882   -4.883561
  H      1.270423   -2.412650   -4.866143
  H      2.581829   -2.055282   -5.846878
  F     -0.158685   -1.701088   -4.657981
  O      1.055938   -0.174410   -5.740373
  C      2.497991   -1.469464   -1.610303
  C      1.582841   -0.321986   -2.042619
  H      2.193083   -1.833912   -0.625420
  H      3.523356   -1.103982   -1.490392
  C      0.100160   -0.673551   -1.915815
  H      1.822311   -0.040361   -3.072834
  H      1.813180    0.557019   -1.433266
  H     -0.063284   -1.679120   -2.301112
  H     -0.168820   -0.691680   -0.853831
  H     -1.001048    1.181040   -2.104071
  H     -1.844645   -0.246592   -2.663281
  H      1.472592   -3.051527   -2.694366
  H      3.083201   -3.490638   -2.141472

 Total Charge           Charge          ....    0
 Multiplicity           Mult            ....    1
 Number of Electrons    NEL             ....   94
 Basis Dimension        Dim             ....  468

ORBITAL ENERGIES
----------------

  NO   OCC          E(Eh)            E(eV)
   0   2.0000     -24.349925      -662.5951
   1   2.0000     -18.770024      -510.7583
   2   2.0000     -13.962259      -379.9324
   3   2.0000     -10.063395      -273.8389
   4   2.0000      -9.919576      -269.9254
   5   2.0000      -9.901653      -269.4377
   6   2.0000      -9.887932      -269.0643
   7   2.0000      -9.884729      -268.9772
   8   2.0000      -9.880863      -268.8719
   9   2.0000      -9.877628      -268.7839
  10   2.0000      -9.874891      -268.7095
  11   2.0000      -9.797915      -266.6148
  12   2.0000      -1.239173       -33.7196
  13   2.0000      -0.969399       -26.3787
  14   2.0000      -0.843153       -22.9434
  15   2.0000      -0.759373       -20.6636
  16   2.0000      -0.721522       -19.6336
  17   2.0000      -0.682908       -18.5829
  18   2.0000      -0.640404       -17.4263
  19   2.0000      -0.623724       -16.9724
  20   2.0000      -0.601489       -16.3673
  21   2.0000      -0.563980       -15.3467
  22   2.0000      -0.530734       -14.4420
  23   2.0000      -0.524782       -14.2800
  24   2.0000      -0.505125       -13.7451
  25   2.0000      -0.483312       -13.1516
  26   2.0000      -0.457255       -12.4425
  27   2.0000      -0.445945       -12.1348
  28   2.0000      -0.431388       -11.7387
  29   2.0000      -0.425293       -11.5728
  30   2.0000      -0.420535       -11.4433
  31   2.0000      -0.396007       -10.7759
  32   2.0000      -0.380337       -10.3495
  33   2.0000      -0.370342       -10.0775
  34   2.0000      -0.364085        -9.9073
  35   2.0000      -0.347394        -9.4531
  36   2.0000      -0.342732        -9.3262
  37   2.0000      -0.330325        -8.9886
  38   2.0000      -0.322555        -8.7772
  39   2.0000      -0.315232        -8.5779
  40   2.0000      -0.303548        -8.2600
  41   2.0000      -0.296240        -8.0611
  42   2.0000      -0.283193        -7.7061
  43   2.0000      -0.280290        -7.6271
  44   2.0000      -0.273675        -7.4471
  45   2.0000      -0.255762        -6.9596
  46   2.0000      -0.142063        -3.8657
  47   0.0000      -0.081783        -2.2254
  48   0.0000      -0.002437        -0.0663
  49   0.0000       0.016339         0.4446
  50   0.0000       0.029761         0.8098
  51   0.0000       0.035278         0.9600

MULLIKEN ATOMIC CHARGES
-----------------------
   0 C :   -0.229329
   1 C :   -0.171609
   2 C :   -0.225824
   3 H :    0.147272
   4 H :    0.134993
   5 C :    0.256018
   6 C :    0.133503
   7 N :   -0.335608
   8 C :   -0.419997
   9 H :    0.084702
  10 H :    0.081208
  11 H :    0.199252
  12 H :    0.219950
  13 F :   -0.087244
  14 O :   -0.264577
  15 C :   -0.116200
  16 C :   -0.217656
  17 H :    0.074504
  18 H :    0.104101
  19 C :   -0.219798
  20 H :    0.144865
  21 H :    0.084909
  22 H :    0.100549
  23 H :    0.101628
  24 H :    0.104460
  25 H :    0.106988
  26 H :    0.091719
  27 H :    0.117222
Sum of atomic charges:    0.0000000

LOEWDIN ATOMIC CHARGES
----------------------
   0 C :   -0.219259
   1 C :   -0.268856
   2 C :   -0.240507
   3 H :    0.161505
   4 H :    0.159813
   5 C :   -0.537685
   6 C :   -0.397478
   7 N :    0.045269
   8 C :   -0.287611
   9 H :    0.102516
  10 H :    0.095663
  11 H :    0.141614
  12 H :    0.169754
  13 F :    0.339667
  14 O :    0.117684
  15 C :   -0.254850
  16 C :   -0.263876
  17 H :    0.136208
  18 H :    0.141358
  19 C :   -0.275099
  20 H :    0.148747
  21 H :    0.138032
  22 H :    0.134458
  23 H :    0.140901
  24 H :    0.143470
  25 H :    0.141212
  26 H :    0.133126
  27 H :    0.154222

  Mayer bond orders larger than 0.100000
B(  0-C ,  6-C ) :   0.9562 B(  0-C , 15-C ) :   0.9920 B(  0-C , 26-H ) :   0.9767
B(  0-C , 27-H ) :   0.9483 B(  1-C ,  2-C ) :   0.9832 B(  1-C , 19-C ) :   0.9940
B(  1-C , 24-H ) :   0.9429 B(  1-C , 25-H ) :   0.9550 B(  2-C ,  3-H ) :   0.9471
B(  2-C ,  4-H ) :   0.9175 B(  2-C ,  5-C ) :   1.0256 B(  5-C , 13-F ) :   1.1090
B(  5-C , 14-O ) :   2.0851 B(  6-C ,  7-N ) :   1.2770 B(  6-C ,  8-C ) :   1.7272
B(  7-N , 11-H ) :   0.9083 B(  7-N , 12-H ) :   0.9145 B(  8-C ,  9-H ) :   0.9793
B(  8-C , 10-H ) :   0.9738 B( 15-C , 16-C ) :   1.0035 B( 15-C , 17-H ) :   0.9360
B( 15-C , 18-H ) :   0.9426 B( 16-C , 19-C ) :   0.9849 B( 16-C , 20-H ) :   0.9465
B( 16-C , 21-H ) :   0.9385 B( 19-C , 22-H ) :   0.9675 B( 19-C , 23-H ) :   0.9450

Dispersion correction           -0.031161099
FINAL SINGLE POINT ENERGY      -581.891208006799

DIPOLE MOMENT
-------------
                                X             Y             Z
Electronic contribution:     -5.30596      -1.82650     -10.96204
Nuclear contribution   :      3.65024       2.44123      11.52670
                        -----------------------------------------
Total Dipole Moment    :     -1.65571       0.61473       0.56467
                        -----------------------------------------
Magnitude (a.u.)       :      1.85422
Magnitude (Debye)      :      4.71305

Rotational constants in cm-1:     0.040600     0.026409     0.019262
Rotational constants in MHz :  1217.142957   791.712481   577.449390

                             ****ORCA TERMINATED NORMALLY****
TOTAL RUN TIME: 0 days 0 hours 0 minutes 19 seconds 5 msec
