                         Program Version 5.0.0 -  RELEASE  -
|  1> !BLYP D3BJ RIJCOSX def2-SVPD def2/J TightSCF
|  2> *xyz -1 1
|  3> C         -5.57236       -5.80780       -0.81644
|  4> S         -6.90318       -4.61903       -0.52846
|  5> O         -8.11485       -5.25093       -0.95701
|  6> O         -6.53271       -3.42684       -1.31485
|  7> O         -6.86563       -4.29496        0.91412
|  8> C         -4.45780       -5.94187        0.22919
|  9> H         -5.17735       -5.54257       -1.79771
| 10> H         -6.07420       -6.76889       -0.92127
| 11> H         -3.75515       -6.68239       -0.09144
| 12> H         -4.88182       -6.23486        1.16689
| 13> H         -3.95908       -5.00189        0.34143
| 14> *
| 15> %MaxCore 64000
| 16>
| 17> %pal nprocs 4
| 18> end
| 19>
| 20> %scf
| 21>   MaxIter 150
| 22> end
| 23>
| 24>                          ****END OF INPUT****

CARTESIAN COORDINATES (ANGSTROEM)
---------------------------------
  C     -5.572360   -5.807800   -0.816440
  S     -6.903180   -4.619030   -0.528460
  O     -8.114850   -5.250930   -0.957010
  O     -6.532710   -3.426840   -1.314850
  O     -6.865630   -4.294960    0.914120
  C     -4.457800   -5.941870    0.229190
  H     -5.177350   -5.542570   -1.797710
  H     -6.074200   -6.768890   -0.921270
  H     -3.755150   -6.682390   -0.091440
  H     -4.881820   -6.234860    1.166890
  H     -3.959080   -5.001890    0.341430

 Total Charge           Charge          ....   -1
 Multiplicity           Mult            ....    1
 Number of Electrons    NEL             ....   58
 Basis Dimension        Dim             ....  176

ORBITAL ENERGIES
----------------

  NO   OCC          E(Eh)            E(eV)
   0   2.0000     -88.128066     -2398.0866
   1   2.0000     -18.574898      -505.4487
   2   2.0000     -18.561741      -505.0907
   3   2.0000     -18.560817      -505.0655
   4   2.0000      -9.784756      -266.2568
   5   2.0000      -9.784377      -266.2464
   6   2.0000      -7.664722      -208.5677
   7   2.0000      -5.699834      -155.1004
   8   2.0000      -5.699700      -155.0967
   9   2.0000      -5.699049      -155.0790
  10   2.0000      -0.832012       -22.6402
  11   2.0000      -0.697228       -18.9725
  12   2.0000      -0.674028       -18.3412
  13   2.0000      -0.550209       -14.9719
  14   2.0000      -0.438657       -11.9365
  15   2.0000      -0.318971        -8.6796
  16   2.0000      -0.267372        -7.2755
  17   2.0000      -0.257180        -6.9982
  18   2.0000      -0.226033        -6.1507
  19   2.0000      -0.207469        -5.6455
  20   2.0000      -0.204317        -5.5597
  21   2.0000      -0.180701        -4.9171
  22   2.0000      -0.174517        -4.7489
  23   2.0000      -0.099086        -2.6963
  24   2.0000      -0.096348        -2.6218
  25   2.0000      -0.069618        -1.8944
  26   2.0000      -0.058827        -1.6008
  27   2.0000      -0.051069        -1.3896
  28   2.0000      -0.015031        -0.4090
  29   0.0000       0.123147         3.3510
  30   0.0000       0.154784         4.2119
  31   0.0000       0.165977         4.5165
  32   0.0000       0.170853         4.6491
  33   0.0000       0.193038         5.2528

MULLIKEN ATOMIC CHARGES
-----------------------
   0 C :   -0.087533
   1 S :    1.125043
   2 O :   -0.704230
   3 O :   -0.766436
   4 O :   -0.779075
   5 C :    1.178403
   6 H :   -0.173385
   7 H :   -0.154421
   8 H :   -0.265654
   9 H :   -0.173102
  10 H :   -0.199610
Sum of atomic charges:   -1.0000000

LOEWDIN ATOMIC CHARGES
----------------------
   0 C :   -0.117481
   1 S :    0.824635
   2 O :   -0.554450
   3 O :   -0.580419
   4 O :   -0.571911
   5 C :    0.115885
   6 H :   -0.009253
   7 H :   -0.015025
   8 H :   -0.041595
   9 H :   -0.028109
  10 H :   -0.022277

  Mayer bond orders larger than 0.100000
B(  0-C ,  1-S ) :   0.8513 B(  0-C ,  2-O ) :   0.1007 B(  0-C ,  5-C ) :   1.2840
B(  0-C ,  6-H ) :   0.9038 B(  0-C ,  7-H ) :   0.9111 B(  0-C ,  8-H ) :   0.2926
B(  0-C ,  9-H ) :   0.2647 B(  0-C , 10-H ) :   0.2474 B(  1-S ,  2-O ) :   1.3892
B(  1-S ,  3-O ) :   1.3221 B(  1-S ,  4-O ) :   1.3102 B(  5-C ,  7-H ) :   0.1208
B(  5-C ,  8-H ) :   0.6233 B(  5-C ,  9-H ) :   0.7068 B(  5-C , 10-H ) :   0.7150

Dispersion correction           -0.020196004
FINAL SINGLE POINT ENERGY      -702.708612875390

DIPOLE MOMENT
-------------
                                X             Y             Z
Electronic contribution:     -6.68838       4.32314      -0.91530
Nuclear contribution   :      8.13140      -5.68016       0.80206
                        -----------------------------------------
Total Dipole Moment    :      1.44302      -1.35702      -0.11324
                        -----------------------------------------
Magnitude (a.u.)       :      1.98409
Magnitude (Debye)      :      5.04317

Rotational constants in cm-1:     0.162101     0.080498     0.079099
Rotational constants in MHz :  4859.669771  2413.267251  2371.338602

                             ****ORCA TERMINATED NORMALLY****
TOTAL RUN TIME: 0 days 0 hours 0 minutes 9 seconds 714 msec
