                         Program Version 5.0.0 -  RELEASE  -
|  1> !BLYP D3BJ RIJCOSX def2-SVPD def2/J TightSCF
|  2> *xyz 1 1
|  3> C         -4.38262       -1.67089        1.21620
|  4> N         -5.76354       -1.91517        0.70501
|  5> C         -3.28173       -2.19127        0.29436
|  6> H         -5.84081       -2.11520       -0.30065
|  7> H         -6.40882       -1.14866        0.93612
|  8> H         -6.17478       -2.79061        1.05143
|  9> H         -4.32862       -2.13922        2.19810
| 10> H         -4.26158       -0.59740        1.35725
| 11> H         -3.36057       -1.71407       -0.66008
| 12> H         -3.38775       -3.24919        0.17403
| 13> H         -2.32559       -1.97514        0.72329
| 14> *
| 15> %MaxCore 64000
| 16>
| 17> %pal nprocs 4
| 18> end
| 19>
| 20> %scf
| 21>   MaxIter 150
| 22> end
| 23>
| 24>                          ****END OF INPUT****

CARTESIAN COORDINATES (ANGSTROEM)
---------------------------------
  C     -4.382620   -1.670890    1.216200
  N     -5.763540   -1.915170    0.705010
  C     -3.281730   -2.191270    0.294360
  H     -5.840810   -2.115200   -0.300650
  H     -6.408820   -1.148660    0.936120
  H     -6.174780   -2.790610    1.051430
  H     -4.328620   -2.139220    2.198100
  H     -4.261580   -0.597400    1.357250
  H     -3.360570   -1.714070   -0.660080
  H     -3.387750   -3.249190    0.174030
  H     -2.325590   -1.975140    0.723290

 Total Charge           Charge          ....    1
 Multiplicity           Mult            ....    1
 Number of Electrons    NEL             ....   26
 Basis Dimension        Dim             ....  124

ORBITAL ENERGIES
----------------

  NO   OCC          E(Eh)            E(eV)
   0   2.0000     -14.358628      -390.7181
   1   2.0000     -10.176950      -276.9289
   2   2.0000     -10.099698      -274.8267
   3   2.0000      -1.121914       -30.5288
   4   2.0000      -0.886880       -24.1332
   5   2.0000      -0.782223       -21.2854
   6   2.0000      -0.741671       -20.1819
   7   2.0000      -0.721696       -19.6383
   8   2.0000      -0.651335       -17.7237
   9   2.0000      -0.590506       -16.0685
  10   2.0000      -0.537733       -14.6325
  11   2.0000      -0.521899       -14.2016
  12   2.0000      -0.504225       -13.7207
  13   0.0000      -0.220948        -6.0123
  14   0.0000      -0.168849        -4.5946
  15   0.0000      -0.165024        -4.4905
  16   0.0000      -0.146958        -3.9989
  17   0.0000      -0.116475        -3.1694

MULLIKEN ATOMIC CHARGES
-----------------------
   0 C :    0.489209
   1 N :   -0.644697
   2 C :    0.991666
   3 H :    0.339957
   4 H :    0.342211
   5 H :    0.322597
   6 H :   -0.203245
   7 H :   -0.171573
   8 H :   -0.167738
   9 H :   -0.128400
  10 H :   -0.169986
Sum of atomic charges:    1.0000000

LOEWDIN ATOMIC CHARGES
----------------------
   0 C :    0.067964
   1 N :    0.340948
   2 C :    0.187776
   3 H :    0.099084
   4 H :    0.105903
   5 H :    0.102102
   6 H :    0.047218
   7 H :    0.046391
   8 H :   -0.004045
   9 H :   -0.004174
  10 H :    0.010834

  Mayer bond orders larger than 0.100000
B(  0-C ,  1-N ) :   0.7466 B(  0-C ,  2-C ) :   1.3462 B(  0-C ,  6-H ) :   0.8240
B(  0-C ,  7-H ) :   0.8256 B(  0-C ,  8-H ) :   0.2366 B(  0-C ,  9-H ) :   0.2075
B(  0-C , 10-H ) :   0.2326 B(  1-N ,  3-H ) :   0.7581 B(  1-N ,  4-H ) :   0.7613
B(  1-N ,  5-H ) :   0.8132 B(  1-N ,  6-H ) :   0.1277 B(  2-C ,  8-H ) :   0.7456
B(  2-C ,  9-H ) :   0.7366 B(  2-C , 10-H ) :   0.7592

Dispersion correction           -0.012313259
FINAL SINGLE POINT ENERGY      -135.367826495200

DIPOLE MOMENT
-------------
                                X             Y             Z
Electronic contribution:     -1.78253       0.24099       0.30810
Nuclear contribution   :      0.19437      -0.25358      -0.32106
                        -----------------------------------------
Total Dipole Moment    :     -1.58816      -0.01259      -0.01296
                        -----------------------------------------
Magnitude (a.u.)       :      1.58826
Magnitude (Debye)      :      4.03704

Rotational constants in cm-1:     1.030014     0.272489     0.242697
Rotational constants in MHz : 30879.030706  8169.007780  7275.865152

                             ****ORCA TERMINATED NORMALLY****
TOTAL RUN TIME: 0 days 0 hours 0 minutes 7 seconds 916 msec
