                         Program Version 5.0.0 -  RELEASE  -
|  1> !BLYP D3BJ RIJCOSX def2-SVPD def2/J TightSCF xyzfile
|  2>
|  3> *xyzfile 0 1 B.xyz
|  4>
|  5> %MaxCore 64000
|  6>
|  7> %pal nprocs 4
|  8> end
|  9>
| 10> %scf
| 11>   MaxIter 150
| 12> end
| 13>
| 14>
| 15>                          ****END OF INPUT****

CARTESIAN COORDINATES (ANGSTROEM)
---------------------------------
  C     -4.382623   -1.670889    1.216201
  N     -5.763539   -1.915170    0.705012
  C     -3.281728   -2.191272    0.294361
  C     -5.572364   -5.807798   -0.816445
  S     -6.903179   -4.619033   -0.528458
  H     -5.840812   -2.115205   -0.300646
  H     -6.408823   -1.148656    0.936124
  H     -6.174781   -2.790606    1.051433
  O     -8.114853   -5.250932   -0.957007
  O     -6.532715   -3.426838   -1.314848
  H     -4.328618   -2.139223    2.198103
  H     -4.261583   -0.597399    1.357248
  O     -6.865632   -4.294957    0.914118
  C     -3.474641   -3.605898   -0.259608
  H     -2.354548   -2.127602    0.871433
  H     -3.166611   -1.499693   -0.545037
  C     -3.827078   -4.661097    0.786174
  H     -2.560559   -3.889391   -0.788050
  H     -4.255932   -3.570040   -1.019300
  C     -4.457800   -5.941875    0.229195
  H     -5.177347   -5.542575   -1.797714
  H     -6.074202   -6.768894   -0.921272
  H     -4.530506   -4.253640    1.511979
  H     -2.933400   -4.932302    1.356825
  H     -3.681064   -6.562236   -0.229885
  H     -4.843942   -6.512728    1.075805

 Total Charge           Charge          ....    0
 Multiplicity           Mult            ....    1
 Number of Electrons    NEL             ....   98
 Basis Dimension        Dim             ....  356

ORBITAL ENERGIES
----------------

  NO   OCC          E(Eh)            E(eV)
   0   2.0000     -88.299258     -2402.7450
   1   2.0000     -18.746053      -510.1060
   2   2.0000     -18.742192      -510.0010
   3   2.0000     -18.731399      -509.7073
   4   2.0000     -14.126362      -384.3979
   5   2.0000     -10.008264      -272.3387
   6   2.0000      -9.956574      -270.9321
   7   2.0000      -9.931155      -270.2405
   8   2.0000      -9.927490      -270.1407
   9   2.0000      -9.926987      -270.1270
  10   2.0000      -9.925396      -270.0838
  11   2.0000      -7.835126      -213.2046
  12   2.0000      -5.871091      -159.7605
  13   2.0000      -5.870085      -159.7331
  14   2.0000      -5.868628      -159.6935
  15   2.0000      -1.006586       -27.3906
  16   2.0000      -0.911525       -24.8039
  17   2.0000      -0.865940       -23.5634
  18   2.0000      -0.860965       -23.4280
  19   2.0000      -0.745994       -20.2995
  20   2.0000      -0.708960       -19.2918
  21   2.0000      -0.664105       -18.0712
  22   2.0000      -0.617331       -16.7984
  23   2.0000      -0.569290       -15.4912
  24   2.0000      -0.543526       -14.7901
  25   2.0000      -0.522534       -14.2189
  26   2.0000      -0.518115       -14.0986
  27   2.0000      -0.478164       -13.0115
  28   2.0000      -0.456701       -12.4275
  29   2.0000      -0.436938       -11.8897
  30   2.0000      -0.431217       -11.7340
  31   2.0000      -0.417582       -11.3630
  32   2.0000      -0.398047       -10.8314
  33   2.0000      -0.388357       -10.5677
  34   2.0000      -0.381469       -10.3803
  35   2.0000      -0.373936       -10.1753
  36   2.0000      -0.365120        -9.9354
  37   2.0000      -0.343561        -9.3488
  38   2.0000      -0.332505        -9.0479
  39   2.0000      -0.328314        -8.9339
  40   2.0000      -0.303858        -8.2684
  41   2.0000      -0.296150        -8.0587
  42   2.0000      -0.289530        -7.8785
  43   2.0000      -0.274598        -7.4722
  44   2.0000      -0.266314        -7.2468
  45   2.0000      -0.232816        -6.3353
  46   2.0000      -0.229831        -6.2540
  47   2.0000      -0.223113        -6.0712
  48   2.0000      -0.198032        -5.3887
  49   0.0000      -0.041774        -1.1367
  50   0.0000      -0.005301        -0.1443
  51   0.0000       0.002994         0.0815
  52   0.0000       0.005727         0.1558
  53   0.0000       0.019932         0.5424

MULLIKEN ATOMIC CHARGES
-----------------------
   0 C :    1.073021
   1 N :   -0.267512
   2 C :    0.581719
   3 C :    0.521078
   4 S :    1.204229
   5 H :    0.236831
   6 H :    0.234262
   7 H :    0.029121
   8 O :   -0.689546
   9 O :   -0.743222
  10 H :    0.037743
  11 H :   -0.609167
  12 O :   -0.794096
  13 C :    0.539479
  14 H :   -0.191821
  15 H :   -0.169711
  16 C :    0.282121
  17 H :   -0.452953
  18 H :   -0.223797
  19 C :    0.816073
  20 H :   -0.017178
  21 H :   -0.510932
  22 H :   -0.103336
  23 H :   -0.431015
  24 H :   -0.184638
  25 H :   -0.166753
Sum of atomic charges:    0.0000000

LOEWDIN ATOMIC CHARGES
----------------------
   0 C :    0.096999
   1 N :    0.349808
   2 C :    0.003070
   3 C :   -0.044511
   4 S :    0.934552
   5 H :   -0.018451
   6 H :    0.094353
   7 H :   -0.070501
   8 O :   -0.474977
   9 O :   -0.519704
  10 H :    0.029623
  11 H :    0.023669
  12 O :   -0.498307
  13 C :    0.001656
  14 H :    0.025626
  15 H :    0.024257
  16 C :   -0.010947
  17 H :    0.026477
  18 H :   -0.020422
  19 C :   -0.014211
  20 H :    0.007728
  21 H :    0.005381
  22 H :   -0.019288
  23 H :    0.022321
  24 H :    0.020887
  25 H :    0.024911

  Mayer bond orders larger than 0.100000
B(  0-C ,  1-N ) :   0.7368 B(  0-C ,  2-C ) :   1.1404 B(  0-C ,  7-H ) :  -0.1171
B(  0-C , 10-H ) :   0.6370 B(  0-C , 11-H ) :   0.7548 B(  0-C , 13-C ) :   0.1568
B(  0-C , 14-H ) :   0.1817 B(  0-C , 15-H ) :   0.1762 B(  1-N ,  5-H ) :   0.7435
B(  1-N ,  6-H ) :   0.8418 B(  1-N ,  7-H ) :   1.2227 B(  1-N , 10-H ) :   0.1230
B(  1-N , 12-O ) :   0.1089 B(  1-N , 18-H ) :   0.1306 B(  1-N , 22-H ) :   0.1148
B(  2-C , 10-H ) :   0.1419 B(  2-C , 11-H ) :   0.2023 B(  2-C , 13-C ) :   1.2111
B(  2-C , 14-H ) :   0.6923 B(  2-C , 15-H ) :   0.5562 B(  2-C , 17-H ) :   0.1323
B(  2-C , 18-H ) :   0.1508 B(  3-C ,  4-S ) :   0.8689 B(  3-C ,  8-O ) :   0.1377
B(  3-C , 16-C ) :   0.1383 B(  3-C , 19-C ) :   1.1485 B(  3-C , 20-H ) :   0.7996
B(  3-C , 21-H ) :   0.7167 B(  3-C , 24-H ) :   0.1973 B(  3-C , 25-H ) :   0.1667
B(  4-S ,  8-O ) :   1.5447 B(  4-S ,  9-O ) :   1.1625 B(  4-S , 12-O ) :   1.1296
B(  5-H ,  9-O ) :   0.2071 B(  6-H ,  7-H ) :  -0.1111 B(  7-H , 12-O ) :   0.2023
B(  9-O , 12-O ) :   0.1624 B( 10-H , 11-H ) :  -0.2211 B( 10-H , 22-H ) :   0.1199
B( 11-H , 22-H ) :  -0.1087 B( 13-C , 14-H ) :   0.1601 B( 13-C , 15-H ) :   0.2884
B( 13-C , 16-C ) :   1.1610 B( 13-C , 17-H ) :   0.5669 B( 13-C , 18-H ) :   0.7217
B( 13-C , 22-H ) :   0.1325 B( 13-C , 23-H ) :   0.1786 B( 14-H , 15-H ) :  -0.1205
B( 16-C , 17-H ) :   0.1953 B( 16-C , 18-H ) :   0.2289 B( 16-C , 19-C ) :   1.2390
B( 16-C , 22-H ) :   0.7891 B( 16-C , 23-H ) :   0.6461 B( 16-C , 24-H ) :   0.1688
B( 16-C , 25-H ) :   0.3430 B( 19-C , 20-H ) :   0.1274 B( 19-C , 21-H ) :   0.2351
B( 19-C , 22-H ) :   0.1195 B( 19-C , 23-H ) :   0.1057 B( 19-C , 24-H ) :   0.6024
B( 19-C , 25-H ) :   0.4892 B( 23-H , 25-H ) :   0.1004 B( 24-H , 25-H ) :  -0.1424

Dispersion correction           -0.063056626
FINAL SINGLE POINT ENERGY      -915.613332579638

DIPOLE MOMENT
-------------
                                X             Y             Z
Electronic contribution:    -13.56459      -2.98375      -3.70210
Nuclear contribution   :     16.18863       5.15617       4.97370
                        -----------------------------------------
Total Dipole Moment    :      2.62404       2.17242       1.27160
                        -----------------------------------------
Magnitude (a.u.)       :      3.63620
Magnitude (Debye)      :      9.24248

Rotational constants in cm-1:     0.048546     0.025588     0.020102
Rotational constants in MHz :  1455.374030   767.095631   602.645620

                             ****ORCA TERMINATED NORMALLY****
TOTAL RUN TIME: 0 days 0 hours 0 minutes 28 seconds 517 msec
