                         Program Version 5.0.0 -  RELEASE  -
|  1> !BLYP D3BJ RIJCOSX def2-SVPD def2/J TightSCF
|  2> *xyz 0 1
|  3> C         -5.57236       -5.80780       -0.81644
|  4> S         -6.90318       -4.61903       -0.52846
|  5> F         -8.11485       -5.25093       -0.95701
|  6> O         -6.53271       -3.42684       -1.31485
|  7> O         -6.86563       -4.29496        0.91412
|  8> C         -4.45780       -5.94187        0.22919
|  9> H         -5.17735       -5.54257       -1.79771
| 10> H         -6.07420       -6.76889       -0.92127
| 11> H         -3.75515       -6.68239       -0.09144
| 12> H         -4.88182       -6.23486        1.16689
| 13> H         -3.95908       -5.00189        0.34143
| 14> *
| 15> %MaxCore 64000
| 16>
| 17> %pal nprocs 4
| 18> end
| 19>
| 20> %scf
| 21>   MaxIter 150
| 22> end
| 23>
| 24>                          ****END OF INPUT****

CARTESIAN COORDINATES (ANGSTROEM)
---------------------------------
  C     -5.572360   -5.807800   -0.816440
  S     -6.903180   -4.619030   -0.528460
  F     -8.114850   -5.250930   -0.957010
  O     -6.532710   -3.426840   -1.314850
  O     -6.865630   -4.294960    0.914120
  C     -4.457800   -5.941870    0.229190
  H     -5.177350   -5.542570   -1.797710
  H     -6.074200   -6.768890   -0.921270
  H     -3.755150   -6.682390   -0.091440
  H     -4.881820   -6.234860    1.166890
  H     -3.959080   -5.001890    0.341430

 Total Charge           Charge          ....    0
 Multiplicity           Mult            ....    1
 Number of Electrons    NEL             ....   58
 Basis Dimension        Dim             ....  176

ORBITAL ENERGIES
----------------

  NO   OCC          E(Eh)            E(eV)
   0   2.0000     -88.383711     -2405.0430
   1   2.0000     -24.423528      -664.5980
   2   2.0000     -18.793324      -511.3923
   3   2.0000     -18.793064      -511.3853
   4   2.0000      -9.986114      -271.7360
   5   2.0000      -9.946229      -270.6506
   6   2.0000      -7.921366      -215.5513
   7   2.0000      -5.960806      -162.2018
   8   2.0000      -5.954100      -162.0193
   9   2.0000      -5.952594      -161.9783
  10   2.0000      -1.273965       -34.6664
  11   2.0000      -1.001186       -27.2436
  12   2.0000      -0.902987       -24.5715
  13   2.0000      -0.740865       -20.1599
  14   2.0000      -0.668004       -18.1773
  15   2.0000      -0.611992       -16.6531
  16   2.0000      -0.527828       -14.3629
  17   2.0000      -0.524764       -14.2796
  18   2.0000      -0.494905       -13.4670
  19   2.0000      -0.442191       -12.0326
  20   2.0000      -0.425853       -11.5881
  21   2.0000      -0.394089       -10.7237
  22   2.0000      -0.381658       -10.3855
  23   2.0000      -0.361096        -9.8259
  24   2.0000      -0.347021        -9.4429
  25   2.0000      -0.329211        -8.9583
  26   2.0000      -0.279577        -7.6077
  27   2.0000      -0.274704        -7.4751
  28   2.0000      -0.251855        -6.8533
  29   0.0000      -0.028618        -0.7787
  30   0.0000      -0.012975        -0.3531
  31   0.0000       0.012796         0.3482
  32   0.0000       0.021082         0.5737
  33   0.0000       0.026548         0.7224

MULLIKEN ATOMIC CHARGES
-----------------------
   0 C :   -0.104070
   1 S :    1.301706
   2 F :   -0.342583
   3 O :   -0.616924
   4 O :   -0.630984
   5 C :    1.181723
   6 H :   -0.132394
   7 H :   -0.110470
   8 H :   -0.228121
   9 H :   -0.145886
  10 H :   -0.171997
Sum of atomic charges:   -0.0000000

LOEWDIN ATOMIC CHARGES
----------------------
   0 C :   -0.083619
   1 S :    1.091639
   2 F :   -0.243138
   3 O :   -0.461248
   4 O :   -0.458345
   5 C :    0.160009
   6 H :    0.014498
   7 H :    0.004022
   8 H :   -0.009237
   9 H :   -0.010619
  10 H :   -0.003962

  Mayer bond orders larger than 0.100000
B(  0-C ,  1-S ) :   0.9066 B(  0-C ,  5-C ) :   1.3497 B(  0-C ,  6-H ) :   0.9087
B(  0-C ,  7-H ) :   0.8811 B(  0-C ,  8-H ) :   0.2829 B(  0-C ,  9-H ) :   0.2606
B(  0-C , 10-H ) :   0.2373 B(  1-S ,  2-F ) :   0.7587 B(  1-S ,  3-O ) :   1.5278
B(  1-S ,  4-O ) :   1.5131 B(  5-C ,  7-H ) :   0.1234 B(  5-C ,  8-H ) :   0.6237
B(  5-C ,  9-H ) :   0.7093 B(  5-C , 10-H ) :   0.7225

Dispersion correction           -0.019292721
FINAL SINGLE POINT ENERGY      -727.196529010373

DIPOLE MOMENT
-------------
                                X             Y             Z
Electronic contribution:     -9.36701       3.60399      -1.84003
Nuclear contribution   :      9.80704      -5.24335       1.35017
                        -----------------------------------------
Total Dipole Moment    :      0.44003      -1.63936      -0.48985
                        -----------------------------------------
Magnitude (a.u.)       :      1.76666
Magnitude (Debye)      :      4.49049

Rotational constants in cm-1:     0.156316     0.078308     0.076228
Rotational constants in MHz :  4686.224999  2347.601204  2285.245115

                             ****ORCA TERMINATED NORMALLY****
TOTAL RUN TIME: 0 days 0 hours 0 minutes 10 seconds 529 msec
