                         Program Version 5.0.0 -  RELEASE  -
|  1> !BLYP D3BJ RIJCOSX def2-SVPD def2/J TightSCF
|  2> *xyz 0 1
|  3> C         -4.38262       -1.67089        1.21620
|  4> C         -5.76354       -1.91517        0.70501
|  5> C         -3.28173       -2.19127        0.29436
|  6> H         -5.84081       -2.11520       -0.30065
|  7> H         -6.40882       -1.14866        0.93612
|  8> H         -6.17478       -2.79061        1.05143
|  9> H         -4.32862       -2.13922        2.19810
| 10> H         -4.26158       -0.59740        1.35725
| 11> H         -3.36057       -1.71407       -0.66008
| 12> H         -3.38775       -3.24919        0.17403
| 13> H         -2.32559       -1.97514        0.72329
| 14> *
| 15> %MaxCore 64000
| 16>
| 17> %pal nprocs 4
| 18> end
| 19>
| 20> %scf
| 21>   MaxIter 150
| 22> end
| 23>
| 24>                          ****END OF INPUT****

CARTESIAN COORDINATES (ANGSTROEM)
---------------------------------
  C     -4.382620   -1.670890    1.216200
  C     -5.763540   -1.915170    0.705010
  C     -3.281730   -2.191270    0.294360
  H     -5.840810   -2.115200   -0.300650
  H     -6.408820   -1.148660    0.936120
  H     -6.174780   -2.790610    1.051430
  H     -4.328620   -2.139220    2.198100
  H     -4.261580   -0.597400    1.357250
  H     -3.360570   -1.714070   -0.660080
  H     -3.387750   -3.249190    0.174030
  H     -2.325590   -1.975140    0.723290

 Total Charge           Charge          ....    0
 Multiplicity           Mult            ....    1
 Number of Electrons    NEL             ....   26
 Basis Dimension        Dim             ....  124

ORBITAL ENERGIES
----------------

  NO   OCC          E(Eh)            E(eV)
   0   2.0000      -9.910857      -269.6881
   1   2.0000      -9.903107      -269.4772
   2   2.0000      -9.886270      -269.0191
   3   2.0000      -0.702550       -19.1174
   4   2.0000      -0.613652       -16.6983
   5   2.0000      -0.520597       -14.1662
   6   2.0000      -0.409361       -11.1393
   7   2.0000      -0.389721       -10.6048
   8   2.0000      -0.360897        -9.8205
   9   2.0000      -0.337491        -9.1836
  10   2.0000      -0.296901        -8.0791
  11   2.0000      -0.290416        -7.9026
  12   2.0000      -0.278059        -7.5664
  13   0.0000       0.008038         0.2187
  14   0.0000       0.037556         1.0220
  15   0.0000       0.043406         1.1811
  16   0.0000       0.062527         1.7014
  17   0.0000       0.086434         2.3520

MULLIKEN ATOMIC CHARGES
-----------------------
   0 C :   -0.236046
   1 C :    1.319177
   2 C :    1.032769
   3 H :   -0.448595
   4 H :   -0.307059
   5 H :   -0.319566
   6 H :   -0.274330
   7 H :   -0.203977
   8 H :   -0.143541
   9 H :   -0.190253
  10 H :   -0.228581
Sum of atomic charges:   -0.0000000

LOEWDIN ATOMIC CHARGES
----------------------
   0 C :   -0.094084
   1 C :    0.131138
   2 C :    0.131059
   3 H :   -0.043414
   4 H :   -0.037392
   5 H :   -0.040841
   6 H :    0.013482
   7 H :    0.012781
   8 H :   -0.022338
   9 H :   -0.022252
  10 H :   -0.028137

  Mayer bond orders larger than 0.100000
B(  0-C ,  1-C ) :   1.2992 B(  0-C ,  2-C ) :   1.2899 B(  0-C ,  3-H ) :   0.2167
B(  0-C ,  4-H ) :   0.2468 B(  0-C ,  5-H ) :   0.2879 B(  0-C ,  6-H ) :   0.8177
B(  0-C ,  7-H ) :   0.8216 B(  0-C ,  8-H ) :   0.2162 B(  0-C ,  9-H ) :   0.2278
B(  0-C , 10-H ) :   0.2721 B(  1-C ,  2-C ) :   0.1073 B(  1-C ,  3-H ) :   0.4484
B(  1-C ,  4-H ) :   0.5854 B(  1-C ,  5-H ) :   0.4343 B(  1-C ,  6-H ) :   0.1495
B(  1-C ,  7-H ) :   0.1014 B(  2-C ,  8-H ) :   0.7404 B(  2-C ,  9-H ) :   0.7300
B(  2-C , 10-H ) :   0.6871 B(  3-H ,  5-H ) :   0.3809

Dispersion correction           -0.012399011
FINAL SINGLE POINT ENERGY      -118.959676642392

DIPOLE MOMENT
-------------
                                X             Y             Z
Electronic contribution:      0.18668       0.23975       0.34086
Nuclear contribution   :     -0.21528      -0.24783      -0.32864
                        -----------------------------------------
Total Dipole Moment    :     -0.02859      -0.00807       0.01221
                        -----------------------------------------
Magnitude (a.u.)       :      0.03212
Magnitude (Debye)      :      0.08165

Rotational constants in cm-1:     1.037566     0.286459     0.254172
Rotational constants in MHz : 31105.431429  8587.814531  7619.871198

                             ****ORCA TERMINATED NORMALLY****
TOTAL RUN TIME: 0 days 0 hours 0 minutes 7 seconds 371 msec
