                         Program Version 5.0.0 -  RELEASE  -
|  1> !BLYP D3BJ RIJCOSX def2-SVPD def2/J TightSCF
|  2> *xyz 0 1
|  3> C         -5.57236       -5.80780       -0.81644
|  4> S         -6.90318       -4.61903       -0.52846
|  5> O         -8.11485       -5.25093       -0.95701
|  6> F         -6.53271       -3.42684       -1.31485
|  7> O         -6.86563       -4.29496        0.91412
|  8> C         -4.45780       -5.94187        0.22919
|  9> H         -5.17735       -5.54257       -1.79771
| 10> H         -6.07420       -6.76889       -0.92127
| 11> H         -3.75515       -6.68239       -0.09144
| 12> H         -4.88182       -6.23486        1.16689
| 13> H         -3.95908       -5.00189        0.34143
| 14> *
| 15> %MaxCore 64000
| 16>
| 17> %pal nprocs 4
| 18> end
| 19>
| 20> %scf
| 21>   MaxIter 150
| 22> end
| 23>
| 24>                          ****END OF INPUT****

CARTESIAN COORDINATES (ANGSTROEM)
---------------------------------
  C     -5.572360   -5.807800   -0.816440
  S     -6.903180   -4.619030   -0.528460
  O     -8.114850   -5.250930   -0.957010
  F     -6.532710   -3.426840   -1.314850
  O     -6.865630   -4.294960    0.914120
  C     -4.457800   -5.941870    0.229190
  H     -5.177350   -5.542570   -1.797710
  H     -6.074200   -6.768890   -0.921270
  H     -3.755150   -6.682390   -0.091440
  H     -4.881820   -6.234860    1.166890
  H     -3.959080   -5.001890    0.341430

 Total Charge           Charge          ....    0
 Multiplicity           Mult            ....    1
 Number of Electrons    NEL             ....   58
 Basis Dimension        Dim             ....  176

ORBITAL ENERGIES
----------------

  NO   OCC          E(Eh)            E(eV)
   0   2.0000     -88.381421     -2404.9807
   1   2.0000     -24.402316      -664.0208
   2   2.0000     -18.806997      -511.7644
   3   2.0000     -18.793023      -511.3842
   4   2.0000      -9.985307      -271.7140
   5   2.0000      -9.945669      -270.6354
   6   2.0000      -7.919103      -215.4897
   7   2.0000      -5.958322      -162.1342
   8   2.0000      -5.952061      -161.9638
   9   2.0000      -5.950527      -161.9221
  10   2.0000      -1.237802       -33.6823
  11   2.0000      -1.017214       -27.6798
  12   2.0000      -0.918392       -24.9907
  13   2.0000      -0.740293       -20.1444
  14   2.0000      -0.654646       -17.8138
  15   2.0000      -0.604735       -16.4557
  16   2.0000      -0.515751       -14.0343
  17   2.0000      -0.499490       -13.5918
  18   2.0000      -0.488986       -13.3060
  19   2.0000      -0.440724       -11.9927
  20   2.0000      -0.426098       -11.5947
  21   2.0000      -0.402030       -10.9398
  22   2.0000      -0.384240       -10.4557
  23   2.0000      -0.358927        -9.7669
  24   2.0000      -0.352808        -9.6004
  25   2.0000      -0.335248        -9.1226
  26   2.0000      -0.291862        -7.9420
  27   2.0000      -0.279349        -7.6015
  28   2.0000      -0.264014        -7.1842
  29   0.0000      -0.028439        -0.7739
  30   0.0000      -0.009615        -0.2616
  31   0.0000       0.011838         0.3221
  32   0.0000       0.023223         0.6319
  33   0.0000       0.027081         0.7369

MULLIKEN ATOMIC CHARGES
-----------------------
   0 C :   -0.105159
   1 S :    1.299028
   2 O :   -0.570598
   3 F :   -0.379272
   4 O :   -0.639775
   5 C :    1.207146
   6 H :   -0.133587
   7 H :   -0.110870
   8 H :   -0.229176
   9 H :   -0.147160
  10 H :   -0.190577
Sum of atomic charges:   -0.0000000

LOEWDIN ATOMIC CHARGES
----------------------
   0 C :   -0.078166
   1 S :    1.088666
   2 O :   -0.438921
   3 F :   -0.263036
   4 O :   -0.457410
   5 C :    0.153060
   6 H :    0.009272
   7 H :    0.016735
   8 H :   -0.010854
   9 H :   -0.009220
  10 H :   -0.010127

  Mayer bond orders larger than 0.100000
B(  0-C ,  1-S ) :   0.9142 B(  0-C ,  5-C ) :   1.3384 B(  0-C ,  6-H ) :   0.8824
B(  0-C ,  7-H ) :   0.9139 B(  0-C ,  8-H ) :   0.2861 B(  0-C ,  9-H ) :   0.2608
B(  0-C , 10-H ) :   0.2441 B(  1-S ,  2-O ) :   1.5932 B(  1-S ,  3-F ) :   0.6908
B(  1-S ,  4-O ) :   1.5206 B(  2-O ,  4-O ) :   0.1159 B(  5-C ,  7-H ) :   0.1080
B(  5-C ,  8-H ) :   0.6206 B(  5-C ,  9-H ) :   0.7110 B(  5-C , 10-H ) :   0.7131

Dispersion correction           -0.019264349
FINAL SINGLE POINT ENERGY      -727.215037018450

DIPOLE MOMENT
-------------
                                X             Y             Z
Electronic contribution:     -6.73309       6.65860      -2.45536
Nuclear contribution   :      8.15840      -7.14411       1.72305
                        -----------------------------------------
Total Dipole Moment    :      1.42531      -0.48550      -0.73230
                        -----------------------------------------
Magnitude (a.u.)       :      1.67437
Magnitude (Debye)      :      4.25590

Rotational constants in cm-1:     0.153926     0.078297     0.077402
Rotational constants in MHz :  4614.585804  2347.272644  2320.438903

                             ****ORCA TERMINATED NORMALLY****
TOTAL RUN TIME: 0 days 0 hours 0 minutes 9 seconds 906 msec
