                         Program Version 5.0.0 -  RELEASE  -
|  1> !BLYP D3BJ RIJCOSX def2-SVPD def2/J TightSCF
|  2> *xyz 0 1
|  3> C         -5.57236       -5.80780       -0.81644
|  4> S         -6.90318       -4.61903       -0.52846
|  5> O         -8.11485       -5.25093       -0.95701
|  6> O         -6.53271       -3.42684       -1.31485
|  7> F         -6.86563       -4.29496        0.91412
|  8> C         -4.45780       -5.94187        0.22919
|  9> H         -5.17735       -5.54257       -1.79771
| 10> H         -6.07420       -6.76889       -0.92127
| 11> H         -3.75515       -6.68239       -0.09144
| 12> H         -4.88182       -6.23486        1.16689
| 13> H         -3.95908       -5.00189        0.34143
| 14> *
| 15> %MaxCore 64000
| 16>
| 17> %pal nprocs 4
| 18> end
| 19>
| 20> %scf
| 21>   MaxIter 150
| 22> end
| 23>
| 24>                          ****END OF INPUT****

CARTESIAN COORDINATES (ANGSTROEM)
---------------------------------
  C     -5.572360   -5.807800   -0.816440
  S     -6.903180   -4.619030   -0.528460
  O     -8.114850   -5.250930   -0.957010
  O     -6.532710   -3.426840   -1.314850
  F     -6.865630   -4.294960    0.914120
  C     -4.457800   -5.941870    0.229190
  H     -5.177350   -5.542570   -1.797710
  H     -6.074200   -6.768890   -0.921270
  H     -3.755150   -6.682390   -0.091440
  H     -4.881820   -6.234860    1.166890
  H     -3.959080   -5.001890    0.341430

 Total Charge           Charge          ....    0
 Multiplicity           Mult            ....    1
 Number of Electrons    NEL             ....   58
 Basis Dimension        Dim             ....  176

ORBITAL ENERGIES
----------------

  NO   OCC          E(Eh)            E(eV)
   0   2.0000     -88.381020     -2404.9698
   1   2.0000     -24.401425      -663.9965
   2   2.0000     -18.806774      -511.7583
   3   2.0000     -18.792255      -511.3632
   4   2.0000      -9.984616      -271.6952
   5   2.0000      -9.952513      -270.8216
   6   2.0000      -7.918703      -215.4789
   7   2.0000      -5.957973      -162.1247
   8   2.0000      -5.951713      -161.9543
   9   2.0000      -5.950061      -161.9094
  10   2.0000      -1.235219       -33.6120
  11   2.0000      -1.017818       -27.6962
  12   2.0000      -0.919044       -25.0085
  13   2.0000      -0.742816       -20.2131
  14   2.0000      -0.652111       -17.7448
  15   2.0000      -0.608918       -16.5695
  16   2.0000      -0.521095       -14.1797
  17   2.0000      -0.498911       -13.5760
  18   2.0000      -0.481680       -13.1072
  19   2.0000      -0.444729       -12.1017
  20   2.0000      -0.420127       -11.4322
  21   2.0000      -0.402069       -10.9408
  22   2.0000      -0.393355       -10.7037
  23   2.0000      -0.367082        -9.9888
  24   2.0000      -0.353314        -9.6142
  25   2.0000      -0.337139        -9.1740
  26   2.0000      -0.292586        -7.9617
  27   2.0000      -0.277445        -7.5497
  28   2.0000      -0.263666        -7.1747
  29   0.0000      -0.035436        -0.9643
  30   0.0000       0.004086         0.1112
  31   0.0000       0.016953         0.4613
  32   0.0000       0.021165         0.5759
  33   0.0000       0.026542         0.7222

MULLIKEN ATOMIC CHARGES
-----------------------
   0 C :   -0.080497
   1 S :    1.281668
   2 O :   -0.566894
   3 O :   -0.624941
   4 F :   -0.392457
   5 C :    1.187697
   6 H :   -0.130223
   7 H :   -0.106272
   8 H :   -0.217646
   9 H :   -0.166543
  10 H :   -0.183892
Sum of atomic charges:   -0.0000000

LOEWDIN ATOMIC CHARGES
----------------------
   0 C :   -0.072423
   1 S :    1.087563
   2 O :   -0.438602
   3 O :   -0.462472
   4 F :   -0.261137
   5 C :    0.147722
   6 H :    0.022740
   7 H :    0.011546
   8 H :   -0.010191
   9 H :   -0.015231
  10 H :   -0.009517

  Mayer bond orders larger than 0.100000
B(  0-C ,  1-S ) :   0.9202 B(  0-C ,  5-C ) :   1.3145 B(  0-C ,  6-H ) :   0.9021
B(  0-C ,  7-H ) :   0.9117 B(  0-C ,  8-H ) :   0.2862 B(  0-C ,  9-H ) :   0.2497
B(  0-C , 10-H ) :   0.2308 B(  1-S ,  2-O ) :   1.5896 B(  1-S ,  3-O ) :   1.5266
B(  1-S ,  4-F ) :   0.6932 B(  2-O ,  3-O ) :   0.1114 B(  5-C ,  7-H ) :   0.1123
B(  5-C ,  8-H ) :   0.6263 B(  5-C ,  9-H ) :   0.7095 B(  5-C , 10-H ) :   0.7216

Dispersion correction           -0.019173023
FINAL SINGLE POINT ENERGY      -727.215118529730

DIPOLE MOMENT
-------------
                                X             Y             Z
Electronic contribution:     -7.27164       5.17759       1.26865
Nuclear contribution   :      8.50531      -6.23950      -0.59960
                        -----------------------------------------
Total Dipole Moment    :      1.23368      -1.06191       0.66905
                        -----------------------------------------
Magnitude (a.u.)       :      1.75990
Magnitude (Debye)      :      4.47330

Rotational constants in cm-1:     0.152799     0.080212     0.076962
Rotational constants in MHz :  4580.804531  2404.707790  2307.252710

                             ****ORCA TERMINATED NORMALLY****
TOTAL RUN TIME: 0 days 0 hours 0 minutes 9 seconds 909 msec
