                         Program Version 5.0.0 -  RELEASE  -
|  1> !CAM-B3LYP RIJCOSX def2-SVP def2/J TightSCF
|  2> *xyz -1 1
|  3> C         -7.33044       -2.67899       -3.20681
|  4> S         -6.01966       -2.92697       -4.41913
|  5> O         -5.64583       -1.58838       -4.91931
|  6> O         -4.88196       -3.50370       -3.66724
|  7> O         -6.54927       -3.80515       -5.42507
|  8> C         -7.46900       -1.24615       -2.71383
|  9> H         -7.11825       -3.37982       -2.39805
| 10> H         -8.24184       -3.00474       -3.70651
| 11> H         -7.67580       -0.60214       -3.54292
| 12> H         -6.55749       -0.94096       -2.24382
| 13> H         -8.27114       -1.18777       -2.00810
| 14> *
| 15> %MaxCore 64000
| 16>
| 17> %pal nprocs 4
| 18> end
| 19>
| 20> %scf
| 21>   MaxIter 150
| 22> end
| 23>
| 24>
| 25>                          ****END OF INPUT****

CARTESIAN COORDINATES (ANGSTROEM)
---------------------------------
  C     -7.330440   -2.678990   -3.206810
  S     -6.019660   -2.926970   -4.419130
  O     -5.645830   -1.588380   -4.919310
  O     -4.881960   -3.503700   -3.667240
  O     -6.549270   -3.805150   -5.425070
  C     -7.469000   -1.246150   -2.713830
  H     -7.118250   -3.379820   -2.398050
  H     -8.241840   -3.004740   -3.706510
  H     -7.675800   -0.602140   -3.542920
  H     -6.557490   -0.940960   -2.243820
  H     -8.271140   -1.187770   -2.008100

 Total Charge           Charge          ....   -1
 Multiplicity           Mult            ....    1
 Number of Electrons    NEL             ....   58
 Basis Dimension        Dim             ....  113

ORBITAL ENERGIES
----------------

  NO   OCC          E(Eh)            E(eV)
   0   2.0000     -88.918913     -2419.6066
   1   2.0000     -18.956800      -515.8408
   2   2.0000     -18.946231      -515.5532
   3   2.0000     -18.939712      -515.3758
   4   2.0000     -10.110960      -275.1332
   5   2.0000     -10.106608      -275.0148
   6   2.0000      -7.979183      -217.1246
   7   2.0000      -5.948518      -161.8674
   8   2.0000      -5.948448      -161.8655
   9   2.0000      -5.948224      -161.8594
  10   2.0000      -0.979796       -26.6616
  11   2.0000      -0.834144       -22.6982
  12   2.0000      -0.809938       -22.0395
  13   2.0000      -0.702655       -19.1202
  14   2.0000      -0.572442       -15.5769
  15   2.0000      -0.435688       -11.8557
  16   2.0000      -0.382622       -10.4117
  17   2.0000      -0.365875        -9.9560
  18   2.0000      -0.329289        -8.9604
  19   2.0000      -0.306410        -8.3378
  20   2.0000      -0.301070        -8.1925
  21   2.0000      -0.281258        -7.6534
  22   2.0000      -0.274075        -7.4580
  23   2.0000      -0.182362        -4.9623
  24   2.0000      -0.182308        -4.9609
  25   2.0000      -0.148515        -4.0413
  26   2.0000      -0.142264        -3.8712
  27   2.0000      -0.131313        -3.5732
  28   2.0000      -0.094358        -2.5676
  29   0.0000       0.242000         6.5852
  30   0.0000       0.296949         8.0804
  31   0.0000       0.301309         8.1990
  32   0.0000       0.308915         8.4060
  33   0.0000       0.332607         9.0507

MULLIKEN ATOMIC CHARGES
-----------------------
   0 C :   -0.092295
   1 S :    0.876868
   2 O :   -0.603412
   3 O :   -0.621042
   4 O :   -0.570433
   5 C :    0.052922
   6 H :    0.000486
   7 H :   -0.007948
   8 H :    0.004401
   9 H :    0.004219
  10 H :   -0.043766
Sum of atomic charges:   -1.0000000

LOEWDIN ATOMIC CHARGES
----------------------
   0 C :   -0.185888
   1 S :    1.120196
   2 O :   -0.644721
   3 O :   -0.659787
   4 O :   -0.609784
   5 C :   -0.069211
   6 H :    0.009786
   7 H :    0.005468
   8 H :    0.016703
   9 H :    0.018173
  10 H :   -0.000934

  Mayer bond orders larger than 0.100000
B(  0-C ,  1-S ) :   0.8869 B(  0-C ,  5-C ) :   1.0840 B(  0-C ,  6-H ) :   0.9447
B(  0-C ,  7-H ) :   0.9444 B(  1-S ,  2-O ) :   1.6095 B(  1-S ,  3-O ) :   1.5966
B(  1-S ,  4-O ) :   1.6523 B(  5-C ,  8-H ) :   0.9643 B(  5-C ,  9-H ) :   0.9682
B(  5-C , 10-H ) :   0.9562

FINAL SINGLE POINT ENERGY      -702.602749229394

DIPOLE MOMENT
-------------
                                X             Y             Z
Electronic contribution:      4.74953      -3.54762      -5.17097
Nuclear contribution   :     -6.18165       4.01759       6.33106
                        -----------------------------------------
Total Dipole Moment    :     -1.43212       0.46997       1.16009
                        -----------------------------------------
Magnitude (a.u.)       :      1.90201
Magnitude (Debye)      :      4.83453

Rotational constants in cm-1:     0.161711     0.082788     0.081165
Rotational constants in MHz :  4847.971521  2481.906910  2433.276832

                             ****ORCA TERMINATED NORMALLY****
TOTAL RUN TIME: 0 days 0 hours 0 minutes 18 seconds 771 msec
