                         Program Version 5.0.0 -  RELEASE  -
|  1> !CAM-B3LYP RIJCOSX def2-SVP def2/J TightSCF
|  2> *xyz 1 1
|  3> C         -2.16038       -1.36949       -3.46710
|  4> N         -3.03011       -1.91086       -4.54107
|  5> C         -2.04772        0.14658       -3.51177
|  6> H         -3.47744       -2.79151       -4.25710
|  7> H         -2.53801       -2.01786       -5.43808
|  8> H         -3.89159       -1.37604       -4.71437
|  9> H         -1.18444       -1.84400       -3.56639
| 10> H         -2.59819       -1.70838       -2.52848
| 11> H         -1.61525        0.44478       -4.44395
| 12> H         -1.42718        0.48198       -2.70720
| 13> H         -3.02145        0.57958       -3.41560
| 14> *
| 15> %MaxCore 64000
| 16>
| 17> %pal nprocs 4
| 18> end
| 19>
| 20> %scf
| 21>   MaxIter 150
| 22> end
| 23>
| 24>
| 25>                          ****END OF INPUT****

CARTESIAN COORDINATES (ANGSTROEM)
---------------------------------
  C     -2.160380   -1.369490   -3.467100
  N     -3.030110   -1.910860   -4.541070
  C     -2.047720    0.146580   -3.511770
  H     -3.477440   -2.791510   -4.257100
  H     -2.538010   -2.017860   -5.438080
  H     -3.891590   -1.376040   -4.714370
  H     -1.184440   -1.844000   -3.566390
  H     -2.598190   -1.708380   -2.528480
  H     -1.615250    0.444780   -4.443950
  H     -1.427180    0.481980   -2.707200
  H     -3.021450    0.579580   -3.415600

 Total Charge           Charge          ....    1
 Multiplicity           Mult            ....    1
 Number of Electrons    NEL             ....   26
 Basis Dimension        Dim             ....   82

ORBITAL ENERGIES
----------------

  NO   OCC          E(Eh)            E(eV)
   0   2.0000     -14.743737      -401.1975
   1   2.0000     -10.512995      -286.0731
   2   2.0000     -10.433137      -283.9001
   3   2.0000      -1.293840       -35.2072
   4   2.0000      -1.043340       -28.3907
   5   2.0000      -0.920764       -25.0553
   6   2.0000      -0.884275       -24.0623
   7   2.0000      -0.843546       -22.9540
   8   2.0000      -0.770960       -20.9789
   9   2.0000      -0.712454       -19.3869
  10   2.0000      -0.648695       -17.6519
  11   2.0000      -0.633572       -17.2404
  12   2.0000      -0.615088       -16.7374
  13   0.0000      -0.143931        -3.9166
  14   0.0000      -0.082759        -2.2520
  15   0.0000      -0.080769        -2.1978
  16   0.0000      -0.047771        -1.2999
  17   0.0000      -0.005201        -0.1415

MULLIKEN ATOMIC CHARGES
-----------------------
   0 C :   -0.026503
   1 N :    0.008465
   2 C :   -0.008461
   3 H :    0.211384
   4 H :    0.221732
   5 H :    0.201833
   6 H :    0.099511
   7 H :    0.092042
   8 H :    0.055623
   9 H :    0.090841
  10 H :    0.053532
Sum of atomic charges:    1.0000000

LOEWDIN ATOMIC CHARGES
----------------------
   0 C :    0.051505
   1 N :    0.288746
   2 C :   -0.038625
   3 H :    0.150771
   4 H :    0.149432
   5 H :    0.145327
   6 H :    0.056670
   7 H :    0.053424
   8 H :    0.040238
   9 H :    0.063617
  10 H :    0.038895

  Mayer bond orders larger than 0.100000
B(  0-C ,  1-N ) :   0.9179 B(  0-C ,  2-C ) :   1.1008 B(  0-C ,  6-H ) :   0.9532
B(  0-C ,  7-H ) :   0.9561 B(  1-N ,  3-H ) :   0.9348 B(  1-N ,  4-H ) :   0.9336
B(  1-N ,  5-H ) :   0.9332 B(  2-C ,  8-H ) :   0.9714 B(  2-C ,  9-H ) :   0.9585
B(  2-C , 10-H ) :   0.9682

FINAL SINGLE POINT ENERGY      -135.349084894132

DIPOLE MOMENT
-------------
                                X             Y             Z
Electronic contribution:     -0.68386      -1.53363      -0.81366
Nuclear contribution   :     -0.15215       0.37393      -0.04773
                        -----------------------------------------
Total Dipole Moment    :     -0.83601      -1.15970      -0.86139
                        -----------------------------------------
Magnitude (a.u.)       :      1.66907
Magnitude (Debye)      :      4.24245

Rotational constants in cm-1:     1.020762     0.277172     0.247319
Rotational constants in MHz : 30601.664035  8309.399682  7414.438136

                             ****ORCA TERMINATED NORMALLY****
TOTAL RUN TIME: 0 days 0 hours 0 minutes 13 seconds 3 msec
