                         Program Version 5.0.0 -  RELEASE  -
|  1> !CAM-B3LYP RIJCOSX def2-TZVP def2/J TightSCF xyzfile
|  2>
|  3> *xyzfile 0 1 B.xyz
|  4>
|  5> %MaxCore 64000
|  6>
|  7> %pal nprocs 18
|  8> end
|  9>
| 10> %scf
| 11>   MaxIter 150
| 12> end
| 13>
| 14>
| 15>                          ****END OF INPUT****

CARTESIAN COORDINATES (ANGSTROEM)
---------------------------------
  C     -2.160376   -1.369486   -3.467104
  N     -3.030108   -1.910857   -4.541074
  C     -2.047717    0.146583   -3.511774
  C     -7.330440   -2.678991   -3.206811
  S     -6.019659   -2.926965   -4.419128
  H     -3.477443   -2.791513   -4.257096
  H     -2.538013   -2.017860   -5.438075
  H     -3.891589   -1.376039   -4.714365
  O     -5.645830   -1.588384   -4.919307
  O     -4.881961   -3.503697   -3.667235
  H     -1.184438   -1.843997   -3.566393
  H     -2.598195   -1.708376   -2.528477
  O     -6.549267   -3.805150   -5.425071
  C     -3.328755    0.875037   -3.103669
  H     -1.740034    0.452343   -4.517126
  H     -1.232611    0.434938   -2.842208
  C     -3.628487    0.771601   -1.609363
  H     -4.175106    0.490791   -3.682203
  H     -3.237812    1.928663   -3.381480
  C     -4.975718    1.361432   -1.190644
  H     -2.830700    1.276234   -1.054766
  H     -3.594312   -0.275838   -1.294603
  C     -6.184720    0.784347   -1.926464
  H     -4.956292    2.445725   -1.342200
  H     -5.097256    1.205252   -0.114136
  C     -6.286921   -0.735882   -1.893531
  H     -6.163994    1.100199   -2.974250
  H     -7.094530    1.223459   -1.504509
  C     -7.468999   -1.246153   -2.713833
  H     -6.360641   -1.090347   -0.859176
  H     -5.369848   -1.171853   -2.295982
  H     -7.601914   -0.601349   -3.585329
  H     -8.389791   -1.173436   -2.126922
  H     -7.118254   -3.379818   -2.398055
  H     -8.241838   -3.004745   -3.706513

 Total Charge           Charge          ....    0
 Multiplicity           Mult            ....    1
 Number of Electrons    NEL             ....  122
 Basis Dimension        Dim             ....  566

ORBITAL ENERGIES
----------------

  NO   OCC          E(Eh)            E(eV)
   0   2.0000     -89.083874     -2424.0954
   1   2.0000     -19.149322      -521.0795
   2   2.0000     -19.149216      -521.0766
   3   2.0000     -19.133455      -520.6478
   4   2.0000     -14.492672      -394.3657
   5   2.0000     -10.327503      -281.0257
   6   2.0000     -10.279615      -279.7225
   7   2.0000     -10.259042      -279.1627
   8   2.0000     -10.250642      -278.9342
   9   2.0000     -10.244411      -278.7646
  10   2.0000     -10.242734      -278.7190
  11   2.0000     -10.234941      -278.5069
  12   2.0000     -10.234276      -278.4888
  13   2.0000     -10.231182      -278.4046
  14   2.0000      -8.128056      -221.1757
  15   2.0000      -6.092552      -165.7868
  16   2.0000      -6.091712      -165.7639
  17   2.0000      -6.090801      -165.7391
  18   2.0000      -1.178010       -32.0553
  19   2.0000      -1.089713       -29.6526
  20   2.0000      -1.036286       -28.1988
  21   2.0000      -1.034525       -28.1509
  22   2.0000      -0.921654       -25.0795
  23   2.0000      -0.891905       -24.2700
  24   2.0000      -0.865202       -23.5433
  25   2.0000      -0.820264       -22.3205
  26   2.0000      -0.786664       -21.4062
  27   2.0000      -0.741528       -20.1780
  28   2.0000      -0.702726       -19.1221
  29   2.0000      -0.684383       -18.6230
  30   2.0000      -0.670580       -18.2474
  31   2.0000      -0.644864       -17.5477
  32   2.0000      -0.636507       -17.3202
  33   2.0000      -0.611275       -16.6336
  34   2.0000      -0.585284       -15.9264
  35   2.0000      -0.561104       -15.2684
  36   2.0000      -0.560246       -15.2451
  37   2.0000      -0.545244       -14.8368
  38   2.0000      -0.528336       -14.3767
  39   2.0000      -0.516573       -14.0567
  40   2.0000      -0.508465       -13.8360
  41   2.0000      -0.504300       -13.7227
  42   2.0000      -0.498128       -13.5547
  43   2.0000      -0.482703       -13.1350
  44   2.0000      -0.478185       -13.0121
  45   2.0000      -0.467795       -12.7293
  46   2.0000      -0.454535       -12.3685
  47   2.0000      -0.441433       -12.0120
  48   2.0000      -0.435311       -11.8454
  49   2.0000      -0.419812       -11.4237
  50   2.0000      -0.411455       -11.1963
  51   2.0000      -0.403649       -10.9838
  52   2.0000      -0.391203       -10.6452
  53   2.0000      -0.387168       -10.5354
  54   2.0000      -0.384131       -10.4527
  55   2.0000      -0.380880       -10.3643
  56   2.0000      -0.375479       -10.2173
  57   2.0000      -0.348180        -9.4744
  58   2.0000      -0.340477        -9.2649
  59   2.0000      -0.330281        -8.9874
  60   2.0000      -0.305730        -8.3193
  61   0.0000       0.028349         0.7714
  62   0.0000       0.064621         1.7584
  63   0.0000       0.073242         1.9930
  64   0.0000       0.077233         2.1016
  65   0.0000       0.091662         2.4943

MULLIKEN ATOMIC CHARGES
-----------------------
   0 C :   -0.205300
   1 N :   -0.284110
   2 C :   -0.180255
   3 C :   -0.265314
   4 S :    0.879511
   5 H :    0.310428
   6 H :    0.268841
   7 H :    0.296331
   8 O :   -0.607270
   9 O :   -0.605797
  10 H :    0.151611
  11 H :    0.173216
  12 O :   -0.486700
  13 C :   -0.277810
  14 H :    0.122266
  15 H :    0.120779
  16 C :   -0.243178
  17 H :    0.154315
  18 H :    0.119488
  19 C :   -0.166563
  20 H :    0.111430
  21 H :    0.113711
  22 C :   -0.239563
  23 H :    0.104990
  24 H :    0.106895
  25 C :   -0.239557
  26 H :    0.128028
  27 H :    0.107817
  28 C :   -0.165222
  29 H :    0.097722
  30 H :    0.097861
  31 H :    0.122418
  32 H :    0.105025
  33 H :    0.124651
  34 H :    0.149305
Sum of atomic charges:   -0.0000000

LOEWDIN ATOMIC CHARGES
----------------------
   0 C :   -0.270107
   1 N :    0.137901
   2 C :   -0.269801
   3 C :   -0.371606
   4 S :    0.478686
   5 H :    0.171952
   6 H :    0.195471
   7 H :    0.179107
   8 O :   -0.388412
   9 O :   -0.394642
  10 H :    0.137413
  11 H :    0.144437
  12 O :   -0.321533
  13 C :   -0.265335
  14 H :    0.139170
  15 H :    0.147702
  16 C :   -0.270629
  17 H :    0.141367
  18 H :    0.141397
  19 C :   -0.266442
  20 H :    0.135991
  21 H :    0.133360
  22 C :   -0.271147
  23 H :    0.136162
  24 H :    0.137290
  25 C :   -0.270478
  26 H :    0.137949
  27 H :    0.137010
  28 C :   -0.288635
  29 H :    0.133112
  30 H :    0.131042
  31 H :    0.143612
  32 H :    0.136231
  33 H :    0.135188
  34 H :    0.137218

  Mayer bond orders larger than 0.100000
B(  0-C ,  1-N ) :   0.8833 B(  0-C ,  2-C ) :   0.9347 B(  0-C , 10-H ) :   0.9787
B(  0-C , 11-H ) :   0.9759 B(  1-N ,  5-H ) :   0.7901 B(  1-N ,  6-H ) :   0.9022
B(  1-N ,  7-H ) :   0.8233 B(  2-C , 13-C ) :   0.9502 B(  2-C , 14-H ) :   0.9786
B(  2-C , 15-H ) :   0.9726 B(  3-C ,  4-S ) :   0.9004 B(  3-C , 28-C ) :   0.9494
B(  3-C , 33-H ) :   0.9571 B(  3-C , 34-H ) :   0.9655 B(  4-S ,  8-O ) :   1.5665
B(  4-S ,  9-O ) :   1.5403 B(  4-S , 12-O ) :   1.9499 B(  5-H ,  9-O ) :   0.1630
B(  7-H ,  8-O ) :   0.1235 B( 13-C , 16-C ) :   0.9069 B( 13-C , 17-H ) :   0.9887
B( 13-C , 18-H ) :   0.9730 B( 16-C , 19-C ) :   0.9527 B( 16-C , 20-H ) :   0.9712
B( 16-C , 21-H ) :   0.9902 B( 19-C , 22-C ) :   0.9459 B( 19-C , 23-H ) :   0.9865
B( 19-C , 24-H ) :   0.9832 B( 22-C , 25-C ) :   0.9208 B( 22-C , 26-H ) :   0.9910
B( 22-C , 27-H ) :   0.9794 B( 25-C , 28-C ) :   0.9452 B( 25-C , 29-H ) :   0.9674
B( 25-C , 30-H ) :   0.9849 B( 28-C , 31-H ) :   0.9756 B( 28-C , 32-H ) :   0.9638

FINAL SINGLE POINT ENERGY     -1034.205935657046

DIPOLE MOMENT
-------------
                                X             Y             Z
Electronic contribution:     -5.95196     -15.21859     -11.43634
Nuclear contribution   :      8.59301      16.99497      12.41069
                        -----------------------------------------
Total Dipole Moment    :      2.64105       1.77638       0.97435
                        -----------------------------------------
Magnitude (a.u.)       :      3.32867
Magnitude (Debye)      :      8.46080

Rotational constants in cm-1:     0.025617     0.015295     0.010641
Rotational constants in MHz :   767.991150   458.522408   319.013093

                             ****ORCA TERMINATED NORMALLY****
TOTAL RUN TIME: 0 days 0 hours 1 minutes 43 seconds 814 msec
