                         Program Version 5.0.0 -  RELEASE  -
|  1> !CAM-B3LYP RIJCOSX def2-SVP def2/J TightSCF
|  2> *xyz 0 1
|  3> C         -7.33044       -2.67899       -3.20681
|  4> S         -6.01966       -2.92697       -4.41913
|  5> F         -5.64583       -1.58838       -4.91931
|  6> O         -4.88196       -3.50370       -3.66724
|  7> O         -6.54927       -3.80515       -5.42507
|  8> C         -7.46900       -1.24615       -2.71383
|  9> H         -7.11825       -3.37982       -2.39805
| 10> H         -8.24184       -3.00474       -3.70651
| 11> H         -7.67580       -0.60214       -3.54292
| 12> H         -6.55749       -0.94096       -2.24382
| 13> H         -8.27114       -1.18777       -2.00810
| 14> *
| 15> %MaxCore 64000
| 16>
| 17> %pal nprocs 4
| 18> end
| 19>
| 20> %scf
| 21>   MaxIter 150
| 22> end
| 23>
| 24>
| 25>                          ****END OF INPUT****

CARTESIAN COORDINATES (ANGSTROEM)
---------------------------------
  C     -7.330440   -2.678990   -3.206810
  S     -6.019660   -2.926970   -4.419130
  F     -5.645830   -1.588380   -4.919310
  O     -4.881960   -3.503700   -3.667240
  O     -6.549270   -3.805150   -5.425070
  C     -7.469000   -1.246150   -2.713830
  H     -7.118250   -3.379820   -2.398050
  H     -8.241840   -3.004740   -3.706510
  H     -7.675800   -0.602140   -3.542920
  H     -6.557490   -0.940960   -2.243820
  H     -8.271140   -1.187770   -2.008100

 Total Charge           Charge          ....    0
 Multiplicity           Mult            ....    1
 Number of Electrons    NEL             ....   58
 Basis Dimension        Dim             ....  113

ORBITAL ENERGIES
----------------

  NO   OCC          E(Eh)            E(eV)
   0   2.0000     -89.192070     -2427.0396
   1   2.0000     -24.860357      -676.4847
   2   2.0000     -19.210248      -522.7374
   3   2.0000     -19.193587      -522.2841
   4   2.0000     -10.318860      -280.7904
   5   2.0000     -10.288173      -279.9554
   6   2.0000      -8.254641      -224.6202
   7   2.0000      -6.228103      -169.4753
   8   2.0000      -6.221552      -169.2970
   9   2.0000      -6.220459      -169.2673
  10   2.0000      -1.422539       -38.7093
  11   2.0000      -1.181511       -32.1505
  12   2.0000      -1.073665       -29.2159
  13   2.0000      -0.907303       -24.6890
  14   2.0000      -0.794842       -21.6288
  15   2.0000      -0.748992       -20.3811
  16   2.0000      -0.658745       -17.9254
  17   2.0000      -0.635761       -17.2999
  18   2.0000      -0.604747       -16.4560
  19   2.0000      -0.570112       -15.5135
  20   2.0000      -0.539677       -14.6854
  21   2.0000      -0.516721       -14.0607
  22   2.0000      -0.501135       -13.6366
  23   2.0000      -0.482239       -13.1224
  24   2.0000      -0.463687       -12.6176
  25   2.0000      -0.442923       -12.0525
  26   2.0000      -0.390009       -10.6127
  27   2.0000      -0.375472       -10.2171
  28   2.0000      -0.361991        -9.8503
  29   0.0000       0.063083         1.7166
  30   0.0000       0.108393         2.9495
  31   0.0000       0.126667         3.4468
  32   0.0000       0.133353         3.6287
  33   0.0000       0.144905         3.9431

MULLIKEN ATOMIC CHARGES
-----------------------
   0 C :   -0.123533
   1 S :    0.958764
   2 F :   -0.203549
   3 O :   -0.482279
   4 O :   -0.430959
   5 C :    0.002468
   6 H :    0.090884
   7 H :    0.072887
   8 H :    0.032820
   9 H :    0.042367
  10 H :    0.040131
Sum of atomic charges:   -0.0000000

LOEWDIN ATOMIC CHARGES
----------------------
   0 C :   -0.142579
   1 S :    1.182195
   2 F :   -0.152451
   3 O :   -0.532329
   4 O :   -0.481622
   5 C :   -0.060907
   6 H :    0.051344
   7 H :    0.040071
   8 H :    0.026952
   9 H :    0.031222
  10 H :    0.038103

  Mayer bond orders larger than 0.100000
B(  0-C ,  1-S ) :   0.9245 B(  0-C ,  5-C ) :   1.0661 B(  0-C ,  6-H ) :   0.9384
B(  0-C ,  7-H ) :   0.9405 B(  1-S ,  2-F ) :   0.9899 B(  1-S ,  3-O ) :   1.7506
B(  1-S ,  4-O ) :   1.8022 B(  5-C ,  8-H ) :   0.9734 B(  5-C ,  9-H ) :   0.9728
B(  5-C , 10-H ) :   0.9624

FINAL SINGLE POINT ENERGY      -727.121106496278

DIPOLE MOMENT
-------------
                                X             Y             Z
Electronic contribution:      5.65794      -1.71268      -6.40226
Nuclear contribution   :     -6.81251       2.87933       7.15058
                        -----------------------------------------
Total Dipole Moment    :     -1.15457       1.16665       0.74831
                        -----------------------------------------
Magnitude (a.u.)       :      1.80391
Magnitude (Debye)      :      4.58517

Rotational constants in cm-1:     0.152543     0.082494     0.078987
Rotational constants in MHz :  4573.135887  2473.116216  2367.980829

                             ****ORCA TERMINATED NORMALLY****
TOTAL RUN TIME: 0 days 0 hours 0 minutes 18 seconds 797 msec
