                         Program Version 5.0.0 -  RELEASE  -
|  1> !CAM-B3LYP RIJCOSX def2-SVP def2/J TightSCF
|  2> *xyz 0 1
|  3> C         -2.16038       -1.36949       -3.46710
|  4> C         -3.03011       -1.91086       -4.54107
|  5> C         -2.04772        0.14658       -3.51177
|  6> H         -3.47744       -2.79151       -4.25710
|  7> H         -2.53801       -2.01786       -5.43808
|  8> H         -3.89159       -1.37604       -4.71437
|  9> H         -1.18444       -1.84400       -3.56639
| 10> H         -2.59819       -1.70838       -2.52848
| 11> H         -1.61525        0.44478       -4.44395
| 12> H         -1.42718        0.48198       -2.70720
| 13> H         -3.02145        0.57958       -3.41560
| 14> *
| 15> %MaxCore 64000
| 16>
| 17> %pal nprocs 4
| 18> end
| 19>
| 20> %scf
| 21>   MaxIter 150
| 22> end
| 23>
| 24>
| 25>                          ****END OF INPUT****

CARTESIAN COORDINATES (ANGSTROEM)
---------------------------------
  C     -2.160380   -1.369490   -3.467100
  C     -3.030110   -1.910860   -4.541070
  C     -2.047720    0.146580   -3.511770
  H     -3.477440   -2.791510   -4.257100
  H     -2.538010   -2.017860   -5.438080
  H     -3.891590   -1.376040   -4.714370
  H     -1.184440   -1.844000   -3.566390
  H     -2.598190   -1.708380   -2.528480
  H     -1.615250    0.444780   -4.443950
  H     -1.427180    0.481980   -2.707200
  H     -3.021450    0.579580   -3.415600

 Total Charge           Charge          ....    0
 Multiplicity           Mult            ....    1
 Number of Electrons    NEL             ....   26
 Basis Dimension        Dim             ....   82

ORBITAL ENERGIES
----------------

  NO   OCC          E(Eh)            E(eV)
   0   2.0000     -10.243542      -278.7410
   1   2.0000     -10.236533      -278.5502
   2   2.0000     -10.219595      -278.0893
   3   2.0000      -0.865429       -23.5495
   4   2.0000      -0.763720       -20.7819
   5   2.0000      -0.658038       -17.9061
   6   2.0000      -0.538720       -14.6593
   7   2.0000      -0.507553       -13.8112
   8   2.0000      -0.468111       -12.7379
   9   2.0000      -0.459221       -12.4960
  10   2.0000      -0.403427       -10.9778
  11   2.0000      -0.390952       -10.6384
  12   2.0000      -0.389948       -10.6110
  13   0.0000       0.104765         2.8508
  14   0.0000       0.152804         4.1580
  15   0.0000       0.156811         4.2671
  16   0.0000       0.157827         4.2947
  17   0.0000       0.190995         5.1972

MULLIKEN ATOMIC CHARGES
-----------------------
   0 C :   -0.051819
   1 C :    0.074823
   2 C :    0.026955
   3 H :   -0.023499
   4 H :   -0.007616
   5 H :   -0.028724
   6 H :    0.001426
   7 H :   -0.002723
   8 H :    0.003743
   9 H :    0.003913
  10 H :    0.003523
Sum of atomic charges:    0.0000000

LOEWDIN ATOMIC CHARGES
----------------------
   0 C :   -0.038517
   1 C :   -0.051154
   2 C :   -0.050690
   3 H :    0.017337
   4 H :    0.013646
   5 H :    0.013796
   6 H :    0.019841
   7 H :    0.018538
   8 H :    0.019059
   9 H :    0.019367
  10 H :    0.018776

  Mayer bond orders larger than 0.100000
B(  0-C ,  1-C ) :   1.1068 B(  0-C ,  2-C ) :   1.1026 B(  0-C ,  6-H ) :   0.9567
B(  0-C ,  7-H ) :   0.9584 B(  1-C ,  3-H ) :   0.9579 B(  1-C ,  4-H ) :   0.9708
B(  1-C ,  5-H ) :   0.9595 B(  2-C ,  8-H ) :   0.9759 B(  2-C ,  9-H ) :   0.9704
B(  2-C , 10-H ) :   0.9734

FINAL SINGLE POINT ENERGY      -118.952399849007

DIPOLE MOMENT
-------------
                                X             Y             Z
Electronic contribution:      0.31544      -0.12194       0.27020
Nuclear contribution   :     -0.34625       0.09603      -0.26933
                        -----------------------------------------
Total Dipole Moment    :     -0.03081      -0.02591       0.00086
                        -----------------------------------------
Magnitude (a.u.)       :      0.04026
Magnitude (Debye)      :      0.10234

Rotational constants in cm-1:     1.028617     0.291238     0.258956
Rotational constants in MHz : 30837.159054  8731.095379  7763.318586

                             ****ORCA TERMINATED NORMALLY****
TOTAL RUN TIME: 0 days 0 hours 0 minutes 11 seconds 635 msec
