                         Program Version 5.0.0 -  RELEASE  -
|  1> !CAM-B3LYP RIJCOSX def2-SVP def2/J TightSCF
|  2> *xyz 0 1
|  3> C         -7.33044       -2.67899       -3.20681
|  4> S         -6.01966       -2.92697       -4.41913
|  5> O         -5.64583       -1.58838       -4.91931
|  6> F         -4.88196       -3.50370       -3.66724
|  7> O         -6.54927       -3.80515       -5.42507
|  8> C         -7.46900       -1.24615       -2.71383
|  9> H         -7.11825       -3.37982       -2.39805
| 10> H         -8.24184       -3.00474       -3.70651
| 11> H         -7.67580       -0.60214       -3.54292
| 12> H         -6.55749       -0.94096       -2.24382
| 13> H         -8.27114       -1.18777       -2.00810
| 14> *
| 15> %MaxCore 64000
| 16>
| 17> %pal nprocs 4
| 18> end
| 19>
| 20> %scf
| 21>   MaxIter 150
| 22> end
| 23>
| 24>
| 25>                          ****END OF INPUT****

CARTESIAN COORDINATES (ANGSTROEM)
---------------------------------
  C     -7.330440   -2.678990   -3.206810
  S     -6.019660   -2.926970   -4.419130
  O     -5.645830   -1.588380   -4.919310
  F     -4.881960   -3.503700   -3.667240
  O     -6.549270   -3.805150   -5.425070
  C     -7.469000   -1.246150   -2.713830
  H     -7.118250   -3.379820   -2.398050
  H     -8.241840   -3.004740   -3.706510
  H     -7.675800   -0.602140   -3.542920
  H     -6.557490   -0.940960   -2.243820
  H     -8.271140   -1.187770   -2.008100

 Total Charge           Charge          ....    0
 Multiplicity           Mult            ....    1
 Number of Electrons    NEL             ....   58
 Basis Dimension        Dim             ....  113

ORBITAL ENERGIES
----------------

  NO   OCC          E(Eh)            E(eV)
   0   2.0000     -89.193009     -2427.0652
   1   2.0000     -24.856405      -676.3772
   2   2.0000     -19.210731      -522.7506
   3   2.0000     -19.199297      -522.4394
   4   2.0000     -10.319392      -280.8049
   5   2.0000     -10.278778      -279.6998
   6   2.0000      -8.255502      -224.6436
   7   2.0000      -6.228842      -169.4954
   8   2.0000      -6.222461      -169.3218
   9   2.0000      -6.221444      -169.2941
  10   2.0000      -1.418172       -38.5904
  11   2.0000      -1.183258       -32.1981
  12   2.0000      -1.078479       -29.3469
  13   2.0000      -0.902636       -24.5620
  14   2.0000      -0.796001       -21.6603
  15   2.0000      -0.741273       -20.1711
  16   2.0000      -0.648580       -17.6488
  17   2.0000      -0.631300       -17.1785
  18   2.0000      -0.614871       -16.7315
  19   2.0000      -0.563047       -15.3213
  20   2.0000      -0.547142       -14.8885
  21   2.0000      -0.516062       -14.0428
  22   2.0000      -0.491771       -13.3818
  23   2.0000      -0.470103       -12.7922
  24   2.0000      -0.462186       -12.5767
  25   2.0000      -0.443032       -12.0555
  26   2.0000      -0.390123       -10.6158
  27   2.0000      -0.382902       -10.4193
  28   2.0000      -0.366265        -9.9666
  29   0.0000       0.079166         2.1542
  30   0.0000       0.089140         2.4256
  31   0.0000       0.121732         3.3125
  32   0.0000       0.136177         3.7056
  33   0.0000       0.148050         4.0286

MULLIKEN ATOMIC CHARGES
-----------------------
   0 C :   -0.142007
   1 S :    0.962744
   2 O :   -0.470977
   3 F :   -0.210870
   4 O :   -0.433074
   5 C :    0.037022
   6 H :    0.060811
   7 H :    0.084214
   8 H :    0.050997
   9 H :    0.031593
  10 H :    0.029547
Sum of atomic charges:   -0.0000000

LOEWDIN ATOMIC CHARGES
----------------------
   0 C :   -0.149320
   1 S :    1.182811
   2 O :   -0.520431
   3 F :   -0.160351
   4 O :   -0.482508
   5 C :   -0.052085
   6 H :    0.033628
   7 H :    0.048118
   8 H :    0.036170
   9 H :    0.030101
  10 H :    0.033868

  Mayer bond orders larger than 0.100000
B(  0-C ,  1-S ) :   0.9090 B(  0-C ,  5-C ) :   1.0749 B(  0-C ,  6-H ) :   0.9374
B(  0-C ,  7-H ) :   0.9400 B(  1-S ,  2-O ) :   1.7637 B(  1-S ,  3-F ) :   0.9833
B(  1-S ,  4-O ) :   1.8035 B(  5-C ,  8-H ) :   0.9677 B(  5-C ,  9-H ) :   0.9719
B(  5-C , 10-H ) :   0.9595

FINAL SINGLE POINT ENERGY      -727.125098185146

DIPOLE MOMENT
-------------
                                X             Y             Z
Electronic contribution:      7.00375      -5.00794      -4.28833
Nuclear contribution   :     -7.60849       4.87515       5.84588
                        -----------------------------------------
Total Dipole Moment    :     -0.60474      -0.13279       1.55755
                        -----------------------------------------
Magnitude (a.u.)       :      1.67609
Magnitude (Debye)      :      4.26029

Rotational constants in cm-1:     0.153704     0.080342     0.079431
Rotational constants in MHz :  4607.928650  2408.599360  2381.267225

                             ****ORCA TERMINATED NORMALLY****
TOTAL RUN TIME: 0 days 0 hours 0 minutes 18 seconds 791 msec
