                         Program Version 5.0.0 -  RELEASE  -
|  1> !CAM-B3LYP RIJCOSX def2-SVP def2/J TightSCF
|  2> *xyz 0 1
|  3> C         -7.33044       -2.67899       -3.20681
|  4> S         -6.01966       -2.92697       -4.41913
|  5> O         -5.64583       -1.58838       -4.91931
|  6> O         -4.88196       -3.50370       -3.66724
|  7> F         -6.54927       -3.80515       -5.42507
|  8> C         -7.46900       -1.24615       -2.71383
|  9> H         -7.11825       -3.37982       -2.39805
| 10> H         -8.24184       -3.00474       -3.70651
| 11> H         -7.67580       -0.60214       -3.54292
| 12> H         -6.55749       -0.94096       -2.24382
| 13> H         -8.27114       -1.18777       -2.00810
| 14> *
| 15> %MaxCore 64000
| 16>
| 17> %pal nprocs 4
| 18> end
| 19>
| 20> %scf
| 21>   MaxIter 150
| 22> end
| 23>
| 24>
| 25>                          ****END OF INPUT****

CARTESIAN COORDINATES (ANGSTROEM)
---------------------------------
  C     -7.330440   -2.678990   -3.206810
  S     -6.019660   -2.926970   -4.419130
  O     -5.645830   -1.588380   -4.919310
  O     -4.881960   -3.503700   -3.667240
  F     -6.549270   -3.805150   -5.425070
  C     -7.469000   -1.246150   -2.713830
  H     -7.118250   -3.379820   -2.398050
  H     -8.241840   -3.004740   -3.706510
  H     -7.675800   -0.602140   -3.542920
  H     -6.557490   -0.940960   -2.243820
  H     -8.271140   -1.187770   -2.008100

 Total Charge           Charge          ....    0
 Multiplicity           Mult            ....    1
 Number of Electrons    NEL             ....   58
 Basis Dimension        Dim             ....  113

ORBITAL ENERGIES
----------------

  NO   OCC          E(Eh)            E(eV)
   0   2.0000     -89.194067     -2427.0940
   1   2.0000     -24.879088      -676.9944
   2   2.0000     -19.198902      -522.4287
   3   2.0000     -19.194307      -522.3037
   4   2.0000     -10.320045      -280.8227
   5   2.0000     -10.278714      -279.6980
   6   2.0000      -8.256806      -224.6791
   7   2.0000      -6.230353      -169.5365
   8   2.0000      -6.223516      -169.3505
   9   2.0000      -6.222487      -169.3225
  10   2.0000      -1.456508       -39.6336
  11   2.0000      -1.166721       -31.7481
  12   2.0000      -1.059624       -28.8338
  13   2.0000      -0.902655       -24.5625
  14   2.0000      -0.809746       -22.0343
  15   2.0000      -0.750139       -20.4123
  16   2.0000      -0.662419       -18.0253
  17   2.0000      -0.658811       -17.9272
  18   2.0000      -0.620673       -16.8894
  19   2.0000      -0.565738       -15.3945
  20   2.0000      -0.544137       -14.8067
  21   2.0000      -0.505566       -13.7571
  22   2.0000      -0.487515       -13.2660
  23   2.0000      -0.472422       -12.8553
  24   2.0000      -0.455168       -12.3857
  25   2.0000      -0.435826       -11.8594
  26   2.0000      -0.380922       -10.3654
  27   2.0000      -0.373286       -10.1576
  28   2.0000      -0.351436        -9.5631
  29   0.0000       0.082003         2.2314
  30   0.0000       0.087398         2.3782
  31   0.0000       0.119323         3.2470
  32   0.0000       0.138594         3.7713
  33   0.0000       0.143226         3.8974

MULLIKEN ATOMIC CHARGES
-----------------------
   0 C :   -0.135605
   1 S :    0.953593
   2 O :   -0.465994
   3 O :   -0.477593
   4 F :   -0.165731
   5 C :    0.039685
   6 H :    0.079944
   7 H :    0.050736
   8 H :    0.041293
   9 H :    0.048667
  10 H :    0.031004
Sum of atomic charges:    0.0000000

LOEWDIN ATOMIC CHARGES
----------------------
   0 C :   -0.148464
   1 S :    1.176186
   2 O :   -0.516903
   3 O :   -0.527258
   4 F :   -0.114948
   5 C :   -0.046699
   6 H :    0.044326
   7 H :    0.028785
   8 H :    0.033185
   9 H :    0.037048
  10 H :    0.034742

  Mayer bond orders larger than 0.100000
B(  0-C ,  1-S ) :   0.9105 B(  0-C ,  5-C ) :   1.0840 B(  0-C ,  6-H ) :   0.9364
B(  0-C ,  7-H ) :   0.9359 B(  1-S ,  2-O ) :   1.7584 B(  1-S ,  3-O ) :   1.7456
B(  1-S ,  4-F ) :   1.0352 B(  5-C ,  8-H ) :   0.9661 B(  5-C ,  9-H ) :   0.9715
B(  5-C , 10-H ) :   0.9602

FINAL SINGLE POINT ENERGY      -727.104996017385

DIPOLE MOMENT
-------------
                                X             Y             Z
Electronic contribution:      4.14553      -5.50618      -7.30599
Nuclear contribution   :     -5.87110       5.18927       7.67759
                        -----------------------------------------
Total Dipole Moment    :     -1.72557      -0.31690       0.37160
                        -----------------------------------------
Magnitude (a.u.)       :      1.79335
Magnitude (Debye)      :      4.55834

Rotational constants in cm-1:     0.155988     0.080452     0.078187
Rotational constants in MHz :  4676.405251  2411.902056  2343.983816

                             ****ORCA TERMINATED NORMALLY****
TOTAL RUN TIME: 0 days 0 hours 0 minutes 19 seconds 984 msec
