                         Program Version 5.0.0 -  RELEASE  -
|  1> !CAM-B3LYP RIJCOSX def2-TZVP def2/J TightSCF xyzfile
|  2>
|  3> *xyzfile 0 1 D1.xyz
|  4>
|  5> %MaxCore 64000
|  6>
|  7> %pal nprocs 18
|  8> end
|  9>
| 10> %scf
| 11>   MaxIter 150
| 12> end
| 13>
| 14>
| 15>                          ****END OF INPUT****

CARTESIAN COORDINATES (ANGSTROEM)
---------------------------------
  C     -2.160376   -1.369486   -3.467104
  C     -3.030108   -1.910857   -4.541074
  C     -2.047717    0.146583   -3.511774
  C     -7.330440   -2.678991   -3.206811
  S     -6.019659   -2.926965   -4.419128
  H     -3.477443   -2.791513   -4.257096
  H     -2.538013   -2.017860   -5.438075
  H     -3.891589   -1.376039   -4.714365
  F     -5.645830   -1.588384   -4.919307
  O     -4.881961   -3.503697   -3.667235
  H     -1.184438   -1.843997   -3.566393
  H     -2.598195   -1.708376   -2.528477
  O     -6.549267   -3.805150   -5.425071
  C     -3.328755    0.875037   -3.103669
  H     -1.740034    0.452343   -4.517126
  H     -1.232611    0.434938   -2.842208
  C     -3.628487    0.771601   -1.609363
  H     -4.175106    0.490791   -3.682203
  H     -3.237812    1.928663   -3.381480
  C     -4.975718    1.361432   -1.190644
  H     -2.830700    1.276234   -1.054766
  H     -3.594312   -0.275838   -1.294603
  C     -6.184720    0.784347   -1.926464
  H     -4.956292    2.445725   -1.342200
  H     -5.097256    1.205252   -0.114136
  C     -6.286921   -0.735882   -1.893531
  H     -6.163994    1.100199   -2.974250
  H     -7.094530    1.223459   -1.504509
  C     -7.468999   -1.246153   -2.713833
  H     -6.360641   -1.090347   -0.859176
  H     -5.369848   -1.171853   -2.295982
  H     -7.601914   -0.601349   -3.585329
  H     -8.389791   -1.173436   -2.126922
  H     -7.118254   -3.379818   -2.398055
  H     -8.241838   -3.004745   -3.706513

 Total Charge           Charge          ....    0
 Multiplicity           Mult            ....    1
 Number of Electrons    NEL             ....  122
 Basis Dimension        Dim             ....  566

ORBITAL ENERGIES
----------------

  NO   OCC          E(Eh)            E(eV)
   0   2.0000     -89.182569     -2426.7811
   1   2.0000     -24.868043      -676.6938
   2   2.0000     -19.219445      -522.9877
   3   2.0000     -19.203934      -522.5656
   4   2.0000     -10.308773      -280.5160
   5   2.0000     -10.277177      -279.6562
   6   2.0000     -10.255423      -279.0643
   7   2.0000     -10.247543      -278.8498
   8   2.0000     -10.240570      -278.6601
   9   2.0000     -10.233484      -278.4672
  10   2.0000     -10.231017      -278.4001
  11   2.0000     -10.223494      -278.1954
  12   2.0000     -10.213221      -277.9159
  13   2.0000     -10.165279      -276.6113
  14   2.0000      -8.226675      -223.8592
  15   2.0000      -6.194656      -168.5652
  16   2.0000      -6.187821      -168.3792
  17   2.0000      -6.187735      -168.3768
  18   2.0000      -1.450021       -39.4571
  19   2.0000      -1.198539       -32.6139
  20   2.0000      -1.100678       -29.9510
  21   2.0000      -0.932627       -25.3781
  22   2.0000      -0.900593       -24.5064
  23   2.0000      -0.871399       -23.7120
  24   2.0000      -0.843104       -22.9420
  25   2.0000      -0.802410       -21.8347
  26   2.0000      -0.787353       -21.4250
  27   2.0000      -0.751020       -20.4363
  28   2.0000      -0.716387       -19.4939
  29   2.0000      -0.699656       -19.0386
  30   2.0000      -0.669575       -18.2201
  31   2.0000      -0.660338       -17.9687
  32   2.0000      -0.644391       -17.5348
  33   2.0000      -0.626595       -17.0505
  34   2.0000      -0.621358       -16.9080
  35   2.0000      -0.570896       -15.5349
  36   2.0000      -0.563375       -15.3302
  37   2.0000      -0.549615       -14.9558
  38   2.0000      -0.540635       -14.7114
  39   2.0000      -0.534438       -14.5428
  40   2.0000      -0.520897       -14.1743
  41   2.0000      -0.507785       -13.8175
  42   2.0000      -0.502514       -13.6741
  43   2.0000      -0.496679       -13.5153
  44   2.0000      -0.480463       -13.0741
  45   2.0000      -0.465114       -12.6564
  46   2.0000      -0.458887       -12.4870
  47   2.0000      -0.457172       -12.4403
  48   2.0000      -0.442790       -12.0489
  49   2.0000      -0.433506       -11.7963
  50   2.0000      -0.422623       -11.5001
  51   2.0000      -0.419463       -11.4142
  52   2.0000      -0.406009       -11.0481
  53   2.0000      -0.401027       -10.9125
  54   2.0000      -0.395159       -10.7528
  55   2.0000      -0.388582       -10.5739
  56   2.0000      -0.382154       -10.3989
  57   2.0000      -0.378641       -10.3033
  58   2.0000      -0.367760       -10.0073
  59   2.0000      -0.364921        -9.9300
  60   2.0000      -0.341076        -9.2812
  61   0.0000       0.041301         1.1238
  62   0.0000       0.070607         1.9213
  63   0.0000       0.078409         2.1336
  64   0.0000       0.083605         2.2750
  65   0.0000       0.090946         2.4748

MULLIKEN ATOMIC CHARGES
-----------------------
   0 C :   -0.187961
   1 C :   -0.433646
   2 C :   -0.134491
   3 C :   -0.249470
   4 S :    0.905469
   5 H :    0.184042
   6 H :    0.110126
   7 H :    0.086041
   8 F :   -0.131185
   9 O :   -0.455225
  10 H :    0.095914
  11 H :    0.098636
  12 O :   -0.411553
  13 C :   -0.235110
  14 H :    0.096307
  15 H :    0.089537
  16 C :   -0.244042
  17 H :    0.093576
  18 H :    0.103181
  19 C :   -0.165205
  20 H :    0.108744
  21 H :    0.118421
  22 C :   -0.229711
  23 H :    0.105101
  24 H :    0.105090
  25 C :   -0.276287
  26 H :    0.119958
  27 H :    0.110189
  28 C :   -0.237394
  29 H :    0.114085
  30 H :    0.141987
  31 H :    0.135992
  32 H :    0.129386
  33 H :    0.163988
  34 H :    0.175512
Sum of atomic charges:    0.0000000

LOEWDIN ATOMIC CHARGES
----------------------
   0 C :   -0.298286
   1 C :   -0.340543
   2 C :   -0.266513
   3 C :   -0.352264
   4 S :    0.586931
   5 H :    0.103184
   6 H :    0.102886
   7 H :    0.091849
   8 F :    0.073265
   9 O :   -0.285206
  10 H :    0.134195
  11 H :    0.132014
  12 O :   -0.258223
  13 C :   -0.265786
  14 H :    0.135006
  15 H :    0.133597
  16 C :   -0.269466
  17 H :    0.129208
  18 H :    0.134600
  19 C :   -0.267198
  20 H :    0.136784
  21 H :    0.133976
  22 C :   -0.271808
  23 H :    0.136862
  24 H :    0.135936
  25 C :   -0.269715
  26 H :    0.135123
  27 H :    0.136729
  28 C :   -0.288882
  29 H :    0.139200
  30 H :    0.138606
  31 H :    0.141265
  32 H :    0.145750
  33 H :    0.151650
  34 H :    0.145275

  Mayer bond orders larger than 0.100000
B(  0-C ,  1-C ) :   0.9061 B(  0-C ,  2-C ) :   0.9361 B(  0-C , 10-H ) :   0.9833
B(  0-C , 11-H ) :   1.0068 B(  1-C ,  5-H ) :   0.9663 B(  1-C ,  6-H ) :   0.9705
B(  1-C ,  7-H ) :   0.9967 B(  2-C , 13-C ) :   0.9650 B(  2-C , 14-H ) :   0.9770
B(  2-C , 15-H ) :   0.9803 B(  3-C ,  4-S ) :   0.9097 B(  3-C , 28-C ) :   0.9457
B(  3-C , 33-H ) :   0.9460 B(  3-C , 34-H ) :   0.9586 B(  4-S ,  8-F ) :   1.0762
B(  4-S ,  9-O ) :   1.7939 B(  4-S , 12-O ) :   1.9892 B( 13-C , 16-C ) :   0.9287
B( 13-C , 17-H ) :   0.9896 B( 13-C , 18-H ) :   0.9770 B( 16-C , 19-C ) :   0.9430
B( 16-C , 20-H ) :   0.9760 B( 16-C , 21-H ) :   0.9892 B( 19-C , 22-C ) :   0.9547
B( 19-C , 23-H ) :   0.9847 B( 19-C , 24-H ) :   0.9859 B( 22-C , 25-C ) :   0.9111
B( 22-C , 26-H ) :   0.9861 B( 22-C , 27-H ) :   0.9797 B( 25-C , 28-C ) :   0.8969
B( 25-C , 29-H ) :   0.9655 B( 25-C , 30-H ) :   1.0001 B( 28-C , 31-H ) :   0.9886
B( 28-C , 32-H ) :   0.9625

FINAL SINGLE POINT ENERGY     -1042.100237707498

DIPOLE MOMENT
-------------
                                X             Y             Z
Electronic contribution:    -10.89044     -16.18800     -13.17068
Nuclear contribution   :      9.63012      17.20461      14.03552
                        -----------------------------------------
Total Dipole Moment    :     -1.26032       1.01660       0.86484
                        -----------------------------------------
Magnitude (a.u.)       :      1.83571
Magnitude (Debye)      :      4.66601

Rotational constants in cm-1:     0.025899     0.015189     0.010690
Rotational constants in MHz :   776.424978   455.369614   320.488876

                             ****ORCA TERMINATED NORMALLY****
TOTAL RUN TIME: 0 days 0 hours 1 minutes 59 seconds 799 msec
