                         Program Version 5.0.0 -  RELEASE  -
|  1> !CAM-B3LYP RIJCOSX def2-TZVP def2/J TightSCF xyzfile
|  2>
|  3> *xyzfile 0 1 D3.xyz
|  4>
|  5> %MaxCore 64000
|  6>
|  7> %pal nprocs 18
|  8> end
|  9>
| 10> %scf
| 11>   MaxIter 150
| 12> end
| 13>
| 14>
| 15>                          ****END OF INPUT****

CARTESIAN COORDINATES (ANGSTROEM)
---------------------------------
  C     -2.160376   -1.369486   -3.467104
  C     -3.030108   -1.910857   -4.541074
  C     -2.047717    0.146583   -3.511774
  C     -7.330440   -2.678991   -3.206811
  S     -6.019659   -2.926965   -4.419128
  H     -3.477443   -2.791513   -4.257096
  H     -2.538013   -2.017860   -5.438075
  H     -3.891589   -1.376039   -4.714365
  O     -5.645830   -1.588384   -4.919307
  O     -4.881961   -3.503697   -3.667235
  H     -1.184438   -1.843997   -3.566393
  H     -2.598195   -1.708376   -2.528477
  F     -6.549267   -3.805150   -5.425071
  C     -3.328755    0.875037   -3.103669
  H     -1.740034    0.452343   -4.517126
  H     -1.232611    0.434938   -2.842208
  C     -3.628487    0.771601   -1.609363
  H     -4.175106    0.490791   -3.682203
  H     -3.237812    1.928663   -3.381480
  C     -4.975718    1.361432   -1.190644
  H     -2.830700    1.276234   -1.054766
  H     -3.594312   -0.275838   -1.294603
  C     -6.184720    0.784347   -1.926464
  H     -4.956292    2.445725   -1.342200
  H     -5.097256    1.205252   -0.114136
  C     -6.286921   -0.735882   -1.893531
  H     -6.163994    1.100199   -2.974250
  H     -7.094530    1.223459   -1.504509
  C     -7.468999   -1.246153   -2.713833
  H     -6.360641   -1.090347   -0.859176
  H     -5.369848   -1.171853   -2.295982
  H     -7.601914   -0.601349   -3.585329
  H     -8.389791   -1.173436   -2.126922
  H     -7.118254   -3.379818   -2.398055
  H     -8.241838   -3.004745   -3.706513

 Total Charge           Charge          ....    0
 Multiplicity           Mult            ....    1
 Number of Electrons    NEL             ....  122
 Basis Dimension        Dim             ....  566

ORBITAL ENERGIES
----------------

  NO   OCC          E(Eh)            E(eV)
   0   2.0000     -89.189023     -2426.9567
   1   2.0000     -24.890383      -677.3018
   2   2.0000     -19.212222      -522.7911
   3   2.0000     -19.209080      -522.7056
   4   2.0000     -10.311584      -280.5925
   5   2.0000     -10.270573      -279.4765
   6   2.0000     -10.244169      -278.7580
   7   2.0000     -10.236331      -278.5447
   8   2.0000     -10.230573      -278.3881
   9   2.0000     -10.222317      -278.1634
  10   2.0000     -10.216318      -278.0001
  11   2.0000     -10.210582      -277.8440
  12   2.0000     -10.198995      -277.5288
  13   2.0000     -10.142955      -276.0038
  14   2.0000      -8.233033      -224.0322
  15   2.0000      -6.200932      -168.7359
  16   2.0000      -6.194270      -168.5547
  17   2.0000      -6.194021      -168.5479
  18   2.0000      -1.482159       -40.3316
  19   2.0000      -1.191537       -32.4234
  20   2.0000      -1.091814       -29.7098
  21   2.0000      -0.926416       -25.2090
  22   2.0000      -0.891223       -24.2514
  23   2.0000      -0.861310       -23.4374
  24   2.0000      -0.840200       -22.8630
  25   2.0000      -0.805342       -21.9145
  26   2.0000      -0.779827       -21.2202
  27   2.0000      -0.742975       -20.2174
  28   2.0000      -0.707572       -19.2540
  29   2.0000      -0.687329       -18.7032
  30   2.0000      -0.677697       -18.4411
  31   2.0000      -0.668804       -18.1991
  32   2.0000      -0.641604       -17.4589
  33   2.0000      -0.635304       -17.2875
  34   2.0000      -0.608158       -16.5488
  35   2.0000      -0.572646       -15.5825
  36   2.0000      -0.560976       -15.2649
  37   2.0000      -0.544097       -14.8056
  38   2.0000      -0.539744       -14.6872
  39   2.0000      -0.530308       -14.4304
  40   2.0000      -0.516212       -14.0469
  41   2.0000      -0.500469       -13.6184
  42   2.0000      -0.489454       -13.3187
  43   2.0000      -0.485360       -13.2073
  44   2.0000      -0.473119       -12.8742
  45   2.0000      -0.454803       -12.3758
  46   2.0000      -0.450692       -12.2639
  47   2.0000      -0.444055       -12.0834
  48   2.0000      -0.431308       -11.7365
  49   2.0000      -0.420204       -11.4343
  50   2.0000      -0.413742       -11.2585
  51   2.0000      -0.403486       -10.9794
  52   2.0000      -0.399569       -10.8728
  53   2.0000      -0.396452       -10.7880
  54   2.0000      -0.387846       -10.5538
  55   2.0000      -0.377520       -10.2728
  56   2.0000      -0.371433       -10.1072
  57   2.0000      -0.366939        -9.9849
  58   2.0000      -0.351867        -9.5748
  59   2.0000      -0.343100        -9.3362
  60   2.0000      -0.328584        -8.9412
  61   0.0000       0.054020         1.4700
  62   0.0000       0.062149         1.6911
  63   0.0000       0.081143         2.2080
  64   0.0000       0.088148         2.3986
  65   0.0000       0.089862         2.4453

MULLIKEN ATOMIC CHARGES
-----------------------
   0 C :   -0.187626
   1 C :   -0.421799
   2 C :   -0.128945
   3 C :   -0.274141
   4 S :    0.909417
   5 H :    0.148382
   6 H :    0.094237
   7 H :    0.143085
   8 O :   -0.451357
   9 O :   -0.446913
  10 H :    0.086058
  11 H :    0.090439
  12 F :   -0.100528
  13 C :   -0.245310
  14 H :    0.091592
  15 H :    0.082602
  16 C :   -0.246056
  17 H :    0.128601
  18 H :    0.095250
  19 C :   -0.160181
  20 H :    0.103424
  21 H :    0.114655
  22 C :   -0.241982
  23 H :    0.101293
  24 H :    0.099952
  25 C :   -0.259698
  26 H :    0.129458
  27 H :    0.102416
  28 C :   -0.187654
  29 H :    0.105687
  30 H :    0.146538
  31 H :    0.135770
  32 H :    0.125501
  33 H :    0.162319
  34 H :    0.155515
Sum of atomic charges:    0.0000000

LOEWDIN ATOMIC CHARGES
----------------------
   0 C :   -0.302362
   1 C :   -0.341046
   2 C :   -0.267232
   3 C :   -0.362465
   4 S :    0.584035
   5 H :    0.099491
   6 H :    0.098425
   7 H :    0.101641
   8 O :   -0.275896
   9 O :   -0.282754
  10 H :    0.130505
  11 H :    0.129707
  12 F :    0.105902
  13 C :   -0.265340
  14 H :    0.134213
  15 H :    0.131060
  16 C :   -0.270233
  17 H :    0.137336
  18 H :    0.132637
  19 C :   -0.268095
  20 H :    0.134947
  21 H :    0.133063
  22 C :   -0.270691
  23 H :    0.135888
  24 H :    0.134159
  25 C :   -0.266522
  26 H :    0.138851
  27 H :    0.134402
  28 C :   -0.279064
  29 H :    0.135599
  30 H :    0.143004
  31 H :    0.147547
  32 H :    0.144883
  33 H :    0.147934
  34 H :    0.136469

  Mayer bond orders larger than 0.100000
B(  0-C ,  1-C ) :   0.9068 B(  0-C ,  2-C ) :   0.9424 B(  0-C , 10-H ) :   0.9829
B(  0-C , 11-H ) :   1.0063 B(  1-C ,  5-H ) :   0.9720 B(  1-C ,  6-H ) :   0.9756
B(  1-C ,  7-H ) :   0.9868 B(  2-C , 13-C ) :   0.9662 B(  2-C , 14-H ) :   0.9757
B(  2-C , 15-H ) :   0.9812 B(  3-C ,  4-S ) :   0.9096 B(  3-C , 28-C ) :   0.9411
B(  3-C , 33-H ) :   0.9437 B(  3-C , 34-H ) :   0.9557 B(  4-S ,  8-O ) :   1.8252
B(  4-S ,  9-O ) :   1.8231 B(  4-S , 12-F ) :   1.1563 B( 13-C , 16-C ) :   0.9317
B( 13-C , 17-H ) :   0.9853 B( 13-C , 18-H ) :   0.9761 B( 16-C , 19-C ) :   0.9447
B( 16-C , 20-H ) :   0.9767 B( 16-C , 21-H ) :   0.9888 B( 19-C , 22-C ) :   0.9554
B( 19-C , 23-H ) :   0.9842 B( 19-C , 24-H ) :   0.9861 B( 22-C , 25-C ) :   0.9267
B( 22-C , 26-H ) :   0.9857 B( 22-C , 27-H ) :   0.9792 B( 25-C , 28-C ) :   0.9310
B( 25-C , 29-H ) :   0.9672 B( 25-C , 30-H ) :   0.9874 B( 28-C , 31-H ) :   0.9748
B( 28-C , 32-H ) :   0.9600

FINAL SINGLE POINT ENERGY     -1042.084811956252

DIPOLE MOMENT
-------------
                                X             Y             Z
Electronic contribution:    -12.69649     -20.30015     -14.31054
Nuclear contribution   :     10.70731      19.84772      14.63855
                        -----------------------------------------
Total Dipole Moment    :     -1.98917      -0.45244       0.32801
                        -----------------------------------------
Magnitude (a.u.)       :      2.06618
Magnitude (Debye)      :      5.25182

Rotational constants in cm-1:     0.026014     0.014812     0.010477
Rotational constants in MHz :   779.874765   444.063394   314.081855

                             ****ORCA TERMINATED NORMALLY****
TOTAL RUN TIME: 0 days 0 hours 2 minutes 13 seconds 710 msec
