                         Program Version 5.0.0 -  RELEASE  -
|  1> !BLYP D3BJ RIJCOSX def2-SVPD def2/J TightSCF
|  2> *xyz -1 1
|  3> C         -5.57236       -5.80780       -0.81644
|  4> S         -6.90318       -4.61903       -0.52846
|  5> O         -8.11485       -5.25093       -0.95701
|  6> O         -6.53271       -3.42684       -1.31485
|  7> O         -6.86563       -4.29496        0.91412
|  8> C         -3.82708       -4.66110        0.78617
|  9> C         -4.45780       -5.94187        0.22919
| 10> H         -5.17735       -5.54257       -1.79771
| 11> H         -6.07420       -6.76889       -0.92127
| 12> H         -3.68106       -6.56224       -0.22988
| 13> H         -4.84394       -6.51273        1.07581
| 14> H         -3.43706       -4.07576       -0.02016
| 15> H         -3.03403       -4.91680        1.45744
| 16> H         -4.56975       -4.09647        1.31013
| 17> *
| 18> %MaxCore 64000
| 19>
| 20> %pal nprocs 4
| 21> end
| 22>
| 23> %scf
| 24>   MaxIter 150
| 25> end
| 26>
| 27>                          ****END OF INPUT****

CARTESIAN COORDINATES (ANGSTROEM)
---------------------------------
  C     -5.572360   -5.807800   -0.816440
  S     -6.903180   -4.619030   -0.528460
  O     -8.114850   -5.250930   -0.957010
  O     -6.532710   -3.426840   -1.314850
  O     -6.865630   -4.294960    0.914120
  C     -3.827080   -4.661100    0.786170
  C     -4.457800   -5.941870    0.229190
  H     -5.177350   -5.542570   -1.797710
  H     -6.074200   -6.768890   -0.921270
  H     -3.681060   -6.562240   -0.229880
  H     -4.843940   -6.512730    1.075810
  H     -3.437060   -4.075760   -0.020160
  H     -3.034030   -4.916800    1.457440
  H     -4.569750   -4.096470    1.310130

 Total Charge           Charge          ....   -1
 Multiplicity           Mult            ....    1
 Number of Electrons    NEL             ....   66
 Basis Dimension        Dim             ....  212

ORBITAL ENERGIES
----------------

  NO   OCC          E(Eh)            E(eV)
   0   2.0000     -88.130637     -2398.1566
   1   2.0000     -18.576866      -505.5022
   2   2.0000     -18.564534      -505.1666
   3   2.0000     -18.563210      -505.1306
   4   2.0000      -9.795636      -266.5528
   5   2.0000      -9.785133      -266.2670
   6   2.0000      -9.773268      -265.9441
   7   2.0000      -7.667124      -208.6330
   8   2.0000      -5.702226      -155.1655
   9   2.0000      -5.702131      -155.1629
  10   2.0000      -5.701444      -155.1442
  11   2.0000      -0.834444       -22.7064
  12   2.0000      -0.699665       -19.0389
  13   2.0000      -0.677056       -18.4236
  14   2.0000      -0.570186       -15.5155
  15   2.0000      -0.489992       -13.3334
  16   2.0000      -0.403819       -10.9885
  17   2.0000      -0.317595        -8.6422
  18   2.0000      -0.277600        -7.5539
  19   2.0000      -0.264208        -7.1895
  20   2.0000      -0.240716        -6.5502
  21   2.0000      -0.226715        -6.1692
  22   2.0000      -0.207832        -5.6554
  23   2.0000      -0.198707        -5.4071
  24   2.0000      -0.177226        -4.8226
  25   2.0000      -0.173168        -4.7121
  26   2.0000      -0.160140        -4.3576
  27   2.0000      -0.101382        -2.7587
  28   2.0000      -0.098076        -2.6688
  29   2.0000      -0.071279        -1.9396
  30   2.0000      -0.060132        -1.6363
  31   2.0000      -0.053536        -1.4568
  32   2.0000      -0.017806        -0.4845
  33   0.0000       0.117860         3.2071
  34   0.0000       0.145551         3.9606
  35   0.0000       0.153197         4.1687
  36   0.0000       0.160945         4.3795
  37   0.0000       0.181534         4.9398

MULLIKEN ATOMIC CHARGES
-----------------------
   0 C :    0.323995
   1 S :    1.138184
   2 O :   -0.731342
   3 O :   -0.746259
   4 O :   -0.792883
   5 C :    1.206244
   6 C :   -0.010486
   7 H :   -0.125103
   8 H :   -0.179107
   9 H :   -0.264772
  10 H :   -0.169332
  11 H :   -0.181667
  12 H :   -0.194060
  13 H :   -0.273411
Sum of atomic charges:   -1.0000000

LOEWDIN ATOMIC CHARGES
----------------------
   0 C :   -0.075603
   1 S :    0.830130
   2 O :   -0.550360
   3 O :   -0.575726
   4 O :   -0.560883
   5 C :    0.134609
   6 C :   -0.081424
   7 H :   -0.005932
   8 H :   -0.012370
   9 H :   -0.001288
  10 H :    0.009914
  11 H :   -0.024087
  12 H :   -0.040420
  13 H :   -0.046558

  Mayer bond orders larger than 0.100000
B(  0-C ,  1-S ) :   0.8379 B(  0-C ,  2-O ) :   0.1049 B(  0-C ,  4-O ) :   0.1016
B(  0-C ,  6-C ) :   1.2775 B(  0-C ,  7-H ) :   0.8274 B(  0-C ,  8-H ) :   0.8073
B(  0-C ,  9-H ) :   0.2254 B(  0-C , 10-H ) :   0.1802 B(  1-S ,  2-O ) :   1.4022
B(  1-S ,  3-O ) :   1.2919 B(  1-S ,  4-O ) :   1.2749 B(  5-C ,  6-C ) :   1.2644
B(  5-C , 10-H ) :   0.1129 B(  5-C , 11-H ) :   0.6471 B(  5-C , 12-H ) :   0.5936
B(  5-C , 13-H ) :   0.7014 B(  6-C ,  7-H ) :   0.1737 B(  6-C ,  8-H ) :   0.1880
B(  6-C ,  9-H ) :   0.7252 B(  6-C , 10-H ) :   0.8039 B(  6-C , 11-H ) :   0.2760
B(  6-C , 12-H ) :   0.2948 B(  6-C , 13-H ) :   0.2774 B( 11-H , 13-H ) :   0.1075

Dispersion correction           -0.027620217
FINAL SINGLE POINT ENERGY      -741.973788682478

DIPOLE MOMENT
-------------
                                X             Y             Z
Electronic contribution:     -9.89719       3.25554      -2.57263
Nuclear contribution   :     11.75544      -4.53524       2.70749
                        -----------------------------------------
Total Dipole Moment    :      1.85825      -1.27970       0.13486
                        -----------------------------------------
Magnitude (a.u.)       :      2.26029
Magnitude (Debye)      :      5.74520

Rotational constants in cm-1:     0.134586     0.054907     0.051455
Rotational constants in MHz :  4034.798577  1646.069534  1542.570153

                             ****ORCA TERMINATED NORMALLY****
TOTAL RUN TIME: 0 days 0 hours 0 minutes 8 seconds 557 msec
