                         Program Version 5.0.0 -  RELEASE  -
|  1> !BLYP D3BJ RIJCOSX def2-SVPD def2/J TightSCF
|  2> *xyz 1 1
|  3> C         -4.38262       -1.67089        1.21620
|  4> N         -5.76354       -1.91517        0.70501
|  5> C         -3.28173       -2.19127        0.29436
|  6> H         -5.84081       -2.11520       -0.30065
|  7> H         -6.40882       -1.14866        0.93612
|  8> H         -6.17478       -2.79061        1.05143
|  9> H         -4.32862       -2.13922        2.19810
| 10> H         -4.26158       -0.59740        1.35725
| 11> C         -3.47464       -3.60590       -0.25961
| 12> H         -2.35455       -2.12760        0.87143
| 13> H         -3.16661       -1.49969       -0.54504
| 14> H         -2.64612       -3.85908       -0.88759
| 15> H         -4.37934       -3.64545       -0.82956
| 16> H         -3.53324       -4.30157        0.55126
| 17> *
| 18> %MaxCore 64000
| 19>
| 20> %pal nprocs 4
| 21> end
| 22>
| 23> %scf
| 24>   MaxIter 150
| 25> end
| 26>
| 27>                          ****END OF INPUT****

CARTESIAN COORDINATES (ANGSTROEM)
---------------------------------
  C     -4.382620   -1.670890    1.216200
  N     -5.763540   -1.915170    0.705010
  C     -3.281730   -2.191270    0.294360
  H     -5.840810   -2.115200   -0.300650
  H     -6.408820   -1.148660    0.936120
  H     -6.174780   -2.790610    1.051430
  H     -4.328620   -2.139220    2.198100
  H     -4.261580   -0.597400    1.357250
  C     -3.474640   -3.605900   -0.259610
  H     -2.354550   -2.127600    0.871430
  H     -3.166610   -1.499690   -0.545040
  H     -2.646120   -3.859080   -0.887590
  H     -4.379340   -3.645450   -0.829560
  H     -3.533240   -4.301570    0.551260

 Total Charge           Charge          ....    1
 Multiplicity           Mult            ....    1
 Number of Electrons    NEL             ....   34
 Basis Dimension        Dim             ....  160

ORBITAL ENERGIES
----------------

  NO   OCC          E(Eh)            E(eV)
   0   2.0000     -14.351950      -390.5364
   1   2.0000     -10.169082      -276.7148
   2   2.0000     -10.100322      -274.8437
   3   2.0000     -10.073492      -274.1137
   4   2.0000      -1.115894       -30.3650
   5   2.0000      -0.890522       -24.2323
   6   2.0000      -0.814133       -22.1537
   7   2.0000      -0.740954       -20.1624
   8   2.0000      -0.727471       -19.7955
   9   2.0000      -0.708082       -19.2679
  10   2.0000      -0.636450       -17.3187
  11   2.0000      -0.584715       -15.9109
  12   2.0000      -0.557627       -15.1738
  13   2.0000      -0.536397       -14.5961
  14   2.0000      -0.485777       -13.2187
  15   2.0000      -0.481465       -13.1013
  16   2.0000      -0.464620       -12.6429
  17   0.0000      -0.216780        -5.8989
  18   0.0000      -0.165798        -4.5116
  19   0.0000      -0.163117        -4.4386
  20   0.0000      -0.139419        -3.7938
  21   0.0000      -0.114900        -3.1266

MULLIKEN ATOMIC CHARGES
-----------------------
   0 C :    0.927080
   1 N :   -0.689016
   2 C :   -0.126850
   3 H :    0.315325
   4 H :    0.300819
   5 H :    0.390701
   6 H :   -0.188424
   7 H :   -0.190194
   8 C :    1.186896
   9 H :   -0.174499
  10 H :   -0.179164
  11 H :   -0.205721
  12 H :   -0.238089
  13 H :   -0.128864
Sum of atomic charges:    1.0000000

LOEWDIN ATOMIC CHARGES
----------------------
   0 C :    0.103423
   1 N :    0.343498
   2 C :   -0.033130
   3 H :    0.085348
   4 H :    0.105047
   5 H :    0.101605
   6 H :    0.047862
   7 H :    0.046217
   8 C :    0.164152
   9 H :    0.042616
  10 H :    0.031441
  11 H :    0.003587
  12 H :   -0.034347
  13 H :   -0.007320

  Mayer bond orders larger than 0.100000
B(  0-C ,  1-N ) :   0.6838 B(  0-C ,  2-C ) :   1.2260 B(  0-C ,  6-H ) :   0.6885
B(  0-C ,  7-H ) :   0.7939 B(  0-C ,  9-H ) :   0.1834 B(  0-C , 10-H ) :   0.1590
B(  1-N ,  3-H ) :   0.7096 B(  1-N ,  4-H ) :   0.7948 B(  1-N ,  5-H ) :   0.7508
B(  1-N ,  6-H ) :   0.1781 B(  2-C ,  6-H ) :   0.1786 B(  2-C ,  7-H ) :   0.1125
B(  2-C ,  8-C ) :   1.3175 B(  2-C ,  9-H ) :   0.8328 B(  2-C , 10-H ) :   0.8282
B(  2-C , 11-H ) :   0.2937 B(  2-C , 12-H ) :   0.2410 B(  2-C , 13-H ) :   0.2489
B(  8-C , 11-H ) :   0.6397 B(  8-C , 12-H ) :   0.7279 B(  8-C , 13-H ) :   0.6889
B( 12-H , 13-H ) :   0.1029

Dispersion correction           -0.018847240
FINAL SINGLE POINT ENERGY      -174.634868369872

DIPOLE MOMENT
-------------
                                X             Y             Z
Electronic contribution:     -1.70055       1.30768       0.78252
Nuclear contribution   :     -0.18358      -0.73024      -0.44649
                        -----------------------------------------
Total Dipole Moment    :     -1.88413       0.57744       0.33603
                        -----------------------------------------
Magnitude (a.u.)       :      1.99907
Magnitude (Debye)      :      5.08123

Rotational constants in cm-1:     0.423641     0.164544     0.133152
Rotational constants in MHz : 12700.438743  4932.897948  3991.802402

                             ****ORCA TERMINATED NORMALLY****
TOTAL RUN TIME: 0 days 0 hours 0 minutes 4 seconds 855 msec
