                         Program Version 5.0.0 -  RELEASE  -
|  1> !BLYP D3BJ RIJCOSX def2-SVPD def2/J TightSCF
|  2> *xyz 0 1
|  3> C         -5.57236       -5.80780       -0.81644
|  4> S         -6.90318       -4.61903       -0.52846
|  5> F         -8.11485       -5.25093       -0.95701
|  6> O         -6.53271       -3.42684       -1.31485
|  7> O         -6.86563       -4.29496        0.91412
|  8> C         -3.82708       -4.66110        0.78617
|  9> C         -4.45780       -5.94187        0.22919
| 10> H         -5.17735       -5.54257       -1.79771
| 11> H         -6.07420       -6.76889       -0.92127
| 12> H         -3.68106       -6.56224       -0.22988
| 13> H         -4.84394       -6.51273        1.07581
| 14> H         -3.43706       -4.07576       -0.02016
| 15> H         -3.03403       -4.91680        1.45744
| 16> H         -4.56975       -4.09647        1.31013
| 17> *
| 18> %MaxCore 64000
| 19>
| 20> %pal nprocs 4
| 21> end
| 22>
| 23> %scf
| 24>   MaxIter 150
| 25> end
| 26>
| 27>                          ****END OF INPUT****

CARTESIAN COORDINATES (ANGSTROEM)
---------------------------------
  C     -5.572360   -5.807800   -0.816440
  S     -6.903180   -4.619030   -0.528460
  F     -8.114850   -5.250930   -0.957010
  O     -6.532710   -3.426840   -1.314850
  O     -6.865630   -4.294960    0.914120
  C     -3.827080   -4.661100    0.786170
  C     -4.457800   -5.941870    0.229190
  H     -5.177350   -5.542570   -1.797710
  H     -6.074200   -6.768890   -0.921270
  H     -3.681060   -6.562240   -0.229880
  H     -4.843940   -6.512730    1.075810
  H     -3.437060   -4.075760   -0.020160
  H     -3.034030   -4.916800    1.457440
  H     -4.569750   -4.096470    1.310130

 Total Charge           Charge          ....    0
 Multiplicity           Mult            ....    1
 Number of Electrons    NEL             ....   66
 Basis Dimension        Dim             ....  212

ORBITAL ENERGIES
----------------

  NO   OCC          E(Eh)            E(eV)
   0   2.0000     -88.383055     -2405.0252
   1   2.0000     -24.422517      -664.5705
   2   2.0000     -18.793136      -511.3872
   3   2.0000     -18.792875      -511.3801
   4   2.0000      -9.983108      -271.6542
   5   2.0000      -9.952321      -270.8164
   6   2.0000      -9.913596      -269.7627
   7   2.0000      -7.920599      -215.5304
   8   2.0000      -5.959996      -162.1797
   9   2.0000      -5.953382      -161.9997
  10   2.0000      -5.951831      -161.9576
  11   2.0000      -1.272838       -34.6357
  12   2.0000      -1.001188       -27.2437
  13   2.0000      -0.903061       -24.5735
  14   2.0000      -0.745171       -20.2771
  15   2.0000      -0.681381       -18.5413
  16   2.0000      -0.638144       -17.3648
  17   2.0000      -0.571058       -15.5393
  18   2.0000      -0.524939       -14.2843
  19   2.0000      -0.516723       -14.0607
  20   2.0000      -0.490332       -13.3426
  21   2.0000      -0.440171       -11.9777
  22   2.0000      -0.427601       -11.6356
  23   2.0000      -0.405821       -11.0429
  24   2.0000      -0.391923       -10.6648
  25   2.0000      -0.371123       -10.0988
  26   2.0000      -0.338262        -9.2046
  27   2.0000      -0.329869        -8.9762
  28   2.0000      -0.322908        -8.7868
  29   2.0000      -0.311847        -8.4858
  30   2.0000      -0.276584        -7.5262
  31   2.0000      -0.273114        -7.4318
  32   2.0000      -0.251800        -6.8518
  33   0.0000      -0.026378        -0.7178
  34   0.0000      -0.014360        -0.3908
  35   0.0000       0.014359         0.3907
  36   0.0000       0.019106         0.5199
  37   0.0000       0.021254         0.5784

MULLIKEN ATOMIC CHARGES
-----------------------
   0 C :    0.297532
   1 S :    1.345831
   2 F :   -0.385234
   3 O :   -0.600002
   4 O :   -0.659232
   5 C :    1.226415
   6 C :    0.009868
   7 H :   -0.080198
   8 H :   -0.134247
   9 H :   -0.237434
  10 H :   -0.146050
  11 H :   -0.169694
  12 H :   -0.178211
  13 H :   -0.289343
Sum of atomic charges:    0.0000000

LOEWDIN ATOMIC CHARGES
----------------------
   0 C :   -0.042982
   1 S :    1.094403
   2 F :   -0.242912
   3 O :   -0.459722
   4 O :   -0.456516
   5 C :    0.157048
   6 C :   -0.052875
   7 H :    0.016810
   8 H :    0.005532
   9 H :    0.026485
  10 H :    0.024087
  11 H :   -0.012872
  12 H :   -0.017458
  13 H :   -0.039029

  Mayer bond orders larger than 0.100000
B(  0-C ,  1-S ) :   0.8862 B(  0-C ,  6-C ) :   1.3249 B(  0-C ,  7-H ) :   0.8410
B(  0-C ,  8-H ) :   0.7764 B(  0-C ,  9-H ) :   0.2234 B(  0-C , 10-H ) :   0.1792
B(  1-S ,  2-F ) :   0.7450 B(  1-S ,  3-O ) :   1.4986 B(  1-S ,  4-O ) :   1.4588
B(  5-C ,  6-C ) :   1.2889 B(  5-C , 10-H ) :   0.1113 B(  5-C , 11-H ) :   0.6473
B(  5-C , 12-H ) :   0.5943 B(  5-C , 13-H ) :   0.7038 B(  6-C ,  7-H ) :   0.1606
B(  6-C ,  8-H ) :   0.1959 B(  6-C ,  9-H ) :   0.7116 B(  6-C , 10-H ) :   0.8028
B(  6-C , 11-H ) :   0.2702 B(  6-C , 12-H ) :   0.2853 B(  6-C , 13-H ) :   0.2673
B( 11-H , 13-H ) :   0.1096

Dispersion correction           -0.026696494
FINAL SINGLE POINT ENERGY      -766.461412088792

DIPOLE MOMENT
-------------
                                X             Y             Z
Electronic contribution:    -13.37581       2.48342      -3.86147
Nuclear contribution   :     13.81909      -4.05404       3.42760
                        -----------------------------------------
Total Dipole Moment    :      0.44328      -1.57062      -0.43387
                        -----------------------------------------
Magnitude (a.u.)       :      1.68866
Magnitude (Debye)      :      4.29224

Rotational constants in cm-1:     0.132500     0.053014     0.049575
Rotational constants in MHz :  3972.256497  1589.318970  1486.215991

                             ****ORCA TERMINATED NORMALLY****
TOTAL RUN TIME: 0 days 0 hours 0 minutes 8 seconds 811 msec
