                         Program Version 5.0.0 -  RELEASE  -
|  1> !BLYP D3BJ RIJCOSX def2-SVPD def2/J TightSCF
|  2> *xyz 0 1
|  3> C         -4.38262       -1.67089        1.21620
|  4> C         -5.76354       -1.91517        0.70501
|  5> C         -3.28173       -2.19127        0.29436
|  6> H         -5.84081       -2.11520       -0.30065
|  7> H         -6.40882       -1.14866        0.93612
|  8> H         -6.17478       -2.79061        1.05143
|  9> H         -4.32862       -2.13922        2.19810
| 10> H         -4.26158       -0.59740        1.35725
| 11> C         -3.47464       -3.60590       -0.25961
| 12> H         -2.35455       -2.12760        0.87143
| 13> H         -3.16661       -1.49969       -0.54504
| 14> H         -2.64612       -3.85908       -0.88759
| 15> H         -4.37934       -3.64545       -0.82956
| 16> H         -3.53324       -4.30157        0.55126
| 17> *
| 18> %MaxCore 64000
| 19>
| 20> %pal nprocs 4
| 21> end
| 22>
| 23> %scf
| 24>   MaxIter 150
| 25> end
| 26>
| 27>                          ****END OF INPUT****

CARTESIAN COORDINATES (ANGSTROEM)
---------------------------------
  C     -4.382620   -1.670890    1.216200
  C     -5.763540   -1.915170    0.705010
  C     -3.281730   -2.191270    0.294360
  H     -5.840810   -2.115200   -0.300650
  H     -6.408820   -1.148660    0.936120
  H     -6.174780   -2.790610    1.051430
  H     -4.328620   -2.139220    2.198100
  H     -4.261580   -0.597400    1.357250
  C     -3.474640   -3.605900   -0.259610
  H     -2.354550   -2.127600    0.871430
  H     -3.166610   -1.499690   -0.545040
  H     -2.646120   -3.859080   -0.887590
  H     -4.379340   -3.645450   -0.829560
  H     -3.533240   -4.301570    0.551260

 Total Charge           Charge          ....    0
 Multiplicity           Mult            ....    1
 Number of Electrons    NEL             ....   34
 Basis Dimension        Dim             ....  160

ORBITAL ENERGIES
----------------

  NO   OCC          E(Eh)            E(eV)
   0   2.0000      -9.911862      -269.7155
   1   2.0000      -9.908820      -269.6327
   2   2.0000      -9.903547      -269.4892
   3   2.0000      -9.885323      -268.9933
   4   2.0000      -0.712790       -19.3960
   5   2.0000      -0.646267       -17.5858
   6   2.0000      -0.575629       -15.6637
   7   2.0000      -0.498317       -13.5599
   8   2.0000      -0.411842       -11.2068
   9   2.0000      -0.406931       -11.0732
  10   2.0000      -0.367954       -10.0125
  11   2.0000      -0.347718        -9.4619
  12   2.0000      -0.336119        -9.1463
  13   2.0000      -0.313078        -8.5193
  14   2.0000      -0.285243        -7.7619
  15   2.0000      -0.278281        -7.5724
  16   2.0000      -0.269592        -7.3360
  17   0.0000       0.005470         0.1488
  18   0.0000       0.031241         0.8501
  19   0.0000       0.036466         0.9923
  20   0.0000       0.046670         1.2700
  21   0.0000       0.070107         1.9077

MULLIKEN ATOMIC CHARGES
-----------------------
   0 C :    0.106940
   1 C :    1.447506
   2 C :   -0.046760
   3 H :   -0.494850
   4 H :   -0.532750
   5 H :   -0.201307
   6 H :   -0.232093
   7 H :   -0.199542
   8 C :    1.098202
   9 H :   -0.223558
  10 H :   -0.148899
  11 H :   -0.206793
  12 H :   -0.188213
  13 H :   -0.177882
Sum of atomic charges:   -0.0000000

LOEWDIN ATOMIC CHARGES
----------------------
   0 C :   -0.054141
   1 C :    0.132909
   2 C :   -0.068834
   3 H :   -0.050293
   4 H :   -0.038440
   5 H :   -0.035991
   6 H :    0.015632
   7 H :    0.014228
   8 C :    0.140127
   9 H :    0.009874
  10 H :    0.015419
  11 H :   -0.024683
  12 H :   -0.035206
  13 H :   -0.020603

  Mayer bond orders larger than 0.100000
B(  0-C ,  1-C ) :   1.2261 B(  0-C ,  2-C ) :   1.2559 B(  0-C ,  3-H ) :   0.3164
B(  0-C ,  4-H ) :   0.2403 B(  0-C ,  5-H ) :   0.2946 B(  0-C ,  6-H ) :   0.7145
B(  0-C ,  7-H ) :   0.7761 B(  0-C ,  9-H ) :   0.2293 B(  0-C , 10-H ) :   0.1859
B(  1-C ,  2-C ) :   0.1419 B(  1-C ,  3-H ) :   0.4111 B(  1-C ,  4-H ) :   0.5266
B(  1-C ,  5-H ) :   0.4311 B(  1-C ,  6-H ) :   0.1645 B(  2-C ,  6-H ) :   0.1798
B(  2-C ,  7-H ) :   0.1004 B(  2-C ,  8-C ) :   1.3268 B(  2-C ,  9-H ) :   0.7726
B(  2-C , 10-H ) :   0.7827 B(  2-C , 11-H ) :   0.2885 B(  2-C , 12-H ) :   0.2527
B(  2-C , 13-H ) :   0.2452 B(  3-H ,  5-H ) :   0.3654 B(  8-C , 10-H ) :   0.1214
B(  8-C , 11-H ) :   0.6124 B(  8-C , 12-H ) :   0.7471 B(  8-C , 13-H ) :   0.6946
B( 12-H , 13-H ) :   0.1080

Dispersion correction           -0.018976605
FINAL SINGLE POINT ENERGY      -158.223520120548

DIPOLE MOMENT
-------------
                                X             Y             Z
Electronic contribution:      0.63778       0.59644       0.37858
Nuclear contribution   :     -0.64996      -0.59433      -0.37777
                        -----------------------------------------
Total Dipole Moment    :     -0.01218       0.00211       0.00080
                        -----------------------------------------
Magnitude (a.u.)       :      0.01238
Magnitude (Debye)      :      0.03148

Rotational constants in cm-1:     0.431358     0.171688     0.138554
Rotational constants in MHz : 12931.797515  5147.084397  4153.759343

                             ****ORCA TERMINATED NORMALLY****
TOTAL RUN TIME: 0 days 0 hours 0 minutes 4 seconds 827 msec
