                         Program Version 5.0.0 -  RELEASE  -
|  1> !BLYP D3BJ RIJCOSX def2-SVPD def2/J TightSCF
|  2> *xyz 0 1
|  3> C         -5.57236       -5.80780       -0.81644
|  4> S         -6.90318       -4.61903       -0.52846
|  5> O         -8.11485       -5.25093       -0.95701
|  6> F         -6.53271       -3.42684       -1.31485
|  7> O         -6.86563       -4.29496        0.91412
|  8> C         -3.82708       -4.66110        0.78617
|  9> C         -4.45780       -5.94187        0.22919
| 10> H         -5.17735       -5.54257       -1.79771
| 11> H         -6.07420       -6.76889       -0.92127
| 12> H         -3.68106       -6.56224       -0.22988
| 13> H         -4.84394       -6.51273        1.07581
| 14> H         -3.43706       -4.07576       -0.02016
| 15> H         -3.03403       -4.91680        1.45744
| 16> H         -4.56975       -4.09647        1.31013
| 17> *
| 18> %MaxCore 64000
| 19>
| 20> %pal nprocs 4
| 21> end
| 22>
| 23> %scf
| 24>   MaxIter 150
| 25> end
| 26>
| 27>                          ****END OF INPUT****

CARTESIAN COORDINATES (ANGSTROEM)
---------------------------------
  C     -5.572360   -5.807800   -0.816440
  S     -6.903180   -4.619030   -0.528460
  O     -8.114850   -5.250930   -0.957010
  F     -6.532710   -3.426840   -1.314850
  O     -6.865630   -4.294960    0.914120
  C     -3.827080   -4.661100    0.786170
  C     -4.457800   -5.941870    0.229190
  H     -5.177350   -5.542570   -1.797710
  H     -6.074200   -6.768890   -0.921270
  H     -3.681060   -6.562240   -0.229880
  H     -4.843940   -6.512730    1.075810
  H     -3.437060   -4.075760   -0.020160
  H     -3.034030   -4.916800    1.457440
  H     -4.569750   -4.096470    1.310130

 Total Charge           Charge          ....    0
 Multiplicity           Mult            ....    1
 Number of Electrons    NEL             ....   66
 Basis Dimension        Dim             ....  212

ORBITAL ENERGIES
----------------

  NO   OCC          E(Eh)            E(eV)
   0   2.0000     -88.380971     -2404.9685
   1   2.0000     -24.401809      -664.0070
   2   2.0000     -18.806438      -511.7492
   3   2.0000     -18.792429      -511.3680
   4   2.0000      -9.982560      -271.6393
   5   2.0000      -9.951839      -270.8033
   6   2.0000      -9.919264      -269.9169
   7   2.0000      -7.918508      -215.4736
   8   2.0000      -5.957739      -162.1183
   9   2.0000      -5.951481      -161.9480
  10   2.0000      -5.949909      -161.9052
  11   2.0000      -1.237185       -33.6655
  12   2.0000      -1.016709       -27.6661
  13   2.0000      -0.918478       -24.9931
  14   2.0000      -0.745832       -20.2951
  15   2.0000      -0.675175       -18.3724
  16   2.0000      -0.629381       -17.1263
  17   2.0000      -0.567937       -15.4543
  18   2.0000      -0.505090       -13.7442
  19   2.0000      -0.498530       -13.5657
  20   2.0000      -0.489084       -13.3086
  21   2.0000      -0.443348       -12.0641
  22   2.0000      -0.426337       -11.6012
  23   2.0000      -0.402821       -10.9613
  24   2.0000      -0.394530       -10.7357
  25   2.0000      -0.385168       -10.4809
  26   2.0000      -0.341584        -9.2950
  27   2.0000      -0.335801        -9.1376
  28   2.0000      -0.329152        -8.9567
  29   2.0000      -0.315532        -8.5861
  30   2.0000      -0.288232        -7.8432
  31   2.0000      -0.277994        -7.5646
  32   2.0000      -0.261766        -7.1230
  33   0.0000      -0.024558        -0.6683
  34   0.0000      -0.012391        -0.3372
  35   0.0000       0.009954         0.2709
  36   0.0000       0.017500         0.4762
  37   0.0000       0.026650         0.7252

MULLIKEN ATOMIC CHARGES
-----------------------
   0 C :    0.293912
   1 S :    1.301247
   2 O :   -0.588960
   3 F :   -0.357697
   4 O :   -0.658833
   5 C :    1.220315
   6 C :    0.039626
   7 H :   -0.082815
   8 H :   -0.142046
   9 H :   -0.235626
  10 H :   -0.147194
  11 H :   -0.180057
  12 H :   -0.171534
  13 H :   -0.290340
Sum of atomic charges:   -0.0000000

LOEWDIN ATOMIC CHARGES
----------------------
   0 C :   -0.036622
   1 S :    1.090562
   2 O :   -0.436419
   3 F :   -0.261388
   4 O :   -0.452671
   5 C :    0.151367
   6 C :   -0.057348
   7 H :    0.011877
   8 H :    0.018178
   9 H :    0.024434
  10 H :    0.026343
  11 H :   -0.017942
  12 H :   -0.016765
  13 H :   -0.043605

  Mayer bond orders larger than 0.100000
B(  0-C ,  1-S ) :   0.8950 B(  0-C ,  6-C ) :   1.3148 B(  0-C ,  7-H ) :   0.8162
B(  0-C ,  8-H ) :   0.8172 B(  0-C ,  9-H ) :   0.2175 B(  0-C , 10-H ) :   0.1859
B(  1-S ,  2-O ) :   1.6135 B(  1-S ,  3-F ) :   0.6684 B(  1-S ,  4-O ) :   1.4942
B(  2-O ,  4-O ) :   0.1055 B(  5-C ,  6-C ) :   1.2884 B(  5-C , 10-H ) :   0.1103
B(  5-C , 11-H ) :   0.6455 B(  5-C , 12-H ) :   0.6046 B(  5-C , 13-H ) :   0.7036
B(  6-C ,  7-H ) :   0.1688 B(  6-C ,  8-H ) :   0.1743 B(  6-C ,  9-H ) :   0.7139
B(  6-C , 10-H ) :   0.8018 B(  6-C , 11-H ) :   0.2653 B(  6-C , 12-H ) :   0.2827
B(  6-C , 13-H ) :   0.2642 B( 11-H , 13-H ) :   0.1048

Dispersion correction           -0.026585235
FINAL SINGLE POINT ENERGY      -766.479293857256

DIPOLE MOMENT
-------------
                                X             Y             Z
Electronic contribution:    -10.68961       5.57438      -4.46840
Nuclear contribution   :     12.11759      -6.01574       3.81244
                        -----------------------------------------
Total Dipole Moment    :      1.42798      -0.44136      -0.65597
                        -----------------------------------------
Magnitude (a.u.)       :      1.63224
Magnitude (Debye)      :      4.14883

Rotational constants in cm-1:     0.128152     0.053825     0.050608
Rotational constants in MHz :  3841.897096  1613.621976  1517.196867

                             ****ORCA TERMINATED NORMALLY****
TOTAL RUN TIME: 0 days 0 hours 0 minutes 8 seconds 461 msec
