                         Program Version 5.0.0 -  RELEASE  -
|  1> !BLYP D3BJ RIJCOSX def2-SVPD def2/J TightSCF
|  2> *xyz 0 1
|  3> C         -5.57236       -5.80780       -0.81644
|  4> S         -6.90318       -4.61903       -0.52846
|  5> O         -8.11485       -5.25093       -0.95701
|  6> O         -6.53271       -3.42684       -1.31485
|  7> F         -6.86563       -4.29496        0.91412
|  8> C         -3.82708       -4.66110        0.78617
|  9> C         -4.45780       -5.94187        0.22919
| 10> H         -5.17735       -5.54257       -1.79771
| 11> H         -6.07420       -6.76889       -0.92127
| 12> H         -3.68106       -6.56224       -0.22988
| 13> H         -4.84394       -6.51273        1.07581
| 14> H         -3.43706       -4.07576       -0.02016
| 15> H         -3.03403       -4.91680        1.45744
| 16> H         -4.56975       -4.09647        1.31013
| 17> *
| 18> %MaxCore 64000
| 19>
| 20> %pal nprocs 4
| 21> end
| 22>
| 23> %scf
| 24>   MaxIter 150
| 25> end
| 26>
| 27>                          ****END OF INPUT****

CARTESIAN COORDINATES (ANGSTROEM)
---------------------------------
  C     -5.572360   -5.807800   -0.816440
  S     -6.903180   -4.619030   -0.528460
  O     -8.114850   -5.250930   -0.957010
  O     -6.532710   -3.426840   -1.314850
  F     -6.865630   -4.294960    0.914120
  C     -3.827080   -4.661100    0.786170
  C     -4.457800   -5.941870    0.229190
  H     -5.177350   -5.542570   -1.797710
  H     -6.074200   -6.768890   -0.921270
  H     -3.681060   -6.562240   -0.229880
  H     -4.843940   -6.512730    1.075810
  H     -3.437060   -4.075760   -0.020160
  H     -3.034030   -4.916800    1.457440
  H     -4.569750   -4.096470    1.310130

 Total Charge           Charge          ....    0
 Multiplicity           Mult            ....    1
 Number of Electrons    NEL             ....   66
 Basis Dimension        Dim             ....  212

ORBITAL ENERGIES
----------------

  NO   OCC          E(Eh)            E(eV)
   0   2.0000     -88.379792     -2404.9364
   1   2.0000     -24.400706      -663.9770
   2   2.0000     -18.805634      -511.7273
   3   2.0000     -18.791167      -511.3336
   4   2.0000      -9.981453      -271.6091
   5   2.0000      -9.958091      -270.9734
   6   2.0000      -9.929249      -270.1886
   7   2.0000      -7.917357      -215.4422
   8   2.0000      -5.956649      -162.0887
   9   2.0000      -5.950350      -161.9173
  10   2.0000      -5.948692      -161.8721
  11   2.0000      -1.234787       -33.6003
  12   2.0000      -1.016597       -27.6630
  13   2.0000      -0.917840       -24.9757
  14   2.0000      -0.749625       -20.3983
  15   2.0000      -0.676236       -18.4013
  16   2.0000      -0.630705       -17.1624
  17   2.0000      -0.574047       -15.6206
  18   2.0000      -0.512669       -13.9504
  19   2.0000      -0.498923       -13.5764
  20   2.0000      -0.479163       -13.0387
  21   2.0000      -0.443628       -12.0717
  22   2.0000      -0.422678       -11.5017
  23   2.0000      -0.414207       -11.2711
  24   2.0000      -0.396433       -10.7875
  25   2.0000      -0.384419       -10.4606
  26   2.0000      -0.346939        -9.4407
  27   2.0000      -0.340815        -9.2741
  28   2.0000      -0.334467        -9.1013
  29   2.0000      -0.320833        -8.7303
  30   2.0000      -0.288447        -7.8490
  31   2.0000      -0.275398        -7.4940
  32   2.0000      -0.262336        -7.1385
  33   0.0000      -0.032774        -0.8918
  34   0.0000      -0.000118        -0.0032
  35   0.0000       0.012553         0.3416
  36   0.0000       0.018523         0.5040
  37   0.0000       0.020671         0.5625

MULLIKEN ATOMIC CHARGES
-----------------------
   0 C :    0.325679
   1 S :    1.270084
   2 O :   -0.589490
   3 O :   -0.608049
   4 F :   -0.391675
   5 C :    1.233796
   6 C :    0.021440
   7 H :   -0.085565
   8 H :   -0.134758
   9 H :   -0.222000
  10 H :   -0.170577
  11 H :   -0.171516
  12 H :   -0.168524
  13 H :   -0.308844
Sum of atomic charges:   -0.0000000

LOEWDIN ATOMIC CHARGES
----------------------
   0 C :   -0.031703
   1 S :    1.083624
   2 O :   -0.436735
   3 O :   -0.461407
   4 F :   -0.261939
   5 C :    0.153028
   6 C :   -0.064622
   7 H :    0.025111
   8 H :    0.012888
   9 H :    0.025510
  10 H :    0.020784
  11 H :   -0.010292
  12 H :   -0.015551
  13 H :   -0.038696

  Mayer bond orders larger than 0.100000
B(  0-C ,  1-S ) :   0.9065 B(  0-C ,  6-C ) :   1.2914 B(  0-C ,  7-H ) :   0.8262
B(  0-C ,  8-H ) :   0.8161 B(  0-C ,  9-H ) :   0.2203 B(  0-C , 10-H ) :   0.1747
B(  1-S ,  2-O ) :   1.5989 B(  1-S ,  3-O ) :   1.5089 B(  1-S ,  4-F ) :   0.6767
B(  2-O ,  3-O ) :   0.1102 B(  5-C ,  6-C ) :   1.2876 B(  5-C , 10-H ) :   0.1066
B(  5-C , 11-H ) :   0.6519 B(  5-C , 12-H ) :   0.5970 B(  5-C , 13-H ) :   0.6951
B(  6-C ,  7-H ) :   0.1696 B(  6-C ,  8-H ) :   0.1809 B(  6-C ,  9-H ) :   0.7120
B(  6-C , 10-H ) :   0.8124 B(  6-C , 11-H ) :   0.2740 B(  6-C , 12-H ) :   0.2837
B(  6-C , 13-H ) :   0.2650 B( 11-H , 13-H ) :   0.1195

Dispersion correction           -0.026431418
FINAL SINGLE POINT ENERGY      -766.479209786811

DIPOLE MOMENT
-------------
                                X             Y             Z
Electronic contribution:    -11.18348       4.07231      -0.70740
Nuclear contribution   :     12.47562      -5.08213       1.41531
                        -----------------------------------------
Total Dipole Moment    :      1.29214      -1.00981       0.70791
                        -----------------------------------------
Magnitude (a.u.)       :      1.78619
Magnitude (Debye)      :      4.54014

Rotational constants in cm-1:     0.128398     0.054249     0.051014
Rotational constants in MHz :  3849.278549  1626.338413  1529.351405

                             ****ORCA TERMINATED NORMALLY****
TOTAL RUN TIME: 0 days 0 hours 0 minutes 8 seconds 637 msec
